<?xml version="1.0" encoding="ISO-8859-1"?>
<modeling>
 <generator>
  <i name="program" type="string">vasp </i>
  <i name="version" type="string">5.3.5  </i>
  <i name="subversion" type="string">31Mar14 (build Jun 20 2014 13:15:13) complex                          parallel </i>
  <i name="platform" type="string">LinuxIFC </i>
  <i name="date" type="string">2025 12 16 </i>
  <i name="time" type="string">17:36:57 </i>
 </generator>
 <incar>
  <i type="string" name="PREC">accurate</i>
  <i type="int" name="IALGO">    68</i>
  <i type="logical" name="ADDGRID"> T  </i>
  <i type="int" name="NELM">   100</i>
  <i type="int" name="NELMIN">     4</i>
  <i type="int" name="IBRION">     2</i>
  <i name="EDIFF">      0.00000100</i>
  <i name="EDIFFG">     -0.02000000</i>
  <i type="int" name="NSW">    30</i>
  <i type="int" name="ISIF">     3</i>
  <i name="ENCUT">    600.00000000</i>
  <i type="logical" name="LREAL"> F  </i>
  <i type="int" name="ISMEAR">     0</i>
  <i name="SIGMA">      0.10000000</i>
  <i type="logical" name="LWAVE"> F  </i>
  <i type="logical" name="LCHARG"> F  </i>
  <i type="int" name="NELM">   100</i>
 </incar>
 <kpoints>
  <generation param="Auto">
   <i name="subdivisionlength">     20.00000000 </i>
   <v type="int" name="divisions">       3        6        3 </v>
   <v name="usershift">      0.00000000       0.00000000       0.00000000 </v>
   <v name="genvec1">      0.33333333       0.00000000       0.00000000 </v>
   <v name="genvec2">      0.00000000       0.16666667       0.00000000 </v>
   <v name="genvec3">      0.00000000       0.00000000       0.33333333 </v>
   <v name="shift">      0.00000000       0.00000000       0.00000000 </v>
  </generation>
  <varray name="kpointlist" >
   <v>       0.00000000       0.00000000       0.00000000 </v>
   <v>       0.33333333       0.00000000       0.00000000 </v>
   <v>       0.00000000       0.16666667       0.00000000 </v>
   <v>       0.33333333       0.16666667       0.00000000 </v>
   <v>       0.00000000       0.33333333       0.00000000 </v>
   <v>       0.33333333       0.33333333       0.00000000 </v>
   <v>       0.00000000       0.50000000       0.00000000 </v>
   <v>       0.33333333       0.50000000       0.00000000 </v>
   <v>       0.00000000       0.00000000       0.33333333 </v>
   <v>       0.33333333       0.00000000       0.33333333 </v>
   <v>      -0.33333333       0.00000000       0.33333333 </v>
   <v>       0.00000000       0.16666667       0.33333333 </v>
   <v>       0.33333333       0.16666667       0.33333333 </v>
   <v>      -0.33333333       0.16666667       0.33333333 </v>
   <v>       0.00000000       0.33333333       0.33333333 </v>
   <v>       0.33333333       0.33333333       0.33333333 </v>
   <v>      -0.33333333       0.33333333       0.33333333 </v>
   <v>       0.00000000       0.50000000       0.33333333 </v>
   <v>       0.33333333       0.50000000       0.33333333 </v>
   <v>      -0.33333333       0.50000000       0.33333333 </v>
  </varray>
  <varray name="weights" >
   <v>       0.01851852 </v>
   <v>       0.03703704 </v>
   <v>       0.03703704 </v>
   <v>       0.07407407 </v>
   <v>       0.03703704 </v>
   <v>       0.07407407 </v>
   <v>       0.01851852 </v>
   <v>       0.03703704 </v>
   <v>       0.03703704 </v>
   <v>       0.03703704 </v>
   <v>       0.03703704 </v>
   <v>       0.07407407 </v>
   <v>       0.07407407 </v>
   <v>       0.07407407 </v>
   <v>       0.07407407 </v>
   <v>       0.07407407 </v>
   <v>       0.07407407 </v>
   <v>       0.03703704 </v>
   <v>       0.03703704 </v>
   <v>       0.03703704 </v>
  </varray>
 </kpoints>
 <parameters>
  <separator name="general" >
   <i type="string" name="SYSTEM">unknown system</i>
   <i type="logical" name="LCOMPAT"> F  </i>
  </separator>
  <separator name="electronic" >
   <i type="string" name="PREC">accura</i>
   <i name="ENMAX">    600.00000000</i>
   <i name="ENAUG">    644.87300000</i>
   <i name="EDIFF">      0.00000100</i>
   <i type="int" name="IALGO">    68</i>
   <i type="int" name="IWAVPR">    11</i>
   <i type="int" name="NBANDS">    44</i>
   <i name="NELECT">     64.00000000</i>
   <i type="int" name="TURBO">     0</i>
   <i type="int" name="IRESTART">     0</i>
   <i type="int" name="NREBOOT">     0</i>
   <i type="int" name="NMIN">     0</i>
   <i name="EREF">      0.00000000</i>
   <separator name="electronic smearing" >
    <i type="int" name="ISMEAR">     0</i>
    <i name="SIGMA">      0.10000000</i>
    <i name="KSPACING">      0.50000000</i>
    <i type="logical" name="KGAMMA"> T  </i>
   </separator>
   <separator name="electronic projectors" >
    <i type="logical" name="LREAL"> F  </i>
    <v name="ROPT">      0.00000000      0.00000000      0.00000000      0.00000000</v>
    <i type="int" name="LMAXPAW">  -100</i>
    <i type="int" name="LMAXMIX">     2</i>
    <i type="logical" name="NLSPLINE"> F  </i>
   </separator>
   <separator name="electronic startup" >
    <i type="int" name="ISTART">     0</i>
    <i type="int" name="ICHARG">     2</i>
    <i type="int" name="INIWAV">     1</i>
   </separator>
   <separator name="electronic spin" >
    <i type="int" name="ISPIN">     1</i>
    <i type="logical" name="LNONCOLLINEAR"> F  </i>
    <v name="MAGMOM">      1.00000000      1.00000000      1.00000000      1.00000000      1.00000000      1.00000000      1.00000000      1.00000000      1.00000000      1.00000000      1.00000000      1.00000000      1.00000000      1.00000000      1.00000000      1.00000000</v>
    <i name="NUPDOWN">     -1.00000000</i>
    <i type="logical" name="LSORBIT"> F  </i>
    <v name="SAXIS">      0.00000000      0.00000000      1.00000000</v>
    <i type="logical" name="LSPIRAL"> F  </i>
    <v name="QSPIRAL">      0.00000000      0.00000000      0.00000000</v>
    <i type="logical" name="LZEROZ"> F  </i>
   </separator>
   <separator name="electronic exchange-correlation" >
    <i type="logical" name="LASPH"> F  </i>
    <i type="logical" name="LMETAGGA"> F  </i>
   </separator>
   <separator name="electronic convergence" >
    <i type="int" name="NELM">   100</i>
    <i type="int" name="NELMDL">     0</i>
    <i type="int" name="NELMIN">     4</i>
    <i name="ENINI">    600.00000000</i>
    <separator name="electronic convergence detail" >
     <i type="logical" name="LDIAG"> T  </i>
     <i type="logical" name="LSUBROT"> F  </i>
     <i name="WEIMIN">      0.00100000</i>
     <i name="EBREAK">      0.00000001</i>
     <i name="DEPER">      0.30000000</i>
     <i type="int" name="NRMM">     4</i>
     <i name="TIME">      0.40000000</i>
    </separator>
   </separator>
   <separator name="electronic mixer" >
    <i name="AMIX">      0.40000000</i>
    <i name="BMIX">      1.00000000</i>
    <i name="AMIN">      0.10000000</i>
    <i name="AMIX_MAG">      1.60000000</i>
    <i name="BMIX_MAG">      1.00000000</i>
    <separator name="electronic mixer details" >
     <i type="int" name="IMIX">     4</i>
     <i type="int" name="MAXMIX">   -45</i>
     <i name="WC">    100.00000000</i>
     <i type="int" name="INIMIX">     1</i>
     <i type="int" name="MIXPRE">     1</i>
     <i type="int" name="MREMOVE">     5</i>
    </separator>
   </separator>
   <separator name="electronic dipolcorrection" >
    <i type="logical" name="LDIPOL"> F  </i>
    <i type="logical" name="LMONO"> F  </i>
    <i type="int" name="IDIPOL">     0</i>
    <i name="EPSILON">      1.00000000</i>
    <v name="DIPOL">   -100.00000000   -100.00000000   -100.00000000</v>
    <i name="EFIELD">      0.00000000</i>
   </separator>
  </separator>
  <separator name="grids" >
   <i type="int" name="NGX">    60</i>
   <i type="int" name="NGY">    28</i>
   <i type="int" name="NGZ">    60</i>
   <i type="int" name="NGXF">   120</i>
   <i type="int" name="NGYF">    56</i>
   <i type="int" name="NGZF">   120</i>
   <i type="logical" name="ADDGRID"> T  </i>
  </separator>
  <separator name="ionic" >
   <i type="int" name="NSW">    30</i>
   <i type="int" name="IBRION">     2</i>
   <i type="int" name="ISIF">     3</i>
   <i name="PSTRESS">      0.00000000</i>
   <i name="EDIFFG">     -0.02000000</i>
   <i type="int" name="NFREE">     1</i>
   <i name="POTIM">      0.50000000</i>
   <i name="SMASS">     -3.00000000</i>
   <i name="SCALEE">      1.00000000</i>
  </separator>
  <separator name="ionic md" >
   <i name="TEBEG">      0.00010000</i>
   <i name="TEEND">      0.00010000</i>
   <i type="int" name="NBLOCK">     1</i>
   <i type="int" name="KBLOCK">    30</i>
   <i type="int" name="NPACO">   256</i>
   <i name="APACO">     16.00000000</i>
  </separator>
  <separator name="symmetry" >
   <i type="int" name="ISYM">     2</i>
   <i name="SYMPREC">      0.00001000</i>
  </separator>
  <separator name="dos" >
   <i type="logical" name="LORBIT"> F  </i>
   <v name="RWIGS">     -1.00000000     -1.00000000     -1.00000000     -1.00000000</v>
   <i type="int" name="NEDOS">   301</i>
   <i name="EMIN">     10.00000000</i>
   <i name="EMAX">    -10.00000000</i>
   <i name="EFERMI">      0.00000000</i>
  </separator>
  <separator name="writing" >
   <i type="int" name="NWRITE">     2</i>
   <i type="logical" name="LWAVE"> F  </i>
   <i type="logical" name="LCHARG"> F  </i>
   <i type="logical" name="LPARD"> F  </i>
   <i type="logical" name="LVTOT"> F  </i>
   <i type="logical" name="LVHAR"> F  </i>
   <i type="logical" name="LELF"> F  </i>
   <i type="logical" name="LOPTICS"> F  </i>
   <v name="STM">      0.00000000      0.00000000      0.00000000      0.00000000      0.00000000      0.00000000      0.00000000</v>
  </separator>
  <separator name="performance" >
   <i type="int" name="NPAR">     4</i>
   <i type="int" name="NSIM">     4</i>
   <i type="int" name="NBLK">    -1</i>
   <i type="logical" name="LPLANE"> T  </i>
   <i type="logical" name="LSCALAPACK"> T  </i>
   <i type="logical" name="LSCAAWARE"> F  </i>
   <i type="logical" name="LSCALU"> F  </i>
   <i type="logical" name="LASYNC"> F  </i>
   <i type="logical" name="LORBITALREAL"> F  </i>
  </separator>
  <separator name="miscellaneous" >
   <i type="int" name="IDIOT">     3</i>
   <i type="logical" name="LMUSIC"> F  </i>
   <v name="POMASS">     28.08500000     26.98100000     12.01100000     14.00100000</v>
   <v name="DARWINR">      0.00000000      0.00000000      0.00000000      0.00000000</v>
   <v name="DARWINV">      1.00000000      1.00000000      1.00000000      1.00000000</v>
   <i type="logical" name="LCORR"> T  </i>
  </separator>
  <i type="logical" name="GGA_COMPAT"> T  </i>
  <i type="logical" name="LBERRY"> F  </i>
  <i type="int" name="ICORELEVEL">     0</i>
  <i type="logical" name="LDAU"> F  </i>
  <i type="int" name="I_CONSTRAINED_M">     0</i>
  <separator name="electronic exchange-correlation" >
   <i type="string" name="GGA">--</i>
   <i type="int" name="VOSKOWN">     0</i>
   <i type="logical" name="LHFCALC"> F  </i>
   <i type="string" name="PRECFOCK"></i>
   <i type="logical" name="LSYMGRAD"> F  </i>
   <i type="logical" name="LHFONE"> F  </i>
   <i type="logical" name="LRHFCALC"> F  </i>
   <i type="logical" name="LTHOMAS"> F  </i>
   <i type="logical" name="LMODELHF"> F  </i>
   <i name="ENCUT4O">     -1.00000000</i>
   <i type="int" name="EXXOEP">     0</i>
   <i type="int" name="FOURORBIT">     0</i>
   <i name="AEXX">      0.00000000</i>
   <i name="HFALPHA">      0.00000000</i>
   <i name="MCALPHA">      0.00000000</i>
   <i name="ALDAX">      1.00000000</i>
   <i name="AGGAX">      1.00000000</i>
   <i name="ALDAC">      1.00000000</i>
   <i name="AGGAC">      1.00000000</i>
   <i type="int" name="NKREDX">     1</i>
   <i type="int" name="NKREDY">     1</i>
   <i type="int" name="NKREDZ">     1</i>
   <i type="logical" name="SHIFTRED"> F  </i>
   <i type="logical" name="ODDONLY"> F  </i>
   <i type="logical" name="EVENONLY"> F  </i>
   <i type="int" name="LMAXFOCK">     0</i>
   <i type="int" name="NMAXFOCKAE">     0</i>
   <i type="logical" name="LFOCKAEDFT"> F  </i>
   <i name="HFSCREEN">      0.00000000</i>
   <i name="HFSCREENC">      0.00000000</i>
   <i type="int" name="NBANDSGWLOW">     0</i>
  </separator>
  <separator name="vdW DFT" >
   <i type="logical" name="LUSE_VDW"> F  </i>
   <i name="Zab_VDW">     -0.84910000</i>
   <i name="PARAM1">      0.12340000</i>
   <i name="PARAM2">      1.00000000</i>
   <i name="PARAM3">      0.00000000</i>
  </separator>
  <separator name="model GW" >
   <i type="int" name="MODEL_GW">     0</i>
   <i name="MODEL_EPS0">      6.33646494</i>
   <i name="MODEL_ALPHA">      1.00000000</i>
  </separator>
  <separator name="linear response parameters" >
   <i type="logical" name="LEPSILON"> F  </i>
   <i type="logical" name="LRPA"> F  </i>
   <i type="logical" name="LNABLA"> F  </i>
   <i type="logical" name="LVEL"> F  </i>
   <i type="int" name="KINTER">     0</i>
   <i name="CSHIFT">      0.10000000</i>
   <i name="OMEGAMAX">     -1.00000000</i>
   <i name="DEG_THRESHOLD">      0.00200000</i>
  </separator>
  <separator name="orbital magnetization" >
   <i type="logical" name="NUCIND"> F  </i>
   <v name="MAGPOS">      0.00000000      0.00000000      0.00000000</v>
   <i type="logical" name="LNICSALL"> T  </i>
   <i type="logical" name="ORBITALMAG"> F  </i>
   <i type="logical" name="LMAGBLOCH"> F  </i>
   <i type="logical" name="LCHIMAG"> F  </i>
   <i type="logical" name="LGAUGE"> T  </i>
   <i type="int" name="MAGATOM">     0</i>
   <v name="MAGDIPOL">      0.00000000      0.00000000      0.00000000</v>
   <v name="AVECCONST">      0.00000000      0.00000000      0.00000000</v>
  </separator>
  <separator name="response functions" >
   <i type="logical" name="LADDER"> F  </i>
   <i type="logical" name="LFXC"> F  </i>
   <i type="logical" name="LHARTREE"> T  </i>
   <i type="int" name="IBSE">     0</i>
   <i type="logical" name="LTCTE"> F  </i>
   <i type="logical" name="LTETE"> F  </i>
   <i type="logical" name="LTRIPLET"> F  </i>
   <i type="logical" name="LFXCEPS"> F  </i>
   <i type="logical" name="LFXHEG"> F  </i>
   <i type="logical" name="L2ORDER"> F  </i>
   <i type="logical" name="LUSEW"> F  </i>
   <i name="ENCUTGW">     -2.00000000</i>
   <i name="ENCUTGWSOFT">     -2.00000000</i>
   <i name="ENCUTLF">     -1.00000000</i>
   <i type="int" name="LMAXMP2">    -1</i>
   <i name="SCISSOR">      0.00000000</i>
   <i type="int" name="NOMEGA">     0</i>
   <i type="int" name="NOMEGAR">     0</i>
   <i type="int" name="NBANDSGW">    -1</i>
   <i type="int" name="NBANDSO">    -1</i>
   <i type="int" name="NBANDSV">    -1</i>
   <i type="int" name="NELM">   100</i>
   <i type="int" name="DIM">     3</i>
   <i type="int" name="ANTIRES">     0</i>
   <i name="OMEGAMAX">    -30.00000000</i>
   <i name="OMEGAMIN">    -30.00000000</i>
   <i name="OMEGATL">   -200.00000000</i>
   <i type="int" name="OMEGAGRID">     0</i>
   <i name="CSHIFT">     -0.10000000</i>
   <i type="logical" name="SELFENERGY"> F  </i>
   <i type="logical" name="LSPECTRAL"> F  </i>
   <i type="logical" name="ODDONLYGW"> F  </i>
   <i type="logical" name="EVENONLYGW"> F  </i>
   <i type="int" name="NKREDLFX">     1</i>
   <i type="int" name="NKREDLFY">     1</i>
   <i type="int" name="NKREDLFZ">     1</i>
   <i type="int" name="MAXMEM">  1800</i>
   <i type="int" name="TELESCOPE">     0</i>
   <i type="int" name="TAUPAR">     1</i>
  </separator>
  <separator name="External order field" >
   <i name="OFIELD_KAPPA">      0.00000000</i>
   <v name="OFIELD_K">      0.00000000      0.00000000      0.00000000</v>
   <i name="OFIELD_Q6_NEAR">      0.00000000</i>
   <i name="OFIELD_Q6_FAR">      0.00000000</i>
   <i name="OFIELD_A">      0.00000000</i>
  </separator>
 </parameters>
 <atominfo>
  <atoms>      16 </atoms>
  <types>       4 </types>
  <array name="atoms" >
   <dimension dim="1">ion</dimension>
   <field type="string">element</field>
   <field type="int">atomtype</field>
   <set>
    <rc><c>Si</c><c>   1</c></rc>
    <rc><c>Si</c><c>   1</c></rc>
    <rc><c>Si</c><c>   1</c></rc>
    <rc><c>Si</c><c>   1</c></rc>
    <rc><c>Si</c><c>   1</c></rc>
    <rc><c>Si</c><c>   1</c></rc>
    <rc><c>Si</c><c>   1</c></rc>
    <rc><c>Al</c><c>   2</c></rc>
    <rc><c>C </c><c>   3</c></rc>
    <rc><c>C </c><c>   3</c></rc>
    <rc><c>C </c><c>   3</c></rc>
    <rc><c>C </c><c>   3</c></rc>
    <rc><c>C </c><c>   3</c></rc>
    <rc><c>C </c><c>   3</c></rc>
    <rc><c>C </c><c>   3</c></rc>
    <rc><c>N </c><c>   4</c></rc>
   </set>
  </array>
  <array name="atomtypes" >
   <dimension dim="1">type</dimension>
   <field type="int">atomspertype</field>
   <field type="string">element</field>
   <field>mass</field>
   <field>valence</field>
   <field type="string">pseudopotential</field>
   <set>
    <rc><c>   7</c><c>Si</c><c>     28.08500000</c><c>      4.00000000</c><c>  PAW_PBE Si 05Jan2001                  </c></rc>
    <rc><c>   1</c><c>Al</c><c>     26.98100000</c><c>      3.00000000</c><c>  PAW_PBE Al 04Jan2001                  </c></rc>
    <rc><c>   7</c><c>C </c><c>     12.01100000</c><c>      4.00000000</c><c>  PAW_PBE C 08Apr2002                   </c></rc>
    <rc><c>   1</c><c>N </c><c>     14.00100000</c><c>      5.00000000</c><c>  PAW_PBE N_s 07Sep2000                 </c></rc>
   </set>
  </array>
 </atominfo>
 <structure name="initialpos" >
  <crystal>
   <varray name="basis" >
    <v>       7.39364458       0.00000000       0.08806184 </v>
    <v>       0.00000000       3.09999816       0.00000000 </v>
    <v>      -0.49637560       0.00000000       7.36626507 </v>
   </varray>
   <i name="volume">    168.97239833 </i>
   <varray name="rec_basis" >
    <v>       0.13514283       0.00000000       0.00910660 </v>
    <v>       0.00000000       0.32258084       0.00000000 </v>
    <v>      -0.00161560       0.00000000       0.13564514 </v>
   </varray>
  </crystal>
  <varray name="positions" >
   <v>       0.41434977       0.50000000       0.58495621 </v>
   <v>       0.66990259       0.00000000       0.33212021 </v>
   <v>       0.91673383       0.50000000       0.07970447 </v>
   <v>       0.33117146       0.50000000       0.16436816 </v>
   <v>       0.58317510       0.00000000       0.91724707 </v>
   <v>       0.83332910       0.50000000       0.67079840 </v>
   <v>       0.08337593       0.00000000       0.41387264 </v>
   <v>       0.16403951       0.00000000       0.83399492 </v>
   <v>       0.36673235       0.00000000       0.03548846 </v>
   <v>       0.60135521       0.50000000       0.76938204 </v>
   <v>       0.85041556       0.00000000       0.51909187 </v>
   <v>       0.10498063       0.50000000       0.26999774 </v>
   <v>       0.76838749       0.00000000       0.10814804 </v>
   <v>       0.00824407       0.50000000       0.85576898 </v>
   <v>       0.27889889       0.00000000       0.58840267 </v>
   <v>       0.52490851       0.50000000       0.35665812 </v>
  </varray>
 </structure>
 <calculation>
  <scstep>
   <time name="dav">    0.41    0.41</time>
   <time name="total">    0.46    0.47</time>
   <energy>
    <i name="alphaZ">     81.88848820 </i>
    <i name="ewald">  -2250.71712780 </i>
    <i name="hartreedc">   -231.59665800 </i>
    <i name="XCdc">     25.77759066 </i>
    <i name="pawpsdc">   1647.65947800 </i>
    <i name="pawaedc">  -1497.72312631 </i>
    <i name="eentropy">     -0.01704655 </i>
    <i name="bandstr">    395.20028151 </i>
    <i name="atom">   2069.60353009 </i>
    <i name="e_fr_energy">    240.07540978 </i>
    <i name="e_wo_entrp">    240.09245634 </i>
    <i name="e_0_energy">    240.08393306 </i>
   </energy>
  </scstep>
  <scstep>
   <time name="dav">    0.48    0.48</time>
   <time name="total">    0.48    0.50</time>
   <energy>
    <i name="e_fr_energy">   -110.45435049 </i>
    <i name="e_wo_entrp">   -110.45435049 </i>
    <i name="e_0_energy">   -110.45435049 </i>
   </energy>
  </scstep>
  <scstep>
   <time name="dav">    0.49    0.49</time>
   <time name="total">    0.49    0.50</time>
   <energy>
    <i name="e_fr_energy">   -133.98024071 </i>
    <i name="e_wo_entrp">   -133.98024071 </i>
    <i name="e_0_energy">   -133.98024071 </i>
   </energy>
  </scstep>
  <scstep>
   <time name="dav">    0.49    0.49</time>
   <time name="total">    0.49    0.50</time>
   <energy>
    <i name="e_fr_energy">   -134.53647017 </i>
    <i name="e_wo_entrp">   -134.53647017 </i>
    <i name="e_0_energy">   -134.53647017 </i>
   </energy>
  </scstep>
  <scstep>
   <time name="dav">    0.49    0.49</time>
   <time name="total">    0.56    0.57</time>
   <energy>
    <i name="e_fr_energy">   -134.55285116 </i>
    <i name="e_wo_entrp">   -134.55285116 </i>
    <i name="e_0_energy">   -134.55285116 </i>
   </energy>
  </scstep>
  <scstep>
   <time name="diag">    0.10    0.10</time>
   <time name="diis">    0.26    0.26</time>
   <time name="orth">    0.02    0.02</time>
   <time name="total">    0.48    0.49</time>
   <energy>
    <i name="e_fr_energy">   -118.96303149 </i>
    <i name="e_wo_entrp">   -118.96303149 </i>
    <i name="e_0_energy">   -118.96303149 </i>
   </energy>
  </scstep>
  <scstep>
   <time name="diag">    0.10    0.10</time>
   <time name="diis">    0.26    0.26</time>
   <time name="orth">    0.02    0.02</time>
   <time name="total">    0.48    0.50</time>
   <energy>
    <i name="e_fr_energy">   -118.68583883 </i>
    <i name="e_wo_entrp">   -118.68583883 </i>
    <i name="e_0_energy">   -118.68583883 </i>
   </energy>
  </scstep>
  <scstep>
   <time name="diag">    0.10    0.10</time>
   <time name="diis">    0.25    0.25</time>
   <time name="orth">    0.02    0.02</time>
   <time name="total">    0.47    0.49</time>
   <energy>
    <i name="e_fr_energy">   -118.58953618 </i>
    <i name="e_wo_entrp">   -118.58953618 </i>
    <i name="e_0_energy">   -118.58953618 </i>
   </energy>
  </scstep>
  <scstep>
   <time name="diag">    0.10    0.10</time>
   <time name="diis">    0.25    0.25</time>
   <time name="orth">    0.02    0.02</time>
   <time name="total">    0.47    0.48</time>
   <energy>
    <i name="e_fr_energy">   -118.58933973 </i>
    <i name="e_wo_entrp">   -118.58933973 </i>
    <i name="e_0_energy">   -118.58933973 </i>
   </energy>
  </scstep>
  <scstep>
   <time name="diag">    0.10    0.10</time>
   <time name="diis">    0.25    0.25</time>
   <time name="orth">    0.02    0.02</time>
   <time name="total">    0.47    0.48</time>
   <energy>
    <i name="e_fr_energy">   -118.58820517 </i>
    <i name="e_wo_entrp">   -118.58820517 </i>
    <i name="e_0_energy">   -118.58820517 </i>
   </energy>
  </scstep>
  <scstep>
   <time name="diag">    0.10    0.10</time>
   <time name="diis">    0.25    0.25</time>
   <time name="orth">    0.02    0.02</time>
   <time name="total">    0.47    0.48</time>
   <energy>
    <i name="e_fr_energy">   -118.58860725 </i>
    <i name="e_wo_entrp">   -118.58860725 </i>
    <i name="e_0_energy">   -118.58860725 </i>
   </energy>
  </scstep>
  <scstep>
   <time name="diag">    0.10    0.10</time>
   <time name="diis">    0.26    0.26</time>
   <time name="orth">    0.02    0.02</time>
   <time name="total">    0.47    0.49</time>
   <energy>
    <i name="e_fr_energy">   -118.58857921 </i>
    <i name="e_wo_entrp">   -118.58857921 </i>
    <i name="e_0_energy">   -118.58857921 </i>
   </energy>
  </scstep>
  <scstep>
   <time name="diag">    0.10    0.10</time>
   <time name="diis">    0.25    0.25</time>
   <time name="orth">    0.02    0.02</time>
   <time name="total">    0.46    0.48</time>
   <energy>
    <i name="e_fr_energy">   -118.58858709 </i>
    <i name="e_wo_entrp">   -118.58858709 </i>
    <i name="e_0_energy">   -118.58858709 </i>
   </energy>
  </scstep>
  <scstep>
   <time name="diag">    0.10    0.10</time>
   <time name="diis">    0.26    0.26</time>
   <time name="orth">    0.02    0.02</time>
   <time name="total">    0.48    0.49</time>
   <energy>
    <i name="e_fr_energy">   -118.58858115 </i>
    <i name="e_wo_entrp">   -118.58858115 </i>
    <i name="e_0_energy">   -118.58858115 </i>
   </energy>
  </scstep>
  <scstep>
   <time name="diag">    0.10    0.10</time>
   <time name="diis">    0.18    0.18</time>
   <time name="orth">    0.02    0.02</time>
   <time name="total">    0.34    0.35</time>
   <energy>
    <i name="alphaZ">     81.88848820 </i>
    <i name="ewald">  -2250.71712780 </i>
    <i name="hartreedc">   -322.39023041 </i>
    <i name="XCdc">     34.35012674 </i>
    <i name="pawpsdc">   8529.58992858 </i>
    <i name="pawaedc">  -8381.70520340 </i>
    <i name="eentropy">      0.00000000 </i>
    <i name="bandstr">    120.79190665 </i>
    <i name="atom">   2069.60353009 </i>
    <i name="e_fr_energy">   -118.58858135 </i>
    <i name="e_wo_entrp">   -118.58858135 </i>
    <i name="e_0_energy">   -118.58858135 </i>
   </energy>
  </scstep>
  <structure>
   <crystal>
    <varray name="basis" >
     <v>       7.39364458       0.00000000       0.08806184 </v>
     <v>       0.00000000       3.09999816       0.00000000 </v>
     <v>      -0.49637560       0.00000000       7.36626507 </v>
    </varray>
    <i name="volume">    168.97239833 </i>
    <varray name="rec_basis" >
     <v>       0.13514283       0.00000000       0.00910660 </v>
     <v>       0.00000000       0.32258084       0.00000000 </v>
     <v>      -0.00161560       0.00000000       0.13564514 </v>
    </varray>
   </crystal>
   <varray name="positions" >
    <v>       0.41434977       0.50000000       0.58495621 </v>
    <v>       0.66990259       0.00000000       0.33212021 </v>
    <v>       0.91673383       0.50000000       0.07970447 </v>
    <v>       0.33117146       0.50000000       0.16436816 </v>
    <v>       0.58317510       0.00000000       0.91724707 </v>
    <v>       0.83332910       0.50000000       0.67079840 </v>
    <v>       0.08337593       0.00000000       0.41387264 </v>
    <v>       0.16403951       0.00000000       0.83399492 </v>
    <v>       0.36673235       0.00000000       0.03548846 </v>
    <v>       0.60135521       0.50000000       0.76938204 </v>
    <v>       0.85041556       0.00000000       0.51909187 </v>
    <v>       0.10498063       0.50000000       0.26999774 </v>
    <v>       0.76838749       0.00000000       0.10814804 </v>
    <v>       0.00824407       0.50000000       0.85576898 </v>
    <v>       0.27889889       0.00000000       0.58840267 </v>
    <v>       0.52490851       0.50000000       0.35665812 </v>
   </varray>
  </structure>
  <varray name="forces" >
   <v>      -0.00190113       0.00000000       0.00513213 </v>
   <v>       0.01282542       0.00000000      -0.00208064 </v>
   <v>       0.00930491       0.00000000      -0.01207119 </v>
   <v>       0.00240034       0.00000000       0.00044256 </v>
   <v>       0.00101959       0.00000000       0.00484591 </v>
   <v>      -0.00291471       0.00000000       0.00794134 </v>
   <v>      -0.00034073       0.00000000       0.01180099 </v>
   <v>       0.00178934       0.00000000      -0.00179595 </v>
   <v>      -0.00620164       0.00000000      -0.00067987 </v>
   <v>      -0.01071489       0.00000000       0.00746433 </v>
   <v>      -0.00248605       0.00000000      -0.01564988 </v>
   <v>      -0.01467260       0.00000000       0.00242345 </v>
   <v>       0.00893636       0.00000000      -0.01011062 </v>
   <v>       0.00632383       0.00000000       0.00721479 </v>
   <v>       0.00586179       0.00000000      -0.00787330 </v>
   <v>      -0.00922984       0.00000000       0.00299594 </v>
  </varray>
  <varray name="stress" >
   <v>      -0.26236480       0.00000000       0.05991609 </v>
   <v>       0.00000000      -0.21224784       0.00000000 </v>
   <v>       0.05991617       0.00000000      -0.20985479 </v>
  </varray>
  <energy>
   <i name="e_fr_energy">   -118.58858135 </i>
   <i name="e_wo_entrp">   -118.58858135 </i>
   <i name="e_0_energy">      0.00000000 </i>
  </energy>
  <time name="totalsc">    8.20    8.43</time>
  <eigenvalues>
   <array>
    <dimension dim="1">band</dimension>
    <dimension dim="2">kpoint</dimension>
    <dimension dim="3">spin</dimension>
    <field>eigene</field>
    <field>occ</field>
    <set>
     <set comment="spin 1">
      <set comment="kpoint 1">
       <r>   -9.2361    1.0000 </r>
       <r>   -6.5242    1.0000 </r>
       <r>   -5.3019    1.0000 </r>
       <r>   -5.2512    1.0000 </r>
       <r>   -5.1752    1.0000 </r>
       <r>   -4.0519    1.0000 </r>
       <r>   -3.3297    1.0000 </r>
       <r>   -2.8726    1.0000 </r>
       <r>   -0.5713    1.0000 </r>
       <r>    0.2577    1.0000 </r>
       <r>    1.3066    1.0000 </r>
       <r>    2.1028    1.0000 </r>
       <r>    2.7180    1.0000 </r>
       <r>    2.8705    1.0000 </r>
       <r>    3.0723    1.0000 </r>
       <r>    3.3556    1.0000 </r>
       <r>    3.4004    1.0000 </r>
       <r>    4.4620    1.0000 </r>
       <r>    4.9104    1.0000 </r>
       <r>    5.0759    1.0000 </r>
       <r>    5.2257    1.0000 </r>
       <r>    5.3026    1.0000 </r>
       <r>    5.6862    1.0000 </r>
       <r>    6.1080    1.0000 </r>
       <r>    6.1987    1.0000 </r>
       <r>    6.2638    1.0000 </r>
       <r>    6.7205    1.0000 </r>
       <r>    6.7745    1.0000 </r>
       <r>    7.5239    1.0000 </r>
       <r>    7.7237    1.0000 </r>
       <r>    7.8165    1.0000 </r>
       <r>    8.5653    1.0000 </r>
       <r>   10.3609    0.0000 </r>
       <r>   11.4083    0.0000 </r>
       <r>   11.9982    0.0000 </r>
       <r>   12.3194    0.0000 </r>
       <r>   12.4933    0.0000 </r>
       <r>   12.6224    0.0000 </r>
       <r>   13.3370    0.0000 </r>
       <r>   13.6665    0.0000 </r>
       <r>   14.6249    0.0000 </r>
       <r>   14.7048    0.0000 </r>
       <r>   14.8696    0.0000 </r>
       <r>   15.1094    0.0000 </r>
      </set>
      <set comment="kpoint 2">
       <r>   -9.2126    1.0000 </r>
       <r>   -6.5911    1.0000 </r>
       <r>   -5.8552    1.0000 </r>
       <r>   -5.0813    1.0000 </r>
       <r>   -4.4703    1.0000 </r>
       <r>   -4.1829    1.0000 </r>
       <r>   -3.5229    1.0000 </r>
       <r>   -2.7484    1.0000 </r>
       <r>   -0.0617    1.0000 </r>
       <r>    0.2169    1.0000 </r>
       <r>    1.2653    1.0000 </r>
       <r>    1.4987    1.0000 </r>
       <r>    1.9120    1.0000 </r>
       <r>    2.5084    1.0000 </r>
       <r>    2.9275    1.0000 </r>
       <r>    3.3742    1.0000 </r>
       <r>    3.8016    1.0000 </r>
       <r>    4.5548    1.0000 </r>
       <r>    5.0266    1.0000 </r>
       <r>    5.3210    1.0000 </r>
       <r>    5.6588    1.0000 </r>
       <r>    5.7279    1.0000 </r>
       <r>    6.0564    1.0000 </r>
       <r>    6.1641    1.0000 </r>
       <r>    6.3679    1.0000 </r>
       <r>    6.5902    1.0000 </r>
       <r>    6.6329    1.0000 </r>
       <r>    6.8821    1.0000 </r>
       <r>    7.1069    1.0000 </r>
       <r>    7.3821    1.0000 </r>
       <r>    7.4674    1.0000 </r>
       <r>    8.5670    1.0000 </r>
       <r>   10.4654    0.0000 </r>
       <r>   11.3611    0.0000 </r>
       <r>   11.6825    0.0000 </r>
       <r>   12.1830    0.0000 </r>
       <r>   12.7010    0.0000 </r>
       <r>   13.2629    0.0000 </r>
       <r>   13.5512    0.0000 </r>
       <r>   13.9754    0.0000 </r>
       <r>   14.2888    0.0000 </r>
       <r>   14.4598    0.0000 </r>
       <r>   14.9145    0.0000 </r>
       <r>   15.1124    0.0000 </r>
      </set>
      <set comment="kpoint 3">
       <r>   -8.9947    1.0000 </r>
       <r>   -6.2211    1.0000 </r>
       <r>   -4.9809    1.0000 </r>
       <r>   -4.9273    1.0000 </r>
       <r>   -4.8500    1.0000 </r>
       <r>   -3.7428    1.0000 </r>
       <r>   -3.0914    1.0000 </r>
       <r>   -2.7715    1.0000 </r>
       <r>   -0.2733    1.0000 </r>
       <r>    0.5459    1.0000 </r>
       <r>    1.2468    1.0000 </r>
       <r>    1.9274    1.0000 </r>
       <r>    2.3002    1.0000 </r>
       <r>    2.4841    1.0000 </r>
       <r>    2.6571    1.0000 </r>
       <r>    3.0461    1.0000 </r>
       <r>    3.3679    1.0000 </r>
       <r>    4.1011    1.0000 </r>
       <r>    4.4865    1.0000 </r>
       <r>    4.7284    1.0000 </r>
       <r>    4.9655    1.0000 </r>
       <r>    5.1154    1.0000 </r>
       <r>    5.1582    1.0000 </r>
       <r>    5.3000    1.0000 </r>
       <r>    5.3802    1.0000 </r>
       <r>    5.7062    1.0000 </r>
       <r>    5.8995    1.0000 </r>
       <r>    6.0395    1.0000 </r>
       <r>    6.5074    1.0000 </r>
       <r>    7.3706    1.0000 </r>
       <r>    7.5308    1.0000 </r>
       <r>    7.6398    1.0000 </r>
       <r>   11.1095    0.0000 </r>
       <r>   12.0934    0.0000 </r>
       <r>   12.7932    0.0000 </r>
       <r>   13.0542    0.0000 </r>
       <r>   13.2338    0.0000 </r>
       <r>   13.3206    0.0000 </r>
       <r>   13.5673    0.0000 </r>
       <r>   13.8817    0.0000 </r>
       <r>   14.3201    0.0000 </r>
       <r>   14.8369    0.0000 </r>
       <r>   15.2648    0.0000 </r>
       <r>   15.6006    0.0000 </r>
      </set>
      <set comment="kpoint 4">
       <r>   -8.9748    1.0000 </r>
       <r>   -6.2625    1.0000 </r>
       <r>   -5.5391    1.0000 </r>
       <r>   -4.7642    1.0000 </r>
       <r>   -4.1651    1.0000 </r>
       <r>   -3.8940    1.0000 </r>
       <r>   -3.2932    1.0000 </r>
       <r>   -2.5840    1.0000 </r>
       <r>    0.1386    1.0000 </r>
       <r>    0.4475    1.0000 </r>
       <r>    1.3097    1.0000 </r>
       <r>    1.4764    1.0000 </r>
       <r>    1.8739    1.0000 </r>
       <r>    2.0535    1.0000 </r>
       <r>    2.7330    1.0000 </r>
       <r>    3.2948    1.0000 </r>
       <r>    3.8169    1.0000 </r>
       <r>    4.0162    1.0000 </r>
       <r>    4.1193    1.0000 </r>
       <r>    4.3980    1.0000 </r>
       <r>    4.6513    1.0000 </r>
       <r>    4.9092    1.0000 </r>
       <r>    5.1111    1.0000 </r>
       <r>    5.6840    1.0000 </r>
       <r>    5.7530    1.0000 </r>
       <r>    6.0741    1.0000 </r>
       <r>    6.1931    1.0000 </r>
       <r>    6.5022    1.0000 </r>
       <r>    6.7063    1.0000 </r>
       <r>    7.1125    1.0000 </r>
       <r>    7.4170    1.0000 </r>
       <r>    7.7313    1.0000 </r>
       <r>   11.4534    0.0000 </r>
       <r>   12.1328    0.0000 </r>
       <r>   12.7009    0.0000 </r>
       <r>   12.8351    0.0000 </r>
       <r>   13.0070    0.0000 </r>
       <r>   13.2511    0.0000 </r>
       <r>   13.7791    0.0000 </r>
       <r>   13.9258    0.0000 </r>
       <r>   14.3210    0.0000 </r>
       <r>   14.5343    0.0000 </r>
       <r>   14.8273    0.0000 </r>
       <r>   15.2716    0.0000 </r>
      </set>
      <set comment="kpoint 5">
       <r>   -8.4105    1.0000 </r>
       <r>   -5.3857    1.0000 </r>
       <r>   -4.1104    1.0000 </r>
       <r>   -4.0455    1.0000 </r>
       <r>   -3.9636    1.0000 </r>
       <r>   -3.0816    1.0000 </r>
       <r>   -2.9043    1.0000 </r>
       <r>   -2.3618    1.0000 </r>
       <r>   -0.0857    1.0000 </r>
       <r>    0.6142    1.0000 </r>
       <r>    0.6615    1.0000 </r>
       <r>    0.9235    1.0000 </r>
       <r>    0.9861    1.0000 </r>
       <r>    1.3582    1.0000 </r>
       <r>    1.7686    1.0000 </r>
       <r>    2.2486    1.0000 </r>
       <r>    3.2569    1.0000 </r>
       <r>    3.4299    1.0000 </r>
       <r>    3.6355    1.0000 </r>
       <r>    3.6856    1.0000 </r>
       <r>    4.1687    1.0000 </r>
       <r>    4.7304    1.0000 </r>
       <r>    4.9289    1.0000 </r>
       <r>    5.0474    1.0000 </r>
       <r>    5.2077    1.0000 </r>
       <r>    5.4494    1.0000 </r>
       <r>    5.6328    1.0000 </r>
       <r>    5.8827    1.0000 </r>
       <r>    6.0728    1.0000 </r>
       <r>    6.2323    1.0000 </r>
       <r>    6.7985    1.0000 </r>
       <r>    7.0237    1.0000 </r>
       <r>   10.3957    0.0000 </r>
       <r>   11.4960    0.0000 </r>
       <r>   11.9621    0.0000 </r>
       <r>   12.0324    0.0000 </r>
       <r>   12.1446    0.0000 </r>
       <r>   13.0802    0.0000 </r>
       <r>   13.6806    0.0000 </r>
       <r>   13.7880    0.0000 </r>
       <r>   14.0735    0.0000 </r>
       <r>   14.0902    0.0000 </r>
       <r>   14.8443    0.0000 </r>
       <r>   15.1594    0.0000 </r>
      </set>
      <set comment="kpoint 6">
       <r>   -8.4004    1.0000 </r>
       <r>   -5.3458    1.0000 </r>
       <r>   -4.6608    1.0000 </r>
       <r>   -3.9314    1.0000 </r>
       <r>   -3.4631    1.0000 </r>
       <r>   -3.2010    1.0000 </r>
       <r>   -2.8429    1.0000 </r>
       <r>   -2.3175    1.0000 </r>
       <r>   -0.2410    1.0000 </r>
       <r>    0.4764    1.0000 </r>
       <r>    0.5783    1.0000 </r>
       <r>    0.9670    1.0000 </r>
       <r>    1.2202    1.0000 </r>
       <r>    1.4850    1.0000 </r>
       <r>    2.1646    1.0000 </r>
       <r>    2.4541    1.0000 </r>
       <r>    3.0446    1.0000 </r>
       <r>    3.2933    1.0000 </r>
       <r>    3.4457    1.0000 </r>
       <r>    3.6141    1.0000 </r>
       <r>    3.9699    1.0000 </r>
       <r>    4.2736    1.0000 </r>
       <r>    4.5595    1.0000 </r>
       <r>    4.8889    1.0000 </r>
       <r>    5.0987    1.0000 </r>
       <r>    5.4316    1.0000 </r>
       <r>    5.7036    1.0000 </r>
       <r>    6.0931    1.0000 </r>
       <r>    6.2170    1.0000 </r>
       <r>    6.6942    1.0000 </r>
       <r>    6.9683    1.0000 </r>
       <r>    7.1745    1.0000 </r>
       <r>   11.1174    0.0000 </r>
       <r>   11.3158    0.0000 </r>
       <r>   11.8454    0.0000 </r>
       <r>   12.2177    0.0000 </r>
       <r>   12.4244    0.0000 </r>
       <r>   13.0235    0.0000 </r>
       <r>   13.2606    0.0000 </r>
       <r>   13.7211    0.0000 </r>
       <r>   13.9708    0.0000 </r>
       <r>   14.5493    0.0000 </r>
       <r>   14.7223    0.0000 </r>
       <r>   15.0362    0.0000 </r>
      </set>
      <set comment="kpoint 7">
       <r>   -8.0358    1.0000 </r>
       <r>   -4.5108    1.0000 </r>
       <r>   -3.9131    1.0000 </r>
       <r>   -3.3873    1.0000 </r>
       <r>   -3.2833    1.0000 </r>
       <r>   -3.0076    1.0000 </r>
       <r>   -2.2155    1.0000 </r>
       <r>   -2.1205    1.0000 </r>
       <r>   -0.7539    1.0000 </r>
       <r>   -0.4067    1.0000 </r>
       <r>   -0.2519    1.0000 </r>
       <r>   -0.2061    1.0000 </r>
       <r>    0.7185    1.0000 </r>
       <r>    1.8352    1.0000 </r>
       <r>    1.8449    1.0000 </r>
       <r>    2.3271    1.0000 </r>
       <r>    2.3356    1.0000 </r>
       <r>    2.7737    1.0000 </r>
       <r>    2.8591    1.0000 </r>
       <r>    3.9013    1.0000 </r>
       <r>    4.1996    1.0000 </r>
       <r>    4.4209    1.0000 </r>
       <r>    4.9004    1.0000 </r>
       <r>    5.1893    1.0000 </r>
       <r>    5.4859    1.0000 </r>
       <r>    5.5325    1.0000 </r>
       <r>    5.5443    1.0000 </r>
       <r>    5.7013    1.0000 </r>
       <r>    5.8588    1.0000 </r>
       <r>    6.3244    1.0000 </r>
       <r>    6.4881    1.0000 </r>
       <r>    6.6999    1.0000 </r>
       <r>   10.5608    0.0000 </r>
       <r>   11.0637    0.0000 </r>
       <r>   11.2397    0.0000 </r>
       <r>   11.3344    0.0000 </r>
       <r>   11.4377    0.0000 </r>
       <r>   11.7668    0.0000 </r>
       <r>   13.0744    0.0000 </r>
       <r>   13.1791    0.0000 </r>
       <r>   13.3103    0.0000 </r>
       <r>   13.9098    0.0000 </r>
       <r>   14.3157    0.0000 </r>
       <r>   15.1786    0.0000 </r>
      </set>
      <set comment="kpoint 8">
       <r>   -8.0330    1.0000 </r>
       <r>   -4.3977    1.0000 </r>
       <r>   -3.8990    1.0000 </r>
       <r>   -3.5712    1.0000 </r>
       <r>   -3.4457    1.0000 </r>
       <r>   -2.8272    1.0000 </r>
       <r>   -2.4119    1.0000 </r>
       <r>   -2.1383    1.0000 </r>
       <r>   -0.6584    1.0000 </r>
       <r>   -0.4678    1.0000 </r>
       <r>    0.0509    1.0000 </r>
       <r>    0.3128    1.0000 </r>
       <r>    0.5919    1.0000 </r>
       <r>    1.2039    1.0000 </r>
       <r>    1.6860    1.0000 </r>
       <r>    2.4629    1.0000 </r>
       <r>    2.6120    1.0000 </r>
       <r>    3.0672    1.0000 </r>
       <r>    3.1606    1.0000 </r>
       <r>    4.0381    1.0000 </r>
       <r>    4.1646    1.0000 </r>
       <r>    4.3667    1.0000 </r>
       <r>    4.3990    1.0000 </r>
       <r>    4.9847    1.0000 </r>
       <r>    5.0411    1.0000 </r>
       <r>    5.3115    1.0000 </r>
       <r>    5.3597    1.0000 </r>
       <r>    5.6710    1.0000 </r>
       <r>    5.7345    1.0000 </r>
       <r>    6.3697    1.0000 </r>
       <r>    6.4791    1.0000 </r>
       <r>    6.9055    1.0000 </r>
       <r>   10.8134    0.0000 </r>
       <r>   11.4283    0.0000 </r>
       <r>   11.4757    0.0000 </r>
       <r>   11.9223    0.0000 </r>
       <r>   11.9275    0.0000 </r>
       <r>   12.3595    0.0000 </r>
       <r>   13.0855    0.0000 </r>
       <r>   13.5473    0.0000 </r>
       <r>   13.6768    0.0000 </r>
       <r>   14.0344    0.0000 </r>
       <r>   14.1132    0.0000 </r>
       <r>   14.5961    0.0000 </r>
      </set>
      <set comment="kpoint 9">
       <r>   -9.2141    1.0000 </r>
       <r>   -6.5340    1.0000 </r>
       <r>   -5.9261    1.0000 </r>
       <r>   -5.0921    1.0000 </r>
       <r>   -4.4870    1.0000 </r>
       <r>   -4.2140    1.0000 </r>
       <r>   -3.4874    1.0000 </r>
       <r>   -2.6312    1.0000 </r>
       <r>   -0.1199    1.0000 </r>
       <r>    0.2079    1.0000 </r>
       <r>    1.0157    1.0000 </r>
       <r>    1.6675    1.0000 </r>
       <r>    2.0992    1.0000 </r>
       <r>    2.1506    1.0000 </r>
       <r>    3.0568    1.0000 </r>
       <r>    3.3735    1.0000 </r>
       <r>    3.9020    1.0000 </r>
       <r>    4.7470    1.0000 </r>
       <r>    5.0583    1.0000 </r>
       <r>    5.3333    1.0000 </r>
       <r>    5.6902    1.0000 </r>
       <r>    5.6927    1.0000 </r>
       <r>    6.0253    1.0000 </r>
       <r>    6.2914    1.0000 </r>
       <r>    6.3352    1.0000 </r>
       <r>    6.5110    1.0000 </r>
       <r>    6.5116    1.0000 </r>
       <r>    6.8889    1.0000 </r>
       <r>    6.8931    1.0000 </r>
       <r>    7.3473    1.0000 </r>
       <r>    7.5630    1.0000 </r>
       <r>    8.6222    1.0000 </r>
       <r>   10.4082    0.0000 </r>
       <r>   11.2544    0.0000 </r>
       <r>   11.7332    0.0000 </r>
       <r>   12.1758    0.0000 </r>
       <r>   12.6224    0.0000 </r>
       <r>   13.3018    0.0000 </r>
       <r>   13.7958    0.0000 </r>
       <r>   13.9798    0.0000 </r>
       <r>   14.0800    0.0000 </r>
       <r>   14.6249    0.0000 </r>
       <r>   15.0192    0.0000 </r>
       <r>   15.3867    0.0000 </r>
      </set>
      <set comment="kpoint 10">
       <r>   -9.1928    1.0000 </r>
       <r>   -6.4609    1.0000 </r>
       <r>   -6.2029    1.0000 </r>
       <r>   -5.1842    1.0000 </r>
       <r>   -4.6569    1.0000 </r>
       <r>   -3.6179    1.0000 </r>
       <r>   -3.1783    1.0000 </r>
       <r>   -2.7424    1.0000 </r>
       <r>   -0.4042    1.0000 </r>
       <r>    0.1466    1.0000 </r>
       <r>    0.7356    1.0000 </r>
       <r>    1.1419    1.0000 </r>
       <r>    1.9377    1.0000 </r>
       <r>    2.9430    1.0000 </r>
       <r>    3.3902    1.0000 </r>
       <r>    3.4541    1.0000 </r>
       <r>    3.9647    1.0000 </r>
       <r>    4.3644    1.0000 </r>
       <r>    4.7918    1.0000 </r>
       <r>    5.3970    1.0000 </r>
       <r>    5.4106    1.0000 </r>
       <r>    5.5184    1.0000 </r>
       <r>    5.8990    1.0000 </r>
       <r>    6.2187    1.0000 </r>
       <r>    6.4885    1.0000 </r>
       <r>    6.7099    1.0000 </r>
       <r>    6.9555    1.0000 </r>
       <r>    7.1480    1.0000 </r>
       <r>    7.1878    1.0000 </r>
       <r>    7.3009    1.0000 </r>
       <r>    7.6589    1.0000 </r>
       <r>    8.6328    1.0000 </r>
       <r>   10.4419    0.0000 </r>
       <r>   11.1370    0.0000 </r>
       <r>   11.9033    0.0000 </r>
       <r>   12.1531    0.0000 </r>
       <r>   12.7221    0.0000 </r>
       <r>   13.2753    0.0000 </r>
       <r>   13.4998    0.0000 </r>
       <r>   13.7896    0.0000 </r>
       <r>   14.1454    0.0000 </r>
       <r>   14.5946    0.0000 </r>
       <r>   14.7315    0.0000 </r>
       <r>   15.3349    0.0000 </r>
      </set>
      <set comment="kpoint 11">
       <r>   -9.1935    1.0000 </r>
       <r>   -6.4876    1.0000 </r>
       <r>   -6.1343    1.0000 </r>
       <r>   -5.2063    1.0000 </r>
       <r>   -4.7171    1.0000 </r>
       <r>   -3.7517    1.0000 </r>
       <r>   -3.0760    1.0000 </r>
       <r>   -2.5626    1.0000 </r>
       <r>   -0.2518    1.0000 </r>
       <r>    0.0226    1.0000 </r>
       <r>    0.3312    1.0000 </r>
       <r>    1.2417    1.0000 </r>
       <r>    1.8777    1.0000 </r>
       <r>    3.1455    1.0000 </r>
       <r>    3.3898    1.0000 </r>
       <r>    3.5010    1.0000 </r>
       <r>    3.8211    1.0000 </r>
       <r>    4.5982    1.0000 </r>
       <r>    5.0737    1.0000 </r>
       <r>    5.3678    1.0000 </r>
       <r>    5.4718    1.0000 </r>
       <r>    5.5844    1.0000 </r>
       <r>    6.0099    1.0000 </r>
       <r>    6.2133    1.0000 </r>
       <r>    6.3659    1.0000 </r>
       <r>    6.4778    1.0000 </r>
       <r>    6.7127    1.0000 </r>
       <r>    7.0106    1.0000 </r>
       <r>    7.0531    1.0000 </r>
       <r>    7.3841    1.0000 </r>
       <r>    7.5841    1.0000 </r>
       <r>    8.6428    1.0000 </r>
       <r>   10.6010    0.0000 </r>
       <r>   11.3916    0.0000 </r>
       <r>   11.6560    0.0000 </r>
       <r>   12.5055    0.0000 </r>
       <r>   12.7278    0.0000 </r>
       <r>   13.2832    0.0000 </r>
       <r>   13.5845    0.0000 </r>
       <r>   13.7271    0.0000 </r>
       <r>   14.0500    0.0000 </r>
       <r>   14.5610    0.0000 </r>
       <r>   14.8254    0.0000 </r>
       <r>   15.0272    0.0000 </r>
      </set>
      <set comment="kpoint 12">
       <r>   -8.9761    1.0000 </r>
       <r>   -6.2049    1.0000 </r>
       <r>   -5.6143    1.0000 </r>
       <r>   -4.7751    1.0000 </r>
       <r>   -4.1782    1.0000 </r>
       <r>   -3.9244    1.0000 </r>
       <r>   -3.2518    1.0000 </r>
       <r>   -2.4811    1.0000 </r>
       <r>    0.1222    1.0000 </r>
       <r>    0.3807    1.0000 </r>
       <r>    1.0702    1.0000 </r>
       <r>    1.5574    1.0000 </r>
       <r>    1.9346    1.0000 </r>
       <r>    2.2136    1.0000 </r>
       <r>    2.6926    1.0000 </r>
       <r>    3.1175    1.0000 </r>
       <r>    3.8476    1.0000 </r>
       <r>    4.0442    1.0000 </r>
       <r>    4.1621    1.0000 </r>
       <r>    4.4947    1.0000 </r>
       <r>    4.7202    1.0000 </r>
       <r>    4.9556    1.0000 </r>
       <r>    5.1780    1.0000 </r>
       <r>    5.5656    1.0000 </r>
       <r>    5.7998    1.0000 </r>
       <r>    6.0135    1.0000 </r>
       <r>    6.1880    1.0000 </r>
       <r>    6.5173    1.0000 </r>
       <r>    6.6547    1.0000 </r>
       <r>    7.0622    1.0000 </r>
       <r>    7.4761    1.0000 </r>
       <r>    7.6807    1.0000 </r>
       <r>   11.3480    0.0000 </r>
       <r>   12.1535    0.0000 </r>
       <r>   12.5901    0.0000 </r>
       <r>   12.9394    0.0000 </r>
       <r>   13.0156    0.0000 </r>
       <r>   13.3121    0.0000 </r>
       <r>   13.7384    0.0000 </r>
       <r>   13.8758    0.0000 </r>
       <r>   14.2487    0.0000 </r>
       <r>   14.4755    0.0000 </r>
       <r>   14.7715    0.0000 </r>
       <r>   14.9742    0.0000 </r>
      </set>
      <set comment="kpoint 13">
       <r>   -8.9580    1.0000 </r>
       <r>   -6.1299    1.0000 </r>
       <r>   -5.8626    1.0000 </r>
       <r>   -4.8742    1.0000 </r>
       <r>   -4.3877    1.0000 </r>
       <r>   -3.3485    1.0000 </r>
       <r>   -2.9482    1.0000 </r>
       <r>   -2.5580    1.0000 </r>
       <r>   -0.1494    1.0000 </r>
       <r>    0.2638    1.0000 </r>
       <r>    0.8874    1.0000 </r>
       <r>    1.3073    1.0000 </r>
       <r>    1.9275    1.0000 </r>
       <r>    2.2935    1.0000 </r>
       <r>    2.8772    1.0000 </r>
       <r>    3.3958    1.0000 </r>
       <r>    3.6397    1.0000 </r>
       <r>    3.7919    1.0000 </r>
       <r>    4.0842    1.0000 </r>
       <r>    4.5808    1.0000 </r>
       <r>    4.7616    1.0000 </r>
       <r>    5.1387    1.0000 </r>
       <r>    5.2340    1.0000 </r>
       <r>    5.4334    1.0000 </r>
       <r>    5.9044    1.0000 </r>
       <r>    6.1577    1.0000 </r>
       <r>    6.3008    1.0000 </r>
       <r>    6.5694    1.0000 </r>
       <r>    6.7998    1.0000 </r>
       <r>    6.9852    1.0000 </r>
       <r>    7.4042    1.0000 </r>
       <r>    7.6366    1.0000 </r>
       <r>   11.4285    0.0000 </r>
       <r>   12.5194    0.0000 </r>
       <r>   13.0460    0.0000 </r>
       <r>   13.1583    0.0000 </r>
       <r>   13.3993    0.0000 </r>
       <r>   13.5208    0.0000 </r>
       <r>   13.6759    0.0000 </r>
       <r>   13.8599    0.0000 </r>
       <r>   14.0585    0.0000 </r>
       <r>   14.3122    0.0000 </r>
       <r>   14.5524    0.0000 </r>
       <r>   14.6699    0.0000 </r>
      </set>
      <set comment="kpoint 14">
       <r>   -8.9586    1.0000 </r>
       <r>   -6.1571    1.0000 </r>
       <r>   -5.7937    1.0000 </r>
       <r>   -4.8808    1.0000 </r>
       <r>   -4.4697    1.0000 </r>
       <r>   -3.4812    1.0000 </r>
       <r>   -2.8402    1.0000 </r>
       <r>   -2.3814    1.0000 </r>
       <r>   -0.0482    1.0000 </r>
       <r>    0.1793    1.0000 </r>
       <r>    0.4927    1.0000 </r>
       <r>    1.4159    1.0000 </r>
       <r>    2.0040    1.0000 </r>
       <r>    2.2182    1.0000 </r>
       <r>    3.0457    1.0000 </r>
       <r>    3.4360    1.0000 </r>
       <r>    3.6584    1.0000 </r>
       <r>    3.8607    1.0000 </r>
       <r>    4.0020    1.0000 </r>
       <r>    4.3977    1.0000 </r>
       <r>    4.9679    1.0000 </r>
       <r>    5.1824    1.0000 </r>
       <r>    5.3685    1.0000 </r>
       <r>    5.5786    1.0000 </r>
       <r>    5.6881    1.0000 </r>
       <r>    5.9582    1.0000 </r>
       <r>    6.3408    1.0000 </r>
       <r>    6.5160    1.0000 </r>
       <r>    6.6973    1.0000 </r>
       <r>    7.1037    1.0000 </r>
       <r>    7.4297    1.0000 </r>
       <r>    7.6816    1.0000 </r>
       <r>   11.7011    0.0000 </r>
       <r>   12.1312    0.0000 </r>
       <r>   12.4938    0.0000 </r>
       <r>   12.9254    0.0000 </r>
       <r>   13.1849    0.0000 </r>
       <r>   13.3236    0.0000 </r>
       <r>   13.5330    0.0000 </r>
       <r>   13.9969    0.0000 </r>
       <r>   14.2902    0.0000 </r>
       <r>   14.4801    0.0000 </r>
       <r>   14.7882    0.0000 </r>
       <r>   15.1027    0.0000 </r>
      </set>
      <set comment="kpoint 15">
       <r>   -8.4009    1.0000 </r>
       <r>   -5.2897    1.0000 </r>
       <r>   -4.7548    1.0000 </r>
       <r>   -3.9519    1.0000 </r>
       <r>   -3.3925    1.0000 </r>
       <r>   -3.2132    1.0000 </r>
       <r>   -2.8709    1.0000 </r>
       <r>   -2.2474    1.0000 </r>
       <r>   -0.2878    1.0000 </r>
       <r>    0.4171    1.0000 </r>
       <r>    0.6855    1.0000 </r>
       <r>    0.7272    1.0000 </r>
       <r>    1.4255    1.0000 </r>
       <r>    1.6633    1.0000 </r>
       <r>    2.1207    1.0000 </r>
       <r>    2.2994    1.0000 </r>
       <r>    2.9134    1.0000 </r>
       <r>    3.1969    1.0000 </r>
       <r>    3.4821    1.0000 </r>
       <r>    3.7856    1.0000 </r>
       <r>    3.9893    1.0000 </r>
       <r>    4.2691    1.0000 </r>
       <r>    4.4551    1.0000 </r>
       <r>    4.9246    1.0000 </r>
       <r>    5.2624    1.0000 </r>
       <r>    5.4517    1.0000 </r>
       <r>    5.7057    1.0000 </r>
       <r>    6.0825    1.0000 </r>
       <r>    6.3000    1.0000 </r>
       <r>    6.7240    1.0000 </r>
       <r>    6.8795    1.0000 </r>
       <r>    7.0650    1.0000 </r>
       <r>   11.0711    0.0000 </r>
       <r>   11.3466    0.0000 </r>
       <r>   11.8403    0.0000 </r>
       <r>   12.2364    0.0000 </r>
       <r>   12.3000    0.0000 </r>
       <r>   12.9105    0.0000 </r>
       <r>   13.2235    0.0000 </r>
       <r>   13.8151    0.0000 </r>
       <r>   13.9239    0.0000 </r>
       <r>   14.5384    0.0000 </r>
       <r>   14.7195    0.0000 </r>
       <r>   15.1671    0.0000 </r>
      </set>
      <set comment="kpoint 16">
       <r>   -8.3916    1.0000 </r>
       <r>   -5.2044    1.0000 </r>
       <r>   -4.8934    1.0000 </r>
       <r>   -4.1166    1.0000 </r>
       <r>   -3.6789    1.0000 </r>
       <r>   -2.8454    1.0000 </r>
       <r>   -2.5836    1.0000 </r>
       <r>   -2.1831    1.0000 </r>
       <r>   -0.3190    1.0000 </r>
       <r>    0.1360    1.0000 </r>
       <r>    0.4981    1.0000 </r>
       <r>    1.1454    1.0000 </r>
       <r>    1.3879    1.0000 </r>
       <r>    1.7377    1.0000 </r>
       <r>    2.2134    1.0000 </r>
       <r>    2.4875    1.0000 </r>
       <r>    2.6365    1.0000 </r>
       <r>    2.9272    1.0000 </r>
       <r>    3.1539    1.0000 </r>
       <r>    3.6323    1.0000 </r>
       <r>    3.9620    1.0000 </r>
       <r>    4.3291    1.0000 </r>
       <r>    4.8207    1.0000 </r>
       <r>    4.9816    1.0000 </r>
       <r>    5.2530    1.0000 </r>
       <r>    5.5353    1.0000 </r>
       <r>    5.8276    1.0000 </r>
       <r>    6.0759    1.0000 </r>
       <r>    6.2183    1.0000 </r>
       <r>    6.6347    1.0000 </r>
       <r>    6.7764    1.0000 </r>
       <r>    7.0178    1.0000 </r>
       <r>   11.5158    0.0000 </r>
       <r>   11.7605    0.0000 </r>
       <r>   12.1310    0.0000 </r>
       <r>   12.2525    0.0000 </r>
       <r>   12.5333    0.0000 </r>
       <r>   12.8628    0.0000 </r>
       <r>   13.2122    0.0000 </r>
       <r>   13.3799    0.0000 </r>
       <r>   14.0372    0.0000 </r>
       <r>   14.4353    0.0000 </r>
       <r>   15.0598    0.0000 </r>
       <r>   15.3555    0.0000 </r>
      </set>
      <set comment="kpoint 17">
       <r>   -8.3919    1.0000 </r>
       <r>   -5.2342    1.0000 </r>
       <r>   -4.8191    1.0000 </r>
       <r>   -4.0240    1.0000 </r>
       <r>   -3.8948    1.0000 </r>
       <r>   -2.9204    1.0000 </r>
       <r>   -2.4583    1.0000 </r>
       <r>   -2.0985    1.0000 </r>
       <r>   -0.3609    1.0000 </r>
       <r>    0.1820    1.0000 </r>
       <r>    0.4172    1.0000 </r>
       <r>    1.1013    1.0000 </r>
       <r>    1.5215    1.0000 </r>
       <r>    1.8572    1.0000 </r>
       <r>    2.1621    1.0000 </r>
       <r>    2.2684    1.0000 </r>
       <r>    2.6070    1.0000 </r>
       <r>    2.9277    1.0000 </r>
       <r>    3.1964    1.0000 </r>
       <r>    3.4503    1.0000 </r>
       <r>    3.9468    1.0000 </r>
       <r>    4.6465    1.0000 </r>
       <r>    4.8290    1.0000 </r>
       <r>    5.1514    1.0000 </r>
       <r>    5.2659    1.0000 </r>
       <r>    5.5537    1.0000 </r>
       <r>    5.7198    1.0000 </r>
       <r>    5.8308    1.0000 </r>
       <r>    6.1392    1.0000 </r>
       <r>    6.6904    1.0000 </r>
       <r>    6.8232    1.0000 </r>
       <r>    7.2006    1.0000 </r>
       <r>   11.3569    0.0000 </r>
       <r>   11.4618    0.0000 </r>
       <r>   12.0670    0.0000 </r>
       <r>   12.4798    0.0000 </r>
       <r>   12.6640    0.0000 </r>
       <r>   12.8108    0.0000 </r>
       <r>   13.1039    0.0000 </r>
       <r>   13.3494    0.0000 </r>
       <r>   13.8978    0.0000 </r>
       <r>   14.4203    0.0000 </r>
       <r>   14.6331    0.0000 </r>
       <r>   15.1286    0.0000 </r>
      </set>
      <set comment="kpoint 18">
       <r>   -8.0328    1.0000 </r>
       <r>   -4.4022    1.0000 </r>
       <r>   -3.8995    1.0000 </r>
       <r>   -3.5831    1.0000 </r>
       <r>   -3.4427    1.0000 </r>
       <r>   -2.7934    1.0000 </r>
       <r>   -2.3820    1.0000 </r>
       <r>   -2.1611    1.0000 </r>
       <r>   -0.7861    1.0000 </r>
       <r>   -0.4053    1.0000 </r>
       <r>   -0.0467    1.0000 </r>
       <r>    0.3303    1.0000 </r>
       <r>    0.7091    1.0000 </r>
       <r>    1.2616    1.0000 </r>
       <r>    1.7821    1.0000 </r>
       <r>    2.4264    1.0000 </r>
       <r>    2.4926    1.0000 </r>
       <r>    3.0030    1.0000 </r>
       <r>    3.2812    1.0000 </r>
       <r>    3.9105    1.0000 </r>
       <r>    3.9160    1.0000 </r>
       <r>    4.4754    1.0000 </r>
       <r>    4.5259    1.0000 </r>
       <r>    5.0646    1.0000 </r>
       <r>    5.1115    1.0000 </r>
       <r>    5.2249    1.0000 </r>
       <r>    5.3437    1.0000 </r>
       <r>    5.6659    1.0000 </r>
       <r>    5.9587    1.0000 </r>
       <r>    6.3431    1.0000 </r>
       <r>    6.4481    1.0000 </r>
       <r>    6.7924    1.0000 </r>
       <r>   10.7989    0.0000 </r>
       <r>   11.3936    0.0000 </r>
       <r>   11.5293    0.0000 </r>
       <r>   11.8422    0.0000 </r>
       <r>   11.9746    0.0000 </r>
       <r>   12.2384    0.0000 </r>
       <r>   13.0493    0.0000 </r>
       <r>   13.4905    0.0000 </r>
       <r>   13.6483    0.0000 </r>
       <r>   14.1322    0.0000 </r>
       <r>   14.2718    0.0000 </r>
       <r>   14.6147    0.0000 </r>
      </set>
      <set comment="kpoint 19">
       <r>   -8.0302    1.0000 </r>
       <r>   -4.3021    1.0000 </r>
       <r>   -3.8596    1.0000 </r>
       <r>   -3.6343    1.0000 </r>
       <r>   -3.5019    1.0000 </r>
       <r>   -2.8735    1.0000 </r>
       <r>   -2.5985    1.0000 </r>
       <r>   -2.2741    1.0000 </r>
       <r>   -0.4918    1.0000 </r>
       <r>   -0.3498    1.0000 </r>
       <r>    0.1643    1.0000 </r>
       <r>    0.6997    1.0000 </r>
       <r>    1.0087    1.0000 </r>
       <r>    1.1310    1.0000 </r>
       <r>    1.4978    1.0000 </r>
       <r>    2.5307    1.0000 </r>
       <r>    2.5640    1.0000 </r>
       <r>    2.8688    1.0000 </r>
       <r>    3.0800    1.0000 </r>
       <r>    3.7082    1.0000 </r>
       <r>    3.7089    1.0000 </r>
       <r>    4.2137    1.0000 </r>
       <r>    4.2586    1.0000 </r>
       <r>    4.8499    1.0000 </r>
       <r>    5.0173    1.0000 </r>
       <r>    5.2734    1.0000 </r>
       <r>    5.3497    1.0000 </r>
       <r>    5.5592    1.0000 </r>
       <r>    6.0919    1.0000 </r>
       <r>    6.6525    1.0000 </r>
       <r>    6.7222    1.0000 </r>
       <r>    7.1129    1.0000 </r>
       <r>   10.6799    0.0000 </r>
       <r>   11.2176    0.0000 </r>
       <r>   11.2610    0.0000 </r>
       <r>   11.8739    0.0000 </r>
       <r>   12.2840    0.0000 </r>
       <r>   12.6931    0.0000 </r>
       <r>   12.7409    0.0000 </r>
       <r>   13.3758    0.0000 </r>
       <r>   14.0605    0.0000 </r>
       <r>   14.6495    0.0000 </r>
       <r>   14.7342    0.0000 </r>
       <r>   15.2097    0.0000 </r>
      </set>
      <set comment="kpoint 20">
       <r>   -8.0303    1.0000 </r>
       <r>   -4.3337    1.0000 </r>
       <r>   -3.8212    1.0000 </r>
       <r>   -3.5409    1.0000 </r>
       <r>   -3.4513    1.0000 </r>
       <r>   -3.1281    1.0000 </r>
       <r>   -2.5202    1.0000 </r>
       <r>   -2.3169    1.0000 </r>
       <r>   -0.3879    1.0000 </r>
       <r>   -0.0907    1.0000 </r>
       <r>    0.2927    1.0000 </r>
       <r>    0.4422    1.0000 </r>
       <r>    0.5332    1.0000 </r>
       <r>    1.2289    1.0000 </r>
       <r>    1.8268    1.0000 </r>
       <r>    2.2099    1.0000 </r>
       <r>    2.4947    1.0000 </r>
       <r>    3.0439    1.0000 </r>
       <r>    3.1487    1.0000 </r>
       <r>    3.8054    1.0000 </r>
       <r>    3.9341    1.0000 </r>
       <r>    4.0987    1.0000 </r>
       <r>    4.3873    1.0000 </r>
       <r>    4.6417    1.0000 </r>
       <r>    4.6887    1.0000 </r>
       <r>    5.1547    1.0000 </r>
       <r>    5.6700    1.0000 </r>
       <r>    5.8509    1.0000 </r>
       <r>    6.0642    1.0000 </r>
       <r>    6.4731    1.0000 </r>
       <r>    6.6716    1.0000 </r>
       <r>    6.9026    1.0000 </r>
       <r>   11.1666    0.0000 </r>
       <r>   11.5953    0.0000 </r>
       <r>   11.8082    0.0000 </r>
       <r>   11.9780    0.0000 </r>
       <r>   12.0644    0.0000 </r>
       <r>   12.4463    0.0000 </r>
       <r>   12.6057    0.0000 </r>
       <r>   12.7845    0.0000 </r>
       <r>   13.7817    0.0000 </r>
       <r>   14.3938    0.0000 </r>
       <r>   14.4803    0.0000 </r>
       <r>   14.7814    0.0000 </r>
      </set>
     </set>
    </set>
   </array>
  </eigenvalues>
  <separator name="orbital magnetization" >
   <v name="MAGDIPOLOUT">      0.00000000      0.00000000      0.00000000</v>
  </separator>
  <dos>
   <i name="efermi">      9.10448780 </i>
   <total>
    <array>
     <dimension dim="1">gridpoints</dimension>
     <dimension dim="2">spin</dimension>
     <field>energy</field>
     <field>total</field>
     <field>integrated</field>
     <set>
      <set comment="spin 1">
       <r>   -10.4779     0.0000     0.0000 </r>
       <r>   -10.3868     0.0000     0.0000 </r>
       <r>   -10.2958     0.0000     0.0000 </r>
       <r>   -10.2047     0.0000     0.0000 </r>
       <r>   -10.1136     0.0000     0.0000 </r>
       <r>   -10.0225     0.0000     0.0000 </r>
       <r>    -9.9315     0.0000     0.0000 </r>
       <r>    -9.8404     0.0000     0.0000 </r>
       <r>    -9.7493     0.0000     0.0000 </r>
       <r>    -9.6583     0.0000     0.0000 </r>
       <r>    -9.5672     0.0000     0.0000 </r>
       <r>    -9.4761     0.0004     0.0000 </r>
       <r>    -9.3851     0.0245     0.0023 </r>
       <r>    -9.2940     0.3907     0.0378 </r>
       <r>    -9.2029     1.4978     0.1743 </r>
       <r>    -9.1119     1.5798     0.3181 </r>
       <r>    -9.0208     1.9001     0.4912 </r>
       <r>    -8.9297     3.4830     0.8083 </r>
       <r>    -8.8387     1.8596     0.9777 </r>
       <r>    -8.7476     0.2379     0.9994 </r>
       <r>    -8.6565     0.0079     1.0001 </r>
       <r>    -8.5655     0.0656     1.0061 </r>
       <r>    -8.4744     0.9601     1.0935 </r>
       <r>    -8.3833     3.2247     1.3872 </r>
       <r>    -8.2923     2.5682     1.6210 </r>
       <r>    -8.2012     0.5114     1.6676 </r>
       <r>    -8.1101     0.4834     1.7116 </r>
       <r>    -8.0191     1.6037     1.8577 </r>
       <r>    -7.9280     1.3046     1.9765 </r>
       <r>    -7.8369     0.2477     1.9990 </r>
       <r>    -7.7459     0.0105     2.0000 </r>
       <r>    -7.6548     0.0001     2.0000 </r>
       <r>    -7.5637     0.0000     2.0000 </r>
       <r>    -7.4727     0.0000     2.0000 </r>
       <r>    -7.3816     0.0000     2.0000 </r>
       <r>    -7.2905     0.0000     2.0000 </r>
       <r>    -7.1995     0.0000     2.0000 </r>
       <r>    -7.1084     0.0000     2.0000 </r>
       <r>    -7.0173     0.0000     2.0000 </r>
       <r>    -6.9263     0.0000     2.0000 </r>
       <r>    -6.8352     0.0002     2.0000 </r>
       <r>    -6.7441     0.0139     2.0013 </r>
       <r>    -6.6530     0.2028     2.0198 </r>
       <r>    -6.5620     0.9033     2.1020 </r>
       <r>    -6.4709     1.4805     2.2368 </r>
       <r>    -6.3798     0.9906     2.3271 </r>
       <r>    -6.2888     1.1411     2.4310 </r>
       <r>    -6.1977     2.9689     2.7014 </r>
       <r>    -6.1066     3.3677     3.0080 </r>
       <r>    -6.0156     1.4857     3.1433 </r>
       <r>    -5.9245     0.9569     3.2305 </r>
       <r>    -5.8334     1.8785     3.4016 </r>
       <r>    -5.7424     1.6559     3.5523 </r>
       <r>    -5.6513     0.9825     3.6418 </r>
       <r>    -5.5602     1.3541     3.7651 </r>
       <r>    -5.4692     1.2410     3.8781 </r>
       <r>    -5.3781     1.3662     4.0026 </r>
       <r>    -5.2870     2.7514     4.2531 </r>
       <r>    -5.1960     3.6868     4.5889 </r>
       <r>    -5.1049     2.7367     4.8381 </r>
       <r>    -5.0138     1.6276     4.9863 </r>
       <r>    -4.9228     2.5072     5.2146 </r>
       <r>    -4.8317     4.5993     5.6335 </r>
       <r>    -4.7406     4.8968     6.0794 </r>
       <r>    -4.6496     3.3564     6.3851 </r>
       <r>    -4.5585     1.7774     6.5470 </r>
       <r>    -4.4674     2.2458     6.7515 </r>
       <r>    -4.3764     3.1186     7.0355 </r>
       <r>    -4.2853     2.5001     7.2632 </r>
       <r>    -4.1942     2.7116     7.5101 </r>
       <r>    -4.1032     3.7643     7.8529 </r>
       <r>    -4.0121     3.9447     8.2121 </r>
       <r>    -3.9210     5.5557     8.7181 </r>
       <r>    -3.8300     5.3960     9.2095 </r>
       <r>    -3.7389     2.8756     9.4713 </r>
       <r>    -3.6478     2.4850     9.6977 </r>
       <r>    -3.5568     3.3958    10.0069 </r>
       <r>    -3.4657     4.9226    10.4552 </r>
       <r>    -3.3746     5.0224    10.9126 </r>
       <r>    -3.2835     4.1870    11.2939 </r>
       <r>    -3.1925     4.0643    11.6640 </r>
       <r>    -3.1014     3.2650    11.9613 </r>
       <r>    -3.0103     2.4684    12.1861 </r>
       <r>    -2.9193     3.6879    12.5220 </r>
       <r>    -2.8282     5.9728    13.0659 </r>
       <r>    -2.7371     4.6534    13.4897 </r>
       <r>    -2.6461     2.8224    13.7467 </r>
       <r>    -2.5550     4.0955    14.1197 </r>
       <r>    -2.4639     4.5152    14.5309 </r>
       <r>    -2.3729     4.1146    14.9056 </r>
       <r>    -2.2818     3.9433    15.2647 </r>
       <r>    -2.1907     3.5192    15.5851 </r>
       <r>    -2.0997     2.9284    15.8518 </r>
       <r>    -2.0086     1.3863    15.9781 </r>
       <r>    -1.9175     0.2303    15.9990 </r>
       <r>    -1.8265     0.0104    16.0000 </r>
       <r>    -1.7354     0.0001    16.0000 </r>
       <r>    -1.6443     0.0000    16.0000 </r>
       <r>    -1.5533     0.0000    16.0000 </r>
       <r>    -1.4622     0.0000    16.0000 </r>
       <r>    -1.3711     0.0000    16.0000 </r>
       <r>    -1.2801     0.0000    16.0000 </r>
       <r>    -1.1890     0.0000    16.0000 </r>
       <r>    -1.0979     0.0000    16.0000 </r>
       <r>    -1.0069     0.0008    16.0001 </r>
       <r>    -0.9158     0.0309    16.0029 </r>
       <r>    -0.8247     0.2782    16.0282 </r>
       <r>    -0.7337     0.6879    16.0909 </r>
       <r>    -0.6426     0.7440    16.1586 </r>
       <r>    -0.5515     0.7999    16.2315 </r>
       <r>    -0.4605     1.6577    16.3824 </r>
       <r>    -0.3694     3.5028    16.7014 </r>
       <r>    -0.2783     4.7058    17.1300 </r>
       <r>    -0.1873     4.0732    17.5009 </r>
       <r>    -0.0962     3.5327    17.8226 </r>
       <r>    -0.0051     3.4907    18.1405 </r>
       <r>     0.0860     3.5082    18.4600 </r>
       <r>     0.1770     5.5471    18.9652 </r>
       <r>     0.2681     5.5794    19.4733 </r>
       <r>     0.3592     4.7539    19.9062 </r>
       <r>     0.4502     5.8297    20.4371 </r>
       <r>     0.5413     6.0087    20.9843 </r>
       <r>     0.6324     4.5984    21.4030 </r>
       <r>     0.7234     4.0823    21.7748 </r>
       <r>     0.8145     2.7227    22.0228 </r>
       <r>     0.9056     1.9833    22.2034 </r>
       <r>     0.9966     3.0231    22.4787 </r>
       <r>     1.0877     3.8233    22.8269 </r>
       <r>     1.1788     4.5800    23.2439 </r>
       <r>     1.2698     5.3314    23.7295 </r>
       <r>     1.3609     5.3192    24.2139 </r>
       <r>     1.4520     5.3506    24.7011 </r>
       <r>     1.5430     5.1094    25.1664 </r>
       <r>     1.6341     3.3909    25.4752 </r>
       <r>     1.7252     3.0715    25.7550 </r>
       <r>     1.8162     3.8891    26.1091 </r>
       <r>     1.9073     5.3531    26.5966 </r>
       <r>     1.9984     5.0738    27.0587 </r>
       <r>     2.0894     4.2184    27.4428 </r>
       <r>     2.1805     5.8999    27.9801 </r>
       <r>     2.2716     7.0370    28.6210 </r>
       <r>     2.3626     5.0426    29.0802 </r>
       <r>     2.4537     3.9865    29.4432 </r>
       <r>     2.5448     4.9439    29.8935 </r>
       <r>     2.6358     4.5179    30.3049 </r>
       <r>     2.7269     3.7990    30.6509 </r>
       <r>     2.8180     2.9528    30.9198 </r>
       <r>     2.9090     4.3964    31.3202 </r>
       <r>     3.0001     5.8395    31.8519 </r>
       <r>     3.0912     6.4413    32.4385 </r>
       <r>     3.1823     6.3676    33.0184 </r>
       <r>     3.2733     5.3688    33.5073 </r>
       <r>     3.3644     5.8150    34.0369 </r>
       <r>     3.4555     7.1143    34.6848 </r>
       <r>     3.5465     5.2618    35.1640 </r>
       <r>     3.6376     4.4342    35.5678 </r>
       <r>     3.7287     5.2506    36.0459 </r>
       <r>     3.8197     6.0606    36.5979 </r>
       <r>     3.9108     7.3882    37.2707 </r>
       <r>     4.0019     8.2752    38.0243 </r>
       <r>     4.0929     7.3670    38.6952 </r>
       <r>     4.1840     5.5904    39.2043 </r>
       <r>     4.2751     4.7203    39.6342 </r>
       <r>     4.3661     5.2570    40.1129 </r>
       <r>     4.4572     6.0867    40.6672 </r>
       <r>     4.5483     5.8052    41.1959 </r>
       <r>     4.6393     5.5398    41.7004 </r>
       <r>     4.7304     5.6316    42.2132 </r>
       <r>     4.8215     5.8052    42.7419 </r>
       <r>     4.9125     6.7659    43.3580 </r>
       <r>     5.0036     8.0423    44.0904 </r>
       <r>     5.0947     8.5655    44.8705 </r>
       <r>     5.1857     9.5536    45.7405 </r>
       <r>     5.2768     9.4706    46.6030 </r>
       <r>     5.3679     8.7629    47.4010 </r>
       <r>     5.4589     8.0297    48.1322 </r>
       <r>     5.5500     7.4952    48.8148 </r>
       <r>     5.6411     8.3665    49.5767 </r>
       <r>     5.7321    10.0880    50.4954 </r>
       <r>     5.8232     8.2286    51.2448 </r>
       <r>     5.9143     6.1171    51.8018 </r>
       <r>     6.0053     6.2177    52.3681 </r>
       <r>     6.0964     8.5141    53.1434 </r>
       <r>     6.1875     9.3904    53.9986 </r>
       <r>     6.2785     8.4251    54.7658 </r>
       <r>     6.3696     6.7887    55.3841 </r>
       <r>     6.4607     6.0557    55.9356 </r>
       <r>     6.5518     7.2954    56.5999 </r>
       <r>     6.6428     7.8465    57.3145 </r>
       <r>     6.7339     9.5713    58.1861 </r>
       <r>     6.8250     8.2564    58.9380 </r>
       <r>     6.9160     6.3975    59.5206 </r>
       <r>     7.0071     6.4300    60.1062 </r>
       <r>     7.0982     7.1184    60.7544 </r>
       <r>     7.1892     5.8432    61.2866 </r>
       <r>     7.2803     3.2866    61.5859 </r>
       <r>     7.3714     3.4413    61.8993 </r>
       <r>     7.4624     4.9554    62.3505 </r>
       <r>     7.5535     4.0703    62.7212 </r>
       <r>     7.6446     3.9640    63.0822 </r>
       <r>     7.7356     4.0575    63.4517 </r>
       <r>     7.8267     1.9254    63.6271 </r>
       <r>     7.9178     0.3945    63.6630 </r>
       <r>     8.0088     0.0391    63.6665 </r>
       <r>     8.0999     0.0014    63.6667 </r>
       <r>     8.1910     0.0000    63.6667 </r>
       <r>     8.2820     0.0000    63.6667 </r>
       <r>     8.3731     0.0041    63.6670 </r>
       <r>     8.4642     0.1082    63.6769 </r>
       <r>     8.5552     0.7592    63.7460 </r>
       <r>     8.6463     1.5967    63.8915 </r>
       <r>     8.7374     1.0100    63.9834 </r>
       <r>     8.8284     0.1745    63.9993 </r>
       <r>     8.9195     0.0073    64.0000 </r>
       <r>     9.0106     0.0001    64.0000 </r>
       <r>     9.1016     0.0000    64.0000 </r>
       <r>     9.1927     0.0000    64.0000 </r>
       <r>     9.2838     0.0000    64.0000 </r>
       <r>     9.3748     0.0000    64.0000 </r>
       <r>     9.4659     0.0000    64.0000 </r>
       <r>     9.5570     0.0000    64.0000 </r>
       <r>     9.6480     0.0000    64.0000 </r>
       <r>     9.7391     0.0000    64.0000 </r>
       <r>     9.8302     0.0000    64.0000 </r>
       <r>     9.9213     0.0000    64.0000 </r>
       <r>    10.0123     0.0000    64.0000 </r>
       <r>    10.1034     0.0001    64.0000 </r>
       <r>    10.1945     0.0068    64.0006 </r>
       <r>    10.2855     0.1490    64.0142 </r>
       <r>    10.3766     0.9017    64.0963 </r>
       <r>    10.4677     1.6633    64.2478 </r>
       <r>    10.5587     1.2579    64.3623 </r>
       <r>    10.6498     0.9495    64.4488 </r>
       <r>    10.7409     0.8768    64.5287 </r>
       <r>    10.8319     0.9196    64.6124 </r>
       <r>    10.9230     0.5623    64.6636 </r>
       <r>    11.0141     0.7074    64.7280 </r>
       <r>    11.1051     2.3289    64.9401 </r>
       <r>    11.1962     3.1823    65.2299 </r>
       <r>    11.2873     3.8224    65.5780 </r>
       <r>    11.3783     6.2145    66.1440 </r>
       <r>    11.4694     7.0136    66.7827 </r>
       <r>    11.5605     4.7488    67.2151 </r>
       <r>    11.6515     2.7196    67.4628 </r>
       <r>    11.7426     3.2747    67.7610 </r>
       <r>    11.8337     4.3082    68.1534 </r>
       <r>    11.9247     4.5607    68.5687 </r>
       <r>    12.0158     4.2369    68.9545 </r>
       <r>    12.1069     5.5971    69.4643 </r>
       <r>    12.1979     7.3888    70.1371 </r>
       <r>    12.2890     6.1341    70.6957 </r>
       <r>    12.3801     3.8503    71.0464 </r>
       <r>    12.4711     4.1443    71.4238 </r>
       <r>    12.5622     5.3841    71.9141 </r>
       <r>    12.6533     5.0895    72.3776 </r>
       <r>    12.7443     5.2229    72.8532 </r>
       <r>    12.8354     5.1095    73.3186 </r>
       <r>    12.9265     5.1783    73.7901 </r>
       <r>    13.0175     5.9813    74.3348 </r>
       <r>    13.1086     6.5150    74.9281 </r>
       <r>    13.1997     6.6038    75.5295 </r>
       <r>    13.2908     8.2934    76.2848 </r>
       <r>    13.3818     7.6513    76.9816 </r>
       <r>    13.4729     4.9414    77.4316 </r>
       <r>    13.5640     4.5225    77.8434 </r>
       <r>    13.6550     4.6987    78.2713 </r>
       <r>    13.7461     5.9353    78.8118 </r>
       <r>    13.8372     7.0286    79.4519 </r>
       <r>    13.9282     7.3630    80.1224 </r>
       <r>    14.0193     7.4309    80.7992 </r>
       <r>    14.1104     6.3986    81.3819 </r>
       <r>    14.2014     3.9662    81.7431 </r>
       <r>    14.2925     4.2919    82.1339 </r>
       <r>    14.3836     5.3305    82.6193 </r>
       <r>    14.4746     6.0987    83.1747 </r>
       <r>    14.5657     7.5931    83.8662 </r>
       <r>    14.6568     7.4186    84.5418 </r>
       <r>    14.7478     6.8762    85.1680 </r>
       <r>    14.8389     6.0286    85.7170 </r>
       <r>    14.9300     3.8500    86.0676 </r>
       <r>    15.0210     3.6406    86.3992 </r>
       <r>    15.1121     5.0295    86.8572 </r>
       <r>    15.2032     4.6836    87.2837 </r>
       <r>    15.2942     3.3110    87.5853 </r>
       <r>    15.3853     2.4553    87.8088 </r>
       <r>    15.4764     1.1407    87.9127 </r>
       <r>    15.5674     0.3981    87.9490 </r>
       <r>    15.6585     0.3924    87.9847 </r>
       <r>    15.7496     0.1535    87.9987 </r>
       <r>    15.8406     0.0140    88.0000 </r>
       <r>    15.9317     0.0003    88.0000 </r>
       <r>    16.0228     0.0000    88.0000 </r>
       <r>    16.1138     0.0000    88.0000 </r>
       <r>    16.2049     0.0000    88.0000 </r>
       <r>    16.2960     0.0000    88.0000 </r>
       <r>    16.3870     0.0000    88.0000 </r>
       <r>    16.4781     0.0000    88.0000 </r>
       <r>    16.5692     0.0000    88.0000 </r>
       <r>    16.6603     0.0000    88.0000 </r>
       <r>    16.7513     0.0000    88.0000 </r>
       <r>    16.8424     0.0000    88.0000 </r>
      </set>
     </set>
    </array>
   </total>
  </dos>
 </calculation>
 <structure name="finalpos" >
  <crystal>
   <varray name="basis" >
    <v>       7.39364458       0.00000000       0.08806184 </v>
    <v>       0.00000000       3.09999816       0.00000000 </v>
    <v>      -0.49637560       0.00000000       7.36626507 </v>
   </varray>
   <i name="volume">    168.97239833 </i>
   <varray name="rec_basis" >
    <v>       0.13514283       0.00000000       0.00910660 </v>
    <v>       0.00000000       0.32258084       0.00000000 </v>
    <v>      -0.00161560       0.00000000       0.13564514 </v>
   </varray>
  </crystal>
  <varray name="positions" >
   <v>       0.41434977       0.50000000       0.58495621 </v>
   <v>       0.66990259       0.00000000       0.33212021 </v>
   <v>       0.91673383       0.50000000       0.07970447 </v>
   <v>       0.33117146       0.50000000       0.16436816 </v>
   <v>       0.58317510       0.00000000       0.91724707 </v>
   <v>       0.83332910       0.50000000       0.67079840 </v>
   <v>       0.08337593       0.00000000       0.41387264 </v>
   <v>       0.16403951       0.00000000       0.83399492 </v>
   <v>       0.36673235       0.00000000       0.03548846 </v>
   <v>       0.60135521       0.50000000       0.76938204 </v>
   <v>       0.85041556       0.00000000       0.51909187 </v>
   <v>       0.10498063       0.50000000       0.26999774 </v>
   <v>       0.76838749       0.00000000       0.10814804 </v>
   <v>       0.00824407       0.50000000       0.85576898 </v>
   <v>       0.27889889       0.00000000       0.58840267 </v>
   <v>       0.52490851       0.50000000       0.35665812 </v>
  </varray>
 </structure>
</modeling>
