<?xml version="1.0" encoding="ISO-8859-1"?>
<modeling>
 <generator>
  <i name="program" type="string">vasp </i>
  <i name="version" type="string">5.3.5  </i>
  <i name="subversion" type="string">31Mar14 (build Jun 20 2014 13:15:13) complex                          parallel </i>
  <i name="platform" type="string">LinuxIFC </i>
  <i name="date" type="string">2025 11 21 </i>
  <i name="time" type="string">10:49:28 </i>
 </generator>
 <incar>
  <i type="string" name="PREC">accurate</i>
  <i type="int" name="IALGO">    68</i>
  <i type="logical" name="ADDGRID"> T  </i>
  <i type="int" name="NELM">   100</i>
  <i type="int" name="NELMIN">     4</i>
  <i type="int" name="IBRION">     2</i>
  <i name="EDIFF">      0.00000100</i>
  <i name="EDIFFG">     -0.02000000</i>
  <i type="int" name="NSW">    30</i>
  <i type="int" name="ISIF">     3</i>
  <i name="ENCUT">    500.00000000</i>
  <i type="logical" name="LREAL"> F  </i>
  <i type="int" name="ISMEAR">     1</i>
  <i name="SIGMA">      0.30000000</i>
  <i type="logical" name="LWAVE"> F  </i>
  <i type="logical" name="LCHARG"> F  </i>
  <i type="int" name="NELM">   100</i>
 </incar>
 <kpoints>
  <generation param="Auto">
   <i name="subdivisionlength">     70.00000000 </i>
   <v type="int" name="divisions">      28       28        6 </v>
   <v name="usershift">      0.00000000       0.00000000       0.00000000 </v>
   <v name="genvec1">      0.03571429       0.00000000       0.00000000 </v>
   <v name="genvec2">      0.00000000       0.03571429       0.00000000 </v>
   <v name="genvec3">      0.00000000       0.00000000       0.16666667 </v>
   <v name="shift">      0.00000000       0.00000000       0.00000000 </v>
  </generation>
  <varray name="kpointlist" >
   <v>       0.00000000       0.00000000       0.00000000 </v>
   <v>       0.03571429       0.00000000       0.00000000 </v>
   <v>       0.07142857       0.00000000       0.00000000 </v>
   <v>       0.10714286       0.00000000       0.00000000 </v>
   <v>       0.14285714       0.00000000       0.00000000 </v>
   <v>       0.17857143       0.00000000       0.00000000 </v>
   <v>       0.21428571       0.00000000       0.00000000 </v>
   <v>       0.25000000       0.00000000       0.00000000 </v>
   <v>       0.28571429       0.00000000       0.00000000 </v>
   <v>       0.32142857       0.00000000       0.00000000 </v>
   <v>       0.35714286       0.00000000       0.00000000 </v>
   <v>       0.39285714       0.00000000       0.00000000 </v>
   <v>       0.42857143       0.00000000       0.00000000 </v>
   <v>       0.46428571       0.00000000       0.00000000 </v>
   <v>       0.50000000       0.00000000       0.00000000 </v>
   <v>       0.00000000       0.03571429       0.00000000 </v>
   <v>       0.03571429       0.03571429       0.00000000 </v>
   <v>       0.07142857       0.03571429       0.00000000 </v>
   <v>       0.10714286       0.03571429       0.00000000 </v>
   <v>       0.14285714       0.03571429       0.00000000 </v>
   <v>       0.17857143       0.03571429       0.00000000 </v>
   <v>       0.21428571       0.03571429       0.00000000 </v>
   <v>       0.25000000       0.03571429       0.00000000 </v>
   <v>       0.28571429       0.03571429       0.00000000 </v>
   <v>       0.32142857       0.03571429       0.00000000 </v>
   <v>       0.35714286       0.03571429       0.00000000 </v>
   <v>       0.39285714       0.03571429       0.00000000 </v>
   <v>       0.42857143       0.03571429       0.00000000 </v>
   <v>       0.46428571       0.03571429       0.00000000 </v>
   <v>       0.00000000       0.07142857       0.00000000 </v>
   <v>       0.03571429       0.07142857       0.00000000 </v>
   <v>       0.07142857       0.07142857       0.00000000 </v>
   <v>       0.10714286       0.07142857       0.00000000 </v>
   <v>       0.14285714       0.07142857       0.00000000 </v>
   <v>       0.17857143       0.07142857       0.00000000 </v>
   <v>       0.21428571       0.07142857       0.00000000 </v>
   <v>       0.25000000       0.07142857       0.00000000 </v>
   <v>       0.28571429       0.07142857       0.00000000 </v>
   <v>       0.32142857       0.07142857       0.00000000 </v>
   <v>       0.35714286       0.07142857       0.00000000 </v>
   <v>       0.39285714       0.07142857       0.00000000 </v>
   <v>       0.42857143       0.07142857       0.00000000 </v>
   <v>       0.46428571       0.07142857       0.00000000 </v>
   <v>      -0.03571429       0.07142857       0.00000000 </v>
   <v>       0.00000000       0.10714286       0.00000000 </v>
   <v>       0.03571429       0.10714286       0.00000000 </v>
   <v>       0.07142857       0.10714286       0.00000000 </v>
   <v>       0.10714286       0.10714286       0.00000000 </v>
   <v>       0.14285714       0.10714286       0.00000000 </v>
   <v>       0.17857143       0.10714286       0.00000000 </v>
   <v>       0.21428571       0.10714286       0.00000000 </v>
   <v>       0.25000000       0.10714286       0.00000000 </v>
   <v>       0.28571429       0.10714286       0.00000000 </v>
   <v>       0.32142857       0.10714286       0.00000000 </v>
   <v>       0.35714286       0.10714286       0.00000000 </v>
   <v>       0.39285714       0.10714286       0.00000000 </v>
   <v>       0.42857143       0.10714286       0.00000000 </v>
   <v>      -0.07142857       0.10714286       0.00000000 </v>
   <v>       0.00000000       0.14285714       0.00000000 </v>
   <v>       0.03571429       0.14285714       0.00000000 </v>
   <v>       0.07142857       0.14285714       0.00000000 </v>
   <v>       0.10714286       0.14285714       0.00000000 </v>
   <v>       0.14285714       0.14285714       0.00000000 </v>
   <v>       0.17857143       0.14285714       0.00000000 </v>
   <v>       0.21428571       0.14285714       0.00000000 </v>
   <v>       0.25000000       0.14285714       0.00000000 </v>
   <v>       0.28571429       0.14285714       0.00000000 </v>
   <v>       0.32142857       0.14285714       0.00000000 </v>
   <v>       0.35714286       0.14285714       0.00000000 </v>
   <v>       0.39285714       0.14285714       0.00000000 </v>
   <v>       0.42857143       0.14285714       0.00000000 </v>
   <v>      -0.10714286       0.14285714       0.00000000 </v>
   <v>      -0.07142857       0.14285714       0.00000000 </v>
   <v>       0.00000000       0.17857143       0.00000000 </v>
   <v>       0.03571429       0.17857143       0.00000000 </v>
   <v>       0.07142857       0.17857143       0.00000000 </v>
   <v>       0.10714286       0.17857143       0.00000000 </v>
   <v>       0.14285714       0.17857143       0.00000000 </v>
   <v>       0.17857143       0.17857143       0.00000000 </v>
   <v>       0.21428571       0.17857143       0.00000000 </v>
   <v>       0.25000000       0.17857143       0.00000000 </v>
   <v>       0.28571429       0.17857143       0.00000000 </v>
   <v>       0.32142857       0.17857143       0.00000000 </v>
   <v>       0.35714286       0.17857143       0.00000000 </v>
   <v>       0.39285714       0.17857143       0.00000000 </v>
   <v>      -0.14285714       0.17857143       0.00000000 </v>
   <v>      -0.10714286       0.17857143       0.00000000 </v>
   <v>       0.00000000       0.21428571       0.00000000 </v>
   <v>       0.03571429       0.21428571       0.00000000 </v>
   <v>       0.07142857       0.21428571       0.00000000 </v>
   <v>       0.10714286       0.21428571       0.00000000 </v>
   <v>       0.14285714       0.21428571       0.00000000 </v>
   <v>       0.17857143       0.21428571       0.00000000 </v>
   <v>       0.21428571       0.21428571       0.00000000 </v>
   <v>       0.25000000       0.21428571       0.00000000 </v>
   <v>       0.28571429       0.21428571       0.00000000 </v>
   <v>       0.32142857       0.21428571       0.00000000 </v>
   <v>       0.35714286       0.21428571       0.00000000 </v>
   <v>       0.39285714       0.21428571       0.00000000 </v>
   <v>      -0.17857143       0.21428571       0.00000000 </v>
   <v>      -0.14285714       0.21428571       0.00000000 </v>
   <v>      -0.10714286       0.21428571       0.00000000 </v>
   <v>       0.00000000       0.25000000       0.00000000 </v>
   <v>       0.03571429       0.25000000       0.00000000 </v>
   <v>       0.07142857       0.25000000       0.00000000 </v>
   <v>       0.10714286       0.25000000       0.00000000 </v>
   <v>       0.14285714       0.25000000       0.00000000 </v>
   <v>       0.17857143       0.25000000       0.00000000 </v>
   <v>       0.21428571       0.25000000       0.00000000 </v>
   <v>       0.25000000       0.25000000       0.00000000 </v>
   <v>       0.28571429       0.25000000       0.00000000 </v>
   <v>       0.32142857       0.25000000       0.00000000 </v>
   <v>       0.35714286       0.25000000       0.00000000 </v>
   <v>      -0.21428571       0.25000000       0.00000000 </v>
   <v>      -0.17857143       0.25000000       0.00000000 </v>
   <v>      -0.14285714       0.25000000       0.00000000 </v>
   <v>       0.00000000       0.28571429       0.00000000 </v>
   <v>       0.03571429       0.28571429       0.00000000 </v>
   <v>       0.07142857       0.28571429       0.00000000 </v>
   <v>       0.10714286       0.28571429       0.00000000 </v>
   <v>       0.14285714       0.28571429       0.00000000 </v>
   <v>       0.17857143       0.28571429       0.00000000 </v>
   <v>       0.21428571       0.28571429       0.00000000 </v>
   <v>       0.25000000       0.28571429       0.00000000 </v>
   <v>       0.28571429       0.28571429       0.00000000 </v>
   <v>       0.32142857       0.28571429       0.00000000 </v>
   <v>       0.35714286       0.28571429       0.00000000 </v>
   <v>      -0.25000000       0.28571429       0.00000000 </v>
   <v>      -0.21428571       0.28571429       0.00000000 </v>
   <v>      -0.17857143       0.28571429       0.00000000 </v>
   <v>      -0.14285714       0.28571429       0.00000000 </v>
   <v>       0.00000000       0.32142857       0.00000000 </v>
   <v>       0.03571429       0.32142857       0.00000000 </v>
   <v>       0.07142857       0.32142857       0.00000000 </v>
   <v>       0.10714286       0.32142857       0.00000000 </v>
   <v>       0.14285714       0.32142857       0.00000000 </v>
   <v>       0.17857143       0.32142857       0.00000000 </v>
   <v>       0.21428571       0.32142857       0.00000000 </v>
   <v>       0.25000000       0.32142857       0.00000000 </v>
   <v>       0.28571429       0.32142857       0.00000000 </v>
   <v>       0.32142857       0.32142857       0.00000000 </v>
   <v>      -0.28571429       0.32142857       0.00000000 </v>
   <v>      -0.25000000       0.32142857       0.00000000 </v>
   <v>      -0.21428571       0.32142857       0.00000000 </v>
   <v>      -0.17857143       0.32142857       0.00000000 </v>
   <v>       0.00000000       0.35714286       0.00000000 </v>
   <v>       0.03571429       0.35714286       0.00000000 </v>
   <v>       0.07142857       0.35714286       0.00000000 </v>
   <v>       0.10714286       0.35714286       0.00000000 </v>
   <v>       0.14285714       0.35714286       0.00000000 </v>
   <v>       0.17857143       0.35714286       0.00000000 </v>
   <v>       0.21428571       0.35714286       0.00000000 </v>
   <v>       0.25000000       0.35714286       0.00000000 </v>
   <v>       0.28571429       0.35714286       0.00000000 </v>
   <v>       0.32142857       0.35714286       0.00000000 </v>
   <v>      -0.32142857       0.35714286       0.00000000 </v>
   <v>      -0.28571429       0.35714286       0.00000000 </v>
   <v>      -0.25000000       0.35714286       0.00000000 </v>
   <v>      -0.21428571       0.35714286       0.00000000 </v>
   <v>      -0.17857143       0.35714286       0.00000000 </v>
   <v>       0.00000000       0.39285714       0.00000000 </v>
   <v>       0.03571429       0.39285714       0.00000000 </v>
   <v>       0.07142857       0.39285714       0.00000000 </v>
   <v>       0.10714286       0.39285714       0.00000000 </v>
   <v>       0.14285714       0.39285714       0.00000000 </v>
   <v>       0.17857143       0.39285714       0.00000000 </v>
   <v>       0.21428571       0.39285714       0.00000000 </v>
   <v>       0.25000000       0.39285714       0.00000000 </v>
   <v>       0.28571429       0.39285714       0.00000000 </v>
   <v>      -0.35714286       0.39285714       0.00000000 </v>
   <v>      -0.32142857       0.39285714       0.00000000 </v>
   <v>      -0.28571429       0.39285714       0.00000000 </v>
   <v>      -0.25000000       0.39285714       0.00000000 </v>
   <v>      -0.21428571       0.39285714       0.00000000 </v>
   <v>       0.00000000       0.42857143       0.00000000 </v>
   <v>       0.03571429       0.42857143       0.00000000 </v>
   <v>       0.07142857       0.42857143       0.00000000 </v>
   <v>       0.10714286       0.42857143       0.00000000 </v>
   <v>       0.14285714       0.42857143       0.00000000 </v>
   <v>       0.17857143       0.42857143       0.00000000 </v>
   <v>       0.21428571       0.42857143       0.00000000 </v>
   <v>       0.25000000       0.42857143       0.00000000 </v>
   <v>       0.28571429       0.42857143       0.00000000 </v>
   <v>      -0.39285714       0.42857143       0.00000000 </v>
   <v>      -0.35714286       0.42857143       0.00000000 </v>
   <v>      -0.32142857       0.42857143       0.00000000 </v>
   <v>      -0.28571429       0.42857143       0.00000000 </v>
   <v>      -0.25000000       0.42857143       0.00000000 </v>
   <v>      -0.21428571       0.42857143       0.00000000 </v>
   <v>       0.00000000       0.46428571       0.00000000 </v>
   <v>       0.03571429       0.46428571       0.00000000 </v>
   <v>       0.07142857       0.46428571       0.00000000 </v>
   <v>       0.10714286       0.46428571       0.00000000 </v>
   <v>       0.14285714       0.46428571       0.00000000 </v>
   <v>       0.17857143       0.46428571       0.00000000 </v>
   <v>       0.21428571       0.46428571       0.00000000 </v>
   <v>       0.25000000       0.46428571       0.00000000 </v>
   <v>      -0.42857143       0.46428571       0.00000000 </v>
   <v>      -0.39285714       0.46428571       0.00000000 </v>
   <v>      -0.35714286       0.46428571       0.00000000 </v>
   <v>      -0.32142857       0.46428571       0.00000000 </v>
   <v>      -0.28571429       0.46428571       0.00000000 </v>
   <v>      -0.25000000       0.46428571       0.00000000 </v>
   <v>       0.00000000       0.50000000       0.00000000 </v>
   <v>       0.03571429       0.50000000       0.00000000 </v>
   <v>       0.07142857       0.50000000       0.00000000 </v>
   <v>       0.10714286       0.50000000       0.00000000 </v>
   <v>       0.14285714       0.50000000       0.00000000 </v>
   <v>       0.17857143       0.50000000       0.00000000 </v>
   <v>       0.21428571       0.50000000       0.00000000 </v>
   <v>       0.25000000       0.50000000       0.00000000 </v>
   <v>       0.00000000       0.00000000       0.16666667 </v>
   <v>       0.03571429       0.00000000       0.16666667 </v>
   <v>       0.07142857       0.00000000       0.16666667 </v>
   <v>       0.10714286       0.00000000       0.16666667 </v>
   <v>       0.14285714       0.00000000       0.16666667 </v>
   <v>       0.17857143       0.00000000       0.16666667 </v>
   <v>       0.21428571       0.00000000       0.16666667 </v>
   <v>       0.25000000       0.00000000       0.16666667 </v>
   <v>       0.28571429       0.00000000       0.16666667 </v>
   <v>       0.32142857       0.00000000       0.16666667 </v>
   <v>       0.35714286       0.00000000       0.16666667 </v>
   <v>       0.39285714       0.00000000       0.16666667 </v>
   <v>       0.42857143       0.00000000       0.16666667 </v>
   <v>       0.46428571       0.00000000       0.16666667 </v>
   <v>       0.50000000       0.00000000       0.16666667 </v>
   <v>      -0.46428571       0.00000000       0.16666667 </v>
   <v>      -0.42857143       0.00000000       0.16666667 </v>
   <v>      -0.39285714       0.00000000       0.16666667 </v>
   <v>      -0.35714286       0.00000000       0.16666667 </v>
   <v>      -0.32142857       0.00000000       0.16666667 </v>
   <v>      -0.28571429       0.00000000       0.16666667 </v>
   <v>      -0.25000000       0.00000000       0.16666667 </v>
   <v>      -0.21428571       0.00000000       0.16666667 </v>
   <v>      -0.17857143       0.00000000       0.16666667 </v>
   <v>      -0.14285714       0.00000000       0.16666667 </v>
   <v>      -0.10714286       0.00000000       0.16666667 </v>
   <v>      -0.07142857       0.00000000       0.16666667 </v>
   <v>      -0.03571429       0.00000000       0.16666667 </v>
   <v>       0.00000000       0.03571429       0.16666667 </v>
   <v>       0.03571429       0.03571429       0.16666667 </v>
   <v>       0.07142857       0.03571429       0.16666667 </v>
   <v>       0.10714286       0.03571429       0.16666667 </v>
   <v>       0.14285714       0.03571429       0.16666667 </v>
   <v>       0.17857143       0.03571429       0.16666667 </v>
   <v>       0.21428571       0.03571429       0.16666667 </v>
   <v>       0.25000000       0.03571429       0.16666667 </v>
   <v>       0.28571429       0.03571429       0.16666667 </v>
   <v>       0.32142857       0.03571429       0.16666667 </v>
   <v>       0.35714286       0.03571429       0.16666667 </v>
   <v>       0.39285714       0.03571429       0.16666667 </v>
   <v>       0.42857143       0.03571429       0.16666667 </v>
   <v>       0.46428571       0.03571429       0.16666667 </v>
   <v>       0.50000000       0.03571429       0.16666667 </v>
   <v>      -0.46428571       0.03571429       0.16666667 </v>
   <v>      -0.42857143       0.03571429       0.16666667 </v>
   <v>      -0.39285714       0.03571429       0.16666667 </v>
   <v>      -0.35714286       0.03571429       0.16666667 </v>
   <v>      -0.32142857       0.03571429       0.16666667 </v>
   <v>      -0.28571429       0.03571429       0.16666667 </v>
   <v>      -0.25000000       0.03571429       0.16666667 </v>
   <v>      -0.21428571       0.03571429       0.16666667 </v>
   <v>      -0.17857143       0.03571429       0.16666667 </v>
   <v>      -0.14285714       0.03571429       0.16666667 </v>
   <v>      -0.10714286       0.03571429       0.16666667 </v>
   <v>      -0.07142857       0.03571429       0.16666667 </v>
   <v>      -0.03571429       0.03571429       0.16666667 </v>
   <v>       0.00000000       0.07142857       0.16666667 </v>
   <v>       0.03571429       0.07142857       0.16666667 </v>
   <v>       0.07142857       0.07142857       0.16666667 </v>
   <v>       0.10714286       0.07142857       0.16666667 </v>
   <v>       0.14285714       0.07142857       0.16666667 </v>
   <v>       0.17857143       0.07142857       0.16666667 </v>
   <v>       0.21428571       0.07142857       0.16666667 </v>
   <v>       0.25000000       0.07142857       0.16666667 </v>
   <v>       0.28571429       0.07142857       0.16666667 </v>
   <v>       0.32142857       0.07142857       0.16666667 </v>
   <v>       0.35714286       0.07142857       0.16666667 </v>
   <v>       0.39285714       0.07142857       0.16666667 </v>
   <v>       0.42857143       0.07142857       0.16666667 </v>
   <v>       0.46428571       0.07142857       0.16666667 </v>
   <v>       0.50000000       0.07142857       0.16666667 </v>
   <v>      -0.46428571       0.07142857       0.16666667 </v>
   <v>      -0.42857143       0.07142857       0.16666667 </v>
   <v>      -0.39285714       0.07142857       0.16666667 </v>
   <v>      -0.35714286       0.07142857       0.16666667 </v>
   <v>      -0.32142857       0.07142857       0.16666667 </v>
   <v>      -0.28571429       0.07142857       0.16666667 </v>
   <v>      -0.25000000       0.07142857       0.16666667 </v>
   <v>      -0.21428571       0.07142857       0.16666667 </v>
   <v>      -0.17857143       0.07142857       0.16666667 </v>
   <v>      -0.14285714       0.07142857       0.16666667 </v>
   <v>      -0.10714286       0.07142857       0.16666667 </v>
   <v>      -0.07142857       0.07142857       0.16666667 </v>
   <v>      -0.03571429       0.07142857       0.16666667 </v>
   <v>       0.00000000       0.10714286       0.16666667 </v>
   <v>       0.03571429       0.10714286       0.16666667 </v>
   <v>       0.07142857       0.10714286       0.16666667 </v>
   <v>       0.10714286       0.10714286       0.16666667 </v>
   <v>       0.14285714       0.10714286       0.16666667 </v>
   <v>       0.17857143       0.10714286       0.16666667 </v>
   <v>       0.21428571       0.10714286       0.16666667 </v>
   <v>       0.25000000       0.10714286       0.16666667 </v>
   <v>       0.28571429       0.10714286       0.16666667 </v>
   <v>       0.32142857       0.10714286       0.16666667 </v>
   <v>       0.35714286       0.10714286       0.16666667 </v>
   <v>       0.39285714       0.10714286       0.16666667 </v>
   <v>       0.42857143       0.10714286       0.16666667 </v>
   <v>       0.46428571       0.10714286       0.16666667 </v>
   <v>       0.50000000       0.10714286       0.16666667 </v>
   <v>      -0.46428571       0.10714286       0.16666667 </v>
   <v>      -0.42857143       0.10714286       0.16666667 </v>
   <v>      -0.39285714       0.10714286       0.16666667 </v>
   <v>      -0.35714286       0.10714286       0.16666667 </v>
   <v>      -0.32142857       0.10714286       0.16666667 </v>
   <v>      -0.28571429       0.10714286       0.16666667 </v>
   <v>      -0.25000000       0.10714286       0.16666667 </v>
   <v>      -0.21428571       0.10714286       0.16666667 </v>
   <v>      -0.17857143       0.10714286       0.16666667 </v>
   <v>      -0.14285714       0.10714286       0.16666667 </v>
   <v>      -0.10714286       0.10714286       0.16666667 </v>
   <v>      -0.07142857       0.10714286       0.16666667 </v>
   <v>      -0.03571429       0.10714286       0.16666667 </v>
   <v>       0.00000000       0.14285714       0.16666667 </v>
   <v>       0.03571429       0.14285714       0.16666667 </v>
   <v>       0.07142857       0.14285714       0.16666667 </v>
   <v>       0.10714286       0.14285714       0.16666667 </v>
   <v>       0.14285714       0.14285714       0.16666667 </v>
   <v>       0.17857143       0.14285714       0.16666667 </v>
   <v>       0.21428571       0.14285714       0.16666667 </v>
   <v>       0.25000000       0.14285714       0.16666667 </v>
   <v>       0.28571429       0.14285714       0.16666667 </v>
   <v>       0.32142857       0.14285714       0.16666667 </v>
   <v>       0.35714286       0.14285714       0.16666667 </v>
   <v>       0.39285714       0.14285714       0.16666667 </v>
   <v>       0.42857143       0.14285714       0.16666667 </v>
   <v>       0.46428571       0.14285714       0.16666667 </v>
   <v>       0.50000000       0.14285714       0.16666667 </v>
   <v>      -0.46428571       0.14285714       0.16666667 </v>
   <v>      -0.42857143       0.14285714       0.16666667 </v>
   <v>      -0.39285714       0.14285714       0.16666667 </v>
   <v>      -0.35714286       0.14285714       0.16666667 </v>
   <v>      -0.32142857       0.14285714       0.16666667 </v>
   <v>      -0.28571429       0.14285714       0.16666667 </v>
   <v>      -0.25000000       0.14285714       0.16666667 </v>
   <v>      -0.21428571       0.14285714       0.16666667 </v>
   <v>      -0.17857143       0.14285714       0.16666667 </v>
   <v>      -0.14285714       0.14285714       0.16666667 </v>
   <v>      -0.10714286       0.14285714       0.16666667 </v>
   <v>      -0.07142857       0.14285714       0.16666667 </v>
   <v>      -0.03571429       0.14285714       0.16666667 </v>
   <v>       0.00000000       0.17857143       0.16666667 </v>
   <v>       0.03571429       0.17857143       0.16666667 </v>
   <v>       0.07142857       0.17857143       0.16666667 </v>
   <v>       0.10714286       0.17857143       0.16666667 </v>
   <v>       0.14285714       0.17857143       0.16666667 </v>
   <v>       0.17857143       0.17857143       0.16666667 </v>
   <v>       0.21428571       0.17857143       0.16666667 </v>
   <v>       0.25000000       0.17857143       0.16666667 </v>
   <v>       0.28571429       0.17857143       0.16666667 </v>
   <v>       0.32142857       0.17857143       0.16666667 </v>
   <v>       0.35714286       0.17857143       0.16666667 </v>
   <v>       0.39285714       0.17857143       0.16666667 </v>
   <v>       0.42857143       0.17857143       0.16666667 </v>
   <v>       0.46428571       0.17857143       0.16666667 </v>
   <v>       0.50000000       0.17857143       0.16666667 </v>
   <v>      -0.46428571       0.17857143       0.16666667 </v>
   <v>      -0.42857143       0.17857143       0.16666667 </v>
   <v>      -0.39285714       0.17857143       0.16666667 </v>
   <v>      -0.35714286       0.17857143       0.16666667 </v>
   <v>      -0.32142857       0.17857143       0.16666667 </v>
   <v>      -0.28571429       0.17857143       0.16666667 </v>
   <v>      -0.25000000       0.17857143       0.16666667 </v>
   <v>      -0.21428571       0.17857143       0.16666667 </v>
   <v>      -0.17857143       0.17857143       0.16666667 </v>
   <v>      -0.14285714       0.17857143       0.16666667 </v>
   <v>      -0.10714286       0.17857143       0.16666667 </v>
   <v>      -0.07142857       0.17857143       0.16666667 </v>
   <v>      -0.03571429       0.17857143       0.16666667 </v>
   <v>       0.00000000       0.21428571       0.16666667 </v>
   <v>       0.03571429       0.21428571       0.16666667 </v>
   <v>       0.07142857       0.21428571       0.16666667 </v>
   <v>       0.10714286       0.21428571       0.16666667 </v>
   <v>       0.14285714       0.21428571       0.16666667 </v>
   <v>       0.17857143       0.21428571       0.16666667 </v>
   <v>       0.21428571       0.21428571       0.16666667 </v>
   <v>       0.25000000       0.21428571       0.16666667 </v>
   <v>       0.28571429       0.21428571       0.16666667 </v>
   <v>       0.32142857       0.21428571       0.16666667 </v>
   <v>       0.35714286       0.21428571       0.16666667 </v>
   <v>       0.39285714       0.21428571       0.16666667 </v>
   <v>       0.42857143       0.21428571       0.16666667 </v>
   <v>       0.46428571       0.21428571       0.16666667 </v>
   <v>       0.50000000       0.21428571       0.16666667 </v>
   <v>      -0.46428571       0.21428571       0.16666667 </v>
   <v>      -0.42857143       0.21428571       0.16666667 </v>
   <v>      -0.39285714       0.21428571       0.16666667 </v>
   <v>      -0.35714286       0.21428571       0.16666667 </v>
   <v>      -0.32142857       0.21428571       0.16666667 </v>
   <v>      -0.28571429       0.21428571       0.16666667 </v>
   <v>      -0.25000000       0.21428571       0.16666667 </v>
   <v>      -0.21428571       0.21428571       0.16666667 </v>
   <v>      -0.17857143       0.21428571       0.16666667 </v>
   <v>      -0.14285714       0.21428571       0.16666667 </v>
   <v>      -0.10714286       0.21428571       0.16666667 </v>
   <v>      -0.07142857       0.21428571       0.16666667 </v>
   <v>      -0.03571429       0.21428571       0.16666667 </v>
   <v>       0.00000000       0.25000000       0.16666667 </v>
   <v>       0.03571429       0.25000000       0.16666667 </v>
   <v>       0.07142857       0.25000000       0.16666667 </v>
   <v>       0.10714286       0.25000000       0.16666667 </v>
   <v>       0.14285714       0.25000000       0.16666667 </v>
   <v>       0.17857143       0.25000000       0.16666667 </v>
   <v>       0.21428571       0.25000000       0.16666667 </v>
   <v>       0.25000000       0.25000000       0.16666667 </v>
   <v>       0.28571429       0.25000000       0.16666667 </v>
   <v>       0.32142857       0.25000000       0.16666667 </v>
   <v>       0.35714286       0.25000000       0.16666667 </v>
   <v>       0.39285714       0.25000000       0.16666667 </v>
   <v>       0.42857143       0.25000000       0.16666667 </v>
   <v>       0.46428571       0.25000000       0.16666667 </v>
   <v>       0.50000000       0.25000000       0.16666667 </v>
   <v>      -0.46428571       0.25000000       0.16666667 </v>
   <v>      -0.42857143       0.25000000       0.16666667 </v>
   <v>      -0.39285714       0.25000000       0.16666667 </v>
   <v>      -0.35714286       0.25000000       0.16666667 </v>
   <v>      -0.32142857       0.25000000       0.16666667 </v>
   <v>      -0.28571429       0.25000000       0.16666667 </v>
   <v>      -0.25000000       0.25000000       0.16666667 </v>
   <v>      -0.21428571       0.25000000       0.16666667 </v>
   <v>      -0.17857143       0.25000000       0.16666667 </v>
   <v>      -0.14285714       0.25000000       0.16666667 </v>
   <v>      -0.10714286       0.25000000       0.16666667 </v>
   <v>      -0.07142857       0.25000000       0.16666667 </v>
   <v>      -0.03571429       0.25000000       0.16666667 </v>
   <v>       0.00000000       0.28571429       0.16666667 </v>
   <v>       0.03571429       0.28571429       0.16666667 </v>
   <v>       0.07142857       0.28571429       0.16666667 </v>
   <v>       0.10714286       0.28571429       0.16666667 </v>
   <v>       0.14285714       0.28571429       0.16666667 </v>
   <v>       0.17857143       0.28571429       0.16666667 </v>
   <v>       0.21428571       0.28571429       0.16666667 </v>
   <v>       0.25000000       0.28571429       0.16666667 </v>
   <v>       0.28571429       0.28571429       0.16666667 </v>
   <v>       0.32142857       0.28571429       0.16666667 </v>
   <v>       0.35714286       0.28571429       0.16666667 </v>
   <v>       0.39285714       0.28571429       0.16666667 </v>
   <v>       0.42857143       0.28571429       0.16666667 </v>
   <v>       0.46428571       0.28571429       0.16666667 </v>
   <v>       0.50000000       0.28571429       0.16666667 </v>
   <v>      -0.46428571       0.28571429       0.16666667 </v>
   <v>      -0.42857143       0.28571429       0.16666667 </v>
   <v>      -0.39285714       0.28571429       0.16666667 </v>
   <v>      -0.35714286       0.28571429       0.16666667 </v>
   <v>      -0.32142857       0.28571429       0.16666667 </v>
   <v>      -0.28571429       0.28571429       0.16666667 </v>
   <v>      -0.25000000       0.28571429       0.16666667 </v>
   <v>      -0.21428571       0.28571429       0.16666667 </v>
   <v>      -0.17857143       0.28571429       0.16666667 </v>
   <v>      -0.14285714       0.28571429       0.16666667 </v>
   <v>      -0.10714286       0.28571429       0.16666667 </v>
   <v>      -0.07142857       0.28571429       0.16666667 </v>
   <v>      -0.03571429       0.28571429       0.16666667 </v>
   <v>       0.00000000       0.32142857       0.16666667 </v>
   <v>       0.03571429       0.32142857       0.16666667 </v>
   <v>       0.07142857       0.32142857       0.16666667 </v>
   <v>       0.10714286       0.32142857       0.16666667 </v>
   <v>       0.14285714       0.32142857       0.16666667 </v>
   <v>       0.17857143       0.32142857       0.16666667 </v>
   <v>       0.21428571       0.32142857       0.16666667 </v>
   <v>       0.25000000       0.32142857       0.16666667 </v>
   <v>       0.28571429       0.32142857       0.16666667 </v>
   <v>       0.32142857       0.32142857       0.16666667 </v>
   <v>       0.35714286       0.32142857       0.16666667 </v>
   <v>       0.39285714       0.32142857       0.16666667 </v>
   <v>       0.42857143       0.32142857       0.16666667 </v>
   <v>       0.46428571       0.32142857       0.16666667 </v>
   <v>       0.50000000       0.32142857       0.16666667 </v>
   <v>      -0.46428571       0.32142857       0.16666667 </v>
   <v>      -0.42857143       0.32142857       0.16666667 </v>
   <v>      -0.39285714       0.32142857       0.16666667 </v>
   <v>      -0.35714286       0.32142857       0.16666667 </v>
   <v>      -0.32142857       0.32142857       0.16666667 </v>
   <v>      -0.28571429       0.32142857       0.16666667 </v>
   <v>      -0.25000000       0.32142857       0.16666667 </v>
   <v>      -0.21428571       0.32142857       0.16666667 </v>
   <v>      -0.17857143       0.32142857       0.16666667 </v>
   <v>      -0.14285714       0.32142857       0.16666667 </v>
   <v>      -0.10714286       0.32142857       0.16666667 </v>
   <v>      -0.07142857       0.32142857       0.16666667 </v>
   <v>      -0.03571429       0.32142857       0.16666667 </v>
   <v>       0.00000000       0.35714286       0.16666667 </v>
   <v>       0.03571429       0.35714286       0.16666667 </v>
   <v>       0.07142857       0.35714286       0.16666667 </v>
   <v>       0.10714286       0.35714286       0.16666667 </v>
   <v>       0.14285714       0.35714286       0.16666667 </v>
   <v>       0.17857143       0.35714286       0.16666667 </v>
   <v>       0.21428571       0.35714286       0.16666667 </v>
   <v>       0.25000000       0.35714286       0.16666667 </v>
   <v>       0.28571429       0.35714286       0.16666667 </v>
   <v>       0.32142857       0.35714286       0.16666667 </v>
   <v>       0.35714286       0.35714286       0.16666667 </v>
   <v>       0.39285714       0.35714286       0.16666667 </v>
   <v>       0.42857143       0.35714286       0.16666667 </v>
   <v>       0.46428571       0.35714286       0.16666667 </v>
   <v>       0.50000000       0.35714286       0.16666667 </v>
   <v>      -0.46428571       0.35714286       0.16666667 </v>
   <v>      -0.42857143       0.35714286       0.16666667 </v>
   <v>      -0.39285714       0.35714286       0.16666667 </v>
   <v>      -0.35714286       0.35714286       0.16666667 </v>
   <v>      -0.32142857       0.35714286       0.16666667 </v>
   <v>      -0.28571429       0.35714286       0.16666667 </v>
   <v>      -0.25000000       0.35714286       0.16666667 </v>
   <v>      -0.21428571       0.35714286       0.16666667 </v>
   <v>      -0.17857143       0.35714286       0.16666667 </v>
   <v>      -0.14285714       0.35714286       0.16666667 </v>
   <v>      -0.10714286       0.35714286       0.16666667 </v>
   <v>      -0.07142857       0.35714286       0.16666667 </v>
   <v>      -0.03571429       0.35714286       0.16666667 </v>
   <v>       0.00000000       0.39285714       0.16666667 </v>
   <v>       0.03571429       0.39285714       0.16666667 </v>
   <v>       0.07142857       0.39285714       0.16666667 </v>
   <v>       0.10714286       0.39285714       0.16666667 </v>
   <v>       0.14285714       0.39285714       0.16666667 </v>
   <v>       0.17857143       0.39285714       0.16666667 </v>
   <v>       0.21428571       0.39285714       0.16666667 </v>
   <v>       0.25000000       0.39285714       0.16666667 </v>
   <v>       0.28571429       0.39285714       0.16666667 </v>
   <v>       0.32142857       0.39285714       0.16666667 </v>
   <v>       0.35714286       0.39285714       0.16666667 </v>
   <v>       0.39285714       0.39285714       0.16666667 </v>
   <v>       0.42857143       0.39285714       0.16666667 </v>
   <v>       0.46428571       0.39285714       0.16666667 </v>
   <v>       0.50000000       0.39285714       0.16666667 </v>
   <v>      -0.46428571       0.39285714       0.16666667 </v>
   <v>      -0.42857143       0.39285714       0.16666667 </v>
   <v>      -0.39285714       0.39285714       0.16666667 </v>
   <v>      -0.35714286       0.39285714       0.16666667 </v>
   <v>      -0.32142857       0.39285714       0.16666667 </v>
   <v>      -0.28571429       0.39285714       0.16666667 </v>
   <v>      -0.25000000       0.39285714       0.16666667 </v>
   <v>      -0.21428571       0.39285714       0.16666667 </v>
   <v>      -0.17857143       0.39285714       0.16666667 </v>
   <v>      -0.14285714       0.39285714       0.16666667 </v>
   <v>      -0.10714286       0.39285714       0.16666667 </v>
   <v>      -0.07142857       0.39285714       0.16666667 </v>
   <v>      -0.03571429       0.39285714       0.16666667 </v>
   <v>       0.00000000       0.42857143       0.16666667 </v>
   <v>       0.03571429       0.42857143       0.16666667 </v>
   <v>       0.07142857       0.42857143       0.16666667 </v>
   <v>       0.10714286       0.42857143       0.16666667 </v>
   <v>       0.14285714       0.42857143       0.16666667 </v>
   <v>       0.17857143       0.42857143       0.16666667 </v>
   <v>       0.21428571       0.42857143       0.16666667 </v>
   <v>       0.25000000       0.42857143       0.16666667 </v>
   <v>       0.28571429       0.42857143       0.16666667 </v>
   <v>       0.32142857       0.42857143       0.16666667 </v>
   <v>       0.35714286       0.42857143       0.16666667 </v>
   <v>       0.39285714       0.42857143       0.16666667 </v>
   <v>       0.42857143       0.42857143       0.16666667 </v>
   <v>       0.46428571       0.42857143       0.16666667 </v>
   <v>       0.50000000       0.42857143       0.16666667 </v>
   <v>      -0.46428571       0.42857143       0.16666667 </v>
   <v>      -0.42857143       0.42857143       0.16666667 </v>
   <v>      -0.39285714       0.42857143       0.16666667 </v>
   <v>      -0.35714286       0.42857143       0.16666667 </v>
   <v>      -0.32142857       0.42857143       0.16666667 </v>
   <v>      -0.28571429       0.42857143       0.16666667 </v>
   <v>      -0.25000000       0.42857143       0.16666667 </v>
   <v>      -0.21428571       0.42857143       0.16666667 </v>
   <v>      -0.17857143       0.42857143       0.16666667 </v>
   <v>      -0.14285714       0.42857143       0.16666667 </v>
   <v>      -0.10714286       0.42857143       0.16666667 </v>
   <v>      -0.07142857       0.42857143       0.16666667 </v>
   <v>      -0.03571429       0.42857143       0.16666667 </v>
   <v>       0.00000000       0.46428571       0.16666667 </v>
   <v>       0.03571429       0.46428571       0.16666667 </v>
   <v>       0.07142857       0.46428571       0.16666667 </v>
   <v>       0.10714286       0.46428571       0.16666667 </v>
   <v>       0.14285714       0.46428571       0.16666667 </v>
   <v>       0.17857143       0.46428571       0.16666667 </v>
   <v>       0.21428571       0.46428571       0.16666667 </v>
   <v>       0.25000000       0.46428571       0.16666667 </v>
   <v>       0.28571429       0.46428571       0.16666667 </v>
   <v>       0.32142857       0.46428571       0.16666667 </v>
   <v>       0.35714286       0.46428571       0.16666667 </v>
   <v>       0.39285714       0.46428571       0.16666667 </v>
   <v>       0.42857143       0.46428571       0.16666667 </v>
   <v>       0.46428571       0.46428571       0.16666667 </v>
   <v>       0.50000000       0.46428571       0.16666667 </v>
   <v>      -0.46428571       0.46428571       0.16666667 </v>
   <v>      -0.42857143       0.46428571       0.16666667 </v>
   <v>      -0.39285714       0.46428571       0.16666667 </v>
   <v>      -0.35714286       0.46428571       0.16666667 </v>
   <v>      -0.32142857       0.46428571       0.16666667 </v>
   <v>      -0.28571429       0.46428571       0.16666667 </v>
   <v>      -0.25000000       0.46428571       0.16666667 </v>
   <v>      -0.21428571       0.46428571       0.16666667 </v>
   <v>      -0.17857143       0.46428571       0.16666667 </v>
   <v>      -0.14285714       0.46428571       0.16666667 </v>
   <v>      -0.10714286       0.46428571       0.16666667 </v>
   <v>      -0.07142857       0.46428571       0.16666667 </v>
   <v>      -0.03571429       0.46428571       0.16666667 </v>
   <v>       0.00000000       0.50000000       0.16666667 </v>
   <v>       0.03571429       0.50000000       0.16666667 </v>
   <v>       0.07142857       0.50000000       0.16666667 </v>
   <v>       0.10714286       0.50000000       0.16666667 </v>
   <v>       0.14285714       0.50000000       0.16666667 </v>
   <v>       0.17857143       0.50000000       0.16666667 </v>
   <v>       0.21428571       0.50000000       0.16666667 </v>
   <v>       0.25000000       0.50000000       0.16666667 </v>
   <v>       0.28571429       0.50000000       0.16666667 </v>
   <v>       0.32142857       0.50000000       0.16666667 </v>
   <v>       0.35714286       0.50000000       0.16666667 </v>
   <v>       0.39285714       0.50000000       0.16666667 </v>
   <v>       0.42857143       0.50000000       0.16666667 </v>
   <v>       0.46428571       0.50000000       0.16666667 </v>
   <v>       0.00000000       0.00000000       0.33333333 </v>
   <v>       0.03571429       0.00000000       0.33333333 </v>
   <v>       0.07142857       0.00000000       0.33333333 </v>
   <v>       0.10714286       0.00000000       0.33333333 </v>
   <v>       0.14285714       0.00000000       0.33333333 </v>
   <v>       0.17857143       0.00000000       0.33333333 </v>
   <v>       0.21428571       0.00000000       0.33333333 </v>
   <v>       0.25000000       0.00000000       0.33333333 </v>
   <v>       0.28571429       0.00000000       0.33333333 </v>
   <v>       0.32142857       0.00000000       0.33333333 </v>
   <v>       0.35714286       0.00000000       0.33333333 </v>
   <v>       0.39285714       0.00000000       0.33333333 </v>
   <v>       0.42857143       0.00000000       0.33333333 </v>
   <v>       0.46428571       0.00000000       0.33333333 </v>
   <v>      -0.46428571       0.00000000       0.33333333 </v>
   <v>      -0.42857143       0.00000000       0.33333333 </v>
   <v>      -0.39285714       0.00000000       0.33333333 </v>
   <v>      -0.35714286       0.00000000       0.33333333 </v>
   <v>      -0.32142857       0.00000000       0.33333333 </v>
   <v>      -0.28571429       0.00000000       0.33333333 </v>
   <v>      -0.25000000       0.00000000       0.33333333 </v>
   <v>      -0.21428571       0.00000000       0.33333333 </v>
   <v>      -0.17857143       0.00000000       0.33333333 </v>
   <v>      -0.14285714       0.00000000       0.33333333 </v>
   <v>      -0.10714286       0.00000000       0.33333333 </v>
   <v>      -0.07142857       0.00000000       0.33333333 </v>
   <v>      -0.03571429       0.00000000       0.33333333 </v>
   <v>       0.00000000       0.03571429       0.33333333 </v>
   <v>       0.03571429       0.03571429       0.33333333 </v>
   <v>       0.07142857       0.03571429       0.33333333 </v>
   <v>       0.10714286       0.03571429       0.33333333 </v>
   <v>       0.14285714       0.03571429       0.33333333 </v>
   <v>       0.17857143       0.03571429       0.33333333 </v>
   <v>       0.21428571       0.03571429       0.33333333 </v>
   <v>       0.25000000       0.03571429       0.33333333 </v>
   <v>       0.28571429       0.03571429       0.33333333 </v>
   <v>       0.32142857       0.03571429       0.33333333 </v>
   <v>       0.35714286       0.03571429       0.33333333 </v>
   <v>       0.39285714       0.03571429       0.33333333 </v>
   <v>       0.42857143       0.03571429       0.33333333 </v>
   <v>      -0.46428571       0.03571429       0.33333333 </v>
   <v>      -0.42857143       0.03571429       0.33333333 </v>
   <v>      -0.39285714       0.03571429       0.33333333 </v>
   <v>      -0.35714286       0.03571429       0.33333333 </v>
   <v>      -0.32142857       0.03571429       0.33333333 </v>
   <v>      -0.28571429       0.03571429       0.33333333 </v>
   <v>      -0.25000000       0.03571429       0.33333333 </v>
   <v>      -0.21428571       0.03571429       0.33333333 </v>
   <v>      -0.17857143       0.03571429       0.33333333 </v>
   <v>      -0.14285714       0.03571429       0.33333333 </v>
   <v>      -0.10714286       0.03571429       0.33333333 </v>
   <v>      -0.07142857       0.03571429       0.33333333 </v>
   <v>      -0.03571429       0.03571429       0.33333333 </v>
   <v>       0.00000000       0.07142857       0.33333333 </v>
   <v>       0.03571429       0.07142857       0.33333333 </v>
   <v>       0.07142857       0.07142857       0.33333333 </v>
   <v>       0.10714286       0.07142857       0.33333333 </v>
   <v>       0.14285714       0.07142857       0.33333333 </v>
   <v>       0.17857143       0.07142857       0.33333333 </v>
   <v>       0.21428571       0.07142857       0.33333333 </v>
   <v>       0.25000000       0.07142857       0.33333333 </v>
   <v>       0.28571429       0.07142857       0.33333333 </v>
   <v>       0.32142857       0.07142857       0.33333333 </v>
   <v>       0.35714286       0.07142857       0.33333333 </v>
   <v>       0.39285714       0.07142857       0.33333333 </v>
   <v>       0.46428571       0.07142857       0.33333333 </v>
   <v>      -0.46428571       0.07142857       0.33333333 </v>
   <v>      -0.42857143       0.07142857       0.33333333 </v>
   <v>      -0.39285714       0.07142857       0.33333333 </v>
   <v>      -0.35714286       0.07142857       0.33333333 </v>
   <v>      -0.32142857       0.07142857       0.33333333 </v>
   <v>      -0.28571429       0.07142857       0.33333333 </v>
   <v>      -0.25000000       0.07142857       0.33333333 </v>
   <v>      -0.21428571       0.07142857       0.33333333 </v>
   <v>      -0.17857143       0.07142857       0.33333333 </v>
   <v>      -0.14285714       0.07142857       0.33333333 </v>
   <v>      -0.10714286       0.07142857       0.33333333 </v>
   <v>      -0.07142857       0.07142857       0.33333333 </v>
   <v>      -0.03571429       0.07142857       0.33333333 </v>
   <v>       0.00000000       0.10714286       0.33333333 </v>
   <v>       0.03571429       0.10714286       0.33333333 </v>
   <v>       0.07142857       0.10714286       0.33333333 </v>
   <v>       0.10714286       0.10714286       0.33333333 </v>
   <v>       0.14285714       0.10714286       0.33333333 </v>
   <v>       0.17857143       0.10714286       0.33333333 </v>
   <v>       0.21428571       0.10714286       0.33333333 </v>
   <v>       0.25000000       0.10714286       0.33333333 </v>
   <v>       0.28571429       0.10714286       0.33333333 </v>
   <v>       0.32142857       0.10714286       0.33333333 </v>
   <v>       0.35714286       0.10714286       0.33333333 </v>
   <v>       0.42857143       0.10714286       0.33333333 </v>
   <v>       0.46428571       0.10714286       0.33333333 </v>
   <v>      -0.46428571       0.10714286       0.33333333 </v>
   <v>      -0.42857143       0.10714286       0.33333333 </v>
   <v>      -0.39285714       0.10714286       0.33333333 </v>
   <v>      -0.35714286       0.10714286       0.33333333 </v>
   <v>      -0.32142857       0.10714286       0.33333333 </v>
   <v>      -0.28571429       0.10714286       0.33333333 </v>
   <v>      -0.25000000       0.10714286       0.33333333 </v>
   <v>      -0.21428571       0.10714286       0.33333333 </v>
   <v>      -0.17857143       0.10714286       0.33333333 </v>
   <v>      -0.14285714       0.10714286       0.33333333 </v>
   <v>      -0.10714286       0.10714286       0.33333333 </v>
   <v>      -0.07142857       0.10714286       0.33333333 </v>
   <v>      -0.03571429       0.10714286       0.33333333 </v>
   <v>       0.00000000       0.14285714       0.33333333 </v>
   <v>       0.03571429       0.14285714       0.33333333 </v>
   <v>       0.07142857       0.14285714       0.33333333 </v>
   <v>       0.10714286       0.14285714       0.33333333 </v>
   <v>       0.14285714       0.14285714       0.33333333 </v>
   <v>       0.17857143       0.14285714       0.33333333 </v>
   <v>       0.21428571       0.14285714       0.33333333 </v>
   <v>       0.25000000       0.14285714       0.33333333 </v>
   <v>       0.28571429       0.14285714       0.33333333 </v>
   <v>       0.32142857       0.14285714       0.33333333 </v>
   <v>       0.39285714       0.14285714       0.33333333 </v>
   <v>       0.42857143       0.14285714       0.33333333 </v>
   <v>       0.46428571       0.14285714       0.33333333 </v>
   <v>      -0.46428571       0.14285714       0.33333333 </v>
   <v>      -0.42857143       0.14285714       0.33333333 </v>
   <v>      -0.39285714       0.14285714       0.33333333 </v>
   <v>      -0.35714286       0.14285714       0.33333333 </v>
   <v>      -0.32142857       0.14285714       0.33333333 </v>
   <v>      -0.28571429       0.14285714       0.33333333 </v>
   <v>      -0.25000000       0.14285714       0.33333333 </v>
   <v>      -0.21428571       0.14285714       0.33333333 </v>
   <v>      -0.17857143       0.14285714       0.33333333 </v>
   <v>      -0.14285714       0.14285714       0.33333333 </v>
   <v>      -0.10714286       0.14285714       0.33333333 </v>
   <v>      -0.07142857       0.14285714       0.33333333 </v>
   <v>      -0.03571429       0.14285714       0.33333333 </v>
   <v>       0.00000000       0.17857143       0.33333333 </v>
   <v>       0.03571429       0.17857143       0.33333333 </v>
   <v>       0.07142857       0.17857143       0.33333333 </v>
   <v>       0.10714286       0.17857143       0.33333333 </v>
   <v>       0.14285714       0.17857143       0.33333333 </v>
   <v>       0.17857143       0.17857143       0.33333333 </v>
   <v>       0.21428571       0.17857143       0.33333333 </v>
   <v>       0.25000000       0.17857143       0.33333333 </v>
   <v>       0.28571429       0.17857143       0.33333333 </v>
   <v>       0.35714286       0.17857143       0.33333333 </v>
   <v>       0.39285714       0.17857143       0.33333333 </v>
   <v>       0.42857143       0.17857143       0.33333333 </v>
   <v>       0.46428571       0.17857143       0.33333333 </v>
   <v>      -0.46428571       0.17857143       0.33333333 </v>
   <v>      -0.42857143       0.17857143       0.33333333 </v>
   <v>      -0.39285714       0.17857143       0.33333333 </v>
   <v>      -0.35714286       0.17857143       0.33333333 </v>
   <v>      -0.32142857       0.17857143       0.33333333 </v>
   <v>      -0.28571429       0.17857143       0.33333333 </v>
   <v>      -0.25000000       0.17857143       0.33333333 </v>
   <v>      -0.21428571       0.17857143       0.33333333 </v>
   <v>      -0.17857143       0.17857143       0.33333333 </v>
   <v>      -0.14285714       0.17857143       0.33333333 </v>
   <v>      -0.10714286       0.17857143       0.33333333 </v>
   <v>      -0.07142857       0.17857143       0.33333333 </v>
   <v>      -0.03571429       0.17857143       0.33333333 </v>
   <v>       0.00000000       0.21428571       0.33333333 </v>
   <v>       0.03571429       0.21428571       0.33333333 </v>
   <v>       0.07142857       0.21428571       0.33333333 </v>
   <v>       0.10714286       0.21428571       0.33333333 </v>
   <v>       0.14285714       0.21428571       0.33333333 </v>
   <v>       0.17857143       0.21428571       0.33333333 </v>
   <v>       0.21428571       0.21428571       0.33333333 </v>
   <v>       0.25000000       0.21428571       0.33333333 </v>
   <v>       0.32142857       0.21428571       0.33333333 </v>
   <v>       0.35714286       0.21428571       0.33333333 </v>
   <v>       0.39285714       0.21428571       0.33333333 </v>
   <v>       0.42857143       0.21428571       0.33333333 </v>
   <v>       0.46428571       0.21428571       0.33333333 </v>
   <v>      -0.46428571       0.21428571       0.33333333 </v>
   <v>      -0.42857143       0.21428571       0.33333333 </v>
   <v>      -0.39285714       0.21428571       0.33333333 </v>
   <v>      -0.35714286       0.21428571       0.33333333 </v>
   <v>      -0.32142857       0.21428571       0.33333333 </v>
   <v>      -0.28571429       0.21428571       0.33333333 </v>
   <v>      -0.25000000       0.21428571       0.33333333 </v>
   <v>      -0.21428571       0.21428571       0.33333333 </v>
   <v>      -0.17857143       0.21428571       0.33333333 </v>
   <v>      -0.14285714       0.21428571       0.33333333 </v>
   <v>      -0.10714286       0.21428571       0.33333333 </v>
   <v>      -0.07142857       0.21428571       0.33333333 </v>
   <v>      -0.03571429       0.21428571       0.33333333 </v>
   <v>       0.00000000       0.25000000       0.33333333 </v>
   <v>       0.03571429       0.25000000       0.33333333 </v>
   <v>       0.07142857       0.25000000       0.33333333 </v>
   <v>       0.10714286       0.25000000       0.33333333 </v>
   <v>       0.14285714       0.25000000       0.33333333 </v>
   <v>       0.17857143       0.25000000       0.33333333 </v>
   <v>       0.21428571       0.25000000       0.33333333 </v>
   <v>       0.28571429       0.25000000       0.33333333 </v>
   <v>       0.32142857       0.25000000       0.33333333 </v>
   <v>       0.35714286       0.25000000       0.33333333 </v>
   <v>       0.39285714       0.25000000       0.33333333 </v>
   <v>       0.42857143       0.25000000       0.33333333 </v>
   <v>       0.46428571       0.25000000       0.33333333 </v>
   <v>      -0.46428571       0.25000000       0.33333333 </v>
   <v>      -0.42857143       0.25000000       0.33333333 </v>
   <v>      -0.39285714       0.25000000       0.33333333 </v>
   <v>      -0.35714286       0.25000000       0.33333333 </v>
   <v>      -0.32142857       0.25000000       0.33333333 </v>
   <v>      -0.28571429       0.25000000       0.33333333 </v>
   <v>      -0.25000000       0.25000000       0.33333333 </v>
   <v>      -0.21428571       0.25000000       0.33333333 </v>
   <v>      -0.17857143       0.25000000       0.33333333 </v>
   <v>      -0.14285714       0.25000000       0.33333333 </v>
   <v>      -0.10714286       0.25000000       0.33333333 </v>
   <v>      -0.07142857       0.25000000       0.33333333 </v>
   <v>      -0.03571429       0.25000000       0.33333333 </v>
   <v>       0.00000000       0.28571429       0.33333333 </v>
   <v>       0.03571429       0.28571429       0.33333333 </v>
   <v>       0.07142857       0.28571429       0.33333333 </v>
   <v>       0.10714286       0.28571429       0.33333333 </v>
   <v>       0.14285714       0.28571429       0.33333333 </v>
   <v>       0.17857143       0.28571429       0.33333333 </v>
   <v>       0.25000000       0.28571429       0.33333333 </v>
   <v>       0.28571429       0.28571429       0.33333333 </v>
   <v>       0.32142857       0.28571429       0.33333333 </v>
   <v>       0.35714286       0.28571429       0.33333333 </v>
   <v>       0.39285714       0.28571429       0.33333333 </v>
   <v>       0.42857143       0.28571429       0.33333333 </v>
   <v>       0.46428571       0.28571429       0.33333333 </v>
   <v>      -0.46428571       0.28571429       0.33333333 </v>
   <v>      -0.42857143       0.28571429       0.33333333 </v>
   <v>      -0.39285714       0.28571429       0.33333333 </v>
   <v>      -0.35714286       0.28571429       0.33333333 </v>
   <v>      -0.32142857       0.28571429       0.33333333 </v>
   <v>      -0.28571429       0.28571429       0.33333333 </v>
   <v>      -0.25000000       0.28571429       0.33333333 </v>
   <v>      -0.21428571       0.28571429       0.33333333 </v>
   <v>      -0.17857143       0.28571429       0.33333333 </v>
   <v>      -0.14285714       0.28571429       0.33333333 </v>
   <v>      -0.10714286       0.28571429       0.33333333 </v>
   <v>      -0.07142857       0.28571429       0.33333333 </v>
   <v>      -0.03571429       0.28571429       0.33333333 </v>
   <v>       0.00000000       0.32142857       0.33333333 </v>
   <v>       0.03571429       0.32142857       0.33333333 </v>
   <v>       0.07142857       0.32142857       0.33333333 </v>
   <v>       0.10714286       0.32142857       0.33333333 </v>
   <v>       0.14285714       0.32142857       0.33333333 </v>
   <v>       0.21428571       0.32142857       0.33333333 </v>
   <v>       0.25000000       0.32142857       0.33333333 </v>
   <v>       0.28571429       0.32142857       0.33333333 </v>
   <v>       0.32142857       0.32142857       0.33333333 </v>
   <v>       0.35714286       0.32142857       0.33333333 </v>
   <v>       0.39285714       0.32142857       0.33333333 </v>
   <v>       0.42857143       0.32142857       0.33333333 </v>
   <v>       0.46428571       0.32142857       0.33333333 </v>
   <v>      -0.46428571       0.32142857       0.33333333 </v>
   <v>      -0.42857143       0.32142857       0.33333333 </v>
   <v>      -0.39285714       0.32142857       0.33333333 </v>
   <v>      -0.35714286       0.32142857       0.33333333 </v>
   <v>      -0.32142857       0.32142857       0.33333333 </v>
   <v>      -0.28571429       0.32142857       0.33333333 </v>
   <v>      -0.25000000       0.32142857       0.33333333 </v>
   <v>      -0.21428571       0.32142857       0.33333333 </v>
   <v>      -0.17857143       0.32142857       0.33333333 </v>
   <v>      -0.14285714       0.32142857       0.33333333 </v>
   <v>      -0.10714286       0.32142857       0.33333333 </v>
   <v>      -0.07142857       0.32142857       0.33333333 </v>
   <v>      -0.03571429       0.32142857       0.33333333 </v>
   <v>       0.00000000       0.35714286       0.33333333 </v>
   <v>       0.03571429       0.35714286       0.33333333 </v>
   <v>       0.07142857       0.35714286       0.33333333 </v>
   <v>       0.10714286       0.35714286       0.33333333 </v>
   <v>       0.17857143       0.35714286       0.33333333 </v>
   <v>       0.21428571       0.35714286       0.33333333 </v>
   <v>       0.25000000       0.35714286       0.33333333 </v>
   <v>       0.28571429       0.35714286       0.33333333 </v>
   <v>       0.32142857       0.35714286       0.33333333 </v>
   <v>       0.35714286       0.35714286       0.33333333 </v>
   <v>       0.39285714       0.35714286       0.33333333 </v>
   <v>       0.42857143       0.35714286       0.33333333 </v>
   <v>       0.46428571       0.35714286       0.33333333 </v>
   <v>      -0.46428571       0.35714286       0.33333333 </v>
   <v>      -0.42857143       0.35714286       0.33333333 </v>
   <v>      -0.39285714       0.35714286       0.33333333 </v>
   <v>      -0.35714286       0.35714286       0.33333333 </v>
   <v>      -0.32142857       0.35714286       0.33333333 </v>
   <v>      -0.28571429       0.35714286       0.33333333 </v>
   <v>      -0.25000000       0.35714286       0.33333333 </v>
   <v>      -0.21428571       0.35714286       0.33333333 </v>
   <v>      -0.17857143       0.35714286       0.33333333 </v>
   <v>      -0.14285714       0.35714286       0.33333333 </v>
   <v>      -0.10714286       0.35714286       0.33333333 </v>
   <v>      -0.07142857       0.35714286       0.33333333 </v>
   <v>      -0.03571429       0.35714286       0.33333333 </v>
   <v>       0.00000000       0.39285714       0.33333333 </v>
   <v>       0.03571429       0.39285714       0.33333333 </v>
   <v>       0.07142857       0.39285714       0.33333333 </v>
   <v>       0.14285714       0.39285714       0.33333333 </v>
   <v>       0.17857143       0.39285714       0.33333333 </v>
   <v>       0.21428571       0.39285714       0.33333333 </v>
   <v>       0.25000000       0.39285714       0.33333333 </v>
   <v>       0.28571429       0.39285714       0.33333333 </v>
   <v>       0.32142857       0.39285714       0.33333333 </v>
   <v>       0.35714286       0.39285714       0.33333333 </v>
   <v>       0.39285714       0.39285714       0.33333333 </v>
   <v>       0.42857143       0.39285714       0.33333333 </v>
   <v>       0.46428571       0.39285714       0.33333333 </v>
   <v>      -0.46428571       0.39285714       0.33333333 </v>
   <v>      -0.42857143       0.39285714       0.33333333 </v>
   <v>      -0.39285714       0.39285714       0.33333333 </v>
   <v>      -0.35714286       0.39285714       0.33333333 </v>
   <v>      -0.32142857       0.39285714       0.33333333 </v>
   <v>      -0.28571429       0.39285714       0.33333333 </v>
   <v>      -0.25000000       0.39285714       0.33333333 </v>
   <v>      -0.21428571       0.39285714       0.33333333 </v>
   <v>      -0.17857143       0.39285714       0.33333333 </v>
   <v>      -0.14285714       0.39285714       0.33333333 </v>
   <v>      -0.10714286       0.39285714       0.33333333 </v>
   <v>      -0.07142857       0.39285714       0.33333333 </v>
   <v>      -0.03571429       0.39285714       0.33333333 </v>
   <v>       0.00000000       0.42857143       0.33333333 </v>
   <v>       0.03571429       0.42857143       0.33333333 </v>
   <v>       0.10714286       0.42857143       0.33333333 </v>
   <v>       0.14285714       0.42857143       0.33333333 </v>
   <v>       0.17857143       0.42857143       0.33333333 </v>
   <v>       0.21428571       0.42857143       0.33333333 </v>
   <v>       0.25000000       0.42857143       0.33333333 </v>
   <v>       0.28571429       0.42857143       0.33333333 </v>
   <v>       0.32142857       0.42857143       0.33333333 </v>
   <v>       0.35714286       0.42857143       0.33333333 </v>
   <v>       0.39285714       0.42857143       0.33333333 </v>
   <v>       0.42857143       0.42857143       0.33333333 </v>
   <v>       0.46428571       0.42857143       0.33333333 </v>
   <v>      -0.46428571       0.42857143       0.33333333 </v>
   <v>      -0.42857143       0.42857143       0.33333333 </v>
   <v>      -0.39285714       0.42857143       0.33333333 </v>
   <v>      -0.35714286       0.42857143       0.33333333 </v>
   <v>      -0.32142857       0.42857143       0.33333333 </v>
   <v>      -0.28571429       0.42857143       0.33333333 </v>
   <v>      -0.25000000       0.42857143       0.33333333 </v>
   <v>      -0.21428571       0.42857143       0.33333333 </v>
   <v>      -0.17857143       0.42857143       0.33333333 </v>
   <v>      -0.14285714       0.42857143       0.33333333 </v>
   <v>      -0.10714286       0.42857143       0.33333333 </v>
   <v>      -0.07142857       0.42857143       0.33333333 </v>
   <v>      -0.03571429       0.42857143       0.33333333 </v>
   <v>       0.00000000       0.46428571       0.33333333 </v>
   <v>       0.07142857       0.46428571       0.33333333 </v>
   <v>       0.10714286       0.46428571       0.33333333 </v>
   <v>       0.14285714       0.46428571       0.33333333 </v>
   <v>       0.17857143       0.46428571       0.33333333 </v>
   <v>       0.21428571       0.46428571       0.33333333 </v>
   <v>       0.25000000       0.46428571       0.33333333 </v>
   <v>       0.28571429       0.46428571       0.33333333 </v>
   <v>       0.32142857       0.46428571       0.33333333 </v>
   <v>       0.35714286       0.46428571       0.33333333 </v>
   <v>       0.39285714       0.46428571       0.33333333 </v>
   <v>       0.42857143       0.46428571       0.33333333 </v>
   <v>       0.46428571       0.46428571       0.33333333 </v>
   <v>      -0.46428571       0.46428571       0.33333333 </v>
   <v>      -0.42857143       0.46428571       0.33333333 </v>
   <v>      -0.39285714       0.46428571       0.33333333 </v>
   <v>      -0.35714286       0.46428571       0.33333333 </v>
   <v>      -0.32142857       0.46428571       0.33333333 </v>
   <v>      -0.28571429       0.46428571       0.33333333 </v>
   <v>      -0.25000000       0.46428571       0.33333333 </v>
   <v>      -0.21428571       0.46428571       0.33333333 </v>
   <v>      -0.17857143       0.46428571       0.33333333 </v>
   <v>      -0.14285714       0.46428571       0.33333333 </v>
   <v>      -0.10714286       0.46428571       0.33333333 </v>
   <v>      -0.07142857       0.46428571       0.33333333 </v>
   <v>      -0.03571429       0.46428571       0.33333333 </v>
   <v>       0.03571429       0.50000000       0.33333333 </v>
   <v>       0.07142857       0.50000000       0.33333333 </v>
   <v>       0.10714286       0.50000000       0.33333333 </v>
   <v>       0.14285714       0.50000000       0.33333333 </v>
   <v>       0.17857143       0.50000000       0.33333333 </v>
   <v>       0.21428571       0.50000000       0.33333333 </v>
   <v>       0.25000000       0.50000000       0.33333333 </v>
   <v>       0.28571429       0.50000000       0.33333333 </v>
   <v>       0.32142857       0.50000000       0.33333333 </v>
   <v>       0.35714286       0.50000000       0.33333333 </v>
   <v>       0.39285714       0.50000000       0.33333333 </v>
   <v>       0.42857143       0.50000000       0.33333333 </v>
   <v>       0.46428571       0.50000000       0.33333333 </v>
   <v>       0.00000000       0.00000000       0.50000000 </v>
   <v>       0.03571429       0.00000000       0.50000000 </v>
   <v>       0.07142857       0.00000000       0.50000000 </v>
   <v>       0.10714286       0.00000000       0.50000000 </v>
   <v>       0.14285714       0.00000000       0.50000000 </v>
   <v>       0.17857143       0.00000000       0.50000000 </v>
   <v>       0.21428571       0.00000000       0.50000000 </v>
   <v>       0.25000000       0.00000000       0.50000000 </v>
   <v>       0.28571429       0.00000000       0.50000000 </v>
   <v>       0.32142857       0.00000000       0.50000000 </v>
   <v>       0.35714286       0.00000000       0.50000000 </v>
   <v>       0.39285714       0.00000000       0.50000000 </v>
   <v>       0.42857143       0.00000000       0.50000000 </v>
   <v>       0.46428571       0.00000000       0.50000000 </v>
   <v>       0.00000000       0.03571429       0.50000000 </v>
   <v>       0.03571429       0.03571429       0.50000000 </v>
   <v>       0.07142857       0.03571429       0.50000000 </v>
   <v>       0.10714286       0.03571429       0.50000000 </v>
   <v>       0.14285714       0.03571429       0.50000000 </v>
   <v>       0.17857143       0.03571429       0.50000000 </v>
   <v>       0.21428571       0.03571429       0.50000000 </v>
   <v>       0.25000000       0.03571429       0.50000000 </v>
   <v>       0.28571429       0.03571429       0.50000000 </v>
   <v>       0.32142857       0.03571429       0.50000000 </v>
   <v>       0.35714286       0.03571429       0.50000000 </v>
   <v>       0.39285714       0.03571429       0.50000000 </v>
   <v>       0.42857143       0.03571429       0.50000000 </v>
   <v>       0.00000000       0.07142857       0.50000000 </v>
   <v>       0.03571429       0.07142857       0.50000000 </v>
   <v>       0.07142857       0.07142857       0.50000000 </v>
   <v>       0.10714286       0.07142857       0.50000000 </v>
   <v>       0.14285714       0.07142857       0.50000000 </v>
   <v>       0.17857143       0.07142857       0.50000000 </v>
   <v>       0.21428571       0.07142857       0.50000000 </v>
   <v>       0.25000000       0.07142857       0.50000000 </v>
   <v>       0.28571429       0.07142857       0.50000000 </v>
   <v>       0.32142857       0.07142857       0.50000000 </v>
   <v>       0.35714286       0.07142857       0.50000000 </v>
   <v>       0.39285714       0.07142857       0.50000000 </v>
   <v>       0.46428571       0.07142857       0.50000000 </v>
   <v>      -0.03571429       0.07142857       0.50000000 </v>
   <v>       0.00000000       0.10714286       0.50000000 </v>
   <v>       0.03571429       0.10714286       0.50000000 </v>
   <v>       0.07142857       0.10714286       0.50000000 </v>
   <v>       0.10714286       0.10714286       0.50000000 </v>
   <v>       0.14285714       0.10714286       0.50000000 </v>
   <v>       0.17857143       0.10714286       0.50000000 </v>
   <v>       0.21428571       0.10714286       0.50000000 </v>
   <v>       0.25000000       0.10714286       0.50000000 </v>
   <v>       0.28571429       0.10714286       0.50000000 </v>
   <v>       0.32142857       0.10714286       0.50000000 </v>
   <v>       0.35714286       0.10714286       0.50000000 </v>
   <v>       0.42857143       0.10714286       0.50000000 </v>
   <v>      -0.07142857       0.10714286       0.50000000 </v>
   <v>       0.00000000       0.14285714       0.50000000 </v>
   <v>       0.03571429       0.14285714       0.50000000 </v>
   <v>       0.07142857       0.14285714       0.50000000 </v>
   <v>       0.10714286       0.14285714       0.50000000 </v>
   <v>       0.14285714       0.14285714       0.50000000 </v>
   <v>       0.17857143       0.14285714       0.50000000 </v>
   <v>       0.21428571       0.14285714       0.50000000 </v>
   <v>       0.25000000       0.14285714       0.50000000 </v>
   <v>       0.28571429       0.14285714       0.50000000 </v>
   <v>       0.32142857       0.14285714       0.50000000 </v>
   <v>       0.39285714       0.14285714       0.50000000 </v>
   <v>       0.42857143       0.14285714       0.50000000 </v>
   <v>      -0.10714286       0.14285714       0.50000000 </v>
   <v>      -0.07142857       0.14285714       0.50000000 </v>
   <v>       0.00000000       0.17857143       0.50000000 </v>
   <v>       0.03571429       0.17857143       0.50000000 </v>
   <v>       0.07142857       0.17857143       0.50000000 </v>
   <v>       0.10714286       0.17857143       0.50000000 </v>
   <v>       0.14285714       0.17857143       0.50000000 </v>
   <v>       0.17857143       0.17857143       0.50000000 </v>
   <v>       0.21428571       0.17857143       0.50000000 </v>
   <v>       0.25000000       0.17857143       0.50000000 </v>
   <v>       0.28571429       0.17857143       0.50000000 </v>
   <v>       0.35714286       0.17857143       0.50000000 </v>
   <v>       0.39285714       0.17857143       0.50000000 </v>
   <v>      -0.14285714       0.17857143       0.50000000 </v>
   <v>      -0.10714286       0.17857143       0.50000000 </v>
   <v>       0.00000000       0.21428571       0.50000000 </v>
   <v>       0.03571429       0.21428571       0.50000000 </v>
   <v>       0.07142857       0.21428571       0.50000000 </v>
   <v>       0.10714286       0.21428571       0.50000000 </v>
   <v>       0.14285714       0.21428571       0.50000000 </v>
   <v>       0.17857143       0.21428571       0.50000000 </v>
   <v>       0.21428571       0.21428571       0.50000000 </v>
   <v>       0.25000000       0.21428571       0.50000000 </v>
   <v>       0.32142857       0.21428571       0.50000000 </v>
   <v>       0.35714286       0.21428571       0.50000000 </v>
   <v>       0.39285714       0.21428571       0.50000000 </v>
   <v>      -0.17857143       0.21428571       0.50000000 </v>
   <v>      -0.14285714       0.21428571       0.50000000 </v>
   <v>      -0.10714286       0.21428571       0.50000000 </v>
   <v>       0.00000000       0.25000000       0.50000000 </v>
   <v>       0.03571429       0.25000000       0.50000000 </v>
   <v>       0.07142857       0.25000000       0.50000000 </v>
   <v>       0.10714286       0.25000000       0.50000000 </v>
   <v>       0.14285714       0.25000000       0.50000000 </v>
   <v>       0.17857143       0.25000000       0.50000000 </v>
   <v>       0.21428571       0.25000000       0.50000000 </v>
   <v>       0.28571429       0.25000000       0.50000000 </v>
   <v>       0.32142857       0.25000000       0.50000000 </v>
   <v>       0.35714286       0.25000000       0.50000000 </v>
   <v>      -0.21428571       0.25000000       0.50000000 </v>
   <v>      -0.17857143       0.25000000       0.50000000 </v>
   <v>      -0.14285714       0.25000000       0.50000000 </v>
   <v>       0.00000000       0.28571429       0.50000000 </v>
   <v>       0.03571429       0.28571429       0.50000000 </v>
   <v>       0.07142857       0.28571429       0.50000000 </v>
   <v>       0.10714286       0.28571429       0.50000000 </v>
   <v>       0.14285714       0.28571429       0.50000000 </v>
   <v>       0.17857143       0.28571429       0.50000000 </v>
   <v>       0.25000000       0.28571429       0.50000000 </v>
   <v>       0.28571429       0.28571429       0.50000000 </v>
   <v>       0.32142857       0.28571429       0.50000000 </v>
   <v>       0.35714286       0.28571429       0.50000000 </v>
   <v>      -0.25000000       0.28571429       0.50000000 </v>
   <v>      -0.21428571       0.28571429       0.50000000 </v>
   <v>      -0.17857143       0.28571429       0.50000000 </v>
   <v>      -0.14285714       0.28571429       0.50000000 </v>
   <v>       0.00000000       0.32142857       0.50000000 </v>
   <v>       0.03571429       0.32142857       0.50000000 </v>
   <v>       0.07142857       0.32142857       0.50000000 </v>
   <v>       0.10714286       0.32142857       0.50000000 </v>
   <v>       0.14285714       0.32142857       0.50000000 </v>
   <v>       0.21428571       0.32142857       0.50000000 </v>
   <v>       0.25000000       0.32142857       0.50000000 </v>
   <v>       0.28571429       0.32142857       0.50000000 </v>
   <v>       0.32142857       0.32142857       0.50000000 </v>
   <v>      -0.28571429       0.32142857       0.50000000 </v>
   <v>      -0.25000000       0.32142857       0.50000000 </v>
   <v>      -0.21428571       0.32142857       0.50000000 </v>
   <v>      -0.17857143       0.32142857       0.50000000 </v>
   <v>       0.00000000       0.35714286       0.50000000 </v>
   <v>       0.03571429       0.35714286       0.50000000 </v>
   <v>       0.07142857       0.35714286       0.50000000 </v>
   <v>       0.10714286       0.35714286       0.50000000 </v>
   <v>       0.17857143       0.35714286       0.50000000 </v>
   <v>       0.21428571       0.35714286       0.50000000 </v>
   <v>       0.25000000       0.35714286       0.50000000 </v>
   <v>       0.28571429       0.35714286       0.50000000 </v>
   <v>       0.32142857       0.35714286       0.50000000 </v>
   <v>      -0.32142857       0.35714286       0.50000000 </v>
   <v>      -0.28571429       0.35714286       0.50000000 </v>
   <v>      -0.25000000       0.35714286       0.50000000 </v>
   <v>      -0.21428571       0.35714286       0.50000000 </v>
   <v>      -0.17857143       0.35714286       0.50000000 </v>
   <v>       0.00000000       0.39285714       0.50000000 </v>
   <v>       0.03571429       0.39285714       0.50000000 </v>
   <v>       0.07142857       0.39285714       0.50000000 </v>
   <v>       0.14285714       0.39285714       0.50000000 </v>
   <v>       0.17857143       0.39285714       0.50000000 </v>
   <v>       0.21428571       0.39285714       0.50000000 </v>
   <v>       0.25000000       0.39285714       0.50000000 </v>
   <v>       0.28571429       0.39285714       0.50000000 </v>
   <v>      -0.35714286       0.39285714       0.50000000 </v>
   <v>      -0.32142857       0.39285714       0.50000000 </v>
   <v>      -0.28571429       0.39285714       0.50000000 </v>
   <v>      -0.25000000       0.39285714       0.50000000 </v>
   <v>      -0.21428571       0.39285714       0.50000000 </v>
   <v>       0.00000000       0.42857143       0.50000000 </v>
   <v>       0.03571429       0.42857143       0.50000000 </v>
   <v>       0.10714286       0.42857143       0.50000000 </v>
   <v>       0.14285714       0.42857143       0.50000000 </v>
   <v>       0.17857143       0.42857143       0.50000000 </v>
   <v>       0.21428571       0.42857143       0.50000000 </v>
   <v>       0.25000000       0.42857143       0.50000000 </v>
   <v>       0.28571429       0.42857143       0.50000000 </v>
   <v>      -0.39285714       0.42857143       0.50000000 </v>
   <v>      -0.35714286       0.42857143       0.50000000 </v>
   <v>      -0.32142857       0.42857143       0.50000000 </v>
   <v>      -0.28571429       0.42857143       0.50000000 </v>
   <v>      -0.25000000       0.42857143       0.50000000 </v>
   <v>      -0.21428571       0.42857143       0.50000000 </v>
   <v>       0.00000000       0.46428571       0.50000000 </v>
   <v>       0.07142857       0.46428571       0.50000000 </v>
   <v>       0.10714286       0.46428571       0.50000000 </v>
   <v>       0.14285714       0.46428571       0.50000000 </v>
   <v>       0.17857143       0.46428571       0.50000000 </v>
   <v>       0.21428571       0.46428571       0.50000000 </v>
   <v>       0.25000000       0.46428571       0.50000000 </v>
   <v>      -0.42857143       0.46428571       0.50000000 </v>
   <v>      -0.39285714       0.46428571       0.50000000 </v>
   <v>      -0.35714286       0.46428571       0.50000000 </v>
   <v>      -0.32142857       0.46428571       0.50000000 </v>
   <v>      -0.28571429       0.46428571       0.50000000 </v>
   <v>      -0.25000000       0.46428571       0.50000000 </v>
   <v>       0.03571429       0.50000000       0.50000000 </v>
   <v>       0.07142857       0.50000000       0.50000000 </v>
   <v>       0.10714286       0.50000000       0.50000000 </v>
   <v>       0.14285714       0.50000000       0.50000000 </v>
   <v>       0.17857143       0.50000000       0.50000000 </v>
   <v>       0.21428571       0.50000000       0.50000000 </v>
   <v>       0.25000000       0.50000000       0.50000000 </v>
  </varray>
  <varray name="weights" >
   <v>       0.00021259 </v>
   <v>       0.00042517 </v>
   <v>       0.00042517 </v>
   <v>       0.00042517 </v>
   <v>       0.00042517 </v>
   <v>       0.00042517 </v>
   <v>       0.00042517 </v>
   <v>       0.00042517 </v>
   <v>       0.00042517 </v>
   <v>       0.00042517 </v>
   <v>       0.00042517 </v>
   <v>       0.00042517 </v>
   <v>       0.00042517 </v>
   <v>       0.00042517 </v>
   <v>       0.00063776 </v>
   <v>       0.00085034 </v>
   <v>       0.00085034 </v>
   <v>       0.00085034 </v>
   <v>       0.00085034 </v>
   <v>       0.00085034 </v>
   <v>       0.00085034 </v>
   <v>       0.00085034 </v>
   <v>       0.00085034 </v>
   <v>       0.00085034 </v>
   <v>       0.00085034 </v>
   <v>       0.00085034 </v>
   <v>       0.00085034 </v>
   <v>       0.00085034 </v>
   <v>       0.00170068 </v>
   <v>       0.00085034 </v>
   <v>       0.00085034 </v>
   <v>       0.00085034 </v>
   <v>       0.00085034 </v>
   <v>       0.00085034 </v>
   <v>       0.00085034 </v>
   <v>       0.00085034 </v>
   <v>       0.00085034 </v>
   <v>       0.00085034 </v>
   <v>       0.00085034 </v>
   <v>       0.00085034 </v>
   <v>       0.00085034 </v>
   <v>       0.00170068 </v>
   <v>       0.00042517 </v>
   <v>       0.00042517 </v>
   <v>       0.00085034 </v>
   <v>       0.00085034 </v>
   <v>       0.00085034 </v>
   <v>       0.00085034 </v>
   <v>       0.00085034 </v>
   <v>       0.00085034 </v>
   <v>       0.00085034 </v>
   <v>       0.00085034 </v>
   <v>       0.00085034 </v>
   <v>       0.00085034 </v>
   <v>       0.00085034 </v>
   <v>       0.00170068 </v>
   <v>       0.00085034 </v>
   <v>       0.00085034 </v>
   <v>       0.00085034 </v>
   <v>       0.00085034 </v>
   <v>       0.00085034 </v>
   <v>       0.00085034 </v>
   <v>       0.00085034 </v>
   <v>       0.00085034 </v>
   <v>       0.00085034 </v>
   <v>       0.00085034 </v>
   <v>       0.00085034 </v>
   <v>       0.00085034 </v>
   <v>       0.00170068 </v>
   <v>       0.00085034 </v>
   <v>       0.00042517 </v>
   <v>       0.00085034 </v>
   <v>       0.00042517 </v>
   <v>       0.00085034 </v>
   <v>       0.00085034 </v>
   <v>       0.00085034 </v>
   <v>       0.00085034 </v>
   <v>       0.00085034 </v>
   <v>       0.00085034 </v>
   <v>       0.00085034 </v>
   <v>       0.00085034 </v>
   <v>       0.00085034 </v>
   <v>       0.00170068 </v>
   <v>       0.00085034 </v>
   <v>       0.00085034 </v>
   <v>       0.00085034 </v>
   <v>       0.00085034 </v>
   <v>       0.00085034 </v>
   <v>       0.00085034 </v>
   <v>       0.00085034 </v>
   <v>       0.00085034 </v>
   <v>       0.00085034 </v>
   <v>       0.00085034 </v>
   <v>       0.00085034 </v>
   <v>       0.00085034 </v>
   <v>       0.00170068 </v>
   <v>       0.00085034 </v>
   <v>       0.00085034 </v>
   <v>       0.00042517 </v>
   <v>       0.00085034 </v>
   <v>       0.00085034 </v>
   <v>       0.00042517 </v>
   <v>       0.00085034 </v>
   <v>       0.00085034 </v>
   <v>       0.00085034 </v>
   <v>       0.00085034 </v>
   <v>       0.00085034 </v>
   <v>       0.00085034 </v>
   <v>       0.00085034 </v>
   <v>       0.00170068 </v>
[...]
       <r>    2.9425    1.0000 </r>
       <r>    3.1849    1.0000 </r>
       <r>    3.4091    1.0000 </r>
       <r>    3.5152    1.0000 </r>
       <r>    3.7297    1.0000 </r>
       <r>    3.9424    1.0000 </r>
       <r>    4.0097    1.0000 </r>
       <r>    4.2093    1.0000 </r>
       <r>    4.3012    1.0000 </r>
       <r>    4.5735    1.0000 </r>
       <r>    4.7156    1.0000 </r>
       <r>    4.8130    1.0000 </r>
       <r>    5.0302    1.0000 </r>
       <r>    5.2105    1.0000 </r>
       <r>    5.2842    1.0000 </r>
       <r>    5.5215    1.0000 </r>
       <r>    5.6634    1.0000 </r>
       <r>    6.1472    1.0000 </r>
       <r>    7.8246    1.0342 </r>
       <r>    8.0507    0.9055 </r>
       <r>    9.8056    0.0000 </r>
       <r>   10.0055    0.0000 </r>
       <r>   12.1902    0.0000 </r>
       <r>   12.6570    0.0000 </r>
       <r>   13.9150    0.0000 </r>
       <r>   14.1113    0.0000 </r>
       <r>   15.0668    0.0000 </r>
       <r>   15.5583    0.0000 </r>
       <r>   16.6318    0.0000 </r>
      </set>
      <set comment="kpoint 1190">
       <r>    2.3094    1.0000 </r>
       <r>    2.3804    1.0000 </r>
       <r>    2.5661    1.0000 </r>
       <r>    2.6686    1.0000 </r>
       <r>    2.7281    1.0000 </r>
       <r>    2.8323    1.0000 </r>
       <r>    3.1029    1.0000 </r>
       <r>    3.1112    1.0000 </r>
       <r>    3.1708    1.0000 </r>
       <r>    3.3395    1.0000 </r>
       <r>    3.4233    1.0000 </r>
       <r>    3.5270    1.0000 </r>
       <r>    3.8071    1.0000 </r>
       <r>    3.9164    1.0000 </r>
       <r>    4.1919    1.0000 </r>
       <r>    4.2832    1.0000 </r>
       <r>    4.4452    1.0000 </r>
       <r>    4.5748    1.0000 </r>
       <r>    4.7115    1.0000 </r>
       <r>    4.9923    1.0000 </r>
       <r>    5.0452    1.0000 </r>
       <r>    5.1890    1.0000 </r>
       <r>    5.5366    1.0000 </r>
       <r>    5.6536    1.0000 </r>
       <r>    6.1627    1.0000 </r>
       <r>    7.8422    1.0352 </r>
       <r>    8.0043    0.9678 </r>
       <r>    9.8273    0.0000 </r>
       <r>   10.0511    0.0000 </r>
       <r>   12.7301    0.0000 </r>
       <r>   13.3631    0.0000 </r>
       <r>   13.9313    0.0000 </r>
       <r>   14.5274    0.0000 </r>
       <r>   14.7505    0.0000 </r>
       <r>   15.0997    0.0000 </r>
       <r>   16.3939    0.0000 </r>
      </set>
      <set comment="kpoint 1191">
       <r>    2.3764    1.0000 </r>
       <r>    2.4089    1.0000 </r>
       <r>    2.6165    1.0000 </r>
       <r>    2.6874    1.0000 </r>
       <r>    2.7668    1.0000 </r>
       <r>    2.9336    1.0000 </r>
       <r>    2.9447    1.0000 </r>
       <r>    3.2997    1.0000 </r>
       <r>    3.3038    1.0000 </r>
       <r>    3.3271    1.0000 </r>
       <r>    3.3776    1.0000 </r>
       <r>    3.4336    1.0000 </r>
       <r>    3.5594    1.0000 </r>
       <r>    4.0146    1.0000 </r>
       <r>    4.0511    1.0000 </r>
       <r>    4.3611    1.0000 </r>
       <r>    4.3832    1.0000 </r>
       <r>    4.5159    1.0000 </r>
       <r>    4.7114    1.0000 </r>
       <r>    4.9003    1.0000 </r>
       <r>    5.0204    1.0000 </r>
       <r>    5.1674    1.0000 </r>
       <r>    5.5446    1.0000 </r>
       <r>    5.6494    1.0000 </r>
       <r>    6.1691    1.0000 </r>
       <r>    7.8497    1.0354 </r>
       <r>    7.9893    0.9829 </r>
       <r>    9.8335    0.0000 </r>
       <r>   10.0634    0.0000 </r>
       <r>   13.0503    0.0000 </r>
       <r>   13.6900    0.0000 </r>
       <r>   14.1417    0.0000 </r>
       <r>   14.2394    0.0000 </r>
       <r>   14.4900    0.0000 </r>
       <r>   15.2975    0.0000 </r>
       <r>   15.9846    0.0000 </r>
      </set>
     </set>
    </set>
   </array>
  </eigenvalues>
  <separator name="orbital magnetization" >
   <v name="MAGDIPOLOUT">      0.00000000      0.00000000      0.00000000</v>
  </separator>
  <dos>
   <i name="efermi">      8.22133897 </i>
   <total>
    <array>
     <dimension dim="1">gridpoints</dimension>
     <dimension dim="2">spin</dimension>
     <field>energy</field>
     <field>total</field>
     <field>integrated</field>
     <set>
      <set comment="spin 1">
       <r>    -3.4955     0.0000     0.0000 </r>
       <r>    -3.3941     0.0000     0.0000 </r>
       <r>    -3.2926     0.0000     0.0000 </r>
       <r>    -3.1912     0.0000     0.0000 </r>
       <r>    -3.0897     0.0000     0.0000 </r>
       <r>    -2.9883     0.0000     0.0000 </r>
       <r>    -2.8868     0.0000     0.0000 </r>
       <r>    -2.7854     0.0000     0.0000 </r>
       <r>    -2.6840     0.0000     0.0000 </r>
       <r>    -2.5825     0.0000     0.0000 </r>
       <r>    -2.4811     0.0000     0.0000 </r>
       <r>    -2.3796     0.0000     0.0000 </r>
       <r>    -2.2782     0.0000     0.0000 </r>
       <r>    -2.1767     0.0000     0.0000 </r>
       <r>    -2.0753     0.0000     0.0000 </r>
       <r>    -1.9738     0.0000     0.0000 </r>
       <r>    -1.8724     0.0000     0.0000 </r>
       <r>    -1.7709     0.0000     0.0000 </r>
       <r>    -1.6695     0.0000     0.0000 </r>
       <r>    -1.5680     0.0000     0.0000 </r>
       <r>    -1.4666     0.0000     0.0000 </r>
       <r>    -1.3651     0.0000     0.0000 </r>
       <r>    -1.2637    -0.0001     0.0000 </r>
       <r>    -1.1623    -0.0004     0.0000 </r>
       <r>    -1.0608    -0.0014    -0.0002 </r>
       <r>    -0.9594    -0.0038    -0.0006 </r>
       <r>    -0.8579    -0.0074    -0.0013 </r>
       <r>    -0.7565    -0.0076    -0.0021 </r>
       <r>    -0.6550     0.0057    -0.0015 </r>
       <r>    -0.5536     0.0433     0.0029 </r>
       <r>    -0.4521     0.1049     0.0135 </r>
       <r>    -0.3507     0.1737     0.0311 </r>
       <r>    -0.2492     0.2277     0.0542 </r>
       <r>    -0.1478     0.2566     0.0803 </r>
       <r>    -0.0463     0.2662     0.1073 </r>
       <r>     0.0551     0.2677     0.1344 </r>
       <r>     0.1565     0.2682     0.1616 </r>
       <r>     0.2580     0.2693     0.1890 </r>
       <r>     0.3594     0.2730     0.2167 </r>
       <r>     0.4609     0.2851     0.2456 </r>
       <r>     0.5623     0.3144     0.2775 </r>
       <r>     0.6638     0.3679     0.3148 </r>
       <r>     0.7652     0.4414     0.3596 </r>
       <r>     0.8667     0.5173     0.4120 </r>
       <r>     0.9681     0.5774     0.4706 </r>
       <r>     1.0696     0.6181     0.5333 </r>
       <r>     1.1710     0.6502     0.5993 </r>
       <r>     1.2725     0.6997     0.6703 </r>
       <r>     1.3739     0.8124     0.7527 </r>
       <r>     1.4754     1.0461     0.8588 </r>
       <r>     1.5768     1.4439     1.0053 </r>
       <r>     1.6782     1.9997     1.2081 </r>
       <r>     1.7797     2.6659     1.4786 </r>
       <r>     1.8811     3.4349     1.8270 </r>
       <r>     1.9826     4.4176     2.2752 </r>
       <r>     2.0840     5.8039     2.8640 </r>
       <r>     2.1855     7.7026     3.6454 </r>
       <r>     2.2869     9.9577     4.6556 </r>
       <r>     2.3884    12.0872     5.8818 </r>
       <r>     2.4898    13.4847     7.2497 </r>
       <r>     2.5913    13.7886     8.6485 </r>
       <r>     2.6927    13.0965     9.9771 </r>
       <r>     2.7942    11.8930    11.1836 </r>
       <r>     2.8956    10.8250    12.2818 </r>
       <r>     2.9971    10.4135    13.3382 </r>
       <r>     3.0985    10.7606    14.4298 </r>
       <r>     3.1999    11.5080    15.5973 </r>
       <r>     3.3014    12.1954    16.8345 </r>
       <r>     3.4028    12.7089    18.1237 </r>
       <r>     3.5043    13.3571    19.4788 </r>
       <r>     3.6057    14.4923    20.9490 </r>
       <r>     3.7072    16.0341    22.5756 </r>
       <r>     3.8086    17.3431    24.3350 </r>
       <r>     3.9101    17.6334    26.1238 </r>
       <r>     4.0115    16.6389    27.8118 </r>
       <r>     4.1130    14.9078    29.3241 </r>
       <r>     4.2144    13.4031    30.6838 </r>
       <r>     4.3159    12.7925    31.9816 </r>
       <r>     4.4173    13.0471    33.3052 </r>
       <r>     4.5187    13.5900    34.6838 </r>
       <r>     4.6202    13.8181    36.0856 </r>
       <r>     4.7216    13.5822    37.4635 </r>
       <r>     4.8231    13.2008    38.8027 </r>
       <r>     4.9245    13.0095    40.1224 </r>
       <r>     5.0260    12.9697    41.4382 </r>
       <r>     5.1274    12.7652    42.7332 </r>
       <r>     5.2289    12.1736    43.9681 </r>
       <r>     5.3303    11.2491    45.1093 </r>
       <r>     5.4318    10.2468    46.1488 </r>
       <r>     5.5332     9.4540    47.1079 </r>
       <r>     5.6347     8.9926    48.0201 </r>
       <r>     5.7361     8.7007    48.9028 </r>
       <r>     5.8376     8.2702    49.7418 </r>
       <r>     5.9390     7.5317    50.5058 </r>
       <r>     6.0404     6.5347    51.1688 </r>
       <r>     6.1419     5.3784    51.7144 </r>
       <r>     6.2433     4.1344    52.1338 </r>
       <r>     6.3448     2.9504    52.4331 </r>
       <r>     6.4462     2.0454    52.6406 </r>
       <r>     6.5477     1.5289    52.7957 </r>
       <r>     6.6491     1.3156    52.9292 </r>
       <r>     6.7506     1.2412    53.0551 </r>
       <r>     6.8520     1.2054    53.1774 </r>
       <r>     6.9535     1.1996    53.2991 </r>
       <r>     7.0549     1.2415    53.4250 </r>
       <r>     7.1564     1.3137    53.5583 </r>
       <r>     7.2578     1.3639    53.6967 </r>
       <r>     7.3593     1.3538    53.8340 </r>
       <r>     7.4607     1.2970    53.9656 </r>
       <r>     7.5621     1.2506    54.0925 </r>
       <r>     7.6636     1.2721    54.2215 </r>
       <r>     7.7650     1.3655    54.3600 </r>
       <r>     7.8665     1.4629    54.5084 </r>
       <r>     7.9679     1.4825    54.6588 </r>
       <r>     8.0694     1.4112    54.8020 </r>
       <r>     8.1708     1.3159    54.9355 </r>
       <r>     8.2723     1.2798    55.0653 </r>
       <r>     8.3737     1.3321    55.2005 </r>
       <r>     8.4752     1.4248    55.3450 </r>
       <r>     8.5766     1.4765    55.4948 </r>
       <r>     8.6781     1.4474    55.6416 </r>
       <r>     8.7795     1.3682    55.7804 </r>
       <r>     8.8809     1.3020    55.9125 </r>
       <r>     8.9824     1.2925    56.0436 </r>
       <r>     9.0838     1.3400    56.1796 </r>
       <r>     9.1853     1.4059    56.3222 </r>
       <r>     9.2867     1.4387    56.4681 </r>
       <r>     9.3882     1.4096    56.6111 </r>
       <r>     9.4896     1.3372    56.7468 </r>
       <r>     9.5911     1.2800    56.8766 </r>
       <r>     9.6925     1.2886    57.0074 </r>
       <r>     9.7940     1.3544    57.1447 </r>
       <r>     9.8954     1.4128    57.2881 </r>
       <r>     9.9969     1.4048    57.4306 </r>
       <r>    10.0983     1.3318    57.5657 </r>
       <r>    10.1998     1.2522    57.6927 </r>
       <r>    10.3012     1.2236    57.8169 </r>
       <r>    10.4026     1.2448    57.9431 </r>
       <r>    10.5041     1.2593    58.0709 </r>
       <r>    10.6055     1.2222    58.1949 </r>
       <r>    10.7070     1.1493    58.3115 </r>
       <r>    10.8084     1.0878    58.4218 </r>
       <r>    10.9099     1.0581    58.5292 </r>
       <r>    11.0113     1.0475    58.6354 </r>
       <r>    11.1128     1.0582    58.7428 </r>
       <r>    11.2142     1.1359    58.8580 </r>
       <r>    11.3157     1.3288    58.9928 </r>
       <r>    11.4171     1.6077    59.1559 </r>
       <r>    11.5186     1.8509    59.3437 </r>
       <r>    11.6200     1.9422    59.5407 </r>
       <r>    11.7215     1.8785    59.7313 </r>
       <r>    11.8229     1.7516    59.9090 </r>
       <r>    11.9243     1.6417    60.0755 </r>
       <r>    12.0258     1.5674    60.2345 </r>
       <r>    12.1272     1.5264    60.3894 </r>
       <r>    12.2287     1.5334    60.5449 </r>
       <r>    12.3301     1.5930    60.7065 </r>
       <r>    12.4316     1.6591    60.8748 </r>
       <r>    12.5330     1.6617    61.0434 </r>
       <r>    12.6345     1.5790    61.2036 </r>
       <r>    12.7359     1.4653    61.3523 </r>
       <r>    12.8374     1.3984    61.4941 </r>
       <r>    12.9388     1.4085    61.6370 </r>
       <r>    13.0403     1.4627    61.7854 </r>
       <r>    13.1417     1.5118    61.9388 </r>
       <r>    13.2431     1.5347    62.0945 </r>
       <r>    13.3446     1.5347    62.2501 </r>
       <r>    13.4460     1.5193    62.4043 </r>
       <r>    13.5475     1.5062    62.5571 </r>
       <r>    13.6489     1.5288    62.7122 </r>
       <r>    13.7504     1.6062    62.8751 </r>
       <r>    13.8518     1.7078    63.0484 </r>
       <r>    13.9533     1.7695    63.2279 </r>
       <r>    14.0547     1.7496    63.4053 </r>
       <r>    14.1562     1.6619    63.5739 </r>
       <r>    14.2576     1.5571    63.7319 </r>
       <r>    14.3591     1.4829    63.8823 </r>
       <r>    14.4605     1.4603    64.0305 </r>
       <r>    14.5620     1.4837    64.1810 </r>
       <r>    14.6634     1.5365    64.3369 </r>
       <r>    14.7648     1.6040    64.4996 </r>
       <r>    14.8663     1.6710    64.6691 </r>
       <r>    14.9677     1.7194    64.8435 </r>
       <r>    15.0692     1.7408    65.0201 </r>
       <r>    15.1706     1.7501    65.1977 </r>
       <r>    15.2721     1.7829    65.3785 </r>
       <r>    15.3735     1.8630    65.5675 </r>
       <r>    15.4750     1.9637    65.7668 </r>
       <r>    15.5764     2.0191    65.9716 </r>
       <r>    15.6779     1.9937    66.1738 </r>
       <r>    15.7793     1.9242    66.3690 </r>
       <r>    15.8808     1.8686    66.5586 </r>
       <r>    15.9822     1.8319    66.7444 </r>
       <r>    16.0837     1.7736    66.9244 </r>
       <r>    16.1851     1.6763    67.0944 </r>
       <r>    16.2865     1.5765    67.2544 </r>
       <r>    16.3880     1.5256    67.4091 </r>
       <r>    16.4894     1.5388    67.5652 </r>
       <r>    16.5909     1.5848    67.7260 </r>
       <r>    16.6923     1.6188    67.8902 </r>
       <r>    16.7938     1.6188    68.0544 </r>
       <r>    16.8952     1.5889    68.2156 </r>
       <r>    16.9967     1.5335    68.3712 </r>
       <r>    17.0981     1.4525    68.5185 </r>
       <r>    17.1996     1.3641    68.6569 </r>
       <r>    17.3010     1.3006    68.7889 </r>
       <r>    17.4025     1.2665    68.9174 </r>
       <r>    17.5039     1.2283    69.0420 </r>
       <r>    17.6053     1.1582    69.1595 </r>
       <r>    17.7068     1.0667    69.2677 </r>
       <r>    17.8082     0.9868    69.3678 </r>
       <r>    17.9097     0.9392    69.4631 </r>
       <r>    18.0111     0.9204    69.5564 </r>
       <r>    18.1126     0.9126    69.6490 </r>
       <r>    18.2140     0.8980    69.7401 </r>
       <r>    18.3155     0.8658    69.8279 </r>
       <r>    18.4169     0.8157    69.9107 </r>
       <r>    18.5184     0.7630    69.9881 </r>
       <r>    18.6198     0.7304    70.0622 </r>
       <r>    18.7213     0.7223    70.1355 </r>
       <r>    18.8227     0.7142    70.2079 </r>
       <r>    18.9242     0.6785    70.2768 </r>
       <r>    19.0256     0.6162    70.3393 </r>
       <r>    19.1270     0.5601    70.3961 </r>
       <r>    19.2285     0.5467    70.4515 </r>
       <r>    19.3299     0.5807    70.5105 </r>
       <r>    19.4314     0.6238    70.5737 </r>
       <r>    19.5328     0.6274    70.6374 </r>
       <r>    19.6343     0.5772    70.6960 </r>
       <r>    19.7357     0.5044    70.7471 </r>
       <r>    19.8372     0.4534    70.7931 </r>
       <r>    19.9386     0.4443    70.8382 </r>
       <r>    20.0401     0.4615    70.8850 </r>
       <r>    20.1415     0.4734    70.9330 </r>
       <r>    20.2430     0.4607    70.9798 </r>
       <r>    20.3444     0.4301    71.0234 </r>
       <r>    20.4458     0.4036    71.0643 </r>
       <r>    20.5473     0.3966    71.1046 </r>
       <r>    20.6487     0.4052    71.1457 </r>
       <r>    20.7502     0.4114    71.1874 </r>
       <r>    20.8516     0.3993    71.2279 </r>
       <r>    20.9531     0.3684    71.2653 </r>
       <r>    21.0545     0.3363    71.2994 </r>
       <r>    21.1560     0.3254    71.3324 </r>
       <r>    21.2574     0.3386    71.3667 </r>
       <r>    21.3589     0.3509    71.4023 </r>
       <r>    21.4603     0.3332    71.4361 </r>
       <r>    21.5618     0.2864    71.4652 </r>
       <r>    21.6632     0.2443    71.4900 </r>
       <r>    21.7647     0.2396    71.5143 </r>
       <r>    21.8661     0.2709    71.5418 </r>
       <r>    21.9675     0.3062    71.5728 </r>
       <r>    22.0690     0.3137    71.6047 </r>
       <r>    22.1704     0.2890    71.6340 </r>
       <r>    22.2719     0.2549    71.6598 </r>
       <r>    22.3733     0.2384    71.6840 </r>
       <r>    22.4748     0.2510    71.7095 </r>
       <r>    22.5762     0.2890    71.7388 </r>
       <r>    22.6777     0.3387    71.7732 </r>
       <r>    22.7791     0.3741    71.8111 </r>
       <r>    22.8806     0.3683    71.8485 </r>
       <r>    22.9820     0.3200    71.8809 </r>
       <r>    23.0835     0.2587    71.9072 </r>
       <r>    23.1849     0.2143    71.9289 </r>
       <r>    23.2864     0.1902    71.9482 </r>
       <r>    23.3878     0.1688    71.9654 </r>
       <r>    23.4892     0.1358    71.9791 </r>
       <r>    23.5907     0.0939    71.9887 </r>
       <r>    23.6921     0.0554    71.9943 </r>
       <r>    23.7936     0.0293    71.9973 </r>
       <r>    23.8950     0.0153    71.9988 </r>
       <r>    23.9965     0.0084    71.9997 </r>
       <r>    24.0979     0.0042    72.0001 </r>
       <r>    24.1994     0.0012    72.0002 </r>
       <r>    24.3008    -0.0004    72.0002 </r>
       <r>    24.4023    -0.0008    72.0001 </r>
       <r>    24.5037    -0.0006    72.0000 </r>
       <r>    24.6052    -0.0003    72.0000 </r>
       <r>    24.7066    -0.0001    72.0000 </r>
       <r>    24.8080     0.0000    72.0000 </r>
       <r>    24.9095     0.0000    72.0000 </r>
       <r>    25.0109     0.0000    72.0000 </r>
       <r>    25.1124     0.0000    72.0000 </r>
       <r>    25.2138     0.0000    72.0000 </r>
       <r>    25.3153     0.0000    72.0000 </r>
       <r>    25.4167     0.0000    72.0000 </r>
       <r>    25.5182     0.0000    72.0000 </r>
       <r>    25.6196     0.0000    72.0000 </r>
       <r>    25.7211     0.0000    72.0000 </r>
       <r>    25.8225     0.0000    72.0000 </r>
       <r>    25.9240     0.0000    72.0000 </r>
       <r>    26.0254     0.0000    72.0000 </r>
       <r>    26.1269     0.0000    72.0000 </r>
       <r>    26.2283     0.0000    72.0000 </r>
       <r>    26.3297     0.0000    72.0000 </r>
       <r>    26.4312     0.0000    72.0000 </r>
       <r>    26.5326     0.0000    72.0000 </r>
       <r>    26.6341     0.0000    72.0000 </r>
       <r>    26.7355     0.0000    72.0000 </r>
       <r>    26.8370     0.0000    72.0000 </r>
       <r>    26.9384     0.0000    72.0000 </r>
      </set>
     </set>
    </array>
   </total>
  </dos>
 </calculation>
 <structure name="finalpos" >
  <crystal>
   <varray name="basis" >
    <v>       0.00000000       2.06740744       2.06740744 </v>
    <v>      -2.06740744       0.00000000      -2.06740744 </v>
    <v>      -6.25305730      -8.32046474       6.25305730 </v>
   </varray>
   <i name="volume">     89.01641385 </i>
   <varray name="rec_basis" >
    <v>      -0.19324291       0.29045468       0.19324291 </v>
    <v>      -0.33847025       0.14522734      -0.14522734 </v>
    <v>      -0.04801557      -0.04801557       0.04801557 </v>
   </varray>
  </crystal>
  <varray name="positions" >
   <v>       0.39920971       0.19960486       0.59881457 </v>
   <v>       0.60000000       0.80000000       0.40000000 </v>
   <v>       0.80079029       0.40039514       0.20118543 </v>
   <v>       0.00136859       0.00068429       0.00205288 </v>
   <v>       0.19863141       0.59931571       0.79794712 </v>
  </varray>
 </structure>
</modeling>
