<?xml version="1.0" encoding="ISO-8859-1"?>
<modeling>
 <generator>
  <i name="program" type="string">vasp </i>
  <i name="version" type="string">5.3.5  </i>
  <i name="subversion" type="string">31Mar14 (build Jun 20 2014 13:15:13) complex                          parallel </i>
  <i name="platform" type="string">LinuxIFC </i>
  <i name="date" type="string">2025 12 12 </i>
  <i name="time" type="string">13:09:53 </i>
 </generator>
 <incar>
  <i type="string" name="PREC">accurate</i>
  <i type="int" name="IALGO">    38</i>
  <i type="logical" name="ADDGRID"> T  </i>
  <i type="int" name="ISPIN">     2</i>
  <i type="int" name="NELM">   100</i>
  <i type="int" name="NELMIN">     4</i>
  <i name="EDIFF">      0.00000100</i>
  <i name="ENCUT">    500.00000000</i>
  <i type="logical" name="LREAL"> F  </i>
  <i type="int" name="ISMEAR">     0</i>
  <i name="SIGMA">      0.05000000</i>
  <i type="logical" name="LWAVE"> F  </i>
  <i type="logical" name="LCHARG"> F  </i>
  <i type="int" name="NELM">   100</i>
  <i type="logical" name="LDAU"> T  </i>
  <v name="LDAUU">      0.00000000      4.00000000      0.00000000</v>
  <v name="LDAUJ">      0.00000000      0.00000000      0.00000000</v>
 </incar>
 <kpoints>
  <generation param="Auto">
   <i name="subdivisionlength">     20.00000000 </i>
   <v type="int" name="divisions">       1        4        4 </v>
   <v name="usershift">      0.00000000       0.00000000       0.00000000 </v>
   <v name="genvec1">      1.00000000       0.00000000       0.00000000 </v>
   <v name="genvec2">      0.00000000       0.25000000       0.00000000 </v>
   <v name="genvec3">      0.00000000       0.00000000       0.25000000 </v>
   <v name="shift">      0.00000000       0.00000000       0.00000000 </v>
  </generation>
  <varray name="kpointlist" >
   <v>       0.00000000       0.00000000       0.00000000 </v>
   <v>       0.00000000       0.25000000       0.00000000 </v>
   <v>       0.00000000       0.50000000       0.00000000 </v>
   <v>       0.00000000       0.00000000       0.25000000 </v>
   <v>       0.00000000       0.25000000       0.25000000 </v>
   <v>       0.00000000       0.50000000       0.25000000 </v>
   <v>       0.00000000       0.00000000       0.50000000 </v>
   <v>       0.00000000       0.25000000       0.50000000 </v>
   <v>       0.00000000       0.50000000       0.50000000 </v>
  </varray>
  <varray name="weights" >
   <v>       0.06250000 </v>
   <v>       0.12500000 </v>
   <v>       0.06250000 </v>
   <v>       0.12500000 </v>
   <v>       0.25000000 </v>
   <v>       0.12500000 </v>
   <v>       0.06250000 </v>
   <v>       0.12500000 </v>
   <v>       0.06250000 </v>
  </varray>
 </kpoints>
 <parameters>
  <separator name="general" >
   <i type="string" name="SYSTEM">unknown system</i>
   <i type="logical" name="LCOMPAT"> F  </i>
  </separator>
  <separator name="electronic" >
   <i type="string" name="PREC">accura</i>
   <i name="ENMAX">    500.00000000</i>
   <i name="ENAUG">    586.98000000</i>
   <i name="EDIFF">      0.00000100</i>
   <i type="int" name="IALGO">    38</i>
   <i type="int" name="IWAVPR">    10</i>
   <i type="int" name="NBANDS">   176</i>
   <i name="NELECT">    264.00000000</i>
   <i type="int" name="TURBO">     0</i>
   <i type="int" name="IRESTART">     0</i>
   <i type="int" name="NREBOOT">     0</i>
   <i type="int" name="NMIN">     0</i>
   <i name="EREF">      0.00000000</i>
   <separator name="electronic smearing" >
    <i type="int" name="ISMEAR">     0</i>
    <i name="SIGMA">      0.05000000</i>
    <i name="KSPACING">      0.50000000</i>
    <i type="logical" name="KGAMMA"> T  </i>
   </separator>
   <separator name="electronic projectors" >
    <i type="logical" name="LREAL"> F  </i>
    <v name="ROPT">      0.00000000      0.00000000      0.00000000</v>
    <i type="int" name="LMAXPAW">  -100</i>
    <i type="int" name="LMAXMIX">     2</i>
    <i type="logical" name="NLSPLINE"> F  </i>
   </separator>
   <separator name="electronic startup" >
    <i type="int" name="ISTART">     0</i>
    <i type="int" name="ICHARG">     2</i>
    <i type="int" name="INIWAV">     1</i>
   </separator>
   <separator name="electronic spin" >
    <i type="int" name="ISPIN">     2</i>
    <i type="logical" name="LNONCOLLINEAR"> F  </i>
    <v name="MAGMOM">      1.00000000      1.00000000      1.00000000      1.00000000      1.00000000      1.00000000      1.00000000      1.00000000      1.00000000      1.00000000      1.00000000      1.00000000      1.00000000      1.00000000      1.00000000      1.00000000      1.00000000      1.00000000      1.00000000      1.00000000
      1.00000000      1.00000000      1.00000000      1.00000000      1.00000000      1.00000000      1.00000000      1.00000000      1.00000000      1.00000000      1.00000000      1.00000000</v>
    <i name="NUPDOWN">     -1.00000000</i>
    <i type="logical" name="LSORBIT"> F  </i>
    <v name="SAXIS">      0.00000000      0.00000000      1.00000000</v>
    <i type="logical" name="LSPIRAL"> F  </i>
    <v name="QSPIRAL">      0.00000000      0.00000000      0.00000000</v>
    <i type="logical" name="LZEROZ"> F  </i>
   </separator>
   <separator name="electronic exchange-correlation" >
    <i type="logical" name="LASPH"> F  </i>
    <i type="logical" name="LMETAGGA"> F  </i>
   </separator>
   <separator name="electronic convergence" >
    <i type="int" name="NELM">   100</i>
    <i type="int" name="NELMDL">    -5</i>
    <i type="int" name="NELMIN">     4</i>
    <i name="ENINI">    500.00000000</i>
    <separator name="electronic convergence detail" >
     <i type="logical" name="LDIAG"> T  </i>
     <i type="logical" name="LSUBROT"> F  </i>
     <i name="WEIMIN">      0.00000000</i>
     <i name="EBREAK">      0.00000000</i>
     <i name="DEPER">      0.30000000</i>
     <i type="int" name="NRMM">     4</i>
     <i name="TIME">      0.40000000</i>
    </separator>
   </separator>
   <separator name="electronic mixer" >
    <i name="AMIX">      0.40000000</i>
    <i name="BMIX">      1.00000000</i>
    <i name="AMIN">      0.10000000</i>
    <i name="AMIX_MAG">      1.60000000</i>
    <i name="BMIX_MAG">      1.00000000</i>
    <separator name="electronic mixer details" >
     <i type="int" name="IMIX">     4</i>
     <i type="int" name="MAXMIX">   -45</i>
     <i name="WC">    100.00000000</i>
     <i type="int" name="INIMIX">     1</i>
     <i type="int" name="MIXPRE">     1</i>
     <i type="int" name="MREMOVE">     5</i>
    </separator>
   </separator>
   <separator name="electronic dipolcorrection" >
    <i type="logical" name="LDIPOL"> F  </i>
    <i type="logical" name="LMONO"> F  </i>
    <i type="int" name="IDIPOL">     0</i>
    <i name="EPSILON">      1.00000000</i>
    <v name="DIPOL">   -100.00000000   -100.00000000   -100.00000000</v>
    <i name="EFIELD">      0.00000000</i>
   </separator>
  </separator>
  <separator name="grids" >
   <i type="int" name="NGX">   126</i>
   <i type="int" name="NGY">    42</i>
   <i type="int" name="NGZ">    42</i>
   <i type="int" name="NGXF">   252</i>
   <i type="int" name="NGYF">    84</i>
   <i type="int" name="NGZF">    84</i>
   <i type="logical" name="ADDGRID"> T  </i>
  </separator>
  <separator name="ionic" >
   <i type="int" name="NSW">     0</i>
   <i type="int" name="IBRION">    -1</i>
   <i type="int" name="ISIF">     2</i>
   <i name="PSTRESS">      0.00000000</i>
   <i name="EDIFFG">      0.00001000</i>
   <i type="int" name="NFREE">     0</i>
   <i name="POTIM">      0.50000000</i>
   <i name="SMASS">     -3.00000000</i>
   <i name="SCALEE">      1.00000000</i>
  </separator>
  <separator name="ionic md" >
   <i name="TEBEG">      0.00010000</i>
   <i name="TEEND">      0.00010000</i>
   <i type="int" name="NBLOCK">     1</i>
   <i type="int" name="KBLOCK">     1</i>
   <i type="int" name="NPACO">   256</i>
   <i name="APACO">     16.00000000</i>
  </separator>
  <separator name="symmetry" >
   <i type="int" name="ISYM">     2</i>
   <i name="SYMPREC">      0.00001000</i>
  </separator>
  <separator name="dos" >
   <i type="logical" name="LORBIT"> F  </i>
   <v name="RWIGS">     -1.00000000     -1.00000000     -1.00000000</v>
   <i type="int" name="NEDOS">   301</i>
   <i name="EMIN">     10.00000000</i>
   <i name="EMAX">    -10.00000000</i>
   <i name="EFERMI">      0.00000000</i>
  </separator>
  <separator name="writing" >
   <i type="int" name="NWRITE">     2</i>
   <i type="logical" name="LWAVE"> F  </i>
   <i type="logical" name="LCHARG"> F  </i>
   <i type="logical" name="LPARD"> F  </i>
   <i type="logical" name="LVTOT"> F  </i>
   <i type="logical" name="LVHAR"> F  </i>
   <i type="logical" name="LELF"> F  </i>
   <i type="logical" name="LOPTICS"> F  </i>
   <v name="STM">      0.00000000      0.00000000      0.00000000      0.00000000      0.00000000      0.00000000      0.00000000</v>
  </separator>
  <separator name="performance" >
   <i type="int" name="NPAR">     4</i>
   <i type="int" name="NSIM">     4</i>
   <i type="int" name="NBLK">    -1</i>
   <i type="logical" name="LPLANE"> T  </i>
   <i type="logical" name="LSCALAPACK"> T  </i>
   <i type="logical" name="LSCAAWARE"> F  </i>
   <i type="logical" name="LSCALU"> F  </i>
   <i type="logical" name="LASYNC"> F  </i>
   <i type="logical" name="LORBITALREAL"> F  </i>
  </separator>
  <separator name="miscellaneous" >
   <i type="int" name="IDIOT">     3</i>
   <i type="logical" name="LMUSIC"> F  </i>
   <v name="POMASS">     87.62000000     63.54600000     16.00000000</v>
   <v name="DARWINR">      0.00000000      0.00000000      0.00000000</v>
   <v name="DARWINV">      1.00000000      1.00000000      1.00000000</v>
   <i type="logical" name="LCORR"> T  </i>
  </separator>
  <i type="logical" name="GGA_COMPAT"> T  </i>
  <i type="logical" name="LBERRY"> F  </i>
  <i type="int" name="ICORELEVEL">     0</i>
  <i type="logical" name="LDAU"> T  </i>
  <v type="int" name="LDAUTYPE">     2</v>
  <v type="int" name="LDAUL">     2</v>
  <v name="LDAUU">      0.00000000</v>
  <v name="LDAUJ">      0.00000000</v>
  <i type="int" name="LDAUPRINT">     0</i>
  <i type="int" name="I_CONSTRAINED_M">     0</i>
  <separator name="electronic exchange-correlation" >
   <i type="string" name="GGA">--</i>
   <i type="int" name="VOSKOWN">     0</i>
   <i type="logical" name="LHFCALC"> F  </i>
   <i type="string" name="PRECFOCK"></i>
   <i type="logical" name="LSYMGRAD"> F  </i>
   <i type="logical" name="LHFONE"> F  </i>
   <i type="logical" name="LRHFCALC"> F  </i>
   <i type="logical" name="LTHOMAS"> F  </i>
   <i type="logical" name="LMODELHF"> F  </i>
   <i name="ENCUT4O">     -1.00000000</i>
   <i type="int" name="EXXOEP">     0</i>
   <i type="int" name="FOURORBIT">     0</i>
   <i name="AEXX">      0.00000000</i>
   <i name="HFALPHA">      0.00000000</i>
   <i name="MCALPHA">      0.00000000</i>
   <i name="ALDAX">      1.00000000</i>
   <i name="AGGAX">      1.00000000</i>
   <i name="ALDAC">      1.00000000</i>
   <i name="AGGAC">      1.00000000</i>
   <i type="int" name="NKREDX">     1</i>
   <i type="int" name="NKREDY">     1</i>
   <i type="int" name="NKREDZ">     1</i>
   <i type="logical" name="SHIFTRED"> F  </i>
   <i type="logical" name="ODDONLY"> F  </i>
   <i type="logical" name="EVENONLY"> F  </i>
   <i type="int" name="LMAXFOCK">     0</i>
   <i type="int" name="NMAXFOCKAE">     0</i>
   <i type="logical" name="LFOCKAEDFT"> F  </i>
   <i name="HFSCREEN">      0.00000000</i>
   <i name="HFSCREENC">      0.00000000</i>
   <i type="int" name="NBANDSGWLOW">     0</i>
  </separator>
  <separator name="vdW DFT" >
   <i type="logical" name="LUSE_VDW"> F  </i>
   <i name="Zab_VDW">     -0.84910000</i>
   <i name="PARAM1">      0.12340000</i>
   <i name="PARAM2">      1.00000000</i>
   <i name="PARAM3">      0.00000000</i>
  </separator>
  <separator name="model GW" >
   <i type="int" name="MODEL_GW">     0</i>
   <i name="MODEL_EPS0">      9.60000000</i>
   <i name="MODEL_ALPHA">      1.00000000</i>
  </separator>
  <separator name="linear response parameters" >
   <i type="logical" name="LEPSILON"> F  </i>
   <i type="logical" name="LRPA"> F  </i>
   <i type="logical" name="LNABLA"> F  </i>
   <i type="logical" name="LVEL"> F  </i>
   <i type="int" name="KINTER">     0</i>
   <i name="CSHIFT">      0.10000000</i>
   <i name="OMEGAMAX">     -1.00000000</i>
   <i name="DEG_THRESHOLD">      0.00200000</i>
  </separator>
  <separator name="orbital magnetization" >
   <i type="logical" name="NUCIND"> F  </i>
   <v name="MAGPOS">      0.00000000      0.00000000      0.00000000</v>
   <i type="logical" name="LNICSALL"> T  </i>
   <i type="logical" name="ORBITALMAG"> F  </i>
   <i type="logical" name="LMAGBLOCH"> F  </i>
   <i type="logical" name="LCHIMAG"> F  </i>
   <i type="logical" name="LGAUGE"> T  </i>
   <i type="int" name="MAGATOM">     0</i>
   <v name="MAGDIPOL">      0.00000000      0.00000000      0.00000000</v>
   <v name="AVECCONST">      0.00000000      0.00000000      0.00000000</v>
  </separator>
  <separator name="response functions" >
   <i type="logical" name="LADDER"> F  </i>
   <i type="logical" name="LFXC"> F  </i>
   <i type="logical" name="LHARTREE"> T  </i>
   <i type="int" name="IBSE">     0</i>
   <i type="logical" name="LTCTE"> F  </i>
   <i type="logical" name="LTETE"> F  </i>
   <i type="logical" name="LTRIPLET"> F  </i>
   <i type="logical" name="LFXCEPS"> F  </i>
   <i type="logical" name="LFXHEG"> F  </i>
   <i type="logical" name="L2ORDER"> F  </i>
   <i type="logical" name="LUSEW"> F  </i>
   <i name="ENCUTGW">     -2.00000000</i>
   <i name="ENCUTGWSOFT">     -2.00000000</i>
   <i name="ENCUTLF">     -1.00000000</i>
   <i type="int" name="LMAXMP2">    -1</i>
   <i name="SCISSOR">      0.00000000</i>
   <i type="int" name="NOMEGA">     0</i>
   <i type="int" name="NOMEGAR">     0</i>
   <i type="int" name="NBANDSGW">    -1</i>
   <i type="int" name="NBANDSO">    -1</i>
   <i type="int" name="NBANDSV">    -1</i>
   <i type="int" name="NELM">   100</i>
   <i type="int" name="DIM">     3</i>
   <i type="int" name="ANTIRES">     0</i>
   <i name="OMEGAMAX">    -30.00000000</i>
   <i name="OMEGAMIN">    -30.00000000</i>
   <i name="OMEGATL">   -200.00000000</i>
   <i type="int" name="OMEGAGRID">     0</i>
   <i name="CSHIFT">     -0.10000000</i>
   <i type="logical" name="SELFENERGY"> F  </i>
   <i type="logical" name="LSPECTRAL"> F  </i>
   <i type="logical" name="ODDONLYGW"> F  </i>
   <i type="logical" name="EVENONLYGW"> F  </i>
   <i type="int" name="NKREDLFX">     1</i>
   <i type="int" name="NKREDLFY">     1</i>
   <i type="int" name="NKREDLFZ">     1</i>
   <i type="int" name="MAXMEM">  1800</i>
   <i type="int" name="TELESCOPE">     0</i>
   <i type="int" name="TAUPAR">     1</i>
  </separator>
  <separator name="External order field" >
   <i name="OFIELD_KAPPA">      0.00000000</i>
   <v name="OFIELD_K">      0.00000000      0.00000000      0.00000000</v>
   <i name="OFIELD_Q6_NEAR">      0.00000000</i>
   <i name="OFIELD_Q6_FAR">      0.00000000</i>
   <i name="OFIELD_A">      0.00000000</i>
  </separator>
 </parameters>
 <atominfo>
  <atoms>      32 </atoms>
  <types>       3 </types>
  <array name="atoms" >
   <dimension dim="1">ion</dimension>
   <field type="string">element</field>
   <field type="int">atomtype</field>
   <set>
    <rc><c>Sr</c><c>   1</c></rc>
    <rc><c>Sr</c><c>   1</c></rc>
    <rc><c>Sr</c><c>   1</c></rc>
    <rc><c>Sr</c><c>   1</c></rc>
    <rc><c>Sr</c><c>   1</c></rc>
    <rc><c>Sr</c><c>   1</c></rc>
    <rc><c>Sr</c><c>   1</c></rc>
    <rc><c>Sr</c><c>   1</c></rc>
    <rc><c>Cu</c><c>   2</c></rc>
    <rc><c>Cu</c><c>   2</c></rc>
    <rc><c>Cu</c><c>   2</c></rc>
    <rc><c>Cu</c><c>   2</c></rc>
    <rc><c>Cu</c><c>   2</c></rc>
    <rc><c>Cu</c><c>   2</c></rc>
    <rc><c>Cu</c><c>   2</c></rc>
    <rc><c>Cu</c><c>   2</c></rc>
    <rc><c>O </c><c>   3</c></rc>
    <rc><c>O </c><c>   3</c></rc>
    <rc><c>O </c><c>   3</c></rc>
    <rc><c>O </c><c>   3</c></rc>
    <rc><c>O </c><c>   3</c></rc>
    <rc><c>O </c><c>   3</c></rc>
    <rc><c>O </c><c>   3</c></rc>
    <rc><c>O </c><c>   3</c></rc>
    <rc><c>O </c><c>   3</c></rc>
    <rc><c>O </c><c>   3</c></rc>
    <rc><c>O </c><c>   3</c></rc>
    <rc><c>O </c><c>   3</c></rc>
    <rc><c>O </c><c>   3</c></rc>
    <rc><c>O </c><c>   3</c></rc>
    <rc><c>O </c><c>   3</c></rc>
    <rc><c>O </c><c>   3</c></rc>
   </set>
  </array>
  <array name="atomtypes" >
   <dimension dim="1">type</dimension>
   <field type="int">atomspertype</field>
   <field type="string">element</field>
   <field>mass</field>
   <field>valence</field>
   <field type="string">pseudopotential</field>
   <set>
    <rc><c>   8</c><c>Sr</c><c>     87.62000000</c><c>     10.00000000</c><c>  PAW_PBE Sr_sv 07Sep2000               </c></rc>
    <rc><c>   8</c><c>Cu</c><c>     63.54600000</c><c>     11.00000000</c><c>  PAW_PBE Cu 22Jun2005                  </c></rc>
    <rc><c>  16</c><c>O </c><c>     16.00000000</c><c>      6.00000000</c><c>  PAW_PBE O_s 07Sep2000                 </c></rc>
   </set>
  </array>
 </atominfo>
 <structure name="initialpos" >
  <crystal>
   <varray name="basis" >
    <v>      16.97056275       0.00000000       0.00000000 </v>
    <v>       0.00000000       5.65685425       0.00000000 </v>
    <v>      -1.88561808       0.00000000       5.33333333 </v>
   </varray>
   <i name="volume">    512.00000000 </i>
   <varray name="rec_basis" >
    <v>       0.05892557       0.00000000       0.02083333 </v>
    <v>       0.00000000       0.17677670       0.00000000 </v>
    <v>       0.00000000       0.00000000       0.18750000 </v>
   </varray>
  </crystal>
  <varray name="positions" >
   <v>       0.62500000       0.00000000       0.62500000 </v>
   <v>       0.37500000       0.00000000       0.37500000 </v>
   <v>       0.62500000       0.50000000       0.12500000 </v>
   <v>       0.37500000       0.50000000       0.87500000 </v>
   <v>       0.12500000       0.50000000       0.62500000 </v>
   <v>       0.87500000       0.50000000       0.37500000 </v>
   <v>       0.12500000       0.00000000       0.12500000 </v>
   <v>       0.87500000       0.00000000       0.87500000 </v>
   <v>       0.50000000       0.00000000       0.00000000 </v>
   <v>       0.25000000       0.00000000       0.75000000 </v>
   <v>       0.50000000       0.50000000       0.50000000 </v>
   <v>       0.25000000       0.50000000       0.25000000 </v>
   <v>       0.00000000       0.50000000       0.00000000 </v>
   <v>       0.75000000       0.50000000       0.75000000 </v>
   <v>       0.00000000       0.00000000       0.50000000 </v>
   <v>       0.75000000       0.00000000       0.25000000 </v>
   <v>       0.62500000       0.50000000       0.62500000 </v>
   <v>       0.37500000       0.50000000       0.37500000 </v>
   <v>       0.50000000       0.25000000       0.75000000 </v>
   <v>       0.50000000       0.75000000       0.25000000 </v>
   <v>       0.25000000       0.75000000       0.00000000 </v>
   <v>       0.50000000       0.75000000       0.75000000 </v>
   <v>       0.50000000       0.25000000       0.25000000 </v>
   <v>       0.25000000       0.25000000       0.00000000 </v>
   <v>       0.12500000       0.00000000       0.62500000 </v>
   <v>       0.87500000       0.00000000       0.37500000 </v>
   <v>       0.00000000       0.75000000       0.75000000 </v>
   <v>       0.00000000       0.25000000       0.25000000 </v>
   <v>       0.75000000       0.25000000       0.00000000 </v>
   <v>       0.00000000       0.25000000       0.75000000 </v>
   <v>       0.00000000       0.75000000       0.25000000 </v>
   <v>       0.75000000       0.75000000       0.00000000 </v>
  </varray>
 </structure>
 <calculation>
  <scstep>
   <time name="dav">    8.44    8.45</time>
   <time name="total">    8.75    8.76</time>
   <energy>
    <i name="alphaZ">   1197.30728287 </i>
    <i name="ewald"> -17132.24057199 </i>
    <i name="hartreedc">  -7755.87726338 </i>
    <i name="XCdc">   1086.35577514 </i>
    <i name="pawpsdc">  20377.93945936 </i>
    <i name="pawaedc"> -21035.46554250 </i>
    <i name="eentropy">     -0.00236879 </i>
    <i name="bandstr">   1949.31857507 </i>
    <i name="atom">  24790.01456472 </i>
    <i name="e_fr_energy">   3477.34991052 </i>
    <i name="e_wo_entrp">   3477.35227931 </i>
    <i name="e_0_energy">   3477.35109491 </i>
   </energy>
  </scstep>
  <scstep>
   <time name="dav">    8.60    8.60</time>
   <time name="total">    8.60    8.61</time>
   <energy>
    <i name="e_fr_energy">    408.37191057 </i>
    <i name="e_wo_entrp">    408.38777682 </i>
    <i name="e_0_energy">    408.37984370 </i>
   </energy>
  </scstep>
  <scstep>
   <time name="dav">    8.54    8.54</time>
   <time name="total">    8.54    8.56</time>
   <energy>
    <i name="e_fr_energy">   -138.95944923 </i>
    <i name="e_wo_entrp">   -138.93718904 </i>
    <i name="e_0_energy">   -138.94831913 </i>
   </energy>
  </scstep>
  <scstep>
   <time name="dav">   11.09   11.09</time>
   <time name="total">   11.09   11.11</time>
   <energy>
    <i name="e_fr_energy">   -189.37336405 </i>
    <i name="e_wo_entrp">   -189.35468944 </i>
    <i name="e_0_energy">   -189.36402674 </i>
   </energy>
  </scstep>
  <scstep>
   <time name="dav">   13.58   13.59</time>
   <time name="total">   14.13   14.15</time>
   <energy>
    <i name="e_fr_energy">   -192.66733211 </i>
    <i name="e_wo_entrp">   -192.64673417 </i>
    <i name="e_0_energy">   -192.65703314 </i>
   </energy>
  </scstep>
  <scstep>
   <time name="dav">   11.87   11.87</time>
   <time name="total">   12.71   12.73</time>
   <energy>
    <i name="e_fr_energy">   -169.65438404 </i>
    <i name="e_wo_entrp">   -169.62301164 </i>
    <i name="e_0_energy">   -169.63869784 </i>
   </energy>
  </scstep>
  <scstep>
   <time name="dav">   11.53   11.54</time>
   <time name="total">   12.37   12.40</time>
   <energy>
    <i name="e_fr_energy">   -155.16476016 </i>
    <i name="e_wo_entrp">   -155.13483683 </i>
    <i name="e_0_energy">   -155.14979850 </i>
   </energy>
  </scstep>
  <scstep>
   <time name="dav">   12.00   12.01</time>
   <time name="total">   12.85   12.87</time>
   <energy>
    <i name="e_fr_energy">   -155.22804314 </i>
    <i name="e_wo_entrp">   -155.21509331 </i>
    <i name="e_0_energy">   -155.22156822 </i>
   </energy>
  </scstep>
  <scstep>
   <time name="dav">   11.84   11.84</time>
   <time name="total">   12.68   12.70</time>
   <energy>
    <i name="e_fr_energy">   -159.03876735 </i>
    <i name="e_wo_entrp">   -159.02810684 </i>
    <i name="e_0_energy">   -159.03343710 </i>
   </energy>
  </scstep>
  <scstep>
   <time name="dav">   11.06   11.07</time>
   <time name="total">   11.91   11.92</time>
   <energy>
    <i name="e_fr_energy">   -151.77190917 </i>
    <i name="e_wo_entrp">   -151.74838234 </i>
    <i name="e_0_energy">   -151.76014575 </i>
   </energy>
  </scstep>
  <scstep>
   <time name="dav">   11.42   11.43</time>
   <time name="total">   12.26   12.29</time>
   <energy>
    <i name="e_fr_energy">   -152.83086390 </i>
    <i name="e_wo_entrp">   -152.81403099 </i>
    <i name="e_0_energy">   -152.82244745 </i>
   </energy>
  </scstep>
  <scstep>
   <time name="dav">   11.91   11.92</time>
   <time name="total">   12.75   12.79</time>
   <energy>
    <i name="e_fr_energy">   -152.69685163 </i>
    <i name="e_wo_entrp">   -152.67731277 </i>
    <i name="e_0_energy">   -152.68708220 </i>
   </energy>
  </scstep>
  <scstep>
   <time name="dav">   11.90   11.91</time>
   <time name="total">   12.74   12.77</time>
   <energy>
    <i name="e_fr_energy">   -153.26750083 </i>
    <i name="e_wo_entrp">   -153.24496179 </i>
    <i name="e_0_energy">   -153.25623131 </i>
   </energy>
  </scstep>
  <scstep>
   <time name="dav">   11.28   11.29</time>
   <time name="total">   12.12   12.14</time>
   <energy>
    <i name="e_fr_energy">   -153.75880549 </i>
    <i name="e_wo_entrp">   -153.74161836 </i>
    <i name="e_0_energy">   -153.75021192 </i>
   </energy>
  </scstep>
  <scstep>
   <time name="dav">   11.38   11.38</time>
   <time name="total">   12.22   12.24</time>
   <energy>
    <i name="e_fr_energy">   -153.91114701 </i>
    <i name="e_wo_entrp">   -153.89642729 </i>
    <i name="e_0_energy">   -153.90378715 </i>
   </energy>
  </scstep>
  <scstep>
   <time name="dav">   11.64   11.65</time>
   <time name="total">   12.49   12.51</time>
   <energy>
    <i name="e_fr_energy">   -154.00314039 </i>
    <i name="e_wo_entrp">   -153.98541687 </i>
    <i name="e_0_energy">   -153.99427863 </i>
   </energy>
  </scstep>
  <scstep>
   <time name="dav">   11.76   11.76</time>
   <time name="total">   12.60   12.62</time>
   <energy>
    <i name="e_fr_energy">   -154.02485078 </i>
    <i name="e_wo_entrp">   -154.00890375 </i>
    <i name="e_0_energy">   -154.01687726 </i>
   </energy>
  </scstep>
  <scstep>
   <time name="dav">   11.57   11.58</time>
   <time name="total">   12.42   12.44</time>
   <energy>
    <i name="e_fr_energy">   -154.04445927 </i>
    <i name="e_wo_entrp">   -154.03104542 </i>
    <i name="e_0_energy">   -154.03775234 </i>
   </energy>
  </scstep>
  <scstep>
   <time name="dav">   11.52   11.53</time>
   <time name="total">   12.38   12.40</time>
   <energy>
    <i name="e_fr_energy">   -154.05625085 </i>
    <i name="e_wo_entrp">   -154.04611065 </i>
    <i name="e_0_energy">   -154.05118075 </i>
   </energy>
  </scstep>
  <scstep>
   <time name="dav">   12.29   12.30</time>
   <time name="total">   13.14   13.16</time>
   <energy>
    <i name="e_fr_energy">   -154.05849192 </i>
    <i name="e_wo_entrp">   -154.04862655 </i>
    <i name="e_0_energy">   -154.05355924 </i>
   </energy>
  </scstep>
  <scstep>
   <time name="dav">   12.95   12.96</time>
   <time name="total">   13.79   13.81</time>
   <energy>
    <i name="e_fr_energy">   -154.05965558 </i>
    <i name="e_wo_entrp">   -154.05015635 </i>
    <i name="e_0_energy">   -154.05490597 </i>
   </energy>
  </scstep>
  <scstep>
   <time name="dav">   12.05   12.06</time>
   <time name="total">   12.90   12.92</time>
   <energy>
    <i name="e_fr_energy">   -154.06064400 </i>
    <i name="e_wo_entrp">   -154.05135568 </i>
    <i name="e_0_energy">   -154.05599984 </i>
   </energy>
  </scstep>
  <scstep>
   <time name="dav">   12.38   12.39</time>
   <time name="total">   13.22   13.24</time>
   <energy>
    <i name="e_fr_energy">   -154.06118804 </i>
    <i name="e_wo_entrp">   -154.05184897 </i>
    <i name="e_0_energy">   -154.05651851 </i>
   </energy>
  </scstep>
  <scstep>
   <time name="dav">   11.97   11.97</time>
   <time name="total">   12.82   12.85</time>
   <energy>
    <i name="e_fr_energy">   -154.06145406 </i>
    <i name="e_wo_entrp">   -154.05220169 </i>
    <i name="e_0_energy">   -154.05682788 </i>
   </energy>
  </scstep>
  <scstep>
   <time name="dav">   11.85   11.85</time>
   <time name="total">   12.69   12.71</time>
   <energy>
    <i name="e_fr_energy">   -154.06157073 </i>
    <i name="e_wo_entrp">   -154.05230039 </i>
    <i name="e_0_energy">   -154.05693556 </i>
   </energy>
  </scstep>
  <scstep>
   <time name="dav">   11.90   11.91</time>
   <time name="total">   12.74   12.77</time>
   <energy>
    <i name="e_fr_energy">   -154.06163836 </i>
    <i name="e_wo_entrp">   -154.05230977 </i>
    <i name="e_0_energy">   -154.05697406 </i>
   </energy>
  </scstep>
  <scstep>
   <time name="dav">   11.29   11.30</time>
   <time name="total">   12.13   12.15</time>
   <energy>
    <i name="e_fr_energy">   -154.06167407 </i>
    <i name="e_wo_entrp">   -154.05229860 </i>
    <i name="e_0_energy">   -154.05698633 </i>
   </energy>
  </scstep>
  <scstep>
   <time name="dav">   11.09   11.10</time>
   <time name="total">   11.93   11.95</time>
   <energy>
    <i name="e_fr_energy">   -154.06170207 </i>
    <i name="e_wo_entrp">   -154.05221481 </i>
    <i name="e_0_energy">   -154.05695844 </i>
   </energy>
  </scstep>
  <scstep>
   <time name="dav">   11.44   11.44</time>
   <time name="total">   12.28   12.30</time>
   <energy>
    <i name="e_fr_energy">   -154.06172854 </i>
    <i name="e_wo_entrp">   -154.05220682 </i>
    <i name="e_0_energy">   -154.05696768 </i>
   </energy>
  </scstep>
  <scstep>
   <time name="dav">    9.76    9.77</time>
   <time name="total">   10.61   10.62</time>
   <energy>
    <i name="e_fr_energy">   -154.06173654 </i>
    <i name="e_wo_entrp">   -154.05219845 </i>
    <i name="e_0_energy">   -154.05696749 </i>
   </energy>
  </scstep>
  <scstep>
   <time name="dav">    7.48    7.49</time>
   <time name="total">    8.33    8.35</time>
   <energy>
    <i name="e_fr_energy">   -154.06173854 </i>
    <i name="e_wo_entrp">   -154.05219249 </i>
    <i name="e_0_energy">   -154.05696551 </i>
   </energy>
  </scstep>
  <scstep>
   <time name="dav">    6.89    6.89</time>
   <time name="total">    7.73    7.75</time>
   <energy>
    <i name="e_fr_energy">   -154.06174008 </i>
    <i name="e_wo_entrp">   -154.05217870 </i>
    <i name="e_0_energy">   -154.05695939 </i>
   </energy>
  </scstep>
  <scstep>
   <time name="dav">    6.74    6.75</time>
   <time name="total">    7.04    7.06</time>
   <energy>
    <i name="alphaZ">   1197.30728287 </i>
    <i name="ewald"> -17132.24057199 </i>
    <i name="hartreedc">  -7772.83692251 </i>
    <i name="XCdc">   1086.66087917 </i>
    <i name="pawpsdc">  30992.55676853 </i>
    <i name="pawaedc"> -31722.58622511 </i>
    <i name="eentropy">     -0.00957042 </i>
    <i name="bandstr">  -1592.92794624 </i>
    <i name="atom">  24790.01456472 </i>
    <i name="e_fr_energy">   -154.06174095 </i>
    <i name="e_wo_entrp">   -154.05217054 </i>
    <i name="e_0_energy">   -154.05695575 </i>
   </energy>
  </scstep>
  <structure>
   <crystal>
    <varray name="basis" >
     <v>      16.97056275       0.00000000       0.00000000 </v>
     <v>       0.00000000       5.65685425       0.00000000 </v>
     <v>      -1.88561808       0.00000000       5.33333333 </v>
    </varray>
    <i name="volume">    512.00000000 </i>
    <varray name="rec_basis" >
     <v>       0.05892557       0.00000000       0.02083333 </v>
     <v>       0.00000000       0.17677670       0.00000000 </v>
     <v>       0.00000000       0.00000000       0.18750000 </v>
    </varray>
   </crystal>
   <varray name="positions" >
    <v>       0.62500000       0.00000000       0.62500000 </v>
    <v>       0.37500000       0.00000000       0.37500000 </v>
    <v>       0.62500000       0.50000000       0.12500000 </v>
    <v>       0.37500000       0.50000000       0.87500000 </v>
    <v>       0.12500000       0.50000000       0.62500000 </v>
    <v>       0.87500000       0.50000000       0.37500000 </v>
    <v>       0.12500000       0.00000000       0.12500000 </v>
    <v>       0.87500000       0.00000000       0.87500000 </v>
    <v>       0.50000000       0.00000000       0.00000000 </v>
    <v>       0.25000000       0.00000000       0.75000000 </v>
    <v>       0.50000000       0.50000000       0.50000000 </v>
    <v>       0.25000000       0.50000000       0.25000000 </v>
    <v>       0.00000000       0.50000000       0.00000000 </v>
    <v>       0.75000000       0.50000000       0.75000000 </v>
    <v>       0.00000000       0.00000000       0.50000000 </v>
    <v>       0.75000000       0.00000000       0.25000000 </v>
    <v>       0.62500000       0.50000000       0.62500000 </v>
    <v>       0.37500000       0.50000000       0.37500000 </v>
    <v>       0.50000000       0.25000000       0.75000000 </v>
    <v>       0.50000000       0.75000000       0.25000000 </v>
    <v>       0.25000000       0.75000000       0.00000000 </v>
    <v>       0.50000000       0.75000000       0.75000000 </v>
    <v>       0.50000000       0.25000000       0.25000000 </v>
    <v>       0.25000000       0.25000000       0.00000000 </v>
    <v>       0.12500000       0.00000000       0.62500000 </v>
    <v>       0.87500000       0.00000000       0.37500000 </v>
    <v>       0.00000000       0.75000000       0.75000000 </v>
    <v>       0.00000000       0.25000000       0.25000000 </v>
    <v>       0.75000000       0.25000000       0.00000000 </v>
    <v>       0.00000000       0.25000000       0.75000000 </v>
    <v>       0.00000000       0.75000000       0.25000000 </v>
    <v>       0.75000000       0.75000000       0.00000000 </v>
   </varray>
  </structure>
  <varray name="forces" >
   <v>      -1.56633294       0.00000000       0.29883832 </v>
   <v>       1.56633294       0.00000000      -0.29883832 </v>
   <v>      -1.08083656       0.00000000      -1.28555463 </v>
   <v>       1.08083656       0.00000000       1.28555463 </v>
   <v>      -1.56633294       0.00000000       0.29883832 </v>
   <v>       1.56633294       0.00000000      -0.29883832 </v>
   <v>      -1.08083656       0.00000000      -1.28555463 </v>
   <v>       1.08083656       0.00000000       1.28555463 </v>
   <v>       0.00000000       0.00000000       0.00000000 </v>
   <v>      -1.63297132       0.00000000       0.84521898 </v>
   <v>       0.00000000       0.00000000       0.00000000 </v>
   <v>       1.63297132       0.00000000      -0.84521898 </v>
   <v>       0.00000000       0.00000000       0.00000000 </v>
   <v>      -1.63297132       0.00000000       0.84521898 </v>
   <v>       0.00000000       0.00000000       0.00000000 </v>
   <v>       1.63297132       0.00000000      -0.84521898 </v>
   <v>       0.74611035       0.00000000      -0.61979146 </v>
   <v>      -0.74611035       0.00000000       0.61979146 </v>
   <v>      -0.24556934      -0.82233100       0.79591160 </v>
   <v>       0.24556934       0.82233100      -0.79591160 </v>
   <v>       0.00000000       0.00000000       0.00000000 </v>
   <v>      -0.24556934       0.82233100       0.79591160 </v>
   <v>       0.24556934      -0.82233100      -0.79591160 </v>
   <v>       0.00000000       0.00000000       0.00000000 </v>
   <v>       0.74611035       0.00000000      -0.61979146 </v>
   <v>      -0.74611035       0.00000000       0.61979146 </v>
   <v>      -0.24556934      -0.82233100       0.79591160 </v>
   <v>       0.24556934       0.82233100      -0.79591160 </v>
   <v>       0.00000000       0.00000000       0.00000000 </v>
   <v>      -0.24556934       0.82233100       0.79591160 </v>
   <v>       0.24556934      -0.82233100      -0.79591160 </v>
   <v>       0.00000000       0.00000000       0.00000000 </v>
  </varray>
  <varray name="stress" >
   <v>    -120.05563061       0.00000000      20.03345441 </v>
   <v>       0.00000000     -55.70895469       0.00000000 </v>
   <v>      20.03345402       0.00000000     -70.68539419 </v>
  </varray>
  <energy>
   <i name="e_fr_energy">   -154.06174095 </i>
   <i name="e_wo_entrp">   -154.05695575 </i>
   <i name="e_0_energy">     -0.00957042 </i>
  </energy>
  <time name="totalsc">  399.80  400.52</time>
  <eigenvalues>
   <array>
    <dimension dim="1">band</dimension>
    <dimension dim="2">kpoint</dimension>
    <dimension dim="3">spin</dimension>
    <field>eigene</field>
    <field>occ</field>
    <set>
     <set comment="spin 1">
      <set comment="kpoint 1">
       <r>  -31.4030    1.0000 </r>
       <r>  -31.3964    1.0000 </r>
       <r>  -31.3964    1.0000 </r>
       <r>  -31.3898    1.0000 </r>
       <r>  -31.3749    1.0000 </r>
       <r>  -31.3693    1.0000 </r>
       <r>  -31.3691    1.0000 </r>
       <r>  -31.3635    1.0000 </r>
       <r>  -14.9552    1.0000 </r>
       <r>  -14.8389    1.0000 </r>
       <r>  -14.7925    1.0000 </r>
       <r>  -14.6690    1.0000 </r>
       <r>  -14.3556    1.0000 </r>
       <r>  -14.1884    1.0000 </r>
       <r>  -14.1723    1.0000 </r>
       <r>  -14.1694    1.0000 </r>
       <r>  -14.1372    1.0000 </r>
       <r>  -13.9279    1.0000 </r>
       <r>  -13.8904    1.0000 </r>
       <r>  -13.8463    1.0000 </r>
       <r>  -13.8442    1.0000 </r>
       <r>  -13.8382    1.0000 </r>
       <r>  -13.5811    1.0000 </r>
       <r>  -13.5730    1.0000 </r>
       <r>  -13.4837    1.0000 </r>
       <r>  -13.4712    1.0000 </r>
       <r>  -13.4334    1.0000 </r>
       <r>  -13.4325    1.0000 </r>
       <r>  -13.4268    1.0000 </r>
       <r>  -13.3898    1.0000 </r>
       <r>  -13.3823    1.0000 </r>
       <r>  -13.3671    1.0000 </r>
       <r>  -13.3636    1.0000 </r>
       <r>  -13.3452    1.0000 </r>
       <r>  -13.3065    1.0000 </r>
       <r>  -13.2774    1.0000 </r>
       <r>  -13.2750    1.0000 </r>
       <r>  -13.2679    1.0000 </r>
       <r>  -13.2295    1.0000 </r>
       <r>  -13.2242    1.0000 </r>
       <r>  -13.1783    1.0000 </r>
       <r>  -13.1760    1.0000 </r>
       <r>  -12.9860    1.0000 </r>
       <r>  -12.9814    1.0000 </r>
       <r>  -12.8715    1.0000 </r>
       <r>  -12.8646    1.0000 </r>
       <r>  -12.7877    1.0000 </r>
       <r>  -12.7111    1.0000 </r>
       <r>   -3.0811    1.0000 </r>
       <r>   -3.0685    1.0000 </r>
       <r>   -2.6169    1.0000 </r>
       <r>   -2.5574    1.0000 </r>
       <r>   -2.5574    1.0000 </r>
       <r>   -2.4708    1.0000 </r>
       <r>   -2.2966    1.0000 </r>
       <r>   -2.1649    1.0000 </r>
       <r>   -2.1096    1.0000 </r>
       <r>   -2.0896    1.0000 </r>
       <r>   -1.8537    1.0000 </r>
       <r>   -1.8252    1.0000 </r>
       <r>   -1.7725    1.0000 </r>
       <r>   -1.7654    1.0000 </r>
       <r>   -1.7632    1.0000 </r>
       <r>   -1.7412    1.0000 </r>
       <r>   -1.4537    1.0000 </r>
       <r>   -1.3762    1.0000 </r>
       <r>   -1.3721    1.0000 </r>
       <r>   -1.3586    1.0000 </r>
       <r>   -1.1136    1.0000 </r>
       <r>   -1.0184    1.0000 </r>
       <r>   -1.0014    1.0000 </r>
       <r>   -0.9098    1.0000 </r>
       <r>   -0.9080    1.0000 </r>
       <r>   -0.9036    1.0000 </r>
       <r>   -0.8361    1.0000 </r>
       <r>   -0.8300    1.0000 </r>
       <r>   -0.7633    1.0000 </r>
       <r>   -0.7616    1.0000 </r>
       <r>   -0.7510    1.0000 </r>
       <r>   -0.7432    1.0000 </r>
       <r>   -0.7375    1.0000 </r>
       <r>   -0.7257    1.0000 </r>
       <r>   -0.3785    1.0000 </r>
       <r>   -0.3679    1.0000 </r>
       <r>   -0.3550    1.0000 </r>
       <r>   -0.3440    1.0000 </r>
       <r>   -0.3367    1.0000 </r>
       <r>   -0.2845    1.0000 </r>
       <r>   -0.1882    1.0000 </r>
       <r>   -0.1879    1.0000 </r>
       <r>   -0.1242    1.0000 </r>
       <r>    0.0816    1.0000 </r>
       <r>    0.1061    1.0000 </r>
       <r>    0.1107    1.0000 </r>
       <r>    0.2244    1.0000 </r>
       <r>    0.2373    1.0000 </r>
       <r>    0.3335    1.0000 </r>
       <r>    0.3336    1.0000 </r>
       <r>    0.5414    1.0000 </r>
       <r>    0.7393    1.0000 </r>
       <r>    0.8398    1.0000 </r>
       <r>    0.8996    1.0000 </r>
       <r>    0.9521    1.0000 </r>
       <r>    1.0057    1.0000 </r>
       <r>    1.0277    1.0000 </r>
       <r>    1.0589    1.0000 </r>
       <r>    1.1037    1.0000 </r>
       <r>    1.1535    1.0000 </r>
       <r>    1.1656    1.0000 </r>
       <r>    1.2509    1.0000 </r>
       <r>    1.3530    1.0000 </r>
       <r>    1.3915    1.0000 </r>
       <r>    1.4182    1.0000 </r>
       <r>    1.4437    1.0000 </r>
       <r>    1.4450    1.0000 </r>
       <r>    1.4780    1.0000 </r>
       <r>    1.4929    1.0000 </r>
       <r>    1.4964    1.0000 </r>
       <r>    1.5147    1.0000 </r>
       <r>    1.6505    1.0000 </r>
       <r>    1.9369    1.0000 </r>
       <r>    1.9382    1.0000 </r>
       <r>    1.9414    1.0000 </r>
       <r>    1.9507    1.0000 </r>
       <r>    1.9781    1.0000 </r>
       <r>    2.0023    1.0000 </r>
       <r>    2.0508    1.0000 </r>
       <r>    2.1241    1.0000 </r>
       <r>    2.2894    1.0000 </r>
       <r>    2.3310    1.0000 </r>
       <r>    2.6338    0.7960 </r>
       <r>    2.6575    0.5628 </r>
       <r>    2.6578    0.5601 </r>
       <r>    2.8828    0.0000 </r>
       <r>    2.9127    0.0000 </r>
       <r>    2.9307    0.0000 </r>
       <r>    4.3627    0.0000 </r>
       <r>    4.3780    0.0000 </r>
       <r>    4.5074    0.0000 </r>
       <r>    4.5074    0.0000 </r>
       <r>    5.0798    0.0000 </r>
       <r>    5.5203    0.0000 </r>
       <r>    5.5467    0.0000 </r>
       <r>    5.6636    0.0000 </r>
       <r>    6.5301    0.0000 </r>
       <r>    7.0411    0.0000 </r>
       <r>    7.0569    0.0000 </r>
       <r>    7.6800    0.0000 </r>
       <r>    7.7675    0.0000 </r>
       <r>    7.8882    0.0000 </r>
       <r>    8.0650    0.0000 </r>
       <r>    8.1790    0.0000 </r>
       <r>    8.2499    0.0000 </r>
       <r>    8.2592    0.0000 </r>
       <r>    8.2662    0.0000 </r>
       <r>    8.5467    0.0000 </r>
       <r>    8.5997    0.0000 </r>
       <r>    8.7316    0.0000 </r>
       <r>    8.7998    0.0000 </r>
       <r>    9.1749    0.0000 </r>
       <r>    9.3378    0.0000 </r>
       <r>    9.3491    0.0000 </r>
       <r>    9.3634    0.0000 </r>
       <r>    9.5844    0.0000 </r>
       <r>    9.6030    0.0000 </r>
       <r>    9.6195    0.0000 </r>
       <r>    9.6633    0.0000 </r>
       <r>    9.6700    0.0000 </r>
       <r>    9.7615    0.0000 </r>
       <r>    9.7633    0.0000 </r>
       <r>    9.9664    0.0000 </r>
       <r>   10.0049    0.0000 </r>
       <r>   10.1482    0.0000 </r>
       <r>   10.1802    0.0000 </r>
       <r>   10.2559    0.0000 </r>
       <r>   10.2633    0.0000 </r>
      </set>
      <set comment="kpoint 2">
       <r>  -31.3993    1.0000 </r>
       <r>  -31.3932    1.0000 </r>
       <r>  -31.3928    1.0000 </r>
       <r>  -31.3868    1.0000 </r>
       <r>  -31.3781    1.0000 </r>
       <r>  -31.3726    1.0000 </r>
       <r>  -31.3723    1.0000 </r>
       <r>  -31.3668    1.0000 </r>
       <r>  -14.8476    1.0000 </r>
       <r>  -14.7912    1.0000 </r>
       <r>  -14.7281    1.0000 </r>
       <r>  -14.6943    1.0000 </r>
       <r>  -14.4646    1.0000 </r>
       <r>  -14.3565    1.0000 </r>
       <r>  -14.3117    1.0000 </r>
       <r>  -14.1339    1.0000 </r>
       <r>  -14.1100    1.0000 </r>
       <r>  -14.1041    1.0000 </r>
       <r>  -13.9839    1.0000 </r>
       <r>  -13.9653    1.0000 </r>
       <r>  -13.8936    1.0000 </r>
       <r>  -13.8163    1.0000 </r>
       <r>  -13.6536    1.0000 </r>
       <r>  -13.6516    1.0000 </r>
       <r>  -13.5704    1.0000 </r>
       <r>  -13.5431    1.0000 </r>
       <r>  -13.5308    1.0000 </r>
       <r>  -13.4653    1.0000 </r>
       <r>  -13.3984    1.0000 </r>
       <r>  -13.3716    1.0000 </r>
       <r>  -13.3089    1.0000 </r>
       <r>  -13.2928    1.0000 </r>
       <r>  -13.2898    1.0000 </r>
       <r>  -13.2820    1.0000 </r>
       <r>  -13.2546    1.0000 </r>
       <r>  -13.2335    1.0000 </r>
       <r>  -13.1737    1.0000 </r>
       <r>  -13.1533    1.0000 </r>
       <r>  -13.1408    1.0000 </r>
       <r>  -13.1335    1.0000 </r>
       <r>  -13.0653    1.0000 </r>
       <r>  -13.0080    1.0000 </r>
       <r>  -12.9713    1.0000 </r>
       <r>  -12.9016    1.0000 </r>
       <r>  -12.8821    1.0000 </r>
       <r>  -12.8748    1.0000 </r>
       <r>  -12.8141    1.0000 </r>
       <r>  -12.7613    1.0000 </r>
       <r>   -2.7824    1.0000 </r>
       <r>   -2.7637    1.0000 </r>
       <r>   -2.5913    1.0000 </r>
       <r>   -2.4892    1.0000 </r>
       <r>   -2.4724    1.0000 </r>
       <r>   -2.4723    1.0000 </r>
       <r>   -2.2134    1.0000 </r>
       <r>   -2.0826    1.0000 </r>
       <r>   -1.9706    1.0000 </r>
       <r>   -1.9479    1.0000 </r>
       <r>   -1.9202    1.0000 </r>
       <r>   -1.8731    1.0000 </r>
       <r>   -1.8314    1.0000 </r>
       <r>   -1.8092    1.0000 </r>
       <r>   -1.7538    1.0000 </r>
       <r>   -1.7464    1.0000 </r>
       <r>   -1.4650    1.0000 </r>
       <r>   -1.4202    1.0000 </r>
       <r>   -1.3656    1.0000 </r>
       <r>   -1.3579    1.0000 </r>
       <r>   -1.2339    1.0000 </r>
       <r>   -1.2211    1.0000 </r>
       <r>   -1.1917    1.0000 </r>
       <r>   -1.1523    1.0000 </r>
       <r>   -1.0000    1.0000 </r>
       <r>   -0.9948    1.0000 </r>
       <r>   -0.9874    1.0000 </r>
       <r>   -0.9022    1.0000 </r>
       <r>   -0.8988    1.0000 </r>
       <r>   -0.8869    1.0000 </r>
       <r>   -0.8320    1.0000 </r>
       <r>   -0.8210    1.0000 </r>
       <r>   -0.8130    1.0000 </r>
       <r>   -0.7816    1.0000 </r>
       <r>   -0.4373    1.0000 </r>
       <r>   -0.4255    1.0000 </r>
       <r>   -0.3994    1.0000 </r>
       <r>   -0.3918    1.0000 </r>
       <r>   -0.3869    1.0000 </r>
       <r>   -0.3751    1.0000 </r>
       <r>   -0.2204    1.0000 </r>
       <r>   -0.2131    1.0000 </r>
       <r>    0.1415    1.0000 </r>
       <r>    0.1800    1.0000 </r>
       <r>    0.2661    1.0000 </r>
       <r>    0.2905    1.0000 </r>
       <r>    0.3415    1.0000 </r>
       <r>    0.4537    1.0000 </r>
       <r>    0.6238    1.0000 </r>
       <r>    0.7738    1.0000 </r>
       <r>    0.7986    1.0000 </r>
       <r>    0.8090    1.0000 </r>
       <r>    0.8164    1.0000 </r>
       <r>    0.9418    1.0000 </r>
       <r>    0.9795    1.0000 </r>
       <r>    1.0165    1.0000 </r>
       <r>    1.0239    1.0000 </r>
       <r>    1.0369    1.0000 </r>
       <r>    1.1425    1.0000 </r>
       <r>    1.1532    1.0000 </r>
       <r>    1.2302    1.0000 </r>
       <r>    1.2582    1.0000 </r>
       <r>    1.2597    1.0000 </r>
       <r>    1.3184    1.0000 </r>
       <r>    1.3288    1.0000 </r>
       <r>    1.3401    1.0000 </r>
       <r>    1.3510    1.0000 </r>
       <r>    1.4353    1.0000 </r>
       <r>    1.4663    1.0000 </r>
       <r>    1.4797    1.0000 </r>
       <r>    1.5528    1.0000 </r>
       <r>    1.5663    1.0000 </r>
       <r>    1.5758    1.0000 </r>
       <r>    1.6144    1.0000 </r>
       <r>    1.6897    1.0000 </r>
       <r>    1.7963    1.0000 </r>
       <r>    1.9715    1.0000 </r>
       <r>    2.0368    1.0000 </r>
       <r>    2.2162    1.0000 </r>
       <r>    2.2238    1.0000 </r>
       <r>    2.3191    1.0000 </r>
       <r>    2.3571    1.0000 </r>
       <r>    2.4673    1.0000 </r>
       <r>    2.5750    0.9936 </r>
       <r>    2.6008    0.9611 </r>
       <r>    2.7635    0.0023 </r>
       <r>    2.8096    0.0000 </r>
       <r>    2.9876    0.0000 </r>
       <r>    3.7825    0.0000 </r>
       <r>    4.0328    0.0000 </r>
       <r>    4.0869    0.0000 </r>
       <r>    4.0908    0.0000 </r>
       <r>    5.4185    0.0000 </r>
       <r>    5.4352    0.0000 </r>
       <r>    5.7367    0.0000 </r>
       <r>    5.7659    0.0000 </r>
       <r>    7.2341    0.0000 </r>
       <r>    7.3506    0.0000 </r>
       <r>    7.5773    0.0000 </r>
       <r>    7.5880    0.0000 </r>
       <r>    8.0503    0.0000 </r>
       <r>    8.1238    0.0000 </r>
       <r>    8.1570    0.0000 </r>
       <r>    8.2991    0.0000 </r>
       <r>    8.3945    0.0000 </r>
       <r>    8.5423    0.0000 </r>
       <r>    8.5651    0.0000 </r>
       <r>    8.6233    0.0000 </r>
       <r>    8.7141    0.0000 </r>
       <r>    8.8162    0.0000 </r>
       <r>    8.8270    0.0000 </r>
       <r>    8.9136    0.0000 </r>
       <r>    8.9171    0.0000 </r>
       <r>    8.9336    0.0000 </r>
       <r>    9.1876    0.0000 </r>
       <r>    9.3493    0.0000 </r>
       <r>    9.3732    0.0000 </r>
       <r>    9.4520    0.0000 </r>
       <r>    9.5760    0.0000 </r>
       <r>    9.6098    0.0000 </r>
       <r>    9.7755    0.0000 </r>
       <r>    9.9016    0.0000 </r>
       <r>    9.9192    0.0000 </r>
       <r>    9.9587    0.0000 </r>
       <r>   10.0054    0.0000 </r>
       <r>   10.1216    0.0000 </r>
       <r>   10.2000    0.0000 </r>
       <r>   10.2487    0.0000 </r>
      </set>
      <set comment="kpoint 3">
       <r>  -31.3916    1.0000 </r>
       <r>  -31.3916    1.0000 </r>
       <r>  -31.3855    1.0000 </r>
       <r>  -31.3855    1.0000 </r>
       <r>  -31.3798    1.0000 </r>
       <r>  -31.3798    1.0000 </r>
       <r>  -31.3737    1.0000 </r>
       <r>  -31.3737    1.0000 </r>
       <r>  -14.7501    1.0000 </r>
       <r>  -14.7501    1.0000 </r>
       <r>  -14.5731    1.0000 </r>
       <r>  -14.5731    1.0000 </r>
       <r>  -14.5351    1.0000 </r>
       <r>  -14.5351    1.0000 </r>
       <r>  -14.4630    1.0000 </r>
       <r>  -14.4630    1.0000 </r>
       <r>  -14.1107    1.0000 </r>
       <r>  -14.1107    1.0000 </r>
       <r>  -13.9411    1.0000 </r>
       <r>  -13.9411    1.0000 </r>
       <r>  -13.8579    1.0000 </r>
       <r>  -13.8579    1.0000 </r>
       <r>  -13.8461    1.0000 </r>
       <r>  -13.8461    1.0000 </r>
       <r>  -13.5700    1.0000 </r>
       <r>  -13.5700    1.0000 </r>
       <r>  -13.5206    1.0000 </r>
       <r>  -13.5206    1.0000 </r>
       <r>  -13.3817    1.0000 </r>
       <r>  -13.3817    1.0000 </r>
       <r>  -13.2756    1.0000 </r>
       <r>  -13.2756    1.0000 </r>
       <r>  -13.2565    1.0000 </r>
       <r>  -13.2565    1.0000 </r>
       <r>  -13.2514    1.0000 </r>
       <r>  -13.2514    1.0000 </r>
       <r>  -13.0643    1.0000 </r>
       <r>  -13.0643    1.0000 </r>
       <r>  -12.9854    1.0000 </r>
       <r>  -12.9854    1.0000 </r>
       <r>  -12.9242    1.0000 </r>
       <r>  -12.9242    1.0000 </r>
       <r>  -12.9085    1.0000 </r>
       <r>  -12.9085    1.0000 </r>
       <r>  -12.8663    1.0000 </r>
       <r>  -12.8663    1.0000 </r>
       <r>  -12.8379    1.0000 </r>
       <r>  -12.8379    1.0000 </r>
       <r>   -2.5512    1.0000 </r>
       <r>   -2.5512    1.0000 </r>
       <r>   -2.3579    1.0000 </r>
       <r>   -2.3579    1.0000 </r>
       <r>   -2.1109    1.0000 </r>
       <r>   -2.1109    1.0000 </r>
       <r>   -2.0623    1.0000 </r>
       <r>   -2.0623    1.0000 </r>
       <r>   -2.0307    1.0000 </r>
       <r>   -2.0307    1.0000 </r>
       <r>   -1.9623    1.0000 </r>
       <r>   -1.9623    1.0000 </r>
       <r>   -1.8929    1.0000 </r>
       <r>   -1.8929    1.0000 </r>
       <r>   -1.7299    1.0000 </r>
       <r>   -1.7299    1.0000 </r>
       <r>   -1.6223    1.0000 </r>
       <r>   -1.6223    1.0000 </r>
       <r>   -1.4708    1.0000 </r>
       <r>   -1.4708    1.0000 </r>
       <r>   -1.4318    1.0000 </r>
       <r>   -1.4318    1.0000 </r>
       <r>   -1.2875    1.0000 </r>
       <r>   -1.2875    1.0000 </r>
       <r>   -0.9911    1.0000 </r>
       <r>   -0.9911    1.0000 </r>
       <r>   -0.9910    1.0000 </r>
       <r>   -0.9910    1.0000 </r>
       <r>   -0.8972    1.0000 </r>
       <r>   -0.8972    1.0000 </r>
       <r>   -0.8469    1.0000 </r>
       <r>   -0.8469    1.0000 </r>
       <r>   -0.8240    1.0000 </r>
       <r>   -0.8240    1.0000 </r>
       <r>   -0.7946    1.0000 </r>
       <r>   -0.7946    1.0000 </r>
       <r>   -0.4584    1.0000 </r>
       <r>   -0.4584    1.0000 </r>
       <r>   -0.4470    1.0000 </r>
       <r>   -0.4470    1.0000 </r>
       <r>   -0.1612    1.0000 </r>
       <r>   -0.1612    1.0000 </r>
       <r>    0.3217    1.0000 </r>
       <r>    0.3217    1.0000 </r>
       <r>    0.4635    1.0000 </r>
       <r>    0.4635    1.0000 </r>
       <r>    0.6921    1.0000 </r>
       <r>    0.6921    1.0000 </r>
       <r>    0.7147    1.0000 </r>
       <r>    0.7147    1.0000 </r>
       <r>    0.8731    1.0000 </r>
       <r>    0.8731    1.0000 </r>
       <r>    0.9834    1.0000 </r>
       <r>    0.9834    1.0000 </r>
       <r>    1.0960    1.0000 </r>
       <r>    1.0960    1.0000 </r>
       <r>    1.1396    1.0000 </r>
       <r>    1.1396    1.0000 </r>
       <r>    1.1497    1.0000 </r>
       <r>    1.1497    1.0000 </r>
       <r>    1.2214    1.0000 </r>
       <r>    1.2214    1.0000 </r>
       <r>    1.2730    1.0000 </r>
       <r>    1.2730    1.0000 </r>
       <r>    1.3183    1.0000 </r>
       <r>    1.3183    1.0000 </r>
       <r>    1.3539    1.0000 </r>
       <r>    1.3539    1.0000 </r>
       <r>    1.4620    1.0000 </r>
       <r>    1.4620    1.0000 </r>
       <r>    1.5186    1.0000 </r>
       <r>    1.5186    1.0000 </r>
       <r>    1.5553    1.0000 </r>
       <r>    1.5553    1.0000 </r>
       <r>    1.5589    1.0000 </r>
       <r>    1.5589    1.0000 </r>
       <r>    1.7908    1.0000 </r>
       <r>    1.7908    1.0000 </r>
       <r>    1.8315    1.0000 </r>
       <r>    1.8315    1.0000 </r>
       <r>    2.3413    1.0000 </r>
       <r>    2.3413    1.0000 </r>
       <r>    2.6990    0.1547 </r>
       <r>    2.6990    0.1547 </r>
       <r>    2.7326    0.0246 </r>
       <r>    2.7326    0.0246 </r>
       <r>    3.0608    0.0000 </r>
       <r>    3.0608    0.0000 </r>
       <r>    3.3631    0.0000 </r>
       <r>    3.3631    0.0000 </r>
       <r>    3.4864    0.0000 </r>
       <r>    3.4864    0.0000 </r>
       <r>    5.9875    0.0000 </r>
       <r>    5.9875    0.0000 </r>
       <r>    5.9921    0.0000 </r>
       <r>    5.9921    0.0000 </r>
       <r>    7.2580    0.0000 </r>
       <r>    7.2580    0.0000 </r>
       <r>    7.5369    0.0000 </r>
       <r>    7.5369    0.0000 </r>
       <r>    8.0154    0.0000 </r>
       <r>    8.0154    0.0000 </r>
       <r>    8.0445    0.0000 </r>
       <r>    8.0445    0.0000 </r>
       <r>    8.5438    0.0000 </r>
       <r>    8.5438    0.0000 </r>
       <r>    8.5523    0.0000 </r>
       <r>    8.5523    0.0000 </r>
       <r>    8.7135    0.0000 </r>
       <r>    8.7135    0.0000 </r>
       <r>    8.9128    0.0000 </r>
       <r>    8.9128    0.0000 </r>
       <r>    9.1199    0.0000 </r>
       <r>    9.1199    0.0000 </r>
       <r>    9.2335    0.0000 </r>
       <r>    9.2335    0.0000 </r>
       <r>    9.3802    0.0000 </r>
       <r>    9.3802    0.0000 </r>
       <r>    9.4457    0.0000 </r>
       <r>    9.4457    0.0000 </r>
       <r>    9.8598    0.0000 </r>
       <r>    9.8598    0.0000 </r>
       <r>   10.0727    0.0000 </r>
       <r>   10.0728    0.0000 </r>
       <r>   10.1605    0.0000 </r>
       <r>   10.1606    0.0000 </r>
       <r>   10.3190    0.0000 </r>
       <r>   10.3388    0.0000 </r>
      </set>
      <set comment="kpoint 4">
       <r>  -31.3988    1.0000 </r>
       <r>  -31.3953    1.0000 </r>
       <r>  -31.3906    1.0000 </r>
       <r>  -31.3872    1.0000 </r>
       <r>  -31.3777    1.0000 </r>
       <r>  -31.3745    1.0000 </r>
       <r>  -31.3704    1.0000 </r>
       <r>  -31.3673    1.0000 </r>
       <r>  -14.8849    1.0000 </r>
       <r>  -14.8244    1.0000 </r>
       <r>  -14.7817    1.0000 </r>
       <r>  -14.7180    1.0000 </r>
       <r>  -14.3519    1.0000 </r>
       <r>  -14.3045    1.0000 </r>
       <r>  -14.2966    1.0000 </r>
       <r>  -14.2088    1.0000 </r>
       <r>  -14.0746    1.0000 </r>
       <r>  -14.0656    1.0000 </r>
       <r>  -14.0440    1.0000 </r>
       <r>  -13.8744    1.0000 </r>
       <r>  -13.8741    1.0000 </r>
       <r>  -13.8313    1.0000 </r>
       <r>  -13.6449    1.0000 </r>
       <r>  -13.6432    1.0000 </r>
       <r>  -13.5617    1.0000 </r>
       <r>  -13.5524    1.0000 </r>
       <r>  -13.5174    1.0000 </r>
       <r>  -13.4951    1.0000 </r>
       <r>  -13.4457    1.0000 </r>
       <r>  -13.3847    1.0000 </r>
       <r>  -13.3554    1.0000 </r>
       <r>  -13.2764    1.0000 </r>
       <r>  -13.2561    1.0000 </r>
       <r>  -13.2527    1.0000 </r>
       <r>  -13.2342    1.0000 </r>
       <r>  -13.1972    1.0000 </r>
       <r>  -13.1968    1.0000 </r>
       <r>  -13.1798    1.0000 </r>
       <r>  -13.1414    1.0000 </r>
       <r>  -13.1074    1.0000 </r>
       <r>  -13.0654    1.0000 </r>
       <r>  -13.0652    1.0000 </r>
       <r>  -12.9482    1.0000 </r>
       <r>  -12.9059    1.0000 </r>
       <r>  -12.9039    1.0000 </r>
       <r>  -12.8881    1.0000 </r>
       <r>  -12.7994    1.0000 </r>
       <r>  -12.7587    1.0000 </r>
       <r>   -2.7955    1.0000 </r>
       <r>   -2.7629    1.0000 </r>
       <r>   -2.6029    1.0000 </r>
       <r>   -2.5815    1.0000 </r>
       <r>   -2.4724    1.0000 </r>
       <r>   -2.4723    1.0000 </r>
       <r>   -2.2463    1.0000 </r>
       <r>   -2.2171    1.0000 </r>
       <r>   -1.9816    1.0000 </r>
       <r>   -1.9519    1.0000 </r>
       <r>   -1.8573    1.0000 </r>
       <r>   -1.8375    1.0000 </r>
       <r>   -1.8322    1.0000 </r>
       <r>   -1.8229    1.0000 </r>
       <r>   -1.7406    1.0000 </r>
       <r>   -1.7321    1.0000 </r>
       <r>   -1.4561    1.0000 </r>
       <r>   -1.4394    1.0000 </r>
       <r>   -1.4129    1.0000 </r>
       <r>   -1.3774    1.0000 </r>
       <r>   -1.3368    1.0000 </r>
       <r>   -1.3367    1.0000 </r>
       <r>   -1.1660    1.0000 </r>
       <r>   -1.1566    1.0000 </r>
       <r>   -1.0448    1.0000 </r>
       <r>   -1.0288    1.0000 </r>
       <r>   -0.9199    1.0000 </r>
       <r>   -0.9068    1.0000 </r>
       <r>   -0.9030    1.0000 </r>
       <r>   -0.8884    1.0000 </r>
       <r>   -0.8269    1.0000 </r>
       <r>   -0.8195    1.0000 </r>
       <r>   -0.8091    1.0000 </r>
       <r>   -0.7866    1.0000 </r>
       <r>   -0.4324    1.0000 </r>
       <r>   -0.4313    1.0000 </r>
       <r>   -0.3948    1.0000 </r>
       <r>   -0.3901    1.0000 </r>
       <r>   -0.2322    1.0000 </r>
       <r>   -0.2269    1.0000 </r>
       <r>   -0.2059    1.0000 </r>
       <r>   -0.1946    1.0000 </r>
       <r>    0.1247    1.0000 </r>
       <r>    0.1880    1.0000 </r>
       <r>    0.1884    1.0000 </r>
       <r>    0.1931    1.0000 </r>
       <r>    0.2851    1.0000 </r>
       <r>    0.4175    1.0000 </r>
       <r>    0.5904    1.0000 </r>
       <r>    0.7159    1.0000 </r>
       <r>    0.7253    1.0000 </r>
       <r>    0.7542    1.0000 </r>
       <r>    0.7980    1.0000 </r>
       <r>    0.8213    1.0000 </r>
       <r>    0.8397    1.0000 </r>
       <r>    0.8985    1.0000 </r>
       <r>    1.0933    1.0000 </r>
       <r>    1.1022    1.0000 </r>
       <r>    1.1485    1.0000 </r>
       <r>    1.1864    1.0000 </r>
       <r>    1.1978    1.0000 </r>
       <r>    1.2458    1.0000 </r>
       <r>    1.2867    1.0000 </r>
       <r>    1.3544    1.0000 </r>
       <r>    1.3748    1.0000 </r>
       <r>    1.3913    1.0000 </r>
       <r>    1.4366    1.0000 </r>
       <r>    1.4480    1.0000 </r>
       <r>    1.5158    1.0000 </r>
       <r>    1.5479    1.0000 </r>
       <r>    1.5581    1.0000 </r>
       <r>    1.5954    1.0000 </r>
       <r>    1.6092    1.0000 </r>
       <r>    1.6705    1.0000 </r>
       <r>    1.7136    1.0000 </r>
       <r>    1.8590    1.0000 </r>
       <r>    1.9974    1.0000 </r>
       <r>    2.0197    1.0000 </r>
       <r>    2.2203    1.0000 </r>
       <r>    2.2278    1.0000 </r>
       <r>    2.3856    1.0000 </r>
       <r>    2.4061    1.0000 </r>
       <r>    2.6168    0.9046 </r>
       <r>    2.8126    0.0000 </r>
       <r>    2.8127    0.0000 </r>
       <r>    2.8139    0.0000 </r>
       <r>    2.8731    0.0000 </r>
       <r>    2.9051    0.0000 </r>
       <r>    4.0859    0.0000 </r>
       <r>    4.0865    0.0000 </r>
       <r>    4.1696    0.0000 </r>
       <r>    4.1834    0.0000 </r>
       <r>    5.5020    0.0000 </r>
       <r>    5.7698    0.0000 </r>
       <r>    5.9616    0.0000 </r>
       <r>    6.0975    0.0000 </r>
       <r>    6.7421    0.0000 </r>
       <r>    6.8635    0.0000 </r>
       <r>    7.2674    0.0000 </r>
       <r>    7.5485    0.0000 </r>
       <r>    7.5860    0.0000 </r>
       <r>    7.7487    0.0000 </r>
       <r>    8.0300    0.0000 </r>
       <r>    8.0751    0.0000 </r>
       <r>    8.2491    0.0000 </r>
       <r>    8.4030    0.0000 </r>
       <r>    8.5041    0.0000 </r>
       <r>    8.6435    0.0000 </r>
       <r>    8.6895    0.0000 </r>
       <r>    8.7344    0.0000 </r>
       <r>    8.9424    0.0000 </r>
       <r>    8.9668    0.0000 </r>
       <r>    9.1173    0.0000 </r>
       <r>    9.1197    0.0000 </r>
       <r>    9.1685    0.0000 </r>
       <r>    9.2274    0.0000 </r>
       <r>    9.3408    0.0000 </r>
       <r>    9.5093    0.0000 </r>
       <r>    9.6286    0.0000 </r>
       <r>    9.6298    0.0000 </r>
       <r>    9.7298    0.0000 </r>
       <r>    9.7426    0.0000 </r>
       <r>    9.8041    0.0000 </r>
       <r>    9.8694    0.0000 </r>
       <r>   10.1460    0.0000 </r>
       <r>   10.1662    0.0000 </r>
       <r>   10.1958    0.0000 </r>
       <r>   10.2229    0.0000 </r>
      </set>
      <set comment="kpoint 5">
       <r>  -31.3962    1.0000 </r>
       <r>  -31.3930    1.0000 </r>
       <r>  -31.3887    1.0000 </r>
       <r>  -31.3855    1.0000 </r>
       <r>  -31.3794    1.0000 </r>
       <r>  -31.3764    1.0000 </r>
       <r>  -31.3724    1.0000 </r>
       <r>  -31.3695    1.0000 </r>
       <r>  -14.8355    1.0000 </r>
       <r>  -14.8111    1.0000 </r>
       <r>  -14.7578    1.0000 </r>
       <r>  -14.7097    1.0000 </r>
       <r>  -14.4812    1.0000 </r>
       <r>  -14.4313    1.0000 </r>
       <r>  -14.2941    1.0000 </r>
       <r>  -14.2012    1.0000 </r>
       <r>  -14.1419    1.0000 </r>
       <r>  -14.1294    1.0000 </r>
       <r>  -14.0659    1.0000 </r>
       <r>  -14.0437    1.0000 </r>
       <r>  -13.9496    1.0000 </r>
       <r>  -13.8526    1.0000 </r>
       <r>  -13.5947    1.0000 </r>
       <r>  -13.5695    1.0000 </r>
       <r>  -13.5633    1.0000 </r>
       <r>  -13.5303    1.0000 </r>
       <r>  -13.4998    1.0000 </r>
       <r>  -13.4538    1.0000 </r>
       <r>  -13.4461    1.0000 </r>
       <r>  -13.4067    1.0000 </r>
       <r>  -13.3216    1.0000 </r>
       <r>  -13.3142    1.0000 </r>
       <r>  -13.2753    1.0000 </r>
       <r>  -13.2549    1.0000 </r>
       <r>  -13.2401    1.0000 </r>
       <r>  -13.2369    1.0000 </r>
       <r>  -13.1976    1.0000 </r>
       <r>  -13.1046    1.0000 </r>
       <r>  -13.0713    1.0000 </r>
       <r>  -13.0620    1.0000 </r>
       <r>  -12.9759    1.0000 </r>
       <r>  -12.9372    1.0000 </r>
       <r>  -12.9150    1.0000 </r>
       <r>  -12.9009    1.0000 </r>
       <r>  -12.8850    1.0000 </r>
       <r>  -12.8221    1.0000 </r>
       <r>  -12.7709    1.0000 </r>
       <r>  -12.7602    1.0000 </r>
       <r>   -2.8304    1.0000 </r>
       <r>   -2.8210    1.0000 </r>
       <r>   -2.5867    1.0000 </r>
       <r>   -2.5584    1.0000 </r>
       <r>   -2.2165    1.0000 </r>
       <r>   -2.2125    1.0000 </r>
       <r>   -2.1767    1.0000 </r>
       <r>   -2.1498    1.0000 </r>
       <r>   -1.9059    1.0000 </r>
       <r>   -1.8935    1.0000 </r>
       <r>   -1.8620    1.0000 </r>
       <r>   -1.8552    1.0000 </r>
       <r>   -1.8400    1.0000 </r>
       <r>   -1.8284    1.0000 </r>
       <r>   -1.8162    1.0000 </r>
       <r>   -1.7979    1.0000 </r>
       <r>   -1.6512    1.0000 </r>
       <r>   -1.6444    1.0000 </r>
       <r>   -1.4624    1.0000 </r>
       <r>   -1.4488    1.0000 </r>
       <r>   -1.2659    1.0000 </r>
       <r>   -1.2538    1.0000 </r>
       <r>   -1.1919    1.0000 </r>
       <r>   -1.1897    1.0000 </r>
       <r>   -1.0539    1.0000 </r>
       <r>   -1.0410    1.0000 </r>
       <r>   -0.9486    1.0000 </r>
       <r>   -0.9431    1.0000 </r>
       <r>   -0.8777    1.0000 </r>
       <r>   -0.8216    1.0000 </r>
       <r>   -0.7690    1.0000 </r>
       <r>   -0.7674    1.0000 </r>
       <r>   -0.6276    1.0000 </r>
       <r>   -0.5033    1.0000 </r>
       <r>   -0.4803    1.0000 </r>
       <r>   -0.4332    1.0000 </r>
       <r>   -0.3932    1.0000 </r>
       <r>   -0.3851    1.0000 </r>
       <r>   -0.3381    1.0000 </r>
       <r>   -0.2739    1.0000 </r>
       <r>   -0.2364    1.0000 </r>
       <r>   -0.2034    1.0000 </r>
       <r>    0.1193    1.0000 </r>
       <r>    0.1349    1.0000 </r>
       <r>    0.1757    1.0000 </r>
       <r>    0.3111    1.0000 </r>
       <r>    0.3365    1.0000 </r>
       <r>    0.5487    1.0000 </r>
       <r>    0.5943    1.0000 </r>
       <r>    0.6702    1.0000 </r>
       <r>    0.7232    1.0000 </r>
       <r>    0.7292    1.0000 </r>
       <r>    0.7546    1.0000 </r>
       <r>    0.8329    1.0000 </r>
       <r>    0.9104    1.0000 </r>
       <r>    0.9358    1.0000 </r>
       <r>    1.0478    1.0000 </r>
       <r>    1.1027    1.0000 </r>
       <r>    1.1167    1.0000 </r>
       <r>    1.1359    1.0000 </r>
       <r>    1.1671    1.0000 </r>
       <r>    1.2013    1.0000 </r>
       <r>    1.2313    1.0000 </r>
       <r>    1.2725    1.0000 </r>
       <r>    1.3091    1.0000 </r>
       <r>    1.3120    1.0000 </r>
       <r>    1.3531    1.0000 </r>
       <r>    1.3646    1.0000 </r>
       <r>    1.4232    1.0000 </r>
       <r>    1.4459    1.0000 </r>
       <r>    1.5867    1.0000 </r>
       <r>    1.5987    1.0000 </r>
       <r>    1.6691    1.0000 </r>
       <r>    1.7569    1.0000 </r>
       <r>    1.7833    1.0000 </r>
       <r>    1.8628    1.0000 </r>
       <r>    1.8958    1.0000 </r>
       <r>    1.8963    1.0000 </r>
       <r>    2.0074    1.0000 </r>
       <r>    2.0234    1.0000 </r>
       <r>    2.2073    1.0000 </r>
       <r>    2.2085    1.0000 </r>
       <r>    2.4420    1.0000 </r>
       <r>    2.4906    1.0000 </r>
       <r>    2.7377    0.0175 </r>
       <r>    2.9141    0.0000 </r>
       <r>    2.9683    0.0000 </r>
       <r>    3.0451    0.0000 </r>
       <r>    3.7656    0.0000 </r>
       <r>    3.7848    0.0000 </r>
       <r>    4.0316    0.0000 </r>
       <r>    4.1095    0.0000 </r>
       <r>    5.6410    0.0000 </r>
       <r>    5.7176    0.0000 </r>
       <r>    5.8789    0.0000 </r>
       <r>    6.0835    0.0000 </r>
       <r>    7.1879    0.0000 </r>
       <r>    7.3977    0.0000 </r>
       <r>    7.5012    0.0000 </r>
       <r>    7.5455    0.0000 </r>
       <r>    7.8096    0.0000 </r>
       <r>    7.8324    0.0000 </r>
       <r>    8.0298    0.0000 </r>
       <r>    8.0973    0.0000 </r>
       <r>    8.1842    0.0000 </r>
       <r>    8.3193    0.0000 </r>
       <r>    8.3960    0.0000 </r>
       <r>    8.4092    0.0000 </r>
       <r>    8.7739    0.0000 </r>
       <r>    8.8890    0.0000 </r>
       <r>    8.9547    0.0000 </r>
       <r>    9.0551    0.0000 </r>
       <r>    9.1320    0.0000 </r>
       <r>    9.3398    0.0000 </r>
       <r>    9.4180    0.0000 </r>
       <r>    9.5294    0.0000 </r>
       <r>    9.5584    0.0000 </r>
       <r>    9.6057    0.0000 </r>
       <r>    9.7686    0.0000 </r>
       <r>    9.7721    0.0000 </r>
       <r>    9.8014    0.0000 </r>
       <r>    9.8241    0.0000 </r>
       <r>    9.9253    0.0000 </r>
       <r>    9.9570    0.0000 </r>
       <r>   10.0670    0.0000 </r>
       <r>   10.0700    0.0000 </r>
       <r>   10.1979    0.0000 </r>
       <r>   10.2355    0.0000 </r>
      </set>
      <set comment="kpoint 6">
       <r>  -31.3912    1.0000 </r>
       <r>  -31.3912    1.0000 </r>
       <r>  -31.3858    1.0000 </r>
       <r>  -31.3858    1.0000 </r>
       <r>  -31.3793    1.0000 </r>
       <r>  -31.3793    1.0000 </r>
       <r>  -31.3739    1.0000 </r>
       <r>  -31.3739    1.0000 </r>
       <r>  -14.8481    1.0000 </r>
       <r>  -14.8481    1.0000 </r>
       <r>  -14.6399    1.0000 </r>
       <r>  -14.6399    1.0000 </r>
       <r>  -14.5043    1.0000 </r>
       <r>  -14.5043    1.0000 </r>
       <r>  -14.3779    1.0000 </r>
       <r>  -14.3779    1.0000 </r>
       <r>  -14.1768    1.0000 </r>
       <r>  -14.1768    1.0000 </r>
       <r>  -14.0608    1.0000 </r>
       <r>  -14.0608    1.0000 </r>
       <r>  -13.9413    1.0000 </r>
       <r>  -13.9413    1.0000 </r>
       <r>  -13.6143    1.0000 </r>
       <r>  -13.6143    1.0000 </r>
       <r>  -13.5897    1.0000 </r>
       <r>  -13.5897    1.0000 </r>
       <r>  -13.4665    1.0000 </r>
       <r>  -13.4665    1.0000 </r>
       <r>  -13.3855    1.0000 </r>
       <r>  -13.3855    1.0000 </r>
       <r>  -13.2993    1.0000 </r>
       <r>  -13.2993    1.0000 </r>
       <r>  -13.2847    1.0000 </r>
       <r>  -13.2847    1.0000 </r>
       <r>  -13.2133    1.0000 </r>
       <r>  -13.2133    1.0000 </r>
       <r>  -13.1148    1.0000 </r>
       <r>  -13.1148    1.0000 </r>
       <r>  -13.0364    1.0000 </r>
       <r>  -13.0364    1.0000 </r>
       <r>  -12.9086    1.0000 </r>
       <r>  -12.9086    1.0000 </r>
       <r>  -12.8872    1.0000 </r>
       <r>  -12.8872    1.0000 </r>
       <r>  -12.7782    1.0000 </r>
       <r>  -12.7782    1.0000 </r>
       <r>  -12.7298    1.0000 </r>
       <r>  -12.7298    1.0000 </r>
       <r>   -2.7884    1.0000 </r>
       <r>   -2.7884    1.0000 </r>
       <r>   -2.5596    1.0000 </r>
       <r>   -2.5596    1.0000 </r>
       <r>   -2.2976    1.0000 </r>
       <r>   -2.2976    1.0000 </r>
       <r>   -2.0511    1.0000 </r>
       <r>   -2.0511    1.0000 </r>
       <r>   -1.9944    1.0000 </r>
       <r>   -1.9944    1.0000 </r>
       <r>   -1.9002    1.0000 </r>
       <r>   -1.9002    1.0000 </r>
       <r>   -1.8472    1.0000 </r>
       <r>   -1.8472    1.0000 </r>
       <r>   -1.6566    1.0000 </r>
       <r>   -1.6566    1.0000 </r>
       <r>   -1.4688    1.0000 </r>
       <r>   -1.4688    1.0000 </r>
       <r>   -1.4130    1.0000 </r>
       <r>   -1.4130    1.0000 </r>
       <r>   -1.1478    1.0000 </r>
       <r>   -1.1478    1.0000 </r>
       <r>   -1.0586    1.0000 </r>
       <r>   -1.0586    1.0000 </r>
       <r>   -0.9348    1.0000 </r>
       <r>   -0.9348    1.0000 </r>
       <r>   -0.8786    1.0000 </r>
       <r>   -0.8786    1.0000 </r>
       <r>   -0.8514    1.0000 </r>
       <r>   -0.8514    1.0000 </r>
       <r>   -0.8174    1.0000 </r>
       <r>   -0.8174    1.0000 </r>
       <r>   -0.8039    1.0000 </r>
       <r>   -0.8039    1.0000 </r>
       <r>   -0.7818    1.0000 </r>
       <r>   -0.7818    1.0000 </r>
       <r>   -0.4564    1.0000 </r>
       <r>   -0.4564    1.0000 </r>
       <r>   -0.4049    1.0000 </r>
       <r>   -0.4049    1.0000 </r>
       <r>   -0.1360    1.0000 </r>
       <r>   -0.1360    1.0000 </r>
       <r>    0.1799    1.0000 </r>
       <r>    0.1799    1.0000 </r>
       <r>    0.2835    1.0000 </r>
       <r>    0.2835    1.0000 </r>
       <r>    0.5493    1.0000 </r>
       <r>    0.5493    1.0000 </r>
       <r>    0.5915    1.0000 </r>
       <r>    0.5915    1.0000 </r>
       <r>    0.8188    1.0000 </r>
       <r>    0.8188    1.0000 </r>
       <r>    0.9398    1.0000 </r>
       <r>    0.9398    1.0000 </r>
       <r>    0.9887    1.0000 </r>
       <r>    0.9887    1.0000 </r>
       <r>    1.0539    1.0000 </r>
       <r>    1.0539    1.0000 </r>
       <r>    1.1179    1.0000 </r>
       <r>    1.1179    1.0000 </r>
       <r>    1.1406    1.0000 </r>
       <r>    1.1406    1.0000 </r>
       <r>    1.1871    1.0000 </r>
       <r>    1.1871    1.0000 </r>
       <r>    1.2407    1.0000 </r>
       <r>    1.2407    1.0000 </r>
       <r>    1.2955    1.0000 </r>
       <r>    1.2955    1.0000 </r>
       <r>    1.3103    1.0000 </r>
       <r>    1.3103    1.0000 </r>
       <r>    1.4149    1.0000 </r>
       <r>    1.4149    1.0000 </r>
       <r>    1.6712    1.0000 </r>
       <r>    1.6712    1.0000 </r>
       <r>    1.7824    1.0000 </r>
       <r>    1.7824    1.0000 </r>
       <r>    1.8912    1.0000 </r>
       <r>    1.8912    1.0000 </r>
       <r>    1.9219    1.0000 </r>
       <r>    1.9219    1.0000 </r>
       <r>    2.1974    1.0000 </r>
       <r>    2.1974    1.0000 </r>
       <r>    2.3839    1.0000 </r>
       <r>    2.3839    1.0000 </r>
       <r>    2.5410    0.9997 </r>
       <r>    2.5410    0.9997 </r>
       <r>    3.2336    0.0000 </r>
       <r>    3.2336    0.0000 </r>
       <r>    3.4461    0.0000 </r>
       <r>    3.4461    0.0000 </r>
       <r>    3.7862    0.0000 </r>
       <r>    3.7862    0.0000 </r>
       <r>    6.1043    0.0000 </r>
       <r>    6.1043    0.0000 </r>
       <r>    6.2226    0.0000 </r>
       <r>    6.2226    0.0000 </r>
       <r>    7.0255    0.0000 </r>
       <r>    7.0255    0.0000 </r>
       <r>    7.3428    0.0000 </r>
       <r>    7.3428    0.0000 </r>
       <r>    7.7723    0.0000 </r>
       <r>    7.7723    0.0000 </r>
       <r>    7.9564    0.0000 </r>
       <r>    7.9564    0.0000 </r>
       <r>    8.3510    0.0000 </r>
       <r>    8.3510    0.0000 </r>
       <r>    8.4709    0.0000 </r>
       <r>    8.4709    0.0000 </r>
       <r>    8.9714    0.0000 </r>
       <r>    8.9714    0.0000 </r>
       <r>    9.1299    0.0000 </r>
       <r>    9.1299    0.0000 </r>
       <r>    9.4144    0.0000 </r>
       <r>    9.4144    0.0000 </r>
       <r>    9.6397    0.0000 </r>
       <r>    9.6397    0.0000 </r>
       <r>    9.7466    0.0000 </r>
       <r>    9.7466    0.0000 </r>
       <r>    9.8128    0.0000 </r>
       <r>    9.8128    0.0000 </r>
       <r>    9.8510    0.0000 </r>
       <r>    9.8510    0.0000 </r>
       <r>    9.8977    0.0000 </r>
       <r>    9.8977    0.0000 </r>
       <r>   10.1717    0.0000 </r>
       <r>   10.1754    0.0000 </r>
       <r>   10.2239    0.0000 </r>
       <r>   10.2349    0.0000 </r>
      </set>
      <set comment="kpoint 7">
       <r>  -31.3910    1.0000 </r>
       <r>  -31.3910    1.0000 </r>
       <r>  -31.3864    1.0000 </r>
       <r>  -31.3863    1.0000 </r>
       <r>  -31.3792    1.0000 </r>
       <r>  -31.3787    1.0000 </r>
       <r>  -31.3745    1.0000 </r>
       <r>  -31.3741    1.0000 </r>
       <r>  -14.8660    1.0000 </r>
       <r>  -14.8292    1.0000 </r>
       <r>  -14.7282    1.0000 </r>
       <r>  -14.6587    1.0000 </r>
       <r>  -14.4859    1.0000 </r>
       <r>  -14.4822    1.0000 </r>
       <r>  -14.2252    1.0000 </r>
       <r>  -14.2165    1.0000 </r>
       <r>  -14.1916    1.0000 </r>
       <r>  -14.0952    1.0000 </r>
       <r>  -13.9783    1.0000 </r>
       <r>  -13.9627    1.0000 </r>
       <r>  -13.8568    1.0000 </r>
       <r>  -13.8355    1.0000 </r>
       <r>  -13.8351    1.0000 </r>
       <r>  -13.7977    1.0000 </r>
       <r>  -13.5556    1.0000 </r>
       <r>  -13.5439    1.0000 </r>
       <r>  -13.5413    1.0000 </r>
       <r>  -13.4987    1.0000 </r>
       <r>  -13.4609    1.0000 </r>
       <r>  -13.3842    1.0000 </r>
       <r>  -13.3402    1.0000 </r>
       <r>  -13.3132    1.0000 </r>
       <r>  -13.2766    1.0000 </r>
       <r>  -13.2254    1.0000 </r>
       <r>  -13.2019    1.0000 </r>
       <r>  -13.1447    1.0000 </r>
       <r>  -13.0536    1.0000 </r>
       <r>  -13.0471    1.0000 </r>
       <r>  -13.0378    1.0000 </r>
       <r>  -12.9953    1.0000 </r>
       <r>  -12.9856    1.0000 </r>
       <r>  -12.9714    1.0000 </r>
       <r>  -12.9144    1.0000 </r>
       <r>  -12.8897    1.0000 </r>
       <r>  -12.8861    1.0000 </r>
       <r>  -12.8520    1.0000 </r>
       <r>  -12.8312    1.0000 </r>
       <r>  -12.8133    1.0000 </r>
       <r>   -2.7360    1.0000 </r>
       <r>   -2.4703    1.0000 </r>
       <r>   -2.4442    1.0000 </r>
       <r>   -2.3581    1.0000 </r>
       <r>   -2.3578    1.0000 </r>
       <r>   -2.1860    1.0000 </r>
       <r>   -2.0991    1.0000 </r>
       <r>   -2.0983    1.0000 </r>
       <r>   -2.0407    1.0000 </r>
       <r>   -2.0221    1.0000 </r>
       <r>   -1.9630    1.0000 </r>
       <r>   -1.8711    1.0000 </r>
       <r>   -1.8360    1.0000 </r>
       <r>   -1.8240    1.0000 </r>
       <r>   -1.7220    1.0000 </r>
       <r>   -1.7165    1.0000 </r>
       <r>   -1.6261    1.0000 </r>
       <r>   -1.6213    1.0000 </r>
       <r>   -1.4827    1.0000 </r>
       <r>   -1.4737    1.0000 </r>
       <r>   -1.4316    1.0000 </r>
       <r>   -1.4289    1.0000 </r>
       <r>   -1.4254    1.0000 </r>
       <r>   -1.3523    1.0000 </r>
       <r>   -1.2825    1.0000 </r>
       <r>   -1.2645    1.0000 </r>
       <r>   -1.1236    1.0000 </r>
       <r>   -0.9507    1.0000 </r>
       <r>   -0.9371    1.0000 </r>
       <r>   -0.8901    1.0000 </r>
       <r>   -0.8835    1.0000 </r>
       <r>   -0.8618    1.0000 </r>
       <r>   -0.8525    1.0000 </r>
       <r>   -0.8258    1.0000 </r>
       <r>   -0.5552    1.0000 </r>
       <r>   -0.4512    1.0000 </r>
       <r>   -0.4487    1.0000 </r>
       <r>   -0.3933    1.0000 </r>
       <r>   -0.2655    1.0000 </r>
       <r>   -0.2645    1.0000 </r>
       <r>   -0.1458    1.0000 </r>
       <r>   -0.1143    1.0000 </r>
       <r>    0.2709    1.0000 </r>
       <r>    0.3116    1.0000 </r>
       <r>    0.3421    1.0000 </r>
       <r>    0.3443    1.0000 </r>
       <r>    0.4338    1.0000 </r>
       <r>    0.4824    1.0000 </r>
       <r>    0.5575    1.0000 </r>
       <r>    0.5847    1.0000 </r>
       <r>    0.6299    1.0000 </r>
       <r>    0.7076    1.0000 </r>
       <r>    0.7830    1.0000 </r>
       <r>    0.9676    1.0000 </r>
       <r>    1.0821    1.0000 </r>
       <r>    1.0860    1.0000 </r>
       <r>    1.1003    1.0000 </r>
       <r>    1.1443    1.0000 </r>
       <r>    1.1531    1.0000 </r>
       <r>    1.1680    1.0000 </r>
       <r>    1.1812    1.0000 </r>
       <r>    1.2860    1.0000 </r>
       <r>    1.3139    1.0000 </r>
       <r>    1.3291    1.0000 </r>
       <r>    1.3404    1.0000 </r>
       <r>    1.3667    1.0000 </r>
       <r>    1.3784    1.0000 </r>
       <r>    1.3895    1.0000 </r>
       <r>    1.4247    1.0000 </r>
       <r>    1.4686    1.0000 </r>
       <r>    1.5270    1.0000 </r>
       <r>    1.5404    1.0000 </r>
       <r>    1.5737    1.0000 </r>
       <r>    1.6001    1.0000 </r>
       <r>    1.7159    1.0000 </r>
       <r>    1.8391    1.0000 </r>
       <r>    1.9253    1.0000 </r>
       <r>    1.9756    1.0000 </r>
       <r>    2.0096    1.0000 </r>
       <r>    2.4623    1.0000 </r>
       <r>    2.5380    0.9998 </r>
       <r>    2.7152    0.0702 </r>
       <r>    2.7333    0.0236 </r>
       <r>    2.7418    0.0130 </r>
       <r>    2.7707    0.0012 </r>
       <r>    2.9377    0.0000 </r>
       <r>    3.2300    0.0000 </r>
       <r>    3.3485    0.0000 </r>
       <r>    3.4761    0.0000 </r>
       <r>    3.4874    0.0000 </r>
       <r>    3.6981    0.0000 </r>
       <r>    3.7212    0.0000 </r>
       <r>    6.1801    0.0000 </r>
       <r>    6.2287    0.0000 </r>
       <r>    6.5165    0.0000 </r>
       <r>    6.5848    0.0000 </r>
       <r>    6.7648    0.0000 </r>
       <r>    6.8158    0.0000 </r>
       <r>    7.1794    0.0000 </r>
       <r>    7.3689    0.0000 </r>
       <r>    7.5819    0.0000 </r>
       <r>    7.5939    0.0000 </r>
       <r>    7.6944    0.0000 </r>
       <r>    7.7704    0.0000 </r>
       <r>    7.7860    0.0000 </r>
       <r>    8.1850    0.0000 </r>
       <r>    8.4350    0.0000 </r>
       <r>    8.4668    0.0000 </r>
       <r>    8.6805    0.0000 </r>
       <r>    8.7160    0.0000 </r>
       <r>    8.7742    0.0000 </r>
       <r>    8.8091    0.0000 </r>
       <r>    8.8226    0.0000 </r>
       <r>    8.8966    0.0000 </r>
       <r>    9.1046    0.0000 </r>
       <r>    9.1803    0.0000 </r>
       <r>    9.3720    0.0000 </r>
       <r>    9.5692    0.0000 </r>
       <r>    9.5892    0.0000 </r>
       <r>    9.7710    0.0000 </r>
       <r>    9.8237    0.0000 </r>
       <r>    9.8630    0.0000 </r>
       <r>    9.8951    0.0000 </r>
       <r>    9.9616    0.0000 </r>
       <r>    9.9788    0.0000 </r>
       <r>   10.0260    0.0000 </r>
       <r>   10.0637    0.0000 </r>
       <r>   10.2677    0.0000 </r>
      </set>
      <set comment="kpoint 8">
       <r>  -31.3910    1.0000 </r>
       <r>  -31.3909    1.0000 </r>
       <r>  -31.3863    1.0000 </r>
       <r>  -31.3862    1.0000 </r>
[...]
       <r>     4.9380     0.0000   140.0000 </r>
       <r>     5.0911     0.2556   140.0391 </r>
       <r>     5.2442     0.1526   140.0625 </r>
       <r>     5.3973     0.3420   140.1149 </r>
       <r>     5.5504     2.5951   140.5122 </r>
       <r>     5.7036     3.0179   140.9742 </r>
       <r>     5.8567     3.9987   141.5865 </r>
       <r>     6.0098     4.6379   142.2966 </r>
       <r>     6.1629     4.9717   143.0578 </r>
       <r>     6.3160     3.6743   143.6203 </r>
       <r>     6.4691     0.6349   143.7175 </r>
       <r>     6.6222     2.1917   144.0531 </r>
       <r>     6.7753     1.0443   144.2130 </r>
       <r>     6.9284     1.4445   144.4341 </r>
       <r>     7.0815     2.3893   144.7999 </r>
       <r>     7.2346     6.1651   145.7438 </r>
       <r>     7.3877     6.3918   146.7225 </r>
       <r>     7.5408     6.1115   147.6582 </r>
       <r>     7.6939     7.3433   148.7825 </r>
       <r>     7.8470     7.2342   149.8900 </r>
       <r>     8.0001     4.7736   150.6209 </r>
       <r>     8.1532     9.7142   152.1082 </r>
       <r>     8.3063     8.1116   153.3501 </r>
       <r>     8.4594     9.3408   154.7802 </r>
       <r>     8.6125     7.0152   155.8543 </r>
       <r>     8.7657     7.3403   156.9781 </r>
       <r>     8.9188     8.4218   158.2676 </r>
       <r>     9.0719     9.4807   159.7191 </r>
       <r>     9.2250    11.1495   161.4261 </r>
       <r>     9.3781     7.7354   162.6105 </r>
       <r>     9.5312     9.6492   164.0878 </r>
       <r>     9.6843    15.1420   166.4061 </r>
       <r>     9.8374    15.2487   168.7408 </r>
       <r>     9.9905    16.5970   171.2819 </r>
       <r>    10.1436    13.7664   173.3896 </r>
       <r>    10.2967    14.5665   175.6198 </r>
       <r>    10.4498     2.4823   175.9998 </r>
       <r>    10.6029     0.0011   176.0000 </r>
       <r>    10.7560     0.0000   176.0000 </r>
       <r>    10.9091     0.0000   176.0000 </r>
       <r>    11.0622     0.0000   176.0000 </r>
       <r>    11.2153     0.0000   176.0000 </r>
       <r>    11.3684     0.0000   176.0000 </r>
       <r>    11.5215     0.0000   176.0000 </r>
       <r>    11.6746     0.0000   176.0000 </r>
       <r>    11.8278     0.0000   176.0000 </r>
       <r>    11.9809     0.0000   176.0000 </r>
       <r>    12.1340     0.0000   176.0000 </r>
       <r>    12.2871     0.0000   176.0000 </r>
       <r>    12.4402     0.0000   176.0000 </r>
      </set>
      <set comment="spin 2">
       <r>   -33.4913     0.0000     0.0000 </r>
       <r>   -33.3382     0.0000     0.0000 </r>
       <r>   -33.1851     0.0000     0.0000 </r>
       <r>   -33.0320     0.0000     0.0000 </r>
       <r>   -32.8789     0.0000     0.0000 </r>
       <r>   -32.7258     0.0000     0.0000 </r>
       <r>   -32.5727     0.0000     0.0000 </r>
       <r>   -32.4196     0.0000     0.0000 </r>
       <r>   -32.2665     0.0000     0.0000 </r>
       <r>   -32.1134     0.0000     0.0000 </r>
       <r>   -31.9603     0.0000     0.0000 </r>
       <r>   -31.8072     0.0000     0.0000 </r>
       <r>   -31.6541     0.0000     0.0000 </r>
       <r>   -31.5010     0.0323     0.0049 </r>
       <r>   -31.3479    43.4962     6.6644 </r>
       <r>   -31.1948     8.7232     8.0000 </r>
       <r>   -31.0416     0.0000     8.0000 </r>
       <r>   -30.8885     0.0000     8.0000 </r>
       <r>   -30.7354     0.0000     8.0000 </r>
       <r>   -30.5823     0.0000     8.0000 </r>
       <r>   -30.4292     0.0000     8.0000 </r>
       <r>   -30.2761     0.0000     8.0000 </r>
       <r>   -30.1230     0.0000     8.0000 </r>
       <r>   -29.9699     0.0000     8.0000 </r>
       <r>   -29.8168     0.0000     8.0000 </r>
       <r>   -29.6637     0.0000     8.0000 </r>
       <r>   -29.5106     0.0000     8.0000 </r>
       <r>   -29.3575     0.0000     8.0000 </r>
       <r>   -29.2044     0.0000     8.0000 </r>
       <r>   -29.0513     0.0000     8.0000 </r>
       <r>   -28.8982     0.0000     8.0000 </r>
       <r>   -28.7451     0.0000     8.0000 </r>
       <r>   -28.5920     0.0000     8.0000 </r>
       <r>   -28.4389     0.0000     8.0000 </r>
       <r>   -28.2858     0.0000     8.0000 </r>
       <r>   -28.1327     0.0000     8.0000 </r>
       <r>   -27.9795     0.0000     8.0000 </r>
       <r>   -27.8264     0.0000     8.0000 </r>
       <r>   -27.6733     0.0000     8.0000 </r>
       <r>   -27.5202     0.0000     8.0000 </r>
       <r>   -27.3671     0.0000     8.0000 </r>
       <r>   -27.2140     0.0000     8.0000 </r>
       <r>   -27.0609     0.0000     8.0000 </r>
       <r>   -26.9078     0.0000     8.0000 </r>
       <r>   -26.7547     0.0000     8.0000 </r>
       <r>   -26.6016     0.0000     8.0000 </r>
       <r>   -26.4485     0.0000     8.0000 </r>
       <r>   -26.2954     0.0000     8.0000 </r>
       <r>   -26.1423     0.0000     8.0000 </r>
       <r>   -25.9892     0.0000     8.0000 </r>
       <r>   -25.8361     0.0000     8.0000 </r>
       <r>   -25.6830     0.0000     8.0000 </r>
       <r>   -25.5299     0.0000     8.0000 </r>
       <r>   -25.3768     0.0000     8.0000 </r>
       <r>   -25.2237     0.0000     8.0000 </r>
       <r>   -25.0706     0.0000     8.0000 </r>
       <r>   -24.9174     0.0000     8.0000 </r>
       <r>   -24.7643     0.0000     8.0000 </r>
       <r>   -24.6112     0.0000     8.0000 </r>
       <r>   -24.4581     0.0000     8.0000 </r>
       <r>   -24.3050     0.0000     8.0000 </r>
       <r>   -24.1519     0.0000     8.0000 </r>
       <r>   -23.9988     0.0000     8.0000 </r>
       <r>   -23.8457     0.0000     8.0000 </r>
       <r>   -23.6926     0.0000     8.0000 </r>
       <r>   -23.5395     0.0000     8.0000 </r>
       <r>   -23.3864     0.0000     8.0000 </r>
       <r>   -23.2333     0.0000     8.0000 </r>
       <r>   -23.0802     0.0000     8.0000 </r>
       <r>   -22.9271     0.0000     8.0000 </r>
       <r>   -22.7740     0.0000     8.0000 </r>
       <r>   -22.6209     0.0000     8.0000 </r>
       <r>   -22.4678     0.0000     8.0000 </r>
       <r>   -22.3147     0.0000     8.0000 </r>
       <r>   -22.1616     0.0000     8.0000 </r>
       <r>   -22.0085     0.0000     8.0000 </r>
       <r>   -21.8553     0.0000     8.0000 </r>
       <r>   -21.7022     0.0000     8.0000 </r>
       <r>   -21.5491     0.0000     8.0000 </r>
       <r>   -21.3960     0.0000     8.0000 </r>
       <r>   -21.2429     0.0000     8.0000 </r>
       <r>   -21.0898     0.0000     8.0000 </r>
       <r>   -20.9367     0.0000     8.0000 </r>
       <r>   -20.7836     0.0000     8.0000 </r>
       <r>   -20.6305     0.0000     8.0000 </r>
       <r>   -20.4774     0.0000     8.0000 </r>
       <r>   -20.3243     0.0000     8.0000 </r>
       <r>   -20.1712     0.0000     8.0000 </r>
       <r>   -20.0181     0.0000     8.0000 </r>
       <r>   -19.8650     0.0000     8.0000 </r>
       <r>   -19.7119     0.0000     8.0000 </r>
       <r>   -19.5588     0.0000     8.0000 </r>
       <r>   -19.4057     0.0000     8.0000 </r>
       <r>   -19.2526     0.0000     8.0000 </r>
       <r>   -19.0995     0.0000     8.0000 </r>
       <r>   -18.9464     0.0000     8.0000 </r>
       <r>   -18.7932     0.0000     8.0000 </r>
       <r>   -18.6401     0.0000     8.0000 </r>
       <r>   -18.4870     0.0000     8.0000 </r>
       <r>   -18.3339     0.0000     8.0000 </r>
       <r>   -18.1808     0.0000     8.0000 </r>
       <r>   -18.0277     0.0000     8.0000 </r>
       <r>   -17.8746     0.0000     8.0000 </r>
       <r>   -17.7215     0.0000     8.0000 </r>
       <r>   -17.5684     0.0000     8.0000 </r>
       <r>   -17.4153     0.0000     8.0000 </r>
       <r>   -17.2622     0.0000     8.0000 </r>
       <r>   -17.1091     0.0000     8.0000 </r>
       <r>   -16.9560     0.0000     8.0000 </r>
       <r>   -16.8029     0.0000     8.0000 </r>
       <r>   -16.6498     0.0000     8.0000 </r>
       <r>   -16.4967     0.0000     8.0000 </r>
       <r>   -16.3436     0.0000     8.0000 </r>
       <r>   -16.1905     0.0000     8.0000 </r>
       <r>   -16.0374     0.0000     8.0000 </r>
       <r>   -15.8843     0.0000     8.0000 </r>
       <r>   -15.7311     0.0000     8.0000 </r>
       <r>   -15.5780     0.0000     8.0000 </r>
       <r>   -15.4249     0.0000     8.0000 </r>
       <r>   -15.2718     0.0000     8.0000 </r>
       <r>   -15.1187     0.0000     8.0000 </r>
       <r>   -14.9656     0.1558     8.0239 </r>
       <r>   -14.8125     8.0861     9.2619 </r>
       <r>   -14.6594    13.7105    11.3610 </r>
       <r>   -14.5063     6.0902    12.2935 </r>
       <r>   -14.3532    11.0815    13.9901 </r>
       <r>   -14.2001    10.5163    15.6002 </r>
       <r>   -14.0470    17.1015    18.2185 </r>
       <r>   -13.8939    14.3710    20.4188 </r>
       <r>   -13.7408    11.7211    22.2134 </r>
       <r>   -13.5877     8.7098    23.5469 </r>
       <r>   -13.4346    30.5216    28.2199 </r>
       <r>   -13.2815    26.1112    32.2177 </r>
       <r>   -13.1284    34.2953    37.4684 </r>
       <r>   -12.9753    21.2657    40.7243 </r>
       <r>   -12.8222    29.2941    45.2094 </r>
       <r>   -12.6690    16.9787    47.8089 </r>
       <r>   -12.5159     1.2478    48.0000 </r>
       <r>   -12.3628     0.0001    48.0000 </r>
       <r>   -12.2097     0.0000    48.0000 </r>
       <r>   -12.0566     0.0000    48.0000 </r>
       <r>   -11.9035     0.0000    48.0000 </r>
       <r>   -11.7504     0.0000    48.0000 </r>
       <r>   -11.5973     0.0000    48.0000 </r>
       <r>   -11.4442     0.0000    48.0000 </r>
       <r>   -11.2911     0.0000    48.0000 </r>
       <r>   -11.1380     0.0000    48.0000 </r>
       <r>   -10.9849     0.0000    48.0000 </r>
       <r>   -10.8318     0.0000    48.0000 </r>
       <r>   -10.6787     0.0000    48.0000 </r>
       <r>   -10.5256     0.0000    48.0000 </r>
       <r>   -10.3725     0.0000    48.0000 </r>
       <r>   -10.2194     0.0000    48.0000 </r>
       <r>   -10.0663     0.0000    48.0000 </r>
       <r>    -9.9132     0.0000    48.0000 </r>
       <r>    -9.7601     0.0000    48.0000 </r>
       <r>    -9.6069     0.0000    48.0000 </r>
       <r>    -9.4538     0.0000    48.0000 </r>
       <r>    -9.3007     0.0000    48.0000 </r>
       <r>    -9.1476     0.0000    48.0000 </r>
       <r>    -8.9945     0.0000    48.0000 </r>
       <r>    -8.8414     0.0000    48.0000 </r>
       <r>    -8.6883     0.0000    48.0000 </r>
       <r>    -8.5352     0.0000    48.0000 </r>
       <r>    -8.3821     0.0000    48.0000 </r>
       <r>    -8.2290     0.0000    48.0000 </r>
       <r>    -8.0759     0.0000    48.0000 </r>
       <r>    -7.9228     0.0000    48.0000 </r>
       <r>    -7.7697     0.0000    48.0000 </r>
       <r>    -7.6166     0.0000    48.0000 </r>
       <r>    -7.4635     0.0000    48.0000 </r>
       <r>    -7.3104     0.0000    48.0000 </r>
       <r>    -7.1573     0.0000    48.0000 </r>
       <r>    -7.0042     0.0000    48.0000 </r>
       <r>    -6.8511     0.0000    48.0000 </r>
       <r>    -6.6980     0.0000    48.0000 </r>
       <r>    -6.5448     0.0000    48.0000 </r>
       <r>    -6.3917     0.0000    48.0000 </r>
       <r>    -6.2386     0.0000    48.0000 </r>
       <r>    -6.0855     0.0000    48.0000 </r>
       <r>    -5.9324     0.0000    48.0000 </r>
       <r>    -5.7793     0.0000    48.0000 </r>
       <r>    -5.6262     0.0000    48.0000 </r>
       <r>    -5.4731     0.0000    48.0000 </r>
       <r>    -5.3200     0.0000    48.0000 </r>
       <r>    -5.1669     0.0000    48.0000 </r>
       <r>    -5.0138     0.0000    48.0000 </r>
       <r>    -4.8607     0.0000    48.0000 </r>
       <r>    -4.7076     0.0000    48.0000 </r>
       <r>    -4.5545     0.0000    48.0000 </r>
       <r>    -4.4014     0.0000    48.0000 </r>
       <r>    -4.2483     0.0000    48.0000 </r>
       <r>    -4.0952     0.0000    48.0000 </r>
       <r>    -3.9421     0.0000    48.0000 </r>
       <r>    -3.7890     0.0000    48.0000 </r>
       <r>    -3.6359     0.0000    48.0000 </r>
       <r>    -3.4827     0.0000    48.0000 </r>
       <r>    -3.3296     0.0000    48.0000 </r>
       <r>    -3.1765     0.0000    48.0000 </r>
       <r>    -3.0234     0.1822    48.0279 </r>
       <r>    -2.8703     0.6344    48.1250 </r>
       <r>    -2.7172     2.7629    48.5480 </r>
       <r>    -2.5641     6.9524    49.6125 </r>
       <r>    -2.4110     3.0467    50.0789 </r>
       <r>    -2.2579     9.5927    51.5476 </r>
       <r>    -2.1048    11.3518    53.2856 </r>
       <r>    -1.9517    16.0112    55.7370 </r>
       <r>    -1.7986    23.2517    59.2970 </r>
       <r>    -1.6455    19.0129    62.2080 </r>
       <r>    -1.4924    14.0685    64.3619 </r>
       <r>    -1.3393    23.4770    67.9564 </r>
       <r>    -1.1862    13.5150    70.0256 </r>
       <r>    -1.0331    16.0059    72.4762 </r>
       <r>    -0.8800    29.5064    76.9937 </r>
       <r>    -0.7269    30.0671    81.5972 </r>
       <r>    -0.5738     2.4989    81.9798 </r>
       <r>    -0.4206    15.4717    84.3485 </r>
       <r>    -0.2675    26.0102    88.3308 </r>
       <r>    -0.1144    10.8081    89.9856 </r>
       <r>     0.0387     0.7603    90.1020 </r>
       <r>     0.1918    11.2203    91.8199 </r>
       <r>     0.3449    11.6677    93.6063 </r>
       <r>     0.4980     9.8383    95.1126 </r>
       <r>     0.6511    11.9436    96.9412 </r>
       <r>     0.8042    17.4229    99.6087 </r>
       <r>     0.9573    18.4753   102.4374 </r>
       <r>     1.1104    19.1783   105.3737 </r>
       <r>     1.2635    35.4122   110.7955 </r>
       <r>     1.4166    32.3137   115.7429 </r>
       <r>     1.5697    19.5505   118.7361 </r>
       <r>     1.7228    13.0609   120.7358 </r>
       <r>     1.8759    18.0687   123.5022 </r>
       <r>     2.0290    20.0309   126.5691 </r>
       <r>     2.1821     6.9849   127.6385 </r>
       <r>     2.3352     7.6179   128.8048 </r>
       <r>     2.4883    12.7004   130.7493 </r>
       <r>     2.6415     5.6773   131.6185 </r>
       <r>     2.7946     7.3283   132.7405 </r>
       <r>     2.9477     5.8217   133.6319 </r>
       <r>     3.1008     3.6904   134.1969 </r>
       <r>     3.2539     6.7765   135.2344 </r>
       <r>     3.4070     4.9749   135.9961 </r>
       <r>     3.5601     3.9685   136.6037 </r>
       <r>     3.7132     2.5872   136.9998 </r>
       <r>     3.8663     5.5620   137.8514 </r>
       <r>     4.0194     3.7589   138.4269 </r>
       <r>     4.1725     6.5968   139.4369 </r>
       <r>     4.3256     2.1452   139.7653 </r>
       <r>     4.4787     0.7150   139.8748 </r>
       <r>     4.6318     0.5898   139.9651 </r>
       <r>     4.7849     0.2280   140.0000 </r>
       <r>     4.9380     0.0000   140.0000 </r>
       <r>     5.0911     0.2413   140.0369 </r>
       <r>     5.2442     0.1669   140.0625 </r>
       <r>     5.3973     0.3724   140.1195 </r>
       <r>     5.5504     2.4834   140.4997 </r>
       <r>     5.7036     2.9894   140.9574 </r>
       <r>     5.8567     4.0488   141.5773 </r>
       <r>     6.0098     4.6770   142.2934 </r>
       <r>     6.1629     4.9883   143.0571 </r>
       <r>     6.3160     3.6731   143.6195 </r>
       <r>     6.4691     0.5056   143.6969 </r>
       <r>     6.6222     2.3418   144.0555 </r>
       <r>     6.7753     0.9427   144.1998 </r>
       <r>     6.9284     1.5185   144.4323 </r>
       <r>     7.0815     2.4353   144.8051 </r>
       <r>     7.2346     6.3057   145.7706 </r>
       <r>     7.3877     6.2141   146.7220 </r>
       <r>     7.5408     6.1640   147.6657 </r>
       <r>     7.6939     7.3869   148.7967 </r>
       <r>     7.8470     7.0539   149.8767 </r>
       <r>     8.0001     4.6610   150.5903 </r>
       <r>     8.1532     9.6222   152.0635 </r>
       <r>     8.3063     8.2398   153.3251 </r>
       <r>     8.4594     9.2934   154.7479 </r>
       <r>     8.6125     7.1520   155.8429 </r>
       <r>     8.7657     7.3306   156.9653 </r>
       <r>     8.9188     8.1539   158.2137 </r>
       <r>     9.0719     9.6291   159.6880 </r>
       <r>     9.2250    11.1922   161.4015 </r>
       <r>     9.3781     7.6461   162.5722 </r>
       <r>     9.5312     9.6520   164.0500 </r>
       <r>     9.6843    15.2938   166.3915 </r>
       <r>     9.8374    15.0196   168.6911 </r>
       <r>     9.9905    16.6828   171.2453 </r>
       <r>    10.1436    13.7584   173.3518 </r>
       <r>    10.2967    14.4611   175.5659 </r>
       <r>    10.4498     2.8327   175.9996 </r>
       <r>    10.6029     0.0027   176.0000 </r>
       <r>    10.7560     0.0000   176.0000 </r>
       <r>    10.9091     0.0000   176.0000 </r>
       <r>    11.0622     0.0000   176.0000 </r>
       <r>    11.2153     0.0000   176.0000 </r>
       <r>    11.3684     0.0000   176.0000 </r>
       <r>    11.5215     0.0000   176.0000 </r>
       <r>    11.6746     0.0000   176.0000 </r>
       <r>    11.8278     0.0000   176.0000 </r>
       <r>    11.9809     0.0000   176.0000 </r>
       <r>    12.1340     0.0000   176.0000 </r>
       <r>    12.2871     0.0000   176.0000 </r>
       <r>    12.4402     0.0000   176.0000 </r>
      </set>
     </set>
    </array>
   </total>
  </dos>
 </calculation>
 <structure name="finalpos" >
  <crystal>
   <varray name="basis" >
    <v>      16.97056275       0.00000000       0.00000000 </v>
    <v>       0.00000000       5.65685425       0.00000000 </v>
    <v>      -1.88561808       0.00000000       5.33333333 </v>
   </varray>
   <i name="volume">    512.00000000 </i>
   <varray name="rec_basis" >
    <v>       0.05892557       0.00000000       0.02083333 </v>
    <v>       0.00000000       0.17677670       0.00000000 </v>
    <v>       0.00000000       0.00000000       0.18750000 </v>
   </varray>
  </crystal>
  <varray name="positions" >
   <v>       0.62500000       0.00000000       0.62500000 </v>
   <v>       0.37500000       0.00000000       0.37500000 </v>
   <v>       0.62500000       0.50000000       0.12500000 </v>
   <v>       0.37500000       0.50000000       0.87500000 </v>
   <v>       0.12500000       0.50000000       0.62500000 </v>
   <v>       0.87500000       0.50000000       0.37500000 </v>
   <v>       0.12500000       0.00000000       0.12500000 </v>
   <v>       0.87500000       0.00000000       0.87500000 </v>
   <v>       0.50000000       0.00000000       0.00000000 </v>
   <v>       0.25000000       0.00000000       0.75000000 </v>
   <v>       0.50000000       0.50000000       0.50000000 </v>
   <v>       0.25000000       0.50000000       0.25000000 </v>
   <v>       0.00000000       0.50000000       0.00000000 </v>
   <v>       0.75000000       0.50000000       0.75000000 </v>
   <v>       0.00000000       0.00000000       0.50000000 </v>
   <v>       0.75000000       0.00000000       0.25000000 </v>
   <v>       0.62500000       0.50000000       0.62500000 </v>
   <v>       0.37500000       0.50000000       0.37500000 </v>
   <v>       0.50000000       0.25000000       0.75000000 </v>
   <v>       0.50000000       0.75000000       0.25000000 </v>
   <v>       0.25000000       0.75000000       0.00000000 </v>
   <v>       0.50000000       0.75000000       0.75000000 </v>
   <v>       0.50000000       0.25000000       0.25000000 </v>
   <v>       0.25000000       0.25000000       0.00000000 </v>
   <v>       0.12500000       0.00000000       0.62500000 </v>
   <v>       0.87500000       0.00000000       0.37500000 </v>
   <v>       0.00000000       0.75000000       0.75000000 </v>
   <v>       0.00000000       0.25000000       0.25000000 </v>
   <v>       0.75000000       0.25000000       0.00000000 </v>
   <v>       0.00000000       0.25000000       0.75000000 </v>
   <v>       0.00000000       0.75000000       0.25000000 </v>
   <v>       0.75000000       0.75000000       0.00000000 </v>
  </varray>
 </structure>
</modeling>
