<?xml version="1.0" encoding="ISO-8859-1"?>
<modeling>
 <generator>
  <i name="program" type="string">vasp </i>
  <i name="version" type="string">5.3.5  </i>
  <i name="subversion" type="string">31Mar14 (build Jun 20 2014 13:15:13) complex                          parallel </i>
  <i name="platform" type="string">LinuxIFC </i>
  <i name="date" type="string">2025 12 16 </i>
  <i name="time" type="string">17:00:14 </i>
 </generator>
 <incar>
  <i type="string" name="PREC">accurate</i>
  <i type="int" name="IALGO">    68</i>
  <i type="logical" name="ADDGRID"> T  </i>
  <i type="int" name="NELM">   100</i>
  <i type="int" name="NELMIN">     4</i>
  <i type="int" name="IBRION">     2</i>
  <i name="EDIFF">      0.00000100</i>
  <i name="EDIFFG">     -0.02000000</i>
  <i type="int" name="NSW">    30</i>
  <i type="int" name="ISIF">     3</i>
  <i name="ENCUT">    600.00000000</i>
  <i type="logical" name="LREAL"> F  </i>
  <i type="int" name="ISMEAR">     0</i>
  <i name="SIGMA">      0.10000000</i>
  <i type="logical" name="LWAVE"> F  </i>
  <i type="logical" name="LCHARG"> F  </i>
  <i type="int" name="NELM">   100</i>
 </incar>
 <kpoints>
  <generation param="Auto">
   <i name="subdivisionlength">     20.00000000 </i>
   <v type="int" name="divisions">       4        4        4 </v>
   <v name="usershift">      0.00000000       0.00000000       0.00000000 </v>
   <v name="genvec1">      0.25000000       0.00000000       0.00000000 </v>
   <v name="genvec2">      0.00000000       0.25000000       0.00000000 </v>
   <v name="genvec3">      0.00000000       0.00000000       0.25000000 </v>
   <v name="shift">      0.00000000       0.00000000       0.00000000 </v>
  </generation>
  <varray name="kpointlist" >
   <v>       0.00000000       0.00000000       0.00000000 </v>
   <v>       0.25000000       0.00000000       0.00000000 </v>
   <v>       0.50000000       0.00000000       0.00000000 </v>
   <v>       0.25000000       0.25000000       0.00000000 </v>
   <v>       0.00000000       0.00000000       0.25000000 </v>
   <v>       0.25000000       0.00000000       0.25000000 </v>
   <v>       0.50000000       0.00000000       0.25000000 </v>
   <v>      -0.25000000       0.00000000       0.25000000 </v>
   <v>       0.25000000       0.25000000       0.25000000 </v>
   <v>       0.00000000       0.00000000       0.50000000 </v>
   <v>       0.25000000       0.00000000       0.50000000 </v>
   <v>       0.50000000       0.00000000       0.50000000 </v>
   <v>       0.25000000       0.25000000       0.50000000 </v>
  </varray>
  <varray name="weights" >
   <v>       0.01562500 </v>
   <v>       0.09375000 </v>
   <v>       0.04687500 </v>
   <v>       0.09375000 </v>
   <v>       0.03125000 </v>
   <v>       0.09375000 </v>
   <v>       0.09375000 </v>
   <v>       0.09375000 </v>
   <v>       0.18750000 </v>
   <v>       0.01562500 </v>
   <v>       0.09375000 </v>
   <v>       0.04687500 </v>
   <v>       0.09375000 </v>
  </varray>
 </kpoints>
 <parameters>
  <separator name="general" >
   <i type="string" name="SYSTEM">unknown system</i>
   <i type="logical" name="LCOMPAT"> F  </i>
  </separator>
  <separator name="electronic" >
   <i type="string" name="PREC">accura</i>
   <i name="ENMAX">    600.00000000</i>
   <i name="ENAUG">    644.87300000</i>
   <i name="EDIFF">      0.00000100</i>
   <i type="int" name="IALGO">    68</i>
   <i type="int" name="IWAVPR">    11</i>
   <i type="int" name="NBANDS">    44</i>
   <i name="NELECT">     64.00000000</i>
   <i type="int" name="TURBO">     0</i>
   <i type="int" name="IRESTART">     0</i>
   <i type="int" name="NREBOOT">     0</i>
   <i type="int" name="NMIN">     0</i>
   <i name="EREF">      0.00000000</i>
   <separator name="electronic smearing" >
    <i type="int" name="ISMEAR">     0</i>
    <i name="SIGMA">      0.10000000</i>
    <i name="KSPACING">      0.50000000</i>
    <i type="logical" name="KGAMMA"> T  </i>
   </separator>
   <separator name="electronic projectors" >
    <i type="logical" name="LREAL"> F  </i>
    <v name="ROPT">      0.00000000      0.00000000      0.00000000      0.00000000</v>
    <i type="int" name="LMAXPAW">  -100</i>
    <i type="int" name="LMAXMIX">     2</i>
    <i type="logical" name="NLSPLINE"> F  </i>
   </separator>
   <separator name="electronic startup" >
    <i type="int" name="ISTART">     0</i>
    <i type="int" name="ICHARG">     2</i>
    <i type="int" name="INIWAV">     1</i>
   </separator>
   <separator name="electronic spin" >
    <i type="int" name="ISPIN">     1</i>
    <i type="logical" name="LNONCOLLINEAR"> F  </i>
    <v name="MAGMOM">      1.00000000      1.00000000      1.00000000      1.00000000      1.00000000      1.00000000      1.00000000      1.00000000      1.00000000      1.00000000      1.00000000      1.00000000      1.00000000      1.00000000      1.00000000      1.00000000</v>
    <i name="NUPDOWN">     -1.00000000</i>
    <i type="logical" name="LSORBIT"> F  </i>
    <v name="SAXIS">      0.00000000      0.00000000      1.00000000</v>
    <i type="logical" name="LSPIRAL"> F  </i>
    <v name="QSPIRAL">      0.00000000      0.00000000      0.00000000</v>
    <i type="logical" name="LZEROZ"> F  </i>
   </separator>
   <separator name="electronic exchange-correlation" >
    <i type="logical" name="LASPH"> F  </i>
    <i type="logical" name="LMETAGGA"> F  </i>
   </separator>
   <separator name="electronic convergence" >
    <i type="int" name="NELM">   100</i>
    <i type="int" name="NELMDL">     0</i>
    <i type="int" name="NELMIN">     4</i>
    <i name="ENINI">    600.00000000</i>
    <separator name="electronic convergence detail" >
     <i type="logical" name="LDIAG"> T  </i>
     <i type="logical" name="LSUBROT"> F  </i>
     <i name="WEIMIN">      0.00100000</i>
     <i name="EBREAK">      0.00000001</i>
     <i name="DEPER">      0.30000000</i>
     <i type="int" name="NRMM">     4</i>
     <i name="TIME">      0.40000000</i>
    </separator>
   </separator>
   <separator name="electronic mixer" >
    <i name="AMIX">      0.40000000</i>
    <i name="BMIX">      1.00000000</i>
    <i name="AMIN">      0.10000000</i>
    <i name="AMIX_MAG">      1.60000000</i>
    <i name="BMIX_MAG">      1.00000000</i>
    <separator name="electronic mixer details" >
     <i type="int" name="IMIX">     4</i>
     <i type="int" name="MAXMIX">   -45</i>
     <i name="WC">    100.00000000</i>
     <i type="int" name="INIMIX">     1</i>
     <i type="int" name="MIXPRE">     1</i>
     <i type="int" name="MREMOVE">     5</i>
    </separator>
   </separator>
   <separator name="electronic dipolcorrection" >
    <i type="logical" name="LDIPOL"> F  </i>
    <i type="logical" name="LMONO"> F  </i>
    <i type="int" name="IDIPOL">     0</i>
    <i name="EPSILON">      1.00000000</i>
    <v name="DIPOL">   -100.00000000   -100.00000000   -100.00000000</v>
    <i name="EFIELD">      0.00000000</i>
   </separator>
  </separator>
  <separator name="grids" >
   <i type="int" name="NGX">    50</i>
   <i type="int" name="NGY">    50</i>
   <i type="int" name="NGZ">    40</i>
   <i type="int" name="NGXF">   100</i>
   <i type="int" name="NGYF">   100</i>
   <i type="int" name="NGZF">    80</i>
   <i type="logical" name="ADDGRID"> T  </i>
  </separator>
  <separator name="ionic" >
   <i type="int" name="NSW">    30</i>
   <i type="int" name="IBRION">     2</i>
   <i type="int" name="ISIF">     3</i>
   <i name="PSTRESS">      0.00000000</i>
   <i name="EDIFFG">     -0.02000000</i>
   <i type="int" name="NFREE">     1</i>
   <i name="POTIM">      0.50000000</i>
   <i name="SMASS">     -3.00000000</i>
   <i name="SCALEE">      1.00000000</i>
  </separator>
  <separator name="ionic md" >
   <i name="TEBEG">      0.00010000</i>
   <i name="TEEND">      0.00010000</i>
   <i type="int" name="NBLOCK">     1</i>
   <i type="int" name="KBLOCK">    30</i>
   <i type="int" name="NPACO">   256</i>
   <i name="APACO">     16.00000000</i>
  </separator>
  <separator name="symmetry" >
   <i type="int" name="ISYM">     2</i>
   <i name="SYMPREC">      0.00001000</i>
  </separator>
  <separator name="dos" >
   <i type="logical" name="LORBIT"> F  </i>
   <v name="RWIGS">     -1.00000000     -1.00000000     -1.00000000     -1.00000000</v>
   <i type="int" name="NEDOS">   301</i>
   <i name="EMIN">     10.00000000</i>
   <i name="EMAX">    -10.00000000</i>
   <i name="EFERMI">      0.00000000</i>
  </separator>
  <separator name="writing" >
   <i type="int" name="NWRITE">     2</i>
   <i type="logical" name="LWAVE"> F  </i>
   <i type="logical" name="LCHARG"> F  </i>
   <i type="logical" name="LPARD"> F  </i>
   <i type="logical" name="LVTOT"> F  </i>
   <i type="logical" name="LVHAR"> F  </i>
   <i type="logical" name="LELF"> F  </i>
   <i type="logical" name="LOPTICS"> F  </i>
   <v name="STM">      0.00000000      0.00000000      0.00000000      0.00000000      0.00000000      0.00000000      0.00000000</v>
  </separator>
  <separator name="performance" >
   <i type="int" name="NPAR">     4</i>
   <i type="int" name="NSIM">     4</i>
   <i type="int" name="NBLK">    -1</i>
   <i type="logical" name="LPLANE"> T  </i>
   <i type="logical" name="LSCALAPACK"> T  </i>
   <i type="logical" name="LSCAAWARE"> F  </i>
   <i type="logical" name="LSCALU"> F  </i>
   <i type="logical" name="LASYNC"> F  </i>
   <i type="logical" name="LORBITALREAL"> F  </i>
  </separator>
  <separator name="miscellaneous" >
   <i type="int" name="IDIOT">     3</i>
   <i type="logical" name="LMUSIC"> F  </i>
   <v name="POMASS">     28.08500000     26.98100000     12.01100000     14.00100000</v>
   <v name="DARWINR">      0.00000000      0.00000000      0.00000000      0.00000000</v>
   <v name="DARWINV">      1.00000000      1.00000000      1.00000000      1.00000000</v>
   <i type="logical" name="LCORR"> T  </i>
  </separator>
  <i type="logical" name="GGA_COMPAT"> T  </i>
  <i type="logical" name="LBERRY"> F  </i>
  <i type="int" name="ICORELEVEL">     0</i>
  <i type="logical" name="LDAU"> F  </i>
  <i type="int" name="I_CONSTRAINED_M">     0</i>
  <separator name="electronic exchange-correlation" >
   <i type="string" name="GGA">--</i>
   <i type="int" name="VOSKOWN">     0</i>
   <i type="logical" name="LHFCALC"> F  </i>
   <i type="string" name="PRECFOCK"></i>
   <i type="logical" name="LSYMGRAD"> F  </i>
   <i type="logical" name="LHFONE"> F  </i>
   <i type="logical" name="LRHFCALC"> F  </i>
   <i type="logical" name="LTHOMAS"> F  </i>
   <i type="logical" name="LMODELHF"> F  </i>
   <i name="ENCUT4O">     -1.00000000</i>
   <i type="int" name="EXXOEP">     0</i>
   <i type="int" name="FOURORBIT">     0</i>
   <i name="AEXX">      0.00000000</i>
   <i name="HFALPHA">      0.00000000</i>
   <i name="MCALPHA">      0.00000000</i>
   <i name="ALDAX">      1.00000000</i>
   <i name="AGGAX">      1.00000000</i>
   <i name="ALDAC">      1.00000000</i>
   <i name="AGGAC">      1.00000000</i>
   <i type="int" name="NKREDX">     1</i>
   <i type="int" name="NKREDY">     1</i>
   <i type="int" name="NKREDZ">     1</i>
   <i type="logical" name="SHIFTRED"> F  </i>
   <i type="logical" name="ODDONLY"> F  </i>
   <i type="logical" name="EVENONLY"> F  </i>
   <i type="int" name="LMAXFOCK">     0</i>
   <i type="int" name="NMAXFOCKAE">     0</i>
   <i type="logical" name="LFOCKAEDFT"> F  </i>
   <i name="HFSCREEN">      0.00000000</i>
   <i name="HFSCREENC">      0.00000000</i>
   <i type="int" name="NBANDSGWLOW">     0</i>
  </separator>
  <separator name="vdW DFT" >
   <i type="logical" name="LUSE_VDW"> F  </i>
   <i name="Zab_VDW">     -0.84910000</i>
   <i name="PARAM1">      0.12340000</i>
   <i name="PARAM2">      1.00000000</i>
   <i name="PARAM3">      0.00000000</i>
  </separator>
  <separator name="model GW" >
   <i type="int" name="MODEL_GW">     0</i>
   <i name="MODEL_EPS0">      6.37321600</i>
   <i name="MODEL_ALPHA">      1.00000000</i>
  </separator>
  <separator name="linear response parameters" >
   <i type="logical" name="LEPSILON"> F  </i>
   <i type="logical" name="LRPA"> F  </i>
   <i type="logical" name="LNABLA"> F  </i>
   <i type="logical" name="LVEL"> F  </i>
   <i type="int" name="KINTER">     0</i>
   <i name="CSHIFT">      0.10000000</i>
   <i name="OMEGAMAX">     -1.00000000</i>
   <i name="DEG_THRESHOLD">      0.00200000</i>
  </separator>
  <separator name="orbital magnetization" >
   <i type="logical" name="NUCIND"> F  </i>
   <v name="MAGPOS">      0.00000000      0.00000000      0.00000000</v>
   <i type="logical" name="LNICSALL"> T  </i>
   <i type="logical" name="ORBITALMAG"> F  </i>
   <i type="logical" name="LMAGBLOCH"> F  </i>
   <i type="logical" name="LCHIMAG"> F  </i>
   <i type="logical" name="LGAUGE"> T  </i>
   <i type="int" name="MAGATOM">     0</i>
   <v name="MAGDIPOL">      0.00000000      0.00000000      0.00000000</v>
   <v name="AVECCONST">      0.00000000      0.00000000      0.00000000</v>
  </separator>
  <separator name="response functions" >
   <i type="logical" name="LADDER"> F  </i>
   <i type="logical" name="LFXC"> F  </i>
   <i type="logical" name="LHARTREE"> T  </i>
   <i type="int" name="IBSE">     0</i>
   <i type="logical" name="LTCTE"> F  </i>
   <i type="logical" name="LTETE"> F  </i>
   <i type="logical" name="LTRIPLET"> F  </i>
   <i type="logical" name="LFXCEPS"> F  </i>
   <i type="logical" name="LFXHEG"> F  </i>
   <i type="logical" name="L2ORDER"> F  </i>
   <i type="logical" name="LUSEW"> F  </i>
   <i name="ENCUTGW">     -2.00000000</i>
   <i name="ENCUTGWSOFT">     -2.00000000</i>
   <i name="ENCUTLF">     -1.00000000</i>
   <i type="int" name="LMAXMP2">    -1</i>
   <i name="SCISSOR">      0.00000000</i>
   <i type="int" name="NOMEGA">     0</i>
   <i type="int" name="NOMEGAR">     0</i>
   <i type="int" name="NBANDSGW">    -1</i>
   <i type="int" name="NBANDSO">    -1</i>
   <i type="int" name="NBANDSV">    -1</i>
   <i type="int" name="NELM">   100</i>
   <i type="int" name="DIM">     3</i>
   <i type="int" name="ANTIRES">     0</i>
   <i name="OMEGAMAX">    -30.00000000</i>
   <i name="OMEGAMIN">    -30.00000000</i>
   <i name="OMEGATL">   -200.00000000</i>
   <i type="int" name="OMEGAGRID">     0</i>
   <i name="CSHIFT">     -0.10000000</i>
   <i type="logical" name="SELFENERGY"> F  </i>
   <i type="logical" name="LSPECTRAL"> F  </i>
   <i type="logical" name="ODDONLYGW"> F  </i>
   <i type="logical" name="EVENONLYGW"> F  </i>
   <i type="int" name="NKREDLFX">     1</i>
   <i type="int" name="NKREDLFY">     1</i>
   <i type="int" name="NKREDLFZ">     1</i>
   <i type="int" name="MAXMEM">  1800</i>
   <i type="int" name="TELESCOPE">     0</i>
   <i type="int" name="TAUPAR">     1</i>
  </separator>
  <separator name="External order field" >
   <i name="OFIELD_KAPPA">      0.00000000</i>
   <v name="OFIELD_K">      0.00000000      0.00000000      0.00000000</v>
   <i name="OFIELD_Q6_NEAR">      0.00000000</i>
   <i name="OFIELD_Q6_FAR">      0.00000000</i>
   <i name="OFIELD_A">      0.00000000</i>
  </separator>
 </parameters>
 <atominfo>
  <atoms>      16 </atoms>
  <types>       4 </types>
  <array name="atoms" >
   <dimension dim="1">ion</dimension>
   <field type="string">element</field>
   <field type="int">atomtype</field>
   <set>
    <rc><c>Si</c><c>   1</c></rc>
    <rc><c>Si</c><c>   1</c></rc>
    <rc><c>Si</c><c>   1</c></rc>
    <rc><c>Si</c><c>   1</c></rc>
    <rc><c>Al</c><c>   2</c></rc>
    <rc><c>Al</c><c>   2</c></rc>
    <rc><c>Al</c><c>   2</c></rc>
    <rc><c>Al</c><c>   2</c></rc>
    <rc><c>C </c><c>   3</c></rc>
    <rc><c>C </c><c>   3</c></rc>
    <rc><c>C </c><c>   3</c></rc>
    <rc><c>C </c><c>   3</c></rc>
    <rc><c>N </c><c>   4</c></rc>
    <rc><c>N </c><c>   4</c></rc>
    <rc><c>N </c><c>   4</c></rc>
    <rc><c>N </c><c>   4</c></rc>
   </set>
  </array>
  <array name="atomtypes" >
   <dimension dim="1">type</dimension>
   <field type="int">atomspertype</field>
   <field type="string">element</field>
   <field>mass</field>
   <field>valence</field>
   <field type="string">pseudopotential</field>
   <set>
    <rc><c>   4</c><c>Si</c><c>     28.08500000</c><c>      4.00000000</c><c>  PAW_PBE Si 05Jan2001                  </c></rc>
    <rc><c>   4</c><c>Al</c><c>     26.98100000</c><c>      3.00000000</c><c>  PAW_PBE Al 04Jan2001                  </c></rc>
    <rc><c>   4</c><c>C </c><c>     12.01100000</c><c>      4.00000000</c><c>  PAW_PBE C 08Apr2002                   </c></rc>
    <rc><c>   4</c><c>N </c><c>     14.00100000</c><c>      5.00000000</c><c>  PAW_PBE N_s 07Sep2000                 </c></rc>
   </set>
  </array>
 </atominfo>
 <structure name="initialpos" >
  <crystal>
   <varray name="basis" >
    <v>       6.25856331       0.00000000       0.00000000 </v>
    <v>      -3.12928166       5.42007482       0.00000000 </v>
    <v>       0.00000000       0.00000000       5.01011205 </v>
   </varray>
   <i name="volume">    169.95242671 </i>
   <varray name="rec_basis" >
    <v>       0.15978108       0.09224965       0.00000000 </v>
    <v>       0.00000000       0.18449930       0.00000000 </v>
    <v>       0.00000000       0.00000000       0.19959633 </v>
   </varray>
  </crystal>
  <varray name="positions" >
   <v>       0.33333333       0.66666667       0.99131046 </v>
   <v>       0.50252577       0.00505153       0.49265212 </v>
   <v>       0.99494847       0.49747423       0.49265212 </v>
   <v>       0.50252577       0.49747423       0.49265212 </v>
   <v>       0.83612434       0.16387566       0.99921752 </v>
   <v>       0.32775131       0.16387566       0.99921752 </v>
   <v>       0.83612434       0.67224869       0.99921752 </v>
   <v>       0.00000000       0.00000000       0.50376285 </v>
   <v>       0.82724386       0.17275614       0.39287598 </v>
   <v>       0.34551229       0.17275614       0.39287598 </v>
   <v>       0.82724386       0.65448771       0.39287598 </v>
   <v>       0.33333333       0.66666667       0.36869526 </v>
   <v>       0.00000000       0.00000000       0.88602278 </v>
   <v>       0.49026569       0.98053138       0.86532392 </v>
   <v>       0.01946862       0.50973431       0.86532392 </v>
   <v>       0.49026569       0.50973431       0.86532392 </v>
  </varray>
 </structure>
 <calculation>
  <scstep>
   <time name="dav">    0.28    0.28</time>
   <time name="total">    0.32    0.34</time>
   <energy>
    <i name="alphaZ">     63.99788473 </i>
    <i name="ewald">  -2278.39040430 </i>
    <i name="hartreedc">   -352.50041203 </i>
    <i name="XCdc">     -5.43459410 </i>
    <i name="pawpsdc">   1871.13760811 </i>
    <i name="pawaedc">  -1679.96522576 </i>
    <i name="eentropy">     -0.01814010 </i>
    <i name="bandstr">    429.82677161 </i>
    <i name="atom">   2273.20978491 </i>
    <i name="e_fr_energy">    321.86327307 </i>
    <i name="e_wo_entrp">    321.88141317 </i>
    <i name="e_0_energy">    321.87234312 </i>
   </energy>
  </scstep>
  <scstep>
   <time name="dav">    0.32    0.32</time>
   <time name="total">    0.32    0.33</time>
   <energy>
    <i name="e_fr_energy">   -104.52696664 </i>
    <i name="e_wo_entrp">   -104.52696664 </i>
    <i name="e_0_energy">   -104.52696664 </i>
   </energy>
  </scstep>
  <scstep>
   <time name="dav">    0.33    0.33</time>
   <time name="total">    0.33    0.34</time>
   <energy>
    <i name="e_fr_energy">   -134.82713225 </i>
    <i name="e_wo_entrp">   -134.82713225 </i>
    <i name="e_0_energy">   -134.82713225 </i>
   </energy>
  </scstep>
  <scstep>
   <time name="dav">    0.33    0.33</time>
   <time name="total">    0.33    0.34</time>
   <energy>
    <i name="e_fr_energy">   -135.59484883 </i>
    <i name="e_wo_entrp">   -135.59484883 </i>
    <i name="e_0_energy">   -135.59484883 </i>
   </energy>
  </scstep>
  <scstep>
   <time name="dav">    0.32    0.32</time>
   <time name="total">    0.38    0.39</time>
   <energy>
    <i name="e_fr_energy">   -135.61997890 </i>
    <i name="e_wo_entrp">   -135.61997890 </i>
    <i name="e_0_energy">   -135.61997890 </i>
   </energy>
  </scstep>
  <scstep>
   <time name="diag">    0.07    0.07</time>
   <time name="diis">    0.18    0.18</time>
   <time name="orth">    0.01    0.01</time>
   <time name="total">    0.36    0.37</time>
   <energy>
    <i name="e_fr_energy">   -118.04816850 </i>
    <i name="e_wo_entrp">   -118.04816850 </i>
    <i name="e_0_energy">   -118.04816850 </i>
   </energy>
  </scstep>
  <scstep>
   <time name="diag">    0.07    0.07</time>
   <time name="diis">    0.19    0.19</time>
   <time name="orth">    0.01    0.01</time>
   <time name="total">    0.37    0.38</time>
   <energy>
    <i name="e_fr_energy">   -117.94384785 </i>
    <i name="e_wo_entrp">   -117.94384785 </i>
    <i name="e_0_energy">   -117.94384785 </i>
   </energy>
  </scstep>
  <scstep>
   <time name="diag">    0.07    0.07</time>
   <time name="diis">    0.17    0.17</time>
   <time name="orth">    0.01    0.01</time>
   <time name="total">    0.35    0.36</time>
   <energy>
    <i name="e_fr_energy">   -118.17672900 </i>
    <i name="e_wo_entrp">   -118.17672900 </i>
    <i name="e_0_energy">   -118.17672900 </i>
   </energy>
  </scstep>
  <scstep>
   <time name="diag">    0.07    0.07</time>
   <time name="diis">    0.17    0.17</time>
   <time name="orth">    0.01    0.01</time>
   <time name="total">    0.35    0.36</time>
   <energy>
    <i name="e_fr_energy">   -117.82119567 </i>
    <i name="e_wo_entrp">   -117.82119567 </i>
    <i name="e_0_energy">   -117.82119567 </i>
   </energy>
  </scstep>
  <scstep>
   <time name="diag">    0.07    0.07</time>
   <time name="diis">    0.18    0.18</time>
   <time name="orth">    0.01    0.01</time>
   <time name="total">    0.35    0.37</time>
   <energy>
    <i name="e_fr_energy">   -117.83157546 </i>
    <i name="e_wo_entrp">   -117.83157546 </i>
    <i name="e_0_energy">   -117.83157546 </i>
   </energy>
  </scstep>
  <scstep>
   <time name="diag">    0.07    0.07</time>
   <time name="diis">    0.18    0.18</time>
   <time name="orth">    0.01    0.01</time>
   <time name="total">    0.35    0.36</time>
   <energy>
    <i name="e_fr_energy">   -117.82884413 </i>
    <i name="e_wo_entrp">   -117.82884413 </i>
    <i name="e_0_energy">   -117.82884413 </i>
   </energy>
  </scstep>
  <scstep>
   <time name="diag">    0.07    0.07</time>
   <time name="diis">    0.17    0.17</time>
   <time name="orth">    0.01    0.01</time>
   <time name="total">    0.35    0.37</time>
   <energy>
    <i name="e_fr_energy">   -117.82768008 </i>
    <i name="e_wo_entrp">   -117.82768008 </i>
    <i name="e_0_energy">   -117.82768008 </i>
   </energy>
  </scstep>
  <scstep>
   <time name="diag">    0.07    0.07</time>
   <time name="diis">    0.18    0.18</time>
   <time name="orth">    0.01    0.01</time>
   <time name="total">    0.35    0.37</time>
   <energy>
    <i name="e_fr_energy">   -117.82771276 </i>
    <i name="e_wo_entrp">   -117.82771276 </i>
    <i name="e_0_energy">   -117.82771276 </i>
   </energy>
  </scstep>
  <scstep>
   <time name="diag">    0.07    0.07</time>
   <time name="diis">    0.17    0.17</time>
   <time name="orth">    0.01    0.01</time>
   <time name="total">    0.35    0.36</time>
   <energy>
    <i name="e_fr_energy">   -117.82771984 </i>
    <i name="e_wo_entrp">   -117.82771984 </i>
    <i name="e_0_energy">   -117.82771984 </i>
   </energy>
  </scstep>
  <scstep>
   <time name="diag">    0.07    0.07</time>
   <time name="diis">    0.17    0.17</time>
   <time name="orth">    0.01    0.01</time>
   <time name="total">    0.34    0.36</time>
   <energy>
    <i name="e_fr_energy">   -117.82771953 </i>
    <i name="e_wo_entrp">   -117.82771953 </i>
    <i name="e_0_energy">   -117.82771953 </i>
   </energy>
  </scstep>
  <scstep>
   <time name="diag">    0.07    0.07</time>
   <time name="diis">    0.12    0.12</time>
   <time name="orth">    0.01    0.01</time>
   <time name="total">    0.24    0.25</time>
   <energy>
    <i name="alphaZ">     63.99788473 </i>
    <i name="ewald">  -2278.39040430 </i>
    <i name="hartreedc">   -463.33960183 </i>
    <i name="XCdc">      4.30682551 </i>
    <i name="pawpsdc">  10268.76026423 </i>
    <i name="pawaedc"> -10081.85973361 </i>
    <i name="eentropy">      0.00000000 </i>
    <i name="bandstr">     95.48726062 </i>
    <i name="atom">   2273.20978491 </i>
    <i name="e_fr_energy">   -117.82771974 </i>
    <i name="e_wo_entrp">   -117.82771974 </i>
    <i name="e_0_energy">   -117.82771974 </i>
   </energy>
  </scstep>
  <structure>
   <crystal>
    <varray name="basis" >
     <v>       6.25856331       0.00000000       0.00000000 </v>
     <v>      -3.12928166       5.42007482       0.00000000 </v>
     <v>       0.00000000       0.00000000       5.01011205 </v>
    </varray>
    <i name="volume">    169.95242671 </i>
    <varray name="rec_basis" >
     <v>       0.15978108       0.09224965       0.00000000 </v>
     <v>       0.00000000       0.18449930       0.00000000 </v>
     <v>       0.00000000       0.00000000       0.19959633 </v>
    </varray>
   </crystal>
   <varray name="positions" >
    <v>       0.33333333       0.66666667       0.99131046 </v>
    <v>       0.50252577       0.00505153       0.49265212 </v>
    <v>       0.99494847       0.49747423       0.49265212 </v>
    <v>       0.50252577       0.49747423       0.49265212 </v>
    <v>       0.83612434       0.16387566       0.99921752 </v>
    <v>       0.32775131       0.16387566       0.99921752 </v>
    <v>       0.83612434       0.67224869       0.99921752 </v>
    <v>       0.00000000       0.00000000       0.50376285 </v>
    <v>       0.82724386       0.17275614       0.39287598 </v>
    <v>       0.34551229       0.17275614       0.39287598 </v>
    <v>       0.82724386       0.65448771       0.39287598 </v>
    <v>       0.33333333       0.66666667       0.36869526 </v>
    <v>       0.00000000       0.00000000       0.88602278 </v>
    <v>       0.49026569       0.98053138       0.86532392 </v>
    <v>       0.01946862       0.50973431       0.86532392 </v>
    <v>       0.49026569       0.50973431       0.86532392 </v>
   </varray>
  </structure>
  <varray name="forces" >
   <v>       0.00000000       0.00000000       0.00637129 </v>
   <v>       0.00000000       0.00415710      -0.00167824 </v>
   <v>      -0.00360015      -0.00207855      -0.00167824 </v>
   <v>       0.00360015      -0.00207855      -0.00167824 </v>
   <v>       0.00806909      -0.00465869      -0.00294294 </v>
   <v>      -0.00806909      -0.00465869      -0.00294294 </v>
   <v>       0.00000000       0.00931738      -0.00294294 </v>
   <v>       0.00000000       0.00000000       0.01585213 </v>
   <v>      -0.00095830       0.00055327       0.00229991 </v>
   <v>       0.00095830       0.00055327       0.00229991 </v>
   <v>       0.00000000      -0.00110655       0.00229991 </v>
   <v>       0.00000000       0.00000000      -0.00661831 </v>
   <v>       0.00000000       0.00000000       0.00748915 </v>
   <v>       0.00000000      -0.01439000      -0.00537681 </v>
   <v>       0.01246211       0.00719500      -0.00537681 </v>
   <v>      -0.01246211       0.00719500      -0.00537681 </v>
  </varray>
  <varray name="stress" >
   <v>      -1.09074308       0.00000000       0.00000000 </v>
   <v>       0.00000000      -1.09074308       0.00000000 </v>
   <v>       0.00000000       0.00000000       1.98775302 </v>
  </varray>
  <energy>
   <i name="e_fr_energy">   -117.82771974 </i>
   <i name="e_wo_entrp">   -117.82771974 </i>
   <i name="e_0_energy">      0.00000000 </i>
  </energy>
  <time name="totalsc">    6.47    6.71</time>
  <eigenvalues>
   <array>
    <dimension dim="1">band</dimension>
    <dimension dim="2">kpoint</dimension>
    <dimension dim="3">spin</dimension>
    <field>eigene</field>
    <field>occ</field>
    <set>
     <set comment="spin 1">
      <set comment="kpoint 1">
       <r>   -9.1746    1.0000 </r>
       <r>   -7.4971    1.0000 </r>
       <r>   -7.4971    1.0000 </r>
       <r>   -6.5563    1.0000 </r>
       <r>   -4.7879    1.0000 </r>
       <r>   -3.4356    1.0000 </r>
       <r>   -2.6867    1.0000 </r>
       <r>   -2.6867    1.0000 </r>
       <r>   -0.5795    1.0000 </r>
       <r>    0.2773    1.0000 </r>
       <r>    0.2773    1.0000 </r>
       <r>    0.4631    1.0000 </r>
       <r>    1.6221    1.0000 </r>
       <r>    1.6221    1.0000 </r>
       <r>    2.4627    1.0000 </r>
       <r>    2.4627    1.0000 </r>
       <r>    2.4827    1.0000 </r>
       <r>    3.1074    1.0000 </r>
       <r>    3.8034    1.0000 </r>
       <r>    3.8034    1.0000 </r>
       <r>    4.1750    1.0000 </r>
       <r>    4.6869    1.0000 </r>
       <r>    5.2081    1.0000 </r>
       <r>    5.2081    1.0000 </r>
       <r>    5.6599    1.0000 </r>
       <r>    5.6599    1.0000 </r>
       <r>    6.1972    1.0000 </r>
       <r>    6.4193    1.0000 </r>
       <r>    6.4193    1.0000 </r>
       <r>    7.0714    1.0000 </r>
       <r>    7.9424    1.0000 </r>
       <r>    7.9424    1.0000 </r>
       <r>   10.2631    0.0000 </r>
       <r>   11.2857    0.0000 </r>
       <r>   11.2857    0.0000 </r>
       <r>   11.6817    0.0000 </r>
       <r>   11.9867    0.0000 </r>
       <r>   11.9867    0.0000 </r>
       <r>   12.2877    0.0000 </r>
       <r>   13.7420    0.0000 </r>
       <r>   14.3157    0.0000 </r>
       <r>   14.3175    0.0000 </r>
       <r>   14.8197    0.0000 </r>
       <r>   15.0347    0.0000 </r>
      </set>
      <set comment="kpoint 2">
       <r>   -9.0318    1.0000 </r>
       <r>   -7.7349    1.0000 </r>
       <r>   -7.5124    1.0000 </r>
       <r>   -6.6084    1.0000 </r>
       <r>   -4.6077    1.0000 </r>
       <r>   -3.5473    1.0000 </r>
       <r>   -2.7994    1.0000 </r>
       <r>   -2.6996    1.0000 </r>
       <r>   -0.5895    1.0000 </r>
       <r>    0.4563    1.0000 </r>
       <r>    0.5903    1.0000 </r>
       <r>    1.1077    1.0000 </r>
       <r>    1.5173    1.0000 </r>
       <r>    1.7063    1.0000 </r>
       <r>    2.4380    1.0000 </r>
       <r>    2.5400    1.0000 </r>
       <r>    2.8865    1.0000 </r>
       <r>    3.1388    1.0000 </r>
       <r>    3.4391    1.0000 </r>
       <r>    3.5004    1.0000 </r>
       <r>    4.0788    1.0000 </r>
       <r>    4.6013    1.0000 </r>
       <r>    4.8298    1.0000 </r>
       <r>    5.1709    1.0000 </r>
       <r>    5.5654    1.0000 </r>
       <r>    5.5763    1.0000 </r>
       <r>    5.7541    1.0000 </r>
       <r>    5.9545    1.0000 </r>
       <r>    6.4458    1.0000 </r>
       <r>    6.9816    1.0000 </r>
       <r>    7.0417    1.0000 </r>
       <r>    7.7799    1.0000 </r>
       <r>   10.9875    0.0000 </r>
       <r>   11.7466    0.0000 </r>
       <r>   11.7708    0.0000 </r>
       <r>   11.9843    0.0000 </r>
       <r>   12.5286    0.0000 </r>
       <r>   12.5351    0.0000 </r>
       <r>   12.7062    0.0000 </r>
       <r>   14.0911    0.0000 </r>
       <r>   14.3673    0.0000 </r>
       <r>   14.8542    0.0000 </r>
       <r>   15.0156    0.0000 </r>
       <r>   15.4078    0.0000 </r>
      </set>
      <set comment="kpoint 3">
       <r>   -8.8169    1.0000 </r>
       <r>   -8.0424    1.0000 </r>
       <r>   -7.5275    1.0000 </r>
       <r>   -6.6535    1.0000 </r>
       <r>   -4.2705    1.0000 </r>
       <r>   -3.8825    1.0000 </r>
       <r>   -2.8685    1.0000 </r>
       <r>   -2.7137    1.0000 </r>
       <r>   -0.4437    1.0000 </r>
       <r>    0.8288    1.0000 </r>
       <r>    1.1279    1.0000 </r>
       <r>    1.1952    1.0000 </r>
       <r>    1.6216    1.0000 </r>
       <r>    1.7602    1.0000 </r>
       <r>    2.2807    1.0000 </r>
       <r>    2.6160    1.0000 </r>
       <r>    3.0709    1.0000 </r>
       <r>    3.1012    1.0000 </r>
       <r>    3.3185    1.0000 </r>
       <r>    3.5657    1.0000 </r>
       <r>    4.1835    1.0000 </r>
       <r>    4.2099    1.0000 </r>
       <r>    4.8106    1.0000 </r>
       <r>    4.8118    1.0000 </r>
       <r>    4.9681    1.0000 </r>
       <r>    5.0643    1.0000 </r>
       <r>    5.6367    1.0000 </r>
       <r>    5.8784    1.0000 </r>
       <r>    6.4343    1.0000 </r>
       <r>    6.5517    1.0000 </r>
       <r>    6.8944    1.0000 </r>
       <r>    7.6032    1.0000 </r>
       <r>   11.5254    0.0000 </r>
       <r>   11.6171    0.0000 </r>
       <r>   11.6262    0.0000 </r>
       <r>   12.7797    0.0000 </r>
       <r>   13.0782    0.0000 </r>
       <r>   13.8674    0.0000 </r>
       <r>   14.1145    0.0000 </r>
       <r>   14.3140    0.0000 </r>
       <r>   14.4647    0.0000 </r>
       <r>   14.5523    0.0000 </r>
       <r>   15.1179    0.0000 </r>
       <r>   15.4258    0.0000 </r>
      </set>
      <set comment="kpoint 4">
       <r>   -8.8266    1.0000 </r>
       <r>   -7.9672    1.0000 </r>
       <r>   -7.6227    1.0000 </r>
       <r>   -6.6217    1.0000 </r>
       <r>   -4.3010    1.0000 </r>
       <r>   -3.7976    1.0000 </r>
       <r>   -3.0518    1.0000 </r>
       <r>   -2.5826    1.0000 </r>
       <r>   -0.4212    1.0000 </r>
       <r>    0.8247    1.0000 </r>
       <r>    0.9292    1.0000 </r>
       <r>    1.2481    1.0000 </r>
       <r>    1.5833    1.0000 </r>
       <r>    1.9411    1.0000 </r>
       <r>    2.2526    1.0000 </r>
       <r>    2.7517    1.0000 </r>
       <r>    2.9319    1.0000 </r>
       <r>    3.1074    1.0000 </r>
       <r>    3.4117    1.0000 </r>
       <r>    3.6145    1.0000 </r>
       <r>    3.9964    1.0000 </r>
       <r>    4.2322    1.0000 </r>
       <r>    4.6061    1.0000 </r>
       <r>    4.7042    1.0000 </r>
       <r>    4.9777    1.0000 </r>
       <r>    5.4325    1.0000 </r>
       <r>    5.9399    1.0000 </r>
       <r>    6.0843    1.0000 </r>
       <r>    6.0923    1.0000 </r>
       <r>    6.4595    1.0000 </r>
       <r>    6.9235    1.0000 </r>
       <r>    7.3076    1.0000 </r>
       <r>   11.0295    0.0000 </r>
       <r>   11.9807    0.0000 </r>
       <r>   12.4939    0.0000 </r>
       <r>   12.9068    0.0000 </r>
       <r>   13.1970    0.0000 </r>
       <r>   13.2591    0.0000 </r>
       <r>   14.1662    0.0000 </r>
       <r>   14.3315    0.0000 </r>
       <r>   14.4541    0.0000 </r>
       <r>   14.6365    0.0000 </r>
       <r>   14.8702    0.0000 </r>
       <r>   15.3551    0.0000 </r>
      </set>
      <set comment="kpoint 5">
       <r>   -9.0543    1.0000 </r>
       <r>   -7.4567    1.0000 </r>
       <r>   -7.4567    1.0000 </r>
       <r>   -6.5199    1.0000 </r>
       <r>   -5.3696    1.0000 </r>
       <r>   -3.2539    1.0000 </r>
       <r>   -2.6929    1.0000 </r>
       <r>   -2.6929    1.0000 </r>
       <r>   -0.4488    1.0000 </r>
       <r>   -0.1497    1.0000 </r>
       <r>   -0.1497    1.0000 </r>
       <r>    0.7957    1.0000 </r>
       <r>    1.2692    1.0000 </r>
       <r>    1.2692    1.0000 </r>
       <r>    1.8714    1.0000 </r>
       <r>    3.1181    1.0000 </r>
       <r>    3.1181    1.0000 </r>
       <r>    3.9710    1.0000 </r>
       <r>    3.9710    1.0000 </r>
       <r>    4.1090    1.0000 </r>
       <r>    4.3252    1.0000 </r>
       <r>    5.1211    1.0000 </r>
       <r>    5.4100    1.0000 </r>
       <r>    5.4100    1.0000 </r>
       <r>    5.9286    1.0000 </r>
       <r>    6.0320    1.0000 </r>
       <r>    6.0439    1.0000 </r>
       <r>    6.0439    1.0000 </r>
       <r>    6.2948    1.0000 </r>
       <r>    6.2948    1.0000 </r>
       <r>    7.8840    1.0000 </r>
       <r>    7.8840    1.0000 </r>
       <r>   10.5643    0.0000 </r>
       <r>   11.0442    0.0000 </r>
       <r>   11.0442    0.0000 </r>
       <r>   11.4625    0.0000 </r>
       <r>   11.5824    0.0000 </r>
       <r>   11.5824    0.0000 </r>
       <r>   12.4356    0.0000 </r>
       <r>   13.9940    0.0000 </r>
       <r>   14.4935    0.0000 </r>
       <r>   14.4999    0.0000 </r>
       <r>   14.7723    0.0000 </r>
       <r>   15.4962    0.0000 </r>
      </set>
      <set comment="kpoint 6">
       <r>   -8.9186    1.0000 </r>
       <r>   -7.6739    1.0000 </r>
       <r>   -7.4696    1.0000 </r>
       <r>   -6.5692    1.0000 </r>
       <r>   -5.1620    1.0000 </r>
       <r>   -3.6367    1.0000 </r>
       <r>   -2.7766    1.0000 </r>
       <r>   -2.7725    1.0000 </r>
       <r>   -0.4518    1.0000 </r>
       <r>    0.2833    1.0000 </r>
       <r>    0.5687    1.0000 </r>
       <r>    0.9817    1.0000 </r>
       <r>    1.4937    1.0000 </r>
       <r>    1.6314    1.0000 </r>
       <r>    2.3975    1.0000 </r>
       <r>    2.7613    1.0000 </r>
       <r>    3.0200    1.0000 </r>
       <r>    3.3087    1.0000 </r>
       <r>    3.8902    1.0000 </r>
       <r>    4.0977    1.0000 </r>
       <r>    4.1701    1.0000 </r>
       <r>    4.6681    1.0000 </r>
       <r>    4.9749    1.0000 </r>
       <r>    5.2098    1.0000 </r>
       <r>    5.3308    1.0000 </r>
       <r>    5.5398    1.0000 </r>
       <r>    6.0167    1.0000 </r>
       <r>    6.1769    1.0000 </r>
       <r>    6.3771    1.0000 </r>
       <r>    6.4385    1.0000 </r>
       <r>    7.1046    1.0000 </r>
       <r>    7.6952    1.0000 </r>
       <r>   11.0751    0.0000 </r>
       <r>   11.3001    0.0000 </r>
       <r>   11.6024    0.0000 </r>
       <r>   11.9796    0.0000 </r>
       <r>   12.3866    0.0000 </r>
       <r>   12.6745    0.0000 </r>
       <r>   13.0281    0.0000 </r>
       <r>   14.2148    0.0000 </r>
       <r>   14.3986    0.0000 </r>
       <r>   14.4585    0.0000 </r>
       <r>   14.8858    0.0000 </r>
       <r>   15.2905    0.0000 </r>
      </set>
      <set comment="kpoint 7">
       <r>   -8.7176    1.0000 </r>
       <r>   -7.9554    1.0000 </r>
       <r>   -7.4828    1.0000 </r>
       <r>   -6.6106    1.0000 </r>
       <r>   -4.7740    1.0000 </r>
       <r>   -4.2105    1.0000 </r>
       <r>   -2.8387    1.0000 </r>
       <r>   -2.8246    1.0000 </r>
       <r>   -0.0982    1.0000 </r>
       <r>    0.6967    1.0000 </r>
       <r>    0.9420    1.0000 </r>
       <r>    1.4543    1.0000 </r>
       <r>    1.8028    1.0000 </r>
       <r>    2.0960    1.0000 </r>
       <r>    2.3678    1.0000 </r>
       <r>    2.5556    1.0000 </r>
       <r>    2.9232    1.0000 </r>
       <r>    3.3311    1.0000 </r>
       <r>    3.6094    1.0000 </r>
       <r>    3.9168    1.0000 </r>
       <r>    3.9625    1.0000 </r>
       <r>    4.1896    1.0000 </r>
       <r>    4.4863    1.0000 </r>
       <r>    4.6297    1.0000 </r>
       <r>    5.1588    1.0000 </r>
       <r>    5.1936    1.0000 </r>
       <r>    5.5895    1.0000 </r>
       <r>    6.2964    1.0000 </r>
       <r>    6.3375    1.0000 </r>
       <r>    6.4965    1.0000 </r>
       <r>    6.8755    1.0000 </r>
       <r>    7.4750    1.0000 </r>
       <r>   11.6694    0.0000 </r>
       <r>   12.0072    0.0000 </r>
       <r>   12.0136    0.0000 </r>
       <r>   12.3045    0.0000 </r>
       <r>   13.1346    0.0000 </r>
       <r>   13.4882    0.0000 </r>
       <r>   13.6315    0.0000 </r>
       <r>   13.7343    0.0000 </r>
       <r>   14.2043    0.0000 </r>
       <r>   14.6548    0.0000 </r>
       <r>   14.9447    0.0000 </r>
       <r>   15.2715    0.0000 </r>
      </set>
      <set comment="kpoint 8">
       <r>   -8.9186    1.0000 </r>
       <r>   -7.6738    1.0000 </r>
       <r>   -7.4701    1.0000 </r>
       <r>   -6.5682    1.0000 </r>
       <r>   -5.1636    1.0000 </r>
       <r>   -3.6345    1.0000 </r>
       <r>   -2.7989    1.0000 </r>
       <r>   -2.7512    1.0000 </r>
       <r>   -0.4109    1.0000 </r>
       <r>    0.1147    1.0000 </r>
       <r>    0.7559    1.0000 </r>
       <r>    0.9500    1.0000 </r>
       <r>    1.5278    1.0000 </r>
       <r>    1.6036    1.0000 </r>
       <r>    2.1859    1.0000 </r>
       <r>    2.9216    1.0000 </r>
       <r>    3.2432    1.0000 </r>
       <r>    3.4206    1.0000 </r>
       <r>    3.4996    1.0000 </r>
       <r>    4.0422    1.0000 </r>
       <r>    4.2343    1.0000 </r>
       <r>    4.6897    1.0000 </r>
       <r>    5.0577    1.0000 </r>
       <r>    5.1850    1.0000 </r>
       <r>    5.3239    1.0000 </r>
       <r>    5.5089    1.0000 </r>
       <r>    6.0387    1.0000 </r>
       <r>    6.1604    1.0000 </r>
       <r>    6.3772    1.0000 </r>
       <r>    6.4585    1.0000 </r>
       <r>    7.1135    1.0000 </r>
       <r>    7.6809    1.0000 </r>
       <r>   11.1644    0.0000 </r>
       <r>   11.3591    0.0000 </r>
       <r>   11.4365    0.0000 </r>
       <r>   11.8934    0.0000 </r>
       <r>   12.4665    0.0000 </r>
       <r>   12.7733    0.0000 </r>
       <r>   13.0614    0.0000 </r>
       <r>   14.0194    0.0000 </r>
       <r>   14.1541    0.0000 </r>
       <r>   14.7426    0.0000 </r>
       <r>   14.8383    0.0000 </r>
       <r>   15.4941    0.0000 </r>
      </set>
      <set comment="kpoint 9">
       <r>   -8.7262    1.0000 </r>
       <r>   -7.8867    1.0000 </r>
       <r>   -7.5676    1.0000 </r>
       <r>   -6.5842    1.0000 </r>
       <r>   -4.8080    1.0000 </r>
       <r>   -4.0799    1.0000 </r>
       <r>   -3.2791    1.0000 </r>
       <r>   -2.4467    1.0000 </r>
       <r>   -0.0677    1.0000 </r>
       <r>    0.5599    1.0000 </r>
       <r>    1.0186    1.0000 </r>
       <r>    1.3594    1.0000 </r>
       <r>    1.7999    1.0000 </r>
       <r>    2.0313    1.0000 </r>
       <r>    2.3479    1.0000 </r>
       <r>    2.7385    1.0000 </r>
       <r>    3.0224    1.0000 </r>
       <r>    3.2485    1.0000 </r>
       <r>    3.5414    1.0000 </r>
       <r>    3.7844    1.0000 </r>
       <r>    3.9224    1.0000 </r>
       <r>    4.2904    1.0000 </r>
       <r>    4.5845    1.0000 </r>
       <r>    4.8841    1.0000 </r>
       <r>    5.0275    1.0000 </r>
       <r>    5.4175    1.0000 </r>
       <r>    5.7162    1.0000 </r>
       <r>    5.8550    1.0000 </r>
       <r>    6.3708    1.0000 </r>
       <r>    6.4890    1.0000 </r>
       <r>    6.9547    1.0000 </r>
       <r>    7.1960    1.0000 </r>
       <r>   11.6478    0.0000 </r>
       <r>   11.9494    0.0000 </r>
       <r>   12.2008    0.0000 </r>
       <r>   12.7153    0.0000 </r>
       <r>   13.1750    0.0000 </r>
       <r>   13.4151    0.0000 </r>
       <r>   13.7127    0.0000 </r>
       <r>   14.0644    0.0000 </r>
       <r>   14.1629    0.0000 </r>
       <r>   14.4995    0.0000 </r>
       <r>   14.6529    0.0000 </r>
       <r>   15.3228    0.0000 </r>
      </set>
      <set comment="kpoint 10">
       <r>   -8.9137    1.0000 </r>
       <r>   -7.4148    1.0000 </r>
       <r>   -7.4148    1.0000 </r>
       <r>   -6.4823    1.0000 </r>
       <r>   -5.8486    1.0000 </r>
       <r>   -3.0866    1.0000 </r>
       <r>   -2.7245    1.0000 </r>
       <r>   -2.7245    1.0000 </r>
       <r>   -0.8543    1.0000 </r>
       <r>   -0.2499    1.0000 </r>
       <r>   -0.2499    1.0000 </r>
       <r>    0.6781    1.0000 </r>
       <r>    0.6781    1.0000 </r>
       <r>    1.4002    1.0000 </r>
       <r>    2.7494    1.0000 </r>
       <r>    3.3288    1.0000 </r>
       <r>    3.7325    1.0000 </r>
       <r>    3.7325    1.0000 </r>
       <r>    4.4704    1.0000 </r>
       <r>    4.4704    1.0000 </r>
       <r>    4.5370    1.0000 </r>
       <r>    5.4629    1.0000 </r>
       <r>    5.4629    1.0000 </r>
       <r>    5.4935    1.0000 </r>
       <r>    5.6051    1.0000 </r>
       <r>    5.7202    1.0000 </r>
       <r>    5.8897    1.0000 </r>
       <r>    5.8897    1.0000 </r>
       <r>    6.4604    1.0000 </r>
       <r>    6.4604    1.0000 </r>
       <r>    7.8007    1.0000 </r>
       <r>    7.8007    1.0000 </r>
       <r>   10.4276    0.0000 </r>
       <r>   10.9519    0.0000 </r>
       <r>   10.9519    0.0000 </r>
       <r>   11.6143    0.0000 </r>
       <r>   11.6143    0.0000 </r>
       <r>   12.0299    0.0000 </r>
       <r>   12.5397    0.0000 </r>
       <r>   13.0817    0.0000 </r>
       <r>   13.6187    0.0000 </r>
       <r>   13.6299    0.0000 </r>
       <r>   14.9320    0.0000 </r>
       <r>   15.2407    0.0000 </r>
      </set>
      <set comment="kpoint 11">
       <r>   -8.7880    1.0000 </r>
       <r>   -7.6083    1.0000 </r>
       <r>   -7.4255    1.0000 </r>
       <r>   -6.5273    1.0000 </r>
       <r>   -5.6230    1.0000 </r>
       <r>   -3.7795    1.0000 </r>
       <r>   -2.8451    1.0000 </r>
       <r>   -2.7591    1.0000 </r>
       <r>   -0.5135    1.0000 </r>
       <r>    0.1436    1.0000 </r>
       <r>    0.4906    1.0000 </r>
       <r>    1.0160    1.0000 </r>
       <r>    1.0753    1.0000 </r>
       <r>    1.9610    1.0000 </r>
       <r>    2.7635    1.0000 </r>
       <r>    2.9253    1.0000 </r>
       <r>    3.3435    1.0000 </r>
       <r>    3.6501    1.0000 </r>
       <r>    4.1400    1.0000 </r>
       <r>    4.2516    1.0000 </r>
       <r>    4.4393    1.0000 </r>
       <r>    4.6460    1.0000 </r>
       <r>    4.9727    1.0000 </r>
       <r>    5.0269    1.0000 </r>
       <r>    5.3840    1.0000 </r>
       <r>    5.7024    1.0000 </r>
       <r>    5.8196    1.0000 </r>
       <r>    5.9783    1.0000 </r>
       <r>    6.3234    1.0000 </r>
       <r>    6.6340    1.0000 </r>
       <r>    7.0463    1.0000 </r>
       <r>    7.5765    1.0000 </r>
       <r>   11.1497    0.0000 </r>
       <r>   11.3274    0.0000 </r>
       <r>   11.3828    0.0000 </r>
       <r>   11.9530    0.0000 </r>
       <r>   12.6047    0.0000 </r>
       <r>   12.6063    0.0000 </r>
       <r>   13.1130    0.0000 </r>
       <r>   13.6341    0.0000 </r>
       <r>   14.1193    0.0000 </r>
       <r>   14.1774    0.0000 </r>
       <r>   14.2518    0.0000 </r>
       <r>   14.7604    0.0000 </r>
      </set>
      <set comment="kpoint 12">
       <r>   -8.6056    1.0000 </r>
       <r>   -7.8587    1.0000 </r>
       <r>   -7.4362    1.0000 </r>
       <r>   -6.5654    1.0000 </r>
       <r>   -5.1969    1.0000 </r>
       <r>   -4.5182    1.0000 </r>
       <r>   -2.9477    1.0000 </r>
       <r>   -2.8294    1.0000 </r>
       <r>   -0.0701    1.0000 </r>
       <r>    0.6134    1.0000 </r>
       <r>    1.2962    1.0000 </r>
       <r>    1.5950    1.0000 </r>
       <r>    1.7203    1.0000 </r>
       <r>    2.3020    1.0000 </r>
       <r>    2.3452    1.0000 </r>
       <r>    2.5698    1.0000 </r>
       <r>    3.0248    1.0000 </r>
       <r>    3.3207    1.0000 </r>
       <r>    3.7565    1.0000 </r>
       <r>    4.0101    1.0000 </r>
       <r>    4.3033    1.0000 </r>
       <r>    4.3305    1.0000 </r>
       <r>    4.6193    1.0000 </r>
       <r>    4.7670    1.0000 </r>
       <r>    4.9563    1.0000 </r>
       <r>    5.2514    1.0000 </r>
       <r>    5.6541    1.0000 </r>
       <r>    6.1334    1.0000 </r>
       <r>    6.2247    1.0000 </r>
       <r>    6.5351    1.0000 </r>
       <r>    6.7113    1.0000 </r>
       <r>    7.3395    1.0000 </r>
       <r>   11.7855    0.0000 </r>
       <r>   11.9800    0.0000 </r>
       <r>   12.3199    0.0000 </r>
       <r>   12.6270    0.0000 </r>
       <r>   12.7351    0.0000 </r>
       <r>   12.9815    0.0000 </r>
       <r>   13.5093    0.0000 </r>
       <r>   13.6849    0.0000 </r>
       <r>   13.7186    0.0000 </r>
       <r>   14.6860    0.0000 </r>
       <r>   14.8057    0.0000 </r>
       <r>   15.1118    0.0000 </r>
      </set>
      <set comment="kpoint 13">
       <r>   -8.6127    1.0000 </r>
       <r>   -7.7979    1.0000 </r>
       <r>   -7.5096    1.0000 </r>
       <r>   -6.5441    1.0000 </r>
       <r>   -5.2340    1.0000 </r>
       <r>   -4.3517    1.0000 </r>
       <r>   -3.5021    1.0000 </r>
       <r>   -2.3076    1.0000 </r>
       <r>   -0.0517    1.0000 </r>
       <r>    0.3665    1.0000 </r>
       <r>    1.3273    1.0000 </r>
       <r>    1.5523    1.0000 </r>
       <r>    1.7649    1.0000 </r>
       <r>    2.1621    1.0000 </r>
       <r>    2.3601    1.0000 </r>
       <r>    2.8185    1.0000 </r>
       <r>    3.0208    1.0000 </r>
       <r>    3.3018    1.0000 </r>
       <r>    3.5047    1.0000 </r>
       <r>    4.1853    1.0000 </r>
       <r>    4.3727    1.0000 </r>
       <r>    4.4651    1.0000 </r>
       <r>    4.6967    1.0000 </r>
       <r>    4.9555    1.0000 </r>
       <r>    5.0424    1.0000 </r>
       <r>    5.2183    1.0000 </r>
       <r>    5.5486    1.0000 </r>
       <r>    5.8367    1.0000 </r>
       <r>    6.1729    1.0000 </r>
       <r>    6.5380    1.0000 </r>
       <r>    6.7746    1.0000 </r>
       <r>    7.1133    1.0000 </r>
       <r>   11.8073    0.0000 </r>
       <r>   12.0364    0.0000 </r>
       <r>   12.2971    0.0000 </r>
       <r>   12.7862    0.0000 </r>
       <r>   13.0581    0.0000 </r>
       <r>   13.1620    0.0000 </r>
       <r>   13.5033    0.0000 </r>
       <r>   13.6872    0.0000 </r>
       <r>   13.9483    0.0000 </r>
       <r>   14.3893    0.0000 </r>
       <r>   14.8932    0.0000 </r>
       <r>   14.9789    0.0000 </r>
      </set>
     </set>
    </set>
   </array>
  </eigenvalues>
  <separator name="orbital magnetization" >
   <v name="MAGDIPOLOUT">      0.00000000      0.00000000      0.00000000</v>
  </separator>
  <dos>
   <i name="efermi">      8.40885588 </i>
   <total>
    <array>
     <dimension dim="1">gridpoints</dimension>
     <dimension dim="2">spin</dimension>
     <field>energy</field>
     <field>total</field>
     <field>integrated</field>
     <set>
      <set comment="spin 1">
       <r>   -10.4082     0.0000     0.0000 </r>
       <r>   -10.3177     0.0000     0.0000 </r>
       <r>   -10.2272     0.0000     0.0000 </r>
       <r>   -10.1368     0.0000     0.0000 </r>
       <r>   -10.0463     0.0000     0.0000 </r>
       <r>    -9.9559     0.0000     0.0000 </r>
       <r>    -9.8654     0.0000     0.0000 </r>
       <r>    -9.7749     0.0000     0.0000 </r>
       <r>    -9.6845     0.0000     0.0000 </r>
       <r>    -9.5940     0.0000     0.0000 </r>
       <r>    -9.5036     0.0000     0.0000 </r>
       <r>    -9.4131     0.0001     0.0000 </r>
       <r>    -9.3226     0.0062     0.0006 </r>
       <r>    -9.2322     0.0743     0.0073 </r>
       <r>    -9.1417     0.3567     0.0396 </r>
       <r>    -9.0513     1.2002     0.1481 </r>
       <r>    -8.9608     2.4080     0.3660 </r>
       <r>    -8.8703     3.5687     0.6888 </r>
       <r>    -8.7799     4.6184     1.1066 </r>
       <r>    -8.6894     4.9481     1.5542 </r>
       <r>    -8.5990     3.3157     1.8541 </r>
       <r>    -8.5085     1.3714     1.9782 </r>
       <r>    -8.4180     0.2311     1.9991 </r>
       <r>    -8.3276     0.0102     2.0000 </r>
       <r>    -8.2371     0.0033     2.0003 </r>
       <r>    -8.1467     0.0886     2.0083 </r>
       <r>    -8.0562     0.7586     2.0769 </r>
       <r>    -7.9657     2.6442     2.3161 </r>
       <r>    -7.8753     4.3138     2.7064 </r>
       <r>    -7.7848     4.0336     3.0712 </r>
       <r>    -7.6944     4.2507     3.4558 </r>
       <r>    -7.6039     6.2630     4.0223 </r>
       <r>    -7.5134     8.7196     4.8111 </r>
       <r>    -7.4230     8.7010     5.5982 </r>
       <r>    -7.3325     3.8553     5.9469 </r>
       <r>    -7.2421     0.5636     5.9979 </r>
       <r>    -7.1516     0.0232     6.0000 </r>
       <r>    -7.0612     0.0002     6.0000 </r>
       <r>    -6.9707     0.0000     6.0000 </r>
       <r>    -6.8802     0.0013     6.0001 </r>
       <r>    -6.7898     0.0801     6.0074 </r>
       <r>    -6.6993     1.3271     6.1274 </r>
       <r>    -6.6089     6.3909     6.7055 </r>
       <r>    -6.5184     9.3849     7.5545 </r>
       <r>    -6.4279     4.2923     7.9428 </r>
       <r>    -6.3375     0.6067     7.9976 </r>
       <r>    -6.2470     0.0258     8.0000 </r>
       <r>    -6.1566     0.0003     8.0000 </r>
       <r>    -6.0661     0.0004     8.0000 </r>
       <r>    -5.9756     0.0121     8.0011 </r>
       <r>    -5.8852     0.0922     8.0095 </r>
       <r>    -5.7947     0.1794     8.0257 </r>
       <r>    -5.7043     0.3137     8.0541 </r>
       <r>    -5.6138     0.8911     8.1347 </r>
       <r>    -5.5233     0.7750     8.2048 </r>
       <r>    -5.4329     0.2808     8.2302 </r>
       <r>    -5.3424     0.4955     8.2750 </r>
       <r>    -5.2520     1.5199     8.4125 </r>
       <r>    -5.1615     3.1240     8.6951 </r>
       <r>    -5.0710     2.2161     8.8956 </r>
       <r>    -4.9806     0.4764     8.9387 </r>
       <r>    -4.8901     0.6250     8.9952 </r>
       <r>    -4.7997     2.5276     9.2238 </r>
       <r>    -4.7092     2.8027     9.4774 </r>
       <r>    -4.6187     1.5358     9.6163 </r>
       <r>    -4.5283     1.3344     9.7370 </r>
       <r>    -4.4378     0.9820     9.8258 </r>
       <r>    -4.3474     1.6602     9.9760 </r>
       <r>    -4.2569     2.7511    10.2249 </r>
       <r>    -4.1664     2.4594    10.4474 </r>
       <r>    -4.0760     2.3399    10.6590 </r>
       <r>    -3.9855     1.7502    10.8174 </r>
       <r>    -3.8951     0.9990    10.9077 </r>
       <r>    -3.8046     1.9277    11.0821 </r>
       <r>    -3.7141     2.4984    11.3081 </r>
       <r>    -3.6237     2.7368    11.5557 </r>
       <r>    -3.5332     3.0646    11.8329 </r>
       <r>    -3.4428     2.1690    12.0291 </r>
       <r>    -3.3523     1.3113    12.1477 </r>
       <r>    -3.2618     2.1920    12.3460 </r>
       <r>    -3.1714     1.8336    12.5119 </r>
       <r>    -3.0809     1.1219    12.6134 </r>
       <r>    -2.9905     1.5335    12.7521 </r>
       <r>    -2.9000     2.9526    13.0192 </r>
       <r>    -2.8095     7.9338    13.7369 </r>
       <r>    -2.7191    10.1998    14.6595 </r>
       <r>    -2.6286     5.9008    15.1933 </r>
       <r>    -2.5382     2.4853    15.4181 </r>
       <r>    -2.4477     2.2535    15.6220 </r>
       <r>    -2.3573     2.1782    15.8190 </r>
       <r>    -2.2668     1.3934    15.9451 </r>
       <r>    -2.1763     0.5412    15.9940 </r>
       <r>    -2.0859     0.0642    15.9998 </r>
       <r>    -1.9954     0.0018    16.0000 </r>
       <r>    -1.9050     0.0000    16.0000 </r>
       <r>    -1.8145     0.0000    16.0000 </r>
       <r>    -1.7240     0.0000    16.0000 </r>
       <r>    -1.6336     0.0000    16.0000 </r>
       <r>    -1.5431     0.0000    16.0000 </r>
       <r>    -1.4527     0.0000    16.0000 </r>
       <r>    -1.3622     0.0000    16.0000 </r>
       <r>    -1.2717     0.0000    16.0000 </r>
       <r>    -1.1813     0.0000    16.0000 </r>
       <r>    -1.0908     0.0001    16.0000 </r>
       <r>    -1.0004     0.0066    16.0006 </r>
       <r>    -0.9099     0.0679    16.0067 </r>
       <r>    -0.8194     0.1648    16.0217 </r>
       <r>    -0.7290     0.1518    16.0354 </r>
       <r>    -0.6385     0.6272    16.0921 </r>
       <r>    -0.5481     2.1389    16.2856 </r>
       <r>    -0.4576     4.0301    16.6502 </r>
       <r>    -0.3671     4.1018    17.0212 </r>
       <r>    -0.2767     1.6769    17.1729 </r>
       <r>    -0.1862     1.3218    17.2925 </r>
       <r>    -0.0958     3.6748    17.6249 </r>
       <r>    -0.0053     4.6256    18.0433 </r>
       <r>     0.0852     2.5825    18.2769 </r>
       <r>     0.1756     2.2684    18.4821 </r>
       <r>     0.2661     2.0785    18.6702 </r>
       <r>     0.3565     2.3478    18.8825 </r>
       <r>     0.4470     3.0059    19.1545 </r>
       <r>     0.5375     4.8323    19.5916 </r>
       <r>     0.6279     5.6373    20.1015 </r>
       <r>     0.7184     4.1058    20.4729 </r>
       <r>     0.8088     3.6334    20.8016 </r>
       <r>     0.8993     4.2875    21.1895 </r>
       <r>     0.9898     6.5588    21.7828 </r>
       <r>     1.0802     6.8583    22.4032 </r>
       <r>     1.1707     4.4218    22.8032 </r>
       <r>     1.2611     3.7424    23.1417 </r>
       <r>     1.3516     4.8597    23.5813 </r>
       <r>     1.4421     4.9835    24.0321 </r>
       <r>     1.5325     6.3181    24.6037 </r>
       <r>     1.6230     7.5865    25.2899 </r>
       <r>     1.7134     6.3734    25.8665 </r>
       <r>     1.8039     6.1020    26.4185 </r>
       <r>     1.8944     4.7494    26.8481 </r>
       <r>     1.9848     3.9055    27.2014 </r>
       <r>     2.0753     4.2216    27.5833 </r>
       <r>     2.1657     3.9586    27.9414 </r>
       <r>     2.2562     4.3865    28.3382 </r>
       <r>     2.3466     6.4455    28.9212 </r>
       <r>     2.4371     6.9334    29.5484 </r>
       <r>     2.5276     4.7090    29.9744 </r>
       <r>     2.6180     3.6522    30.3048 </r>
       <r>     2.7085     4.0656    30.6725 </r>
       <r>     2.7989     6.4327    31.2544 </r>
       <r>     2.8894     6.6959    31.8601 </r>
       <r>     2.9799     7.8920    32.5740 </r>
       <r>     3.0703     8.3496    33.3293 </r>
       <r>     3.1608     6.6932    33.9348 </r>
       <r>     3.2512     6.2766    34.5026 </r>
       <r>     3.3417     8.2066    35.2450 </r>
       <r>     3.4322     7.8844    35.9582 </r>
       <r>     3.5226     7.9011    36.6729 </r>
       <r>     3.6131     7.2099    37.3251 </r>
       <r>     3.7035     4.8044    37.7597 </r>
       <r>     3.7940     4.1590    38.1359 </r>
       <r>     3.8845     5.3280    38.6179 </r>
       <r>     3.9749     7.2801    39.2765 </r>
       <r>     4.0654     7.3624    39.9425 </r>
       <r>     4.1558     8.1080    40.6759 </r>
       <r>     4.2463     9.7541    41.5583 </r>
       <r>     4.3368     8.1199    42.2928 </r>
       <r>     4.4272     5.4677    42.7874 </r>
       <r>     4.5177     5.4564    43.2810 </r>
       <r>     4.6081     7.9051    43.9961 </r>
       <r>     4.6986     9.4829    44.8539 </r>
       <r>     4.7891     6.6924    45.4593 </r>
       <r>     4.8795     5.8320    45.9869 </r>
       <r>     4.9700     8.5532    46.7606 </r>
       <r>     5.0604    10.3223    47.6943 </r>
       <r>     5.1509     8.4687    48.4604 </r>
       <r>     5.2414     7.8537    49.1708 </r>
       <r>     5.3318     6.3145    49.7420 </r>
       <r>     5.4223     6.8340    50.3602 </r>
       <r>     5.5127     7.5842    51.0463 </r>
       <r>     5.6032     7.8618    51.7575 </r>
       <r>     5.6937     7.1192    52.4015 </r>
       <r>     5.7841     6.7822    53.0150 </r>
       <r>     5.8746     7.0859    53.6560 </r>
       <r>     5.9650     7.3185    54.3180 </r>
       <r>     6.0555     7.4965    54.9962 </r>
       <r>     6.1460     7.1646    55.6443 </r>
       <r>     6.2364     6.2031    56.2054 </r>
       <r>     6.3269     7.2782    56.8638 </r>
       <r>     6.4173    10.9452    57.8539 </r>
       <r>     6.5078    11.5320    58.8971 </r>
       <r>     6.5983     6.9352    59.5244 </r>
       <r>     6.6887     2.9196    59.7885 </r>
       <r>     6.7792     2.1356    59.9817 </r>
       <r>     6.8696     3.1233    60.2642 </r>
       <r>     6.9601     5.4945    60.7613 </r>
       <r>     7.0505     6.5446    61.3533 </r>
       <r>     7.1410     6.2410    61.9178 </r>
       <r>     7.2315     4.5326    62.3279 </r>
       <r>     7.3219     2.6994    62.5720 </r>
       <r>     7.4124     1.7314    62.7287 </r>
       <r>     7.5028     1.6355    62.8766 </r>
       <r>     7.5933     2.3095    63.0855 </r>
       <r>     7.6838     3.0489    63.3613 </r>
       <r>     7.7742     3.0473    63.6370 </r>
       <r>     7.8647     2.1838    63.8345 </r>
       <r>     7.9551     1.2916    63.9514 </r>
       <r>     8.0456     0.4718    63.9941 </r>
       <r>     8.1361     0.0633    63.9998 </r>
       <r>     8.2265     0.0024    64.0000 </r>
       <r>     8.3170     0.0000    64.0000 </r>
       <r>     8.4074     0.0000    64.0000 </r>
       <r>     8.4979     0.0000    64.0000 </r>
       <r>     8.5884     0.0000    64.0000 </r>
       <r>     8.6788     0.0000    64.0000 </r>
       <r>     8.7693     0.0000    64.0000 </r>
       <r>     8.8597     0.0000    64.0000 </r>
       <r>     8.9502     0.0000    64.0000 </r>
       <r>     9.0407     0.0000    64.0000 </r>
       <r>     9.1311     0.0000    64.0000 </r>
       <r>     9.2216     0.0000    64.0000 </r>
       <r>     9.3120     0.0000    64.0000 </r>
       <r>     9.4025     0.0000    64.0000 </r>
       <r>     9.4930     0.0000    64.0000 </r>
       <r>     9.5834     0.0000    64.0000 </r>
       <r>     9.6739     0.0000    64.0000 </r>
       <r>     9.7643     0.0000    64.0000 </r>
       <r>     9.8548     0.0000    64.0000 </r>
       <r>     9.9453     0.0000    64.0000 </r>
       <r>    10.0357     0.0002    64.0000 </r>
       <r>    10.1262     0.0089    64.0008 </r>
       <r>    10.2166     0.0796    64.0080 </r>
       <r>    10.3071     0.1798    64.0243 </r>
       <r>    10.3976     0.1892    64.0414 </r>
       <r>    10.4880     0.2619    64.0651 </r>
       <r>    10.5785     0.3658    64.0982 </r>
       <r>    10.6689     0.2482    64.1206 </r>
       <r>    10.7594     0.0498    64.1252 </r>
       <r>    10.8499     0.1202    64.1360 </r>
       <r>    10.9403     1.0773    64.2335 </r>
       <r>    11.0308     3.2576    64.5282 </r>
       <r>    11.1212     4.1392    64.9026 </r>
       <r>    11.2117     3.3267    65.2035 </r>
       <r>    11.3021     3.4105    65.5120 </r>
       <r>    11.3926     4.5980    65.9280 </r>
       <r>    11.4831     3.7862    66.2705 </r>
       <r>    11.5735     4.0140    66.6336 </r>
       <r>    11.6640     6.4081    67.2133 </r>
       <r>    11.7544     6.0384    67.7595 </r>
       <r>    11.8449     4.9363    68.2060 </r>
       <r>    11.9354     6.9222    68.8322 </r>
       <r>    12.0258     9.9110    69.7288 </r>
       <r>    12.1163     5.7386    70.2479 </r>
       <r>    12.2067     3.0387    70.5227 </r>
       <r>    12.2972     3.9421    70.8793 </r>
       <r>    12.3877     4.1166    71.2517 </r>
       <r>    12.4781     4.4721    71.6563 </r>
       <r>    12.5686     5.7625    72.1776 </r>
       <r>    12.6590     6.4708    72.7629 </r>
       <r>    12.7495     7.1799    73.4124 </r>
       <r>    12.8400     5.2011    73.8829 </r>
       <r>    12.9304     2.7584    74.1324 </r>
       <r>    13.0209     3.7660    74.4731 </r>
       <r>    13.1113     6.7466    75.0834 </r>
       <r>    13.2018     7.4912    75.7610 </r>
       <r>    13.2923     4.4279    76.1616 </r>
       <r>    13.3827     2.4884    76.3867 </r>
       <r>    13.4732     3.7183    76.7230 </r>
       <r>    13.5636     4.1398    77.0975 </r>
       <r>    13.6541     5.2450    77.5720 </r>
       <r>    13.7446     6.5912    78.1682 </r>
       <r>    13.8350     3.6542    78.4988 </r>
       <r>    13.9255     2.0363    78.6830 </r>
       <r>    14.0159     3.8984    79.0356 </r>
       <r>    14.1064     7.7154    79.7335 </r>
       <r>    14.1969    10.2663    80.6622 </r>
       <r>    14.2873     7.9459    81.3810 </r>
       <r>    14.3778     6.5208    81.9709 </r>
       <r>    14.4682     7.4739    82.6470 </r>
       <r>    14.5587     6.5657    83.2409 </r>
       <r>    14.6492     5.7627    83.7622 </r>
       <r>    14.7396     6.2872    84.3309 </r>
       <r>    14.8301     6.6357    84.9312 </r>
       <r>    14.9205     7.2951    85.5911 </r>
       <r>    15.0110     5.4615    86.0851 </r>
       <r>    15.1015     3.0148    86.3579 </r>
       <r>    15.1919     1.9453    86.5338 </r>
       <r>    15.2824     3.5561    86.8555 </r>
       <r>    15.3728     5.5286    87.3556 </r>
       <r>    15.4633     4.2611    87.7411 </r>
       <r>    15.5538     2.2208    87.9420 </r>
       <r>    15.6442     0.5920    87.9955 </r>
       <r>    15.7347     0.0485    87.9999 </r>
       <r>    15.8251     0.0010    88.0000 </r>
       <r>    15.9156     0.0000    88.0000 </r>
       <r>    16.0060     0.0000    88.0000 </r>
       <r>    16.0965     0.0000    88.0000 </r>
       <r>    16.1870     0.0000    88.0000 </r>
       <r>    16.2774     0.0000    88.0000 </r>
       <r>    16.3679     0.0000    88.0000 </r>
       <r>    16.4583     0.0000    88.0000 </r>
       <r>    16.5488     0.0000    88.0000 </r>
       <r>    16.6393     0.0000    88.0000 </r>
       <r>    16.7297     0.0000    88.0000 </r>
      </set>
     </set>
    </array>
   </total>
  </dos>
 </calculation>
 <structure name="finalpos" >
  <crystal>
   <varray name="basis" >
    <v>       6.25856331       0.00000000       0.00000000 </v>
    <v>      -3.12928166       5.42007482       0.00000000 </v>
    <v>       0.00000000       0.00000000       5.01011205 </v>
   </varray>
   <i name="volume">    169.95242671 </i>
   <varray name="rec_basis" >
    <v>       0.15978108       0.09224965       0.00000000 </v>
    <v>       0.00000000       0.18449930       0.00000000 </v>
    <v>       0.00000000       0.00000000       0.19959633 </v>
   </varray>
  </crystal>
  <varray name="positions" >
   <v>       0.33333333       0.66666667       0.99131046 </v>
   <v>       0.50252577       0.00505153       0.49265212 </v>
   <v>       0.99494847       0.49747423       0.49265212 </v>
   <v>       0.50252577       0.49747423       0.49265212 </v>
   <v>       0.83612434       0.16387566       0.99921752 </v>
   <v>       0.32775131       0.16387566       0.99921752 </v>
   <v>       0.83612434       0.67224869       0.99921752 </v>
   <v>       0.00000000       0.00000000       0.50376285 </v>
   <v>       0.82724386       0.17275614       0.39287598 </v>
   <v>       0.34551229       0.17275614       0.39287598 </v>
   <v>       0.82724386       0.65448771       0.39287598 </v>
   <v>       0.33333333       0.66666667       0.36869526 </v>
   <v>       0.00000000       0.00000000       0.88602278 </v>
   <v>       0.49026569       0.98053138       0.86532392 </v>
   <v>       0.01946862       0.50973431       0.86532392 </v>
   <v>       0.49026569       0.50973431       0.86532392 </v>
  </varray>
 </structure>
</modeling>
