<?xml version="1.0" encoding="ISO-8859-1"?>
<modeling>
 <generator>
  <i name="program" type="string">vasp </i>
  <i name="version" type="string">5.3.5  </i>
  <i name="subversion" type="string">31Mar14 (build Jun 20 2014 13:15:13) complex                          parallel </i>
  <i name="platform" type="string">LinuxIFC </i>
  <i name="date" type="string">2025 11 21 </i>
  <i name="time" type="string">10:22:22 </i>
 </generator>
 <incar>
  <i type="string" name="PREC">accurate</i>
  <i type="int" name="IALGO">    68</i>
  <i type="logical" name="ADDGRID"> T  </i>
  <i type="int" name="NELM">   100</i>
  <i type="int" name="NELMIN">     4</i>
  <i type="int" name="IBRION">     2</i>
  <i name="EDIFF">      0.00000100</i>
  <i name="EDIFFG">     -0.02000000</i>
  <i type="int" name="NSW">    30</i>
  <i type="int" name="ISIF">     3</i>
  <i name="ENCUT">    500.00000000</i>
  <i type="logical" name="LREAL"> F  </i>
  <i type="int" name="ISMEAR">     1</i>
  <i name="SIGMA">      0.30000000</i>
  <i type="logical" name="LWAVE"> F  </i>
  <i type="logical" name="LCHARG"> F  </i>
  <i type="int" name="NELM">   100</i>
 </incar>
 <kpoints>
  <generation param="Auto">
   <i name="subdivisionlength">     70.00000000 </i>
   <v type="int" name="divisions">      28       28        7 </v>
   <v name="usershift">      0.00000000       0.00000000       0.00000000 </v>
   <v name="genvec1">      0.03571429       0.00000000       0.00000000 </v>
   <v name="genvec2">      0.00000000       0.03571429       0.00000000 </v>
   <v name="genvec3">      0.00000000       0.00000000       0.14285714 </v>
   <v name="shift">      0.00000000       0.00000000       0.00000000 </v>
  </generation>
  <varray name="kpointlist" >
   <v>       0.00000000       0.00000000       0.00000000 </v>
   <v>       0.03571429       0.00000000       0.00000000 </v>
   <v>       0.07142857       0.00000000       0.00000000 </v>
   <v>       0.10714286       0.00000000       0.00000000 </v>
   <v>       0.14285714       0.00000000       0.00000000 </v>
   <v>       0.17857143       0.00000000       0.00000000 </v>
   <v>       0.21428571       0.00000000       0.00000000 </v>
   <v>       0.25000000       0.00000000       0.00000000 </v>
   <v>       0.28571429       0.00000000       0.00000000 </v>
   <v>       0.32142857       0.00000000       0.00000000 </v>
   <v>       0.35714286       0.00000000       0.00000000 </v>
   <v>       0.39285714       0.00000000       0.00000000 </v>
   <v>       0.42857143       0.00000000       0.00000000 </v>
   <v>       0.46428571       0.00000000       0.00000000 </v>
   <v>       0.50000000       0.00000000       0.00000000 </v>
   <v>       0.00000000       0.03571429       0.00000000 </v>
   <v>       0.03571429       0.03571429       0.00000000 </v>
   <v>       0.07142857       0.03571429       0.00000000 </v>
   <v>       0.10714286       0.03571429       0.00000000 </v>
   <v>       0.14285714       0.03571429       0.00000000 </v>
   <v>       0.17857143       0.03571429       0.00000000 </v>
   <v>       0.21428571       0.03571429       0.00000000 </v>
   <v>       0.25000000       0.03571429       0.00000000 </v>
   <v>       0.28571429       0.03571429       0.00000000 </v>
   <v>       0.32142857       0.03571429       0.00000000 </v>
   <v>       0.35714286       0.03571429       0.00000000 </v>
   <v>       0.39285714       0.03571429       0.00000000 </v>
   <v>       0.42857143       0.03571429       0.00000000 </v>
   <v>       0.46428571       0.03571429       0.00000000 </v>
   <v>       0.50000000       0.03571429       0.00000000 </v>
   <v>      -0.46428571       0.03571429       0.00000000 </v>
   <v>      -0.42857143       0.03571429       0.00000000 </v>
   <v>      -0.39285714       0.03571429       0.00000000 </v>
   <v>      -0.35714286       0.03571429       0.00000000 </v>
   <v>      -0.32142857       0.03571429       0.00000000 </v>
   <v>      -0.28571429       0.03571429       0.00000000 </v>
   <v>      -0.25000000       0.03571429       0.00000000 </v>
   <v>      -0.21428571       0.03571429       0.00000000 </v>
   <v>      -0.17857143       0.03571429       0.00000000 </v>
   <v>      -0.14285714       0.03571429       0.00000000 </v>
   <v>      -0.10714286       0.03571429       0.00000000 </v>
   <v>      -0.07142857       0.03571429       0.00000000 </v>
   <v>       0.00000000       0.07142857       0.00000000 </v>
   <v>       0.03571429       0.07142857       0.00000000 </v>
   <v>       0.07142857       0.07142857       0.00000000 </v>
   <v>       0.10714286       0.07142857       0.00000000 </v>
   <v>       0.14285714       0.07142857       0.00000000 </v>
   <v>       0.17857143       0.07142857       0.00000000 </v>
   <v>       0.21428571       0.07142857       0.00000000 </v>
   <v>       0.25000000       0.07142857       0.00000000 </v>
   <v>       0.28571429       0.07142857       0.00000000 </v>
   <v>       0.32142857       0.07142857       0.00000000 </v>
   <v>       0.35714286       0.07142857       0.00000000 </v>
   <v>       0.39285714       0.07142857       0.00000000 </v>
   <v>       0.42857143       0.07142857       0.00000000 </v>
   <v>       0.46428571       0.07142857       0.00000000 </v>
   <v>       0.50000000       0.07142857       0.00000000 </v>
   <v>      -0.46428571       0.07142857       0.00000000 </v>
   <v>      -0.42857143       0.07142857       0.00000000 </v>
   <v>      -0.39285714       0.07142857       0.00000000 </v>
   <v>      -0.35714286       0.07142857       0.00000000 </v>
   <v>      -0.32142857       0.07142857       0.00000000 </v>
   <v>      -0.28571429       0.07142857       0.00000000 </v>
   <v>      -0.25000000       0.07142857       0.00000000 </v>
   <v>      -0.21428571       0.07142857       0.00000000 </v>
   <v>      -0.17857143       0.07142857       0.00000000 </v>
   <v>      -0.14285714       0.07142857       0.00000000 </v>
   <v>       0.00000000       0.10714286       0.00000000 </v>
   <v>       0.03571429       0.10714286       0.00000000 </v>
   <v>       0.07142857       0.10714286       0.00000000 </v>
   <v>       0.10714286       0.10714286       0.00000000 </v>
   <v>       0.14285714       0.10714286       0.00000000 </v>
   <v>       0.17857143       0.10714286       0.00000000 </v>
   <v>       0.21428571       0.10714286       0.00000000 </v>
   <v>       0.25000000       0.10714286       0.00000000 </v>
   <v>       0.28571429       0.10714286       0.00000000 </v>
   <v>       0.32142857       0.10714286       0.00000000 </v>
   <v>       0.35714286       0.10714286       0.00000000 </v>
   <v>       0.39285714       0.10714286       0.00000000 </v>
   <v>       0.42857143       0.10714286       0.00000000 </v>
   <v>       0.46428571       0.10714286       0.00000000 </v>
   <v>       0.50000000       0.10714286       0.00000000 </v>
   <v>      -0.46428571       0.10714286       0.00000000 </v>
   <v>      -0.42857143       0.10714286       0.00000000 </v>
   <v>      -0.39285714       0.10714286       0.00000000 </v>
   <v>      -0.35714286       0.10714286       0.00000000 </v>
   <v>      -0.32142857       0.10714286       0.00000000 </v>
   <v>      -0.28571429       0.10714286       0.00000000 </v>
   <v>      -0.25000000       0.10714286       0.00000000 </v>
   <v>      -0.21428571       0.10714286       0.00000000 </v>
   <v>       0.00000000       0.14285714       0.00000000 </v>
   <v>       0.03571429       0.14285714       0.00000000 </v>
   <v>       0.07142857       0.14285714       0.00000000 </v>
   <v>       0.10714286       0.14285714       0.00000000 </v>
   <v>       0.14285714       0.14285714       0.00000000 </v>
   <v>       0.17857143       0.14285714       0.00000000 </v>
   <v>       0.21428571       0.14285714       0.00000000 </v>
   <v>       0.25000000       0.14285714       0.00000000 </v>
   <v>       0.28571429       0.14285714       0.00000000 </v>
   <v>       0.32142857       0.14285714       0.00000000 </v>
   <v>       0.35714286       0.14285714       0.00000000 </v>
   <v>       0.39285714       0.14285714       0.00000000 </v>
   <v>       0.42857143       0.14285714       0.00000000 </v>
   <v>       0.46428571       0.14285714       0.00000000 </v>
   <v>       0.50000000       0.14285714       0.00000000 </v>
   <v>      -0.46428571       0.14285714       0.00000000 </v>
   <v>      -0.42857143       0.14285714       0.00000000 </v>
   <v>      -0.39285714       0.14285714       0.00000000 </v>
   <v>      -0.35714286       0.14285714       0.00000000 </v>
   <v>      -0.32142857       0.14285714       0.00000000 </v>
   <v>      -0.28571429       0.14285714       0.00000000 </v>
   <v>       0.00000000       0.17857143       0.00000000 </v>
   <v>       0.03571429       0.17857143       0.00000000 </v>
   <v>       0.07142857       0.17857143       0.00000000 </v>
   <v>       0.10714286       0.17857143       0.00000000 </v>
   <v>       0.14285714       0.17857143       0.00000000 </v>
   <v>       0.17857143       0.17857143       0.00000000 </v>
   <v>       0.21428571       0.17857143       0.00000000 </v>
   <v>       0.25000000       0.17857143       0.00000000 </v>
   <v>       0.28571429       0.17857143       0.00000000 </v>
   <v>       0.32142857       0.17857143       0.00000000 </v>
   <v>       0.35714286       0.17857143       0.00000000 </v>
   <v>       0.39285714       0.17857143       0.00000000 </v>
   <v>       0.42857143       0.17857143       0.00000000 </v>
   <v>       0.46428571       0.17857143       0.00000000 </v>
   <v>       0.50000000       0.17857143       0.00000000 </v>
   <v>      -0.46428571       0.17857143       0.00000000 </v>
   <v>      -0.42857143       0.17857143       0.00000000 </v>
   <v>      -0.39285714       0.17857143       0.00000000 </v>
   <v>      -0.35714286       0.17857143       0.00000000 </v>
   <v>       0.00000000       0.21428571       0.00000000 </v>
   <v>       0.03571429       0.21428571       0.00000000 </v>
   <v>       0.07142857       0.21428571       0.00000000 </v>
   <v>       0.10714286       0.21428571       0.00000000 </v>
   <v>       0.14285714       0.21428571       0.00000000 </v>
   <v>       0.17857143       0.21428571       0.00000000 </v>
   <v>       0.21428571       0.21428571       0.00000000 </v>
   <v>       0.25000000       0.21428571       0.00000000 </v>
   <v>       0.28571429       0.21428571       0.00000000 </v>
   <v>       0.32142857       0.21428571       0.00000000 </v>
   <v>       0.35714286       0.21428571       0.00000000 </v>
   <v>       0.39285714       0.21428571       0.00000000 </v>
   <v>       0.42857143       0.21428571       0.00000000 </v>
   <v>       0.46428571       0.21428571       0.00000000 </v>
   <v>       0.50000000       0.21428571       0.00000000 </v>
   <v>      -0.46428571       0.21428571       0.00000000 </v>
   <v>      -0.42857143       0.21428571       0.00000000 </v>
   <v>       0.00000000       0.25000000       0.00000000 </v>
   <v>       0.03571429       0.25000000       0.00000000 </v>
   <v>       0.07142857       0.25000000       0.00000000 </v>
   <v>       0.10714286       0.25000000       0.00000000 </v>
   <v>       0.14285714       0.25000000       0.00000000 </v>
   <v>       0.17857143       0.25000000       0.00000000 </v>
   <v>       0.21428571       0.25000000       0.00000000 </v>
   <v>       0.25000000       0.25000000       0.00000000 </v>
   <v>       0.28571429       0.25000000       0.00000000 </v>
   <v>       0.32142857       0.25000000       0.00000000 </v>
   <v>       0.35714286       0.25000000       0.00000000 </v>
   <v>       0.39285714       0.25000000       0.00000000 </v>
   <v>       0.42857143       0.25000000       0.00000000 </v>
   <v>       0.46428571       0.25000000       0.00000000 </v>
   <v>       0.50000000       0.25000000       0.00000000 </v>
   <v>       0.00000000       0.28571429       0.00000000 </v>
   <v>       0.03571429       0.28571429       0.00000000 </v>
   <v>       0.07142857       0.28571429       0.00000000 </v>
   <v>       0.10714286       0.28571429       0.00000000 </v>
   <v>       0.14285714       0.28571429       0.00000000 </v>
   <v>       0.17857143       0.28571429       0.00000000 </v>
   <v>       0.21428571       0.28571429       0.00000000 </v>
   <v>       0.25000000       0.28571429       0.00000000 </v>
   <v>       0.28571429       0.28571429       0.00000000 </v>
   <v>       0.32142857       0.28571429       0.00000000 </v>
   <v>       0.35714286       0.28571429       0.00000000 </v>
   <v>       0.39285714       0.28571429       0.00000000 </v>
   <v>       0.42857143       0.28571429       0.00000000 </v>
   <v>       0.00000000       0.32142857       0.00000000 </v>
   <v>       0.03571429       0.32142857       0.00000000 </v>
   <v>       0.07142857       0.32142857       0.00000000 </v>
   <v>       0.10714286       0.32142857       0.00000000 </v>
   <v>       0.14285714       0.32142857       0.00000000 </v>
   <v>       0.17857143       0.32142857       0.00000000 </v>
   <v>       0.21428571       0.32142857       0.00000000 </v>
   <v>       0.25000000       0.32142857       0.00000000 </v>
   <v>       0.28571429       0.32142857       0.00000000 </v>
   <v>       0.32142857       0.32142857       0.00000000 </v>
   <v>       0.35714286       0.32142857       0.00000000 </v>
   <v>       0.00000000       0.35714286       0.00000000 </v>
   <v>       0.03571429       0.35714286       0.00000000 </v>
   <v>       0.07142857       0.35714286       0.00000000 </v>
   <v>       0.10714286       0.35714286       0.00000000 </v>
   <v>       0.14285714       0.35714286       0.00000000 </v>
   <v>       0.17857143       0.35714286       0.00000000 </v>
   <v>       0.21428571       0.35714286       0.00000000 </v>
   <v>       0.25000000       0.35714286       0.00000000 </v>
   <v>       0.28571429       0.35714286       0.00000000 </v>
   <v>       0.00000000       0.39285714       0.00000000 </v>
   <v>       0.03571429       0.39285714       0.00000000 </v>
   <v>       0.07142857       0.39285714       0.00000000 </v>
   <v>       0.10714286       0.39285714       0.00000000 </v>
   <v>       0.14285714       0.39285714       0.00000000 </v>
   <v>       0.17857143       0.39285714       0.00000000 </v>
   <v>       0.21428571       0.39285714       0.00000000 </v>
   <v>       0.00000000       0.42857143       0.00000000 </v>
   <v>       0.03571429       0.42857143       0.00000000 </v>
   <v>       0.07142857       0.42857143       0.00000000 </v>
   <v>       0.10714286       0.42857143       0.00000000 </v>
   <v>       0.14285714       0.42857143       0.00000000 </v>
   <v>       0.00000000       0.46428571       0.00000000 </v>
   <v>       0.03571429       0.46428571       0.00000000 </v>
   <v>       0.07142857       0.46428571       0.00000000 </v>
   <v>       0.00000000       0.50000000       0.00000000 </v>
   <v>       0.00000000       0.00000000       0.14285714 </v>
   <v>       0.03571429       0.00000000       0.14285714 </v>
   <v>       0.07142857       0.00000000       0.14285714 </v>
   <v>       0.10714286       0.00000000       0.14285714 </v>
   <v>       0.14285714       0.00000000       0.14285714 </v>
   <v>       0.17857143       0.00000000       0.14285714 </v>
   <v>       0.21428571       0.00000000       0.14285714 </v>
   <v>       0.25000000       0.00000000       0.14285714 </v>
   <v>       0.28571429       0.00000000       0.14285714 </v>
   <v>       0.32142857       0.00000000       0.14285714 </v>
   <v>       0.35714286       0.00000000       0.14285714 </v>
   <v>       0.39285714       0.00000000       0.14285714 </v>
   <v>       0.42857143       0.00000000       0.14285714 </v>
   <v>       0.46428571       0.00000000       0.14285714 </v>
   <v>       0.50000000       0.00000000       0.14285714 </v>
   <v>      -0.46428571       0.00000000       0.14285714 </v>
   <v>      -0.42857143       0.00000000       0.14285714 </v>
   <v>      -0.39285714       0.00000000       0.14285714 </v>
   <v>      -0.35714286       0.00000000       0.14285714 </v>
   <v>      -0.32142857       0.00000000       0.14285714 </v>
   <v>      -0.28571429       0.00000000       0.14285714 </v>
   <v>      -0.25000000       0.00000000       0.14285714 </v>
   <v>      -0.21428571       0.00000000       0.14285714 </v>
   <v>      -0.17857143       0.00000000       0.14285714 </v>
   <v>      -0.10714286       0.00000000       0.14285714 </v>
   <v>      -0.07142857       0.00000000       0.14285714 </v>
   <v>      -0.03571429       0.00000000       0.14285714 </v>
   <v>       0.00000000       0.03571429       0.14285714 </v>
   <v>       0.03571429       0.03571429       0.14285714 </v>
   <v>       0.07142857       0.03571429       0.14285714 </v>
   <v>       0.10714286       0.03571429       0.14285714 </v>
   <v>       0.14285714       0.03571429       0.14285714 </v>
   <v>       0.17857143       0.03571429       0.14285714 </v>
   <v>       0.21428571       0.03571429       0.14285714 </v>
   <v>       0.25000000       0.03571429       0.14285714 </v>
   <v>       0.28571429       0.03571429       0.14285714 </v>
   <v>       0.32142857       0.03571429       0.14285714 </v>
   <v>       0.35714286       0.03571429       0.14285714 </v>
   <v>       0.39285714       0.03571429       0.14285714 </v>
   <v>       0.42857143       0.03571429       0.14285714 </v>
   <v>       0.46428571       0.03571429       0.14285714 </v>
   <v>       0.50000000       0.03571429       0.14285714 </v>
   <v>      -0.46428571       0.03571429       0.14285714 </v>
   <v>      -0.42857143       0.03571429       0.14285714 </v>
   <v>      -0.39285714       0.03571429       0.14285714 </v>
   <v>      -0.35714286       0.03571429       0.14285714 </v>
   <v>      -0.32142857       0.03571429       0.14285714 </v>
   <v>      -0.28571429       0.03571429       0.14285714 </v>
   <v>      -0.25000000       0.03571429       0.14285714 </v>
   <v>      -0.21428571       0.03571429       0.14285714 </v>
   <v>      -0.14285714       0.03571429       0.14285714 </v>
   <v>      -0.10714286       0.03571429       0.14285714 </v>
   <v>      -0.07142857       0.03571429       0.14285714 </v>
   <v>       0.00000000       0.07142857       0.14285714 </v>
   <v>       0.03571429       0.07142857       0.14285714 </v>
   <v>       0.07142857       0.07142857       0.14285714 </v>
   <v>       0.10714286       0.07142857       0.14285714 </v>
   <v>       0.14285714       0.07142857       0.14285714 </v>
   <v>       0.17857143       0.07142857       0.14285714 </v>
   <v>       0.21428571       0.07142857       0.14285714 </v>
   <v>       0.25000000       0.07142857       0.14285714 </v>
   <v>       0.28571429       0.07142857       0.14285714 </v>
   <v>       0.32142857       0.07142857       0.14285714 </v>
   <v>       0.35714286       0.07142857       0.14285714 </v>
   <v>       0.39285714       0.07142857       0.14285714 </v>
   <v>       0.42857143       0.07142857       0.14285714 </v>
   <v>       0.46428571       0.07142857       0.14285714 </v>
   <v>       0.50000000       0.07142857       0.14285714 </v>
   <v>      -0.46428571       0.07142857       0.14285714 </v>
   <v>      -0.42857143       0.07142857       0.14285714 </v>
   <v>      -0.39285714       0.07142857       0.14285714 </v>
   <v>      -0.35714286       0.07142857       0.14285714 </v>
   <v>      -0.32142857       0.07142857       0.14285714 </v>
   <v>      -0.28571429       0.07142857       0.14285714 </v>
   <v>      -0.25000000       0.07142857       0.14285714 </v>
   <v>      -0.17857143       0.07142857       0.14285714 </v>
   <v>      -0.14285714       0.07142857       0.14285714 </v>
   <v>      -0.10714286       0.07142857       0.14285714 </v>
   <v>       0.00000000       0.10714286       0.14285714 </v>
   <v>       0.03571429       0.10714286       0.14285714 </v>
   <v>       0.07142857       0.10714286       0.14285714 </v>
   <v>       0.10714286       0.10714286       0.14285714 </v>
   <v>       0.14285714       0.10714286       0.14285714 </v>
   <v>       0.17857143       0.10714286       0.14285714 </v>
   <v>       0.21428571       0.10714286       0.14285714 </v>
   <v>       0.25000000       0.10714286       0.14285714 </v>
   <v>       0.28571429       0.10714286       0.14285714 </v>
   <v>       0.32142857       0.10714286       0.14285714 </v>
   <v>       0.35714286       0.10714286       0.14285714 </v>
   <v>       0.39285714       0.10714286       0.14285714 </v>
   <v>       0.42857143       0.10714286       0.14285714 </v>
   <v>       0.46428571       0.10714286       0.14285714 </v>
   <v>       0.50000000       0.10714286       0.14285714 </v>
   <v>      -0.46428571       0.10714286       0.14285714 </v>
   <v>      -0.42857143       0.10714286       0.14285714 </v>
   <v>      -0.39285714       0.10714286       0.14285714 </v>
   <v>      -0.35714286       0.10714286       0.14285714 </v>
   <v>      -0.32142857       0.10714286       0.14285714 </v>
   <v>      -0.28571429       0.10714286       0.14285714 </v>
   <v>      -0.21428571       0.10714286       0.14285714 </v>
   <v>      -0.17857143       0.10714286       0.14285714 </v>
   <v>      -0.14285714       0.10714286       0.14285714 </v>
   <v>       0.00000000       0.14285714       0.14285714 </v>
   <v>       0.03571429       0.14285714       0.14285714 </v>
   <v>       0.07142857       0.14285714       0.14285714 </v>
   <v>       0.10714286       0.14285714       0.14285714 </v>
   <v>       0.14285714       0.14285714       0.14285714 </v>
   <v>       0.17857143       0.14285714       0.14285714 </v>
   <v>       0.21428571       0.14285714       0.14285714 </v>
   <v>       0.25000000       0.14285714       0.14285714 </v>
   <v>       0.28571429       0.14285714       0.14285714 </v>
   <v>       0.32142857       0.14285714       0.14285714 </v>
   <v>       0.35714286       0.14285714       0.14285714 </v>
   <v>       0.39285714       0.14285714       0.14285714 </v>
   <v>       0.42857143       0.14285714       0.14285714 </v>
   <v>       0.46428571       0.14285714       0.14285714 </v>
   <v>       0.50000000       0.14285714       0.14285714 </v>
   <v>      -0.46428571       0.14285714       0.14285714 </v>
   <v>      -0.42857143       0.14285714       0.14285714 </v>
   <v>      -0.39285714       0.14285714       0.14285714 </v>
   <v>      -0.35714286       0.14285714       0.14285714 </v>
   <v>      -0.32142857       0.14285714       0.14285714 </v>
   <v>      -0.25000000       0.14285714       0.14285714 </v>
   <v>      -0.21428571       0.14285714       0.14285714 </v>
   <v>      -0.17857143       0.14285714       0.14285714 </v>
   <v>       0.00000000       0.17857143       0.14285714 </v>
   <v>       0.03571429       0.17857143       0.14285714 </v>
   <v>       0.07142857       0.17857143       0.14285714 </v>
   <v>       0.10714286       0.17857143       0.14285714 </v>
   <v>       0.14285714       0.17857143       0.14285714 </v>
   <v>       0.17857143       0.17857143       0.14285714 </v>
   <v>       0.21428571       0.17857143       0.14285714 </v>
   <v>       0.25000000       0.17857143       0.14285714 </v>
   <v>       0.28571429       0.17857143       0.14285714 </v>
   <v>       0.32142857       0.17857143       0.14285714 </v>
   <v>       0.35714286       0.17857143       0.14285714 </v>
   <v>       0.39285714       0.17857143       0.14285714 </v>
   <v>       0.42857143       0.17857143       0.14285714 </v>
   <v>       0.46428571       0.17857143       0.14285714 </v>
   <v>       0.50000000       0.17857143       0.14285714 </v>
   <v>      -0.46428571       0.17857143       0.14285714 </v>
   <v>      -0.42857143       0.17857143       0.14285714 </v>
   <v>      -0.39285714       0.17857143       0.14285714 </v>
   <v>      -0.35714286       0.17857143       0.14285714 </v>
   <v>      -0.28571429       0.17857143       0.14285714 </v>
   <v>      -0.25000000       0.17857143       0.14285714 </v>
   <v>      -0.21428571       0.17857143       0.14285714 </v>
   <v>       0.00000000       0.21428571       0.14285714 </v>
   <v>       0.03571429       0.21428571       0.14285714 </v>
   <v>       0.07142857       0.21428571       0.14285714 </v>
   <v>       0.10714286       0.21428571       0.14285714 </v>
   <v>       0.14285714       0.21428571       0.14285714 </v>
   <v>       0.17857143       0.21428571       0.14285714 </v>
   <v>       0.21428571       0.21428571       0.14285714 </v>
   <v>       0.25000000       0.21428571       0.14285714 </v>
   <v>       0.28571429       0.21428571       0.14285714 </v>
   <v>       0.32142857       0.21428571       0.14285714 </v>
   <v>       0.35714286       0.21428571       0.14285714 </v>
   <v>       0.39285714       0.21428571       0.14285714 </v>
   <v>       0.42857143       0.21428571       0.14285714 </v>
   <v>       0.46428571       0.21428571       0.14285714 </v>
   <v>       0.50000000       0.21428571       0.14285714 </v>
   <v>      -0.46428571       0.21428571       0.14285714 </v>
   <v>      -0.42857143       0.21428571       0.14285714 </v>
   <v>      -0.39285714       0.21428571       0.14285714 </v>
   <v>      -0.32142857       0.21428571       0.14285714 </v>
   <v>      -0.28571429       0.21428571       0.14285714 </v>
   <v>      -0.25000000       0.21428571       0.14285714 </v>
   <v>       0.00000000       0.25000000       0.14285714 </v>
   <v>       0.03571429       0.25000000       0.14285714 </v>
   <v>       0.07142857       0.25000000       0.14285714 </v>
   <v>       0.10714286       0.25000000       0.14285714 </v>
   <v>       0.14285714       0.25000000       0.14285714 </v>
   <v>       0.17857143       0.25000000       0.14285714 </v>
   <v>       0.21428571       0.25000000       0.14285714 </v>
   <v>       0.25000000       0.25000000       0.14285714 </v>
   <v>       0.28571429       0.25000000       0.14285714 </v>
   <v>       0.32142857       0.25000000       0.14285714 </v>
   <v>       0.35714286       0.25000000       0.14285714 </v>
   <v>       0.39285714       0.25000000       0.14285714 </v>
   <v>       0.42857143       0.25000000       0.14285714 </v>
   <v>       0.46428571       0.25000000       0.14285714 </v>
   <v>       0.50000000       0.25000000       0.14285714 </v>
   <v>      -0.46428571       0.25000000       0.14285714 </v>
   <v>      -0.42857143       0.25000000       0.14285714 </v>
   <v>      -0.35714286       0.25000000       0.14285714 </v>
   <v>      -0.32142857       0.25000000       0.14285714 </v>
   <v>      -0.28571429       0.25000000       0.14285714 </v>
   <v>       0.00000000       0.28571429       0.14285714 </v>
   <v>       0.03571429       0.28571429       0.14285714 </v>
   <v>       0.07142857       0.28571429       0.14285714 </v>
   <v>       0.10714286       0.28571429       0.14285714 </v>
   <v>       0.14285714       0.28571429       0.14285714 </v>
   <v>       0.17857143       0.28571429       0.14285714 </v>
   <v>       0.21428571       0.28571429       0.14285714 </v>
   <v>       0.25000000       0.28571429       0.14285714 </v>
   <v>       0.28571429       0.28571429       0.14285714 </v>
   <v>       0.32142857       0.28571429       0.14285714 </v>
   <v>       0.35714286       0.28571429       0.14285714 </v>
   <v>       0.39285714       0.28571429       0.14285714 </v>
   <v>       0.42857143       0.28571429       0.14285714 </v>
   <v>       0.46428571       0.28571429       0.14285714 </v>
   <v>       0.50000000       0.28571429       0.14285714 </v>
   <v>      -0.46428571       0.28571429       0.14285714 </v>
   <v>      -0.39285714       0.28571429       0.14285714 </v>
   <v>      -0.35714286       0.28571429       0.14285714 </v>
   <v>      -0.32142857       0.28571429       0.14285714 </v>
   <v>       0.00000000       0.32142857       0.14285714 </v>
   <v>       0.03571429       0.32142857       0.14285714 </v>
   <v>       0.07142857       0.32142857       0.14285714 </v>
   <v>       0.10714286       0.32142857       0.14285714 </v>
   <v>       0.14285714       0.32142857       0.14285714 </v>
   <v>       0.17857143       0.32142857       0.14285714 </v>
   <v>       0.21428571       0.32142857       0.14285714 </v>
   <v>       0.25000000       0.32142857       0.14285714 </v>
   <v>       0.28571429       0.32142857       0.14285714 </v>
   <v>       0.32142857       0.32142857       0.14285714 </v>
   <v>       0.35714286       0.32142857       0.14285714 </v>
   <v>       0.39285714       0.32142857       0.14285714 </v>
   <v>       0.42857143       0.32142857       0.14285714 </v>
   <v>       0.46428571       0.32142857       0.14285714 </v>
   <v>       0.50000000       0.32142857       0.14285714 </v>
   <v>      -0.42857143       0.32142857       0.14285714 </v>
   <v>      -0.39285714       0.32142857       0.14285714 </v>
   <v>      -0.35714286       0.32142857       0.14285714 </v>
   <v>       0.00000000       0.35714286       0.14285714 </v>
   <v>       0.03571429       0.35714286       0.14285714 </v>
   <v>       0.07142857       0.35714286       0.14285714 </v>
   <v>       0.10714286       0.35714286       0.14285714 </v>
   <v>       0.14285714       0.35714286       0.14285714 </v>
   <v>       0.17857143       0.35714286       0.14285714 </v>
   <v>       0.21428571       0.35714286       0.14285714 </v>
   <v>       0.25000000       0.35714286       0.14285714 </v>
   <v>       0.28571429       0.35714286       0.14285714 </v>
   <v>       0.32142857       0.35714286       0.14285714 </v>
   <v>       0.35714286       0.35714286       0.14285714 </v>
   <v>       0.39285714       0.35714286       0.14285714 </v>
   <v>       0.42857143       0.35714286       0.14285714 </v>
   <v>       0.46428571       0.35714286       0.14285714 </v>
   <v>      -0.46428571       0.35714286       0.14285714 </v>
   <v>      -0.42857143       0.35714286       0.14285714 </v>
   <v>      -0.39285714       0.35714286       0.14285714 </v>
   <v>       0.00000000       0.39285714       0.14285714 </v>
   <v>       0.03571429       0.39285714       0.14285714 </v>
   <v>       0.07142857       0.39285714       0.14285714 </v>
   <v>       0.10714286       0.39285714       0.14285714 </v>
   <v>       0.14285714       0.39285714       0.14285714 </v>
   <v>       0.17857143       0.39285714       0.14285714 </v>
   <v>       0.21428571       0.39285714       0.14285714 </v>
   <v>       0.25000000       0.39285714       0.14285714 </v>
   <v>       0.28571429       0.39285714       0.14285714 </v>
   <v>       0.35714286       0.39285714       0.14285714 </v>
   <v>       0.39285714       0.39285714       0.14285714 </v>
   <v>       0.42857143       0.39285714       0.14285714 </v>
   <v>       0.50000000       0.39285714       0.14285714 </v>
   <v>      -0.46428571       0.39285714       0.14285714 </v>
   <v>      -0.42857143       0.39285714       0.14285714 </v>
   <v>       0.00000000       0.42857143       0.14285714 </v>
   <v>       0.03571429       0.42857143       0.14285714 </v>
   <v>       0.07142857       0.42857143       0.14285714 </v>
   <v>       0.10714286       0.42857143       0.14285714 </v>
   <v>       0.14285714       0.42857143       0.14285714 </v>
   <v>       0.17857143       0.42857143       0.14285714 </v>
   <v>       0.21428571       0.42857143       0.14285714 </v>
   <v>       0.25000000       0.42857143       0.14285714 </v>
   <v>       0.32142857       0.42857143       0.14285714 </v>
   <v>       0.35714286       0.42857143       0.14285714 </v>
   <v>       0.39285714       0.42857143       0.14285714 </v>
   <v>       0.46428571       0.42857143       0.14285714 </v>
   <v>       0.50000000       0.42857143       0.14285714 </v>
   <v>      -0.46428571       0.42857143       0.14285714 </v>
   <v>       0.00000000       0.46428571       0.14285714 </v>
   <v>       0.03571429       0.46428571       0.14285714 </v>
   <v>       0.07142857       0.46428571       0.14285714 </v>
   <v>       0.10714286       0.46428571       0.14285714 </v>
   <v>       0.14285714       0.46428571       0.14285714 </v>
   <v>       0.17857143       0.46428571       0.14285714 </v>
   <v>       0.21428571       0.46428571       0.14285714 </v>
   <v>       0.28571429       0.46428571       0.14285714 </v>
   <v>       0.32142857       0.46428571       0.14285714 </v>
   <v>       0.35714286       0.46428571       0.14285714 </v>
   <v>       0.42857143       0.46428571       0.14285714 </v>
   <v>       0.46428571       0.46428571       0.14285714 </v>
   <v>       0.50000000       0.46428571       0.14285714 </v>
   <v>       0.00000000       0.50000000       0.14285714 </v>
   <v>       0.03571429       0.50000000       0.14285714 </v>
   <v>       0.07142857       0.50000000       0.14285714 </v>
   <v>       0.10714286       0.50000000       0.14285714 </v>
   <v>       0.14285714       0.50000000       0.14285714 </v>
   <v>       0.17857143       0.50000000       0.14285714 </v>
   <v>       0.25000000       0.50000000       0.14285714 </v>
   <v>       0.28571429       0.50000000       0.14285714 </v>
   <v>       0.32142857       0.50000000       0.14285714 </v>
   <v>       0.39285714       0.50000000       0.14285714 </v>
   <v>       0.42857143       0.50000000       0.14285714 </v>
   <v>       0.46428571       0.50000000       0.14285714 </v>
   <v>       0.00000000      -0.46428571       0.14285714 </v>
   <v>       0.03571429      -0.46428571       0.14285714 </v>
   <v>       0.07142857      -0.46428571       0.14285714 </v>
   <v>       0.10714286      -0.46428571       0.14285714 </v>
   <v>       0.14285714      -0.46428571       0.14285714 </v>
   <v>       0.21428571      -0.46428571       0.14285714 </v>
   <v>       0.25000000      -0.46428571       0.14285714 </v>
   <v>       0.28571429      -0.46428571       0.14285714 </v>
   <v>       0.35714286      -0.46428571       0.14285714 </v>
   <v>       0.39285714      -0.46428571       0.14285714 </v>
   <v>       0.42857143      -0.46428571       0.14285714 </v>
   <v>       0.00000000      -0.42857143       0.14285714 </v>
   <v>       0.03571429      -0.42857143       0.14285714 </v>
   <v>       0.07142857      -0.42857143       0.14285714 </v>
   <v>       0.10714286      -0.42857143       0.14285714 </v>
   <v>       0.17857143      -0.42857143       0.14285714 </v>
   <v>       0.21428571      -0.42857143       0.14285714 </v>
   <v>       0.25000000      -0.42857143       0.14285714 </v>
   <v>       0.32142857      -0.42857143       0.14285714 </v>
   <v>       0.35714286      -0.42857143       0.14285714 </v>
   <v>       0.39285714      -0.42857143       0.14285714 </v>
   <v>       0.00000000      -0.39285714       0.14285714 </v>
   <v>       0.03571429      -0.39285714       0.14285714 </v>
   <v>       0.07142857      -0.39285714       0.14285714 </v>
   <v>       0.14285714      -0.39285714       0.14285714 </v>
   <v>       0.17857143      -0.39285714       0.14285714 </v>
   <v>       0.21428571      -0.39285714       0.14285714 </v>
   <v>       0.28571429      -0.39285714       0.14285714 </v>
   <v>       0.32142857      -0.39285714       0.14285714 </v>
   <v>       0.35714286      -0.39285714       0.14285714 </v>
   <v>       0.00000000      -0.35714286       0.14285714 </v>
   <v>       0.03571429      -0.35714286       0.14285714 </v>
   <v>       0.10714286      -0.35714286       0.14285714 </v>
   <v>       0.14285714      -0.35714286       0.14285714 </v>
   <v>       0.17857143      -0.35714286       0.14285714 </v>
   <v>       0.25000000      -0.35714286       0.14285714 </v>
   <v>       0.28571429      -0.35714286       0.14285714 </v>
   <v>       0.32142857      -0.35714286       0.14285714 </v>
   <v>       0.00000000      -0.32142857       0.14285714 </v>
   <v>       0.07142857      -0.32142857       0.14285714 </v>
   <v>       0.10714286      -0.32142857       0.14285714 </v>
   <v>       0.14285714      -0.32142857       0.14285714 </v>
   <v>       0.21428571      -0.32142857       0.14285714 </v>
   <v>       0.25000000      -0.32142857       0.14285714 </v>
   <v>       0.28571429      -0.32142857       0.14285714 </v>
   <v>       0.03571429      -0.28571429       0.14285714 </v>
   <v>       0.07142857      -0.28571429       0.14285714 </v>
   <v>       0.10714286      -0.28571429       0.14285714 </v>
   <v>       0.00000000      -0.25000000       0.14285714 </v>
   <v>       0.03571429      -0.25000000       0.14285714 </v>
   <v>       0.07142857      -0.25000000       0.14285714 </v>
   <v>       0.14285714      -0.25000000       0.14285714 </v>
   <v>       0.17857143      -0.25000000       0.14285714 </v>
   <v>       0.21428571      -0.25000000       0.14285714 </v>
   <v>       0.00000000      -0.21428571       0.14285714 </v>
   <v>       0.03571429      -0.21428571       0.14285714 </v>
   <v>       0.10714286      -0.21428571       0.14285714 </v>
   <v>       0.14285714      -0.21428571       0.14285714 </v>
   <v>       0.17857143      -0.21428571       0.14285714 </v>
   <v>       0.00000000      -0.17857143       0.14285714 </v>
   <v>       0.07142857      -0.17857143       0.14285714 </v>
   <v>       0.10714286      -0.17857143       0.14285714 </v>
   <v>       0.14285714      -0.17857143       0.14285714 </v>
   <v>       0.00000000      -0.10714286       0.14285714 </v>
   <v>       0.03571429      -0.10714286       0.14285714 </v>
   <v>       0.07142857      -0.10714286       0.14285714 </v>
   <v>       0.00000000      -0.07142857       0.14285714 </v>
   <v>       0.03571429      -0.07142857       0.14285714 </v>
   <v>       0.00000000      -0.03571429       0.14285714 </v>
   <v>       0.00000000       0.00000000       0.28571429 </v>
   <v>       0.03571429       0.00000000       0.28571429 </v>
   <v>       0.07142857       0.00000000       0.28571429 </v>
   <v>       0.10714286       0.00000000       0.28571429 </v>
   <v>       0.14285714       0.00000000       0.28571429 </v>
   <v>       0.17857143       0.00000000       0.28571429 </v>
   <v>       0.21428571       0.00000000       0.28571429 </v>
   <v>       0.25000000       0.00000000       0.28571429 </v>
   <v>       0.28571429       0.00000000       0.28571429 </v>
   <v>       0.32142857       0.00000000       0.28571429 </v>
   <v>       0.35714286       0.00000000       0.28571429 </v>
   <v>       0.39285714       0.00000000       0.28571429 </v>
   <v>       0.42857143       0.00000000       0.28571429 </v>
   <v>       0.46428571       0.00000000       0.28571429 </v>
   <v>       0.50000000       0.00000000       0.28571429 </v>
   <v>      -0.46428571       0.00000000       0.28571429 </v>
   <v>      -0.39285714       0.00000000       0.28571429 </v>
   <v>      -0.35714286       0.00000000       0.28571429 </v>
   <v>      -0.32142857       0.00000000       0.28571429 </v>
   <v>      -0.25000000       0.00000000       0.28571429 </v>
   <v>      -0.21428571       0.00000000       0.28571429 </v>
   <v>      -0.17857143       0.00000000       0.28571429 </v>
   <v>      -0.10714286       0.00000000       0.28571429 </v>
   <v>      -0.07142857       0.00000000       0.28571429 </v>
   <v>      -0.03571429       0.00000000       0.28571429 </v>
   <v>       0.00000000       0.03571429       0.28571429 </v>
   <v>       0.03571429       0.03571429       0.28571429 </v>
   <v>       0.07142857       0.03571429       0.28571429 </v>
   <v>       0.10714286       0.03571429       0.28571429 </v>
   <v>       0.14285714       0.03571429       0.28571429 </v>
   <v>       0.17857143       0.03571429       0.28571429 </v>
   <v>       0.21428571       0.03571429       0.28571429 </v>
   <v>       0.25000000       0.03571429       0.28571429 </v>
   <v>       0.28571429       0.03571429       0.28571429 </v>
   <v>       0.32142857       0.03571429       0.28571429 </v>
   <v>       0.35714286       0.03571429       0.28571429 </v>
   <v>       0.39285714       0.03571429       0.28571429 </v>
   <v>       0.42857143       0.03571429       0.28571429 </v>
   <v>       0.46428571       0.03571429       0.28571429 </v>
   <v>       0.50000000       0.03571429       0.28571429 </v>
   <v>      -0.42857143       0.03571429       0.28571429 </v>
   <v>      -0.39285714       0.03571429       0.28571429 </v>
   <v>      -0.35714286       0.03571429       0.28571429 </v>
   <v>      -0.28571429       0.03571429       0.28571429 </v>
   <v>      -0.25000000       0.03571429       0.28571429 </v>
   <v>      -0.21428571       0.03571429       0.28571429 </v>
   <v>      -0.14285714       0.03571429       0.28571429 </v>
   <v>      -0.10714286       0.03571429       0.28571429 </v>
   <v>      -0.07142857       0.03571429       0.28571429 </v>
   <v>       0.00000000       0.07142857       0.28571429 </v>
   <v>       0.03571429       0.07142857       0.28571429 </v>
   <v>       0.07142857       0.07142857       0.28571429 </v>
   <v>       0.10714286       0.07142857       0.28571429 </v>
   <v>       0.14285714       0.07142857       0.28571429 </v>
   <v>       0.17857143       0.07142857       0.28571429 </v>
   <v>       0.21428571       0.07142857       0.28571429 </v>
   <v>       0.25000000       0.07142857       0.28571429 </v>
   <v>       0.28571429       0.07142857       0.28571429 </v>
   <v>       0.32142857       0.07142857       0.28571429 </v>
   <v>       0.35714286       0.07142857       0.28571429 </v>
   <v>       0.39285714       0.07142857       0.28571429 </v>
   <v>       0.42857143       0.07142857       0.28571429 </v>
   <v>       0.46428571       0.07142857       0.28571429 </v>
   <v>      -0.46428571       0.07142857       0.28571429 </v>
   <v>      -0.42857143       0.07142857       0.28571429 </v>
   <v>      -0.39285714       0.07142857       0.28571429 </v>
   <v>      -0.32142857       0.07142857       0.28571429 </v>
   <v>      -0.28571429       0.07142857       0.28571429 </v>
   <v>      -0.25000000       0.07142857       0.28571429 </v>
   <v>      -0.17857143       0.07142857       0.28571429 </v>
   <v>      -0.14285714       0.07142857       0.28571429 </v>
   <v>      -0.10714286       0.07142857       0.28571429 </v>
   <v>       0.00000000       0.10714286       0.28571429 </v>
   <v>       0.03571429       0.10714286       0.28571429 </v>
   <v>       0.07142857       0.10714286       0.28571429 </v>
   <v>       0.10714286       0.10714286       0.28571429 </v>
   <v>       0.14285714       0.10714286       0.28571429 </v>
   <v>       0.17857143       0.10714286       0.28571429 </v>
   <v>       0.21428571       0.10714286       0.28571429 </v>
   <v>       0.25000000       0.10714286       0.28571429 </v>
   <v>       0.28571429       0.10714286       0.28571429 </v>
   <v>       0.32142857       0.10714286       0.28571429 </v>
   <v>       0.35714286       0.10714286       0.28571429 </v>
   <v>       0.39285714       0.10714286       0.28571429 </v>
   <v>       0.42857143       0.10714286       0.28571429 </v>
   <v>       0.50000000       0.10714286       0.28571429 </v>
   <v>      -0.46428571       0.10714286       0.28571429 </v>
   <v>      -0.42857143       0.10714286       0.28571429 </v>
   <v>      -0.35714286       0.10714286       0.28571429 </v>
   <v>      -0.32142857       0.10714286       0.28571429 </v>
   <v>      -0.28571429       0.10714286       0.28571429 </v>
   <v>      -0.21428571       0.10714286       0.28571429 </v>
   <v>      -0.17857143       0.10714286       0.28571429 </v>
   <v>      -0.14285714       0.10714286       0.28571429 </v>
   <v>       0.00000000       0.14285714       0.28571429 </v>
   <v>       0.03571429       0.14285714       0.28571429 </v>
   <v>       0.07142857       0.14285714       0.28571429 </v>
   <v>       0.10714286       0.14285714       0.28571429 </v>
   <v>       0.14285714       0.14285714       0.28571429 </v>
   <v>       0.17857143       0.14285714       0.28571429 </v>
   <v>       0.21428571       0.14285714       0.28571429 </v>
   <v>       0.25000000       0.14285714       0.28571429 </v>
   <v>       0.28571429       0.14285714       0.28571429 </v>
   <v>       0.32142857       0.14285714       0.28571429 </v>
   <v>       0.35714286       0.14285714       0.28571429 </v>
   <v>       0.39285714       0.14285714       0.28571429 </v>
   <v>       0.46428571       0.14285714       0.28571429 </v>
   <v>       0.50000000       0.14285714       0.28571429 </v>
   <v>      -0.46428571       0.14285714       0.28571429 </v>
   <v>      -0.39285714       0.14285714       0.28571429 </v>
   <v>      -0.35714286       0.14285714       0.28571429 </v>
   <v>      -0.32142857       0.14285714       0.28571429 </v>
   <v>      -0.25000000       0.14285714       0.28571429 </v>
   <v>      -0.21428571       0.14285714       0.28571429 </v>
   <v>      -0.17857143       0.14285714       0.28571429 </v>
   <v>       0.00000000       0.17857143       0.28571429 </v>
   <v>       0.03571429       0.17857143       0.28571429 </v>
   <v>       0.07142857       0.17857143       0.28571429 </v>
   <v>       0.10714286       0.17857143       0.28571429 </v>
   <v>       0.14285714       0.17857143       0.28571429 </v>
   <v>       0.17857143       0.17857143       0.28571429 </v>
   <v>       0.21428571       0.17857143       0.28571429 </v>
   <v>       0.25000000       0.17857143       0.28571429 </v>
   <v>       0.28571429       0.17857143       0.28571429 </v>
   <v>       0.32142857       0.17857143       0.28571429 </v>
   <v>       0.35714286       0.17857143       0.28571429 </v>
   <v>       0.42857143       0.17857143       0.28571429 </v>
   <v>       0.46428571       0.17857143       0.28571429 </v>
   <v>       0.50000000       0.17857143       0.28571429 </v>
   <v>      -0.42857143       0.17857143       0.28571429 </v>
   <v>      -0.39285714       0.17857143       0.28571429 </v>
   <v>      -0.35714286       0.17857143       0.28571429 </v>
   <v>      -0.28571429       0.17857143       0.28571429 </v>
   <v>      -0.25000000       0.17857143       0.28571429 </v>
   <v>      -0.21428571       0.17857143       0.28571429 </v>
   <v>       0.00000000       0.21428571       0.28571429 </v>
   <v>       0.03571429       0.21428571       0.28571429 </v>
   <v>       0.07142857       0.21428571       0.28571429 </v>
   <v>       0.10714286       0.21428571       0.28571429 </v>
   <v>       0.14285714       0.21428571       0.28571429 </v>
   <v>       0.17857143       0.21428571       0.28571429 </v>
   <v>       0.21428571       0.21428571       0.28571429 </v>
   <v>       0.25000000       0.21428571       0.28571429 </v>
   <v>       0.28571429       0.21428571       0.28571429 </v>
   <v>       0.32142857       0.21428571       0.28571429 </v>
   <v>       0.39285714       0.21428571       0.28571429 </v>
   <v>       0.42857143       0.21428571       0.28571429 </v>
   <v>       0.46428571       0.21428571       0.28571429 </v>
   <v>      -0.46428571       0.21428571       0.28571429 </v>
   <v>      -0.42857143       0.21428571       0.28571429 </v>
   <v>      -0.39285714       0.21428571       0.28571429 </v>
   <v>      -0.32142857       0.21428571       0.28571429 </v>
   <v>      -0.28571429       0.21428571       0.28571429 </v>
   <v>      -0.25000000       0.21428571       0.28571429 </v>
   <v>       0.00000000       0.25000000       0.28571429 </v>
   <v>       0.03571429       0.25000000       0.28571429 </v>
   <v>       0.07142857       0.25000000       0.28571429 </v>
   <v>       0.10714286       0.25000000       0.28571429 </v>
   <v>       0.14285714       0.25000000       0.28571429 </v>
   <v>       0.21428571       0.25000000       0.28571429 </v>
   <v>       0.25000000       0.25000000       0.28571429 </v>
   <v>       0.28571429       0.25000000       0.28571429 </v>
   <v>       0.35714286       0.25000000       0.28571429 </v>
   <v>       0.39285714       0.25000000       0.28571429 </v>
   <v>       0.42857143       0.25000000       0.28571429 </v>
   <v>       0.50000000       0.25000000       0.28571429 </v>
   <v>      -0.46428571       0.25000000       0.28571429 </v>
   <v>      -0.42857143       0.25000000       0.28571429 </v>
   <v>      -0.35714286       0.25000000       0.28571429 </v>
   <v>      -0.32142857       0.25000000       0.28571429 </v>
   <v>      -0.28571429       0.25000000       0.28571429 </v>
   <v>       0.00000000       0.28571429       0.28571429 </v>
   <v>       0.03571429       0.28571429       0.28571429 </v>
   <v>       0.07142857       0.28571429       0.28571429 </v>
   <v>       0.10714286       0.28571429       0.28571429 </v>
   <v>       0.17857143       0.28571429       0.28571429 </v>
   <v>       0.21428571       0.28571429       0.28571429 </v>
   <v>       0.25000000       0.28571429       0.28571429 </v>
   <v>       0.32142857       0.28571429       0.28571429 </v>
   <v>       0.35714286       0.28571429       0.28571429 </v>
   <v>       0.39285714       0.28571429       0.28571429 </v>
   <v>       0.46428571       0.28571429       0.28571429 </v>
   <v>       0.50000000       0.28571429       0.28571429 </v>
   <v>      -0.46428571       0.28571429       0.28571429 </v>
   <v>      -0.39285714       0.28571429       0.28571429 </v>
   <v>      -0.35714286       0.28571429       0.28571429 </v>
   <v>      -0.32142857       0.28571429       0.28571429 </v>
   <v>       0.00000000       0.32142857       0.28571429 </v>
   <v>       0.03571429       0.32142857       0.28571429 </v>
   <v>       0.07142857       0.32142857       0.28571429 </v>
   <v>       0.14285714       0.32142857       0.28571429 </v>
   <v>       0.17857143       0.32142857       0.28571429 </v>
   <v>       0.21428571       0.32142857       0.28571429 </v>
   <v>       0.28571429       0.32142857       0.28571429 </v>
   <v>       0.32142857       0.32142857       0.28571429 </v>
   <v>       0.35714286       0.32142857       0.28571429 </v>
   <v>       0.42857143       0.32142857       0.28571429 </v>
   <v>       0.46428571       0.32142857       0.28571429 </v>
   <v>       0.50000000       0.32142857       0.28571429 </v>
   <v>      -0.42857143       0.32142857       0.28571429 </v>
   <v>      -0.39285714       0.32142857       0.28571429 </v>
   <v>      -0.35714286       0.32142857       0.28571429 </v>
   <v>       0.00000000       0.35714286       0.28571429 </v>
   <v>       0.03571429       0.35714286       0.28571429 </v>
   <v>       0.10714286       0.35714286       0.28571429 </v>
   <v>       0.14285714       0.35714286       0.28571429 </v>
   <v>       0.17857143       0.35714286       0.28571429 </v>
   <v>       0.25000000       0.35714286       0.28571429 </v>
   <v>       0.28571429       0.35714286       0.28571429 </v>
   <v>       0.32142857       0.35714286       0.28571429 </v>
   <v>       0.39285714       0.35714286       0.28571429 </v>
   <v>       0.42857143       0.35714286       0.28571429 </v>
   <v>       0.46428571       0.35714286       0.28571429 </v>
   <v>      -0.46428571       0.35714286       0.28571429 </v>
   <v>      -0.42857143       0.35714286       0.28571429 </v>
   <v>      -0.39285714       0.35714286       0.28571429 </v>
   <v>       0.00000000       0.39285714       0.28571429 </v>
   <v>       0.07142857       0.39285714       0.28571429 </v>
   <v>       0.10714286       0.39285714       0.28571429 </v>
   <v>       0.14285714       0.39285714       0.28571429 </v>
   <v>       0.21428571       0.39285714       0.28571429 </v>
   <v>       0.25000000       0.39285714       0.28571429 </v>
   <v>       0.28571429       0.39285714       0.28571429 </v>
   <v>       0.35714286       0.39285714       0.28571429 </v>
   <v>       0.39285714       0.39285714       0.28571429 </v>
   <v>       0.42857143       0.39285714       0.28571429 </v>
   <v>       0.50000000       0.39285714       0.28571429 </v>
   <v>      -0.46428571       0.39285714       0.28571429 </v>
   <v>      -0.42857143       0.39285714       0.28571429 </v>
   <v>       0.03571429       0.42857143       0.28571429 </v>
   <v>       0.07142857       0.42857143       0.28571429 </v>
   <v>       0.10714286       0.42857143       0.28571429 </v>
   <v>       0.17857143       0.42857143       0.28571429 </v>
   <v>       0.21428571       0.42857143       0.28571429 </v>
   <v>       0.25000000       0.42857143       0.28571429 </v>
   <v>       0.00000000       0.46428571       0.28571429 </v>
   <v>       0.03571429       0.46428571       0.28571429 </v>
   <v>       0.07142857       0.46428571       0.28571429 </v>
   <v>       0.14285714       0.46428571       0.28571429 </v>
   <v>       0.17857143       0.46428571       0.28571429 </v>
   <v>       0.21428571       0.46428571       0.28571429 </v>
   <v>       0.28571429       0.46428571       0.28571429 </v>
   <v>       0.32142857       0.46428571       0.28571429 </v>
   <v>       0.35714286       0.46428571       0.28571429 </v>
   <v>       0.42857143       0.46428571       0.28571429 </v>
   <v>       0.46428571       0.46428571       0.28571429 </v>
   <v>       0.50000000       0.46428571       0.28571429 </v>
   <v>       0.00000000       0.50000000       0.28571429 </v>
   <v>       0.03571429       0.50000000       0.28571429 </v>
   <v>       0.10714286       0.50000000       0.28571429 </v>
   <v>       0.14285714       0.50000000       0.28571429 </v>
   <v>       0.17857143       0.50000000       0.28571429 </v>
   <v>       0.25000000       0.50000000       0.28571429 </v>
   <v>       0.28571429       0.50000000       0.28571429 </v>
   <v>       0.32142857       0.50000000       0.28571429 </v>
   <v>       0.39285714       0.50000000       0.28571429 </v>
   <v>       0.42857143       0.50000000       0.28571429 </v>
   <v>       0.46428571       0.50000000       0.28571429 </v>
   <v>       0.00000000      -0.46428571       0.28571429 </v>
   <v>       0.07142857      -0.46428571       0.28571429 </v>
   <v>       0.10714286      -0.46428571       0.28571429 </v>
   <v>       0.14285714      -0.46428571       0.28571429 </v>
   <v>       0.21428571      -0.46428571       0.28571429 </v>
   <v>       0.25000000      -0.46428571       0.28571429 </v>
   <v>       0.28571429      -0.46428571       0.28571429 </v>
   <v>       0.35714286      -0.46428571       0.28571429 </v>
   <v>       0.39285714      -0.46428571       0.28571429 </v>
   <v>       0.42857143      -0.46428571       0.28571429 </v>
   <v>       0.00000000      -0.39285714       0.28571429 </v>
   <v>       0.03571429      -0.39285714       0.28571429 </v>
   <v>       0.07142857      -0.39285714       0.28571429 </v>
   <v>       0.14285714      -0.39285714       0.28571429 </v>
   <v>       0.17857143      -0.39285714       0.28571429 </v>
   <v>       0.21428571      -0.39285714       0.28571429 </v>
   <v>       0.28571429      -0.39285714       0.28571429 </v>
   <v>       0.32142857      -0.39285714       0.28571429 </v>
   <v>       0.35714286      -0.39285714       0.28571429 </v>
   <v>       0.00000000      -0.35714286       0.28571429 </v>
   <v>       0.03571429      -0.35714286       0.28571429 </v>
   <v>       0.10714286      -0.35714286       0.28571429 </v>
   <v>       0.14285714      -0.35714286       0.28571429 </v>
   <v>       0.17857143      -0.35714286       0.28571429 </v>
   <v>       0.25000000      -0.35714286       0.28571429 </v>
   <v>       0.28571429      -0.35714286       0.28571429 </v>
   <v>       0.32142857      -0.35714286       0.28571429 </v>
   <v>       0.00000000      -0.32142857       0.28571429 </v>
   <v>       0.07142857      -0.32142857       0.28571429 </v>
   <v>       0.10714286      -0.32142857       0.28571429 </v>
   <v>       0.14285714      -0.32142857       0.28571429 </v>
   <v>       0.21428571      -0.32142857       0.28571429 </v>
   <v>       0.25000000      -0.32142857       0.28571429 </v>
   <v>       0.28571429      -0.32142857       0.28571429 </v>
   <v>       0.00000000      -0.25000000       0.28571429 </v>
   <v>       0.03571429      -0.25000000       0.28571429 </v>
   <v>       0.07142857      -0.25000000       0.28571429 </v>
   <v>       0.14285714      -0.25000000       0.28571429 </v>
   <v>       0.17857143      -0.25000000       0.28571429 </v>
   <v>       0.21428571      -0.25000000       0.28571429 </v>
   <v>       0.00000000      -0.21428571       0.28571429 </v>
   <v>       0.03571429      -0.21428571       0.28571429 </v>
   <v>       0.10714286      -0.21428571       0.28571429 </v>
   <v>       0.14285714      -0.21428571       0.28571429 </v>
   <v>       0.17857143      -0.21428571       0.28571429 </v>
   <v>       0.00000000      -0.17857143       0.28571429 </v>
   <v>       0.07142857      -0.17857143       0.28571429 </v>
   <v>       0.10714286      -0.17857143       0.28571429 </v>
   <v>       0.14285714      -0.17857143       0.28571429 </v>
   <v>       0.00000000      -0.10714286       0.28571429 </v>
   <v>       0.03571429      -0.10714286       0.28571429 </v>
   <v>       0.07142857      -0.10714286       0.28571429 </v>
   <v>       0.00000000      -0.07142857       0.28571429 </v>
   <v>       0.03571429      -0.07142857       0.28571429 </v>
   <v>       0.00000000      -0.03571429       0.28571429 </v>
   <v>       0.00000000       0.00000000       0.42857143 </v>
   <v>       0.03571429       0.00000000       0.42857143 </v>
   <v>       0.07142857       0.00000000       0.42857143 </v>
   <v>       0.10714286       0.00000000       0.42857143 </v>
   <v>       0.14285714       0.00000000       0.42857143 </v>
   <v>       0.17857143       0.00000000       0.42857143 </v>
   <v>       0.21428571       0.00000000       0.42857143 </v>
   <v>       0.25000000       0.00000000       0.42857143 </v>
   <v>       0.32142857       0.00000000       0.42857143 </v>
   <v>       0.35714286       0.00000000       0.42857143 </v>
   <v>       0.39285714       0.00000000       0.42857143 </v>
   <v>       0.46428571       0.00000000       0.42857143 </v>
   <v>       0.50000000       0.00000000       0.42857143 </v>
   <v>      -0.46428571       0.00000000       0.42857143 </v>
   <v>      -0.39285714       0.00000000       0.42857143 </v>
   <v>      -0.35714286       0.00000000       0.42857143 </v>
   <v>      -0.32142857       0.00000000       0.42857143 </v>
   <v>      -0.25000000       0.00000000       0.42857143 </v>
   <v>      -0.21428571       0.00000000       0.42857143 </v>
   <v>      -0.17857143       0.00000000       0.42857143 </v>
   <v>      -0.10714286       0.00000000       0.42857143 </v>
   <v>      -0.07142857       0.00000000       0.42857143 </v>
   <v>      -0.03571429       0.00000000       0.42857143 </v>
   <v>       0.00000000       0.03571429       0.42857143 </v>
   <v>       0.03571429       0.03571429       0.42857143 </v>
   <v>       0.07142857       0.03571429       0.42857143 </v>
   <v>       0.10714286       0.03571429       0.42857143 </v>
   <v>       0.14285714       0.03571429       0.42857143 </v>
   <v>       0.17857143       0.03571429       0.42857143 </v>
   <v>       0.21428571       0.03571429       0.42857143 </v>
   <v>       0.28571429       0.03571429       0.42857143 </v>
   <v>       0.32142857       0.03571429       0.42857143 </v>
   <v>       0.35714286       0.03571429       0.42857143 </v>
   <v>       0.42857143       0.03571429       0.42857143 </v>
   <v>       0.46428571       0.03571429       0.42857143 </v>
   <v>       0.50000000       0.03571429       0.42857143 </v>
   <v>      -0.42857143       0.03571429       0.42857143 </v>
   <v>      -0.39285714       0.03571429       0.42857143 </v>
   <v>      -0.35714286       0.03571429       0.42857143 </v>
   <v>      -0.28571429       0.03571429       0.42857143 </v>
   <v>      -0.25000000       0.03571429       0.42857143 </v>
   <v>      -0.21428571       0.03571429       0.42857143 </v>
   <v>      -0.14285714       0.03571429       0.42857143 </v>
   <v>      -0.10714286       0.03571429       0.42857143 </v>
   <v>      -0.07142857       0.03571429       0.42857143 </v>
   <v>       0.00000000       0.07142857       0.42857143 </v>
   <v>       0.03571429       0.07142857       0.42857143 </v>
   <v>       0.07142857       0.07142857       0.42857143 </v>
   <v>       0.10714286       0.07142857       0.42857143 </v>
   <v>       0.14285714       0.07142857       0.42857143 </v>
   <v>       0.17857143       0.07142857       0.42857143 </v>
   <v>       0.25000000       0.07142857       0.42857143 </v>
   <v>       0.28571429       0.07142857       0.42857143 </v>
   <v>       0.32142857       0.07142857       0.42857143 </v>
   <v>       0.39285714       0.07142857       0.42857143 </v>
   <v>       0.42857143       0.07142857       0.42857143 </v>
   <v>       0.46428571       0.07142857       0.42857143 </v>
   <v>      -0.46428571       0.07142857       0.42857143 </v>
   <v>      -0.42857143       0.07142857       0.42857143 </v>
   <v>      -0.39285714       0.07142857       0.42857143 </v>
   <v>      -0.32142857       0.07142857       0.42857143 </v>
   <v>      -0.28571429       0.07142857       0.42857143 </v>
   <v>      -0.25000000       0.07142857       0.42857143 </v>
   <v>      -0.17857143       0.07142857       0.42857143 </v>
   <v>      -0.14285714       0.07142857       0.42857143 </v>
   <v>      -0.10714286       0.07142857       0.42857143 </v>
   <v>       0.00000000       0.10714286       0.42857143 </v>
   <v>       0.07142857       0.10714286       0.42857143 </v>
   <v>       0.10714286       0.10714286       0.42857143 </v>
   <v>       0.14285714       0.10714286       0.42857143 </v>
   <v>       0.21428571       0.10714286       0.42857143 </v>
   <v>       0.25000000       0.10714286       0.42857143 </v>
   <v>       0.28571429       0.10714286       0.42857143 </v>
   <v>       0.35714286       0.10714286       0.42857143 </v>
   <v>       0.39285714       0.10714286       0.42857143 </v>
   <v>       0.42857143       0.10714286       0.42857143 </v>
   <v>       0.50000000       0.10714286       0.42857143 </v>
   <v>      -0.46428571       0.10714286       0.42857143 </v>
   <v>      -0.42857143       0.10714286       0.42857143 </v>
   <v>      -0.35714286       0.10714286       0.42857143 </v>
   <v>      -0.32142857       0.10714286       0.42857143 </v>
   <v>      -0.28571429       0.10714286       0.42857143 </v>
   <v>      -0.21428571       0.10714286       0.42857143 </v>
   <v>      -0.17857143       0.10714286       0.42857143 </v>
   <v>      -0.14285714       0.10714286       0.42857143 </v>
   <v>       0.03571429       0.14285714       0.42857143 </v>
   <v>       0.07142857       0.14285714       0.42857143 </v>
   <v>       0.10714286       0.14285714       0.42857143 </v>
   <v>       0.17857143       0.14285714       0.42857143 </v>
   <v>       0.21428571       0.14285714       0.42857143 </v>
   <v>       0.25000000       0.14285714       0.42857143 </v>
   <v>       0.32142857       0.14285714       0.42857143 </v>
   <v>       0.35714286       0.14285714       0.42857143 </v>
   <v>       0.39285714       0.14285714       0.42857143 </v>
   <v>       0.00000000       0.17857143       0.42857143 </v>
   <v>       0.03571429       0.17857143       0.42857143 </v>
   <v>       0.07142857       0.17857143       0.42857143 </v>
   <v>       0.14285714       0.17857143       0.42857143 </v>
   <v>       0.17857143       0.17857143       0.42857143 </v>
   <v>       0.21428571       0.17857143       0.42857143 </v>
   <v>       0.28571429       0.17857143       0.42857143 </v>
   <v>       0.32142857       0.17857143       0.42857143 </v>
   <v>       0.35714286       0.17857143       0.42857143 </v>
   <v>       0.42857143       0.17857143       0.42857143 </v>
   <v>       0.46428571       0.17857143       0.42857143 </v>
   <v>       0.50000000       0.17857143       0.42857143 </v>
   <v>      -0.42857143       0.17857143       0.42857143 </v>
   <v>      -0.39285714       0.17857143       0.42857143 </v>
   <v>      -0.35714286       0.17857143       0.42857143 </v>
   <v>      -0.28571429       0.17857143       0.42857143 </v>
   <v>      -0.25000000       0.17857143       0.42857143 </v>
   <v>      -0.21428571       0.17857143       0.42857143 </v>
   <v>       0.00000000       0.21428571       0.42857143 </v>
   <v>       0.03571429       0.21428571       0.42857143 </v>
   <v>       0.10714286       0.21428571       0.42857143 </v>
   <v>       0.14285714       0.21428571       0.42857143 </v>
   <v>       0.17857143       0.21428571       0.42857143 </v>
   <v>       0.25000000       0.21428571       0.42857143 </v>
   <v>       0.28571429       0.21428571       0.42857143 </v>
   <v>       0.32142857       0.21428571       0.42857143 </v>
   <v>       0.39285714       0.21428571       0.42857143 </v>
   <v>       0.42857143       0.21428571       0.42857143 </v>
   <v>       0.46428571       0.21428571       0.42857143 </v>
   <v>      -0.46428571       0.21428571       0.42857143 </v>
   <v>      -0.42857143       0.21428571       0.42857143 </v>
   <v>      -0.39285714       0.21428571       0.42857143 </v>
   <v>      -0.32142857       0.21428571       0.42857143 </v>
   <v>      -0.28571429       0.21428571       0.42857143 </v>
   <v>      -0.25000000       0.21428571       0.42857143 </v>
   <v>       0.00000000       0.25000000       0.42857143 </v>
   <v>       0.07142857       0.25000000       0.42857143 </v>
   <v>       0.10714286       0.25000000       0.42857143 </v>
   <v>       0.14285714       0.25000000       0.42857143 </v>
   <v>       0.21428571       0.25000000       0.42857143 </v>
   <v>       0.25000000       0.25000000       0.42857143 </v>
   <v>       0.28571429       0.25000000       0.42857143 </v>
   <v>       0.35714286       0.25000000       0.42857143 </v>
   <v>       0.39285714       0.25000000       0.42857143 </v>
   <v>       0.42857143       0.25000000       0.42857143 </v>
   <v>       0.50000000       0.25000000       0.42857143 </v>
   <v>      -0.46428571       0.25000000       0.42857143 </v>
   <v>      -0.42857143       0.25000000       0.42857143 </v>
   <v>      -0.35714286       0.25000000       0.42857143 </v>
   <v>      -0.32142857       0.25000000       0.42857143 </v>
   <v>      -0.28571429       0.25000000       0.42857143 </v>
   <v>       0.00000000       0.32142857       0.42857143 </v>
   <v>       0.03571429       0.32142857       0.42857143 </v>
   <v>       0.07142857       0.32142857       0.42857143 </v>
   <v>       0.14285714       0.32142857       0.42857143 </v>
   <v>       0.17857143       0.32142857       0.42857143 </v>
   <v>       0.21428571       0.32142857       0.42857143 </v>
   <v>       0.28571429       0.32142857       0.42857143 </v>
   <v>       0.32142857       0.32142857       0.42857143 </v>
   <v>       0.35714286       0.32142857       0.42857143 </v>
   <v>       0.42857143       0.32142857       0.42857143 </v>
   <v>       0.46428571       0.32142857       0.42857143 </v>
   <v>       0.50000000       0.32142857       0.42857143 </v>
   <v>      -0.42857143       0.32142857       0.42857143 </v>
   <v>      -0.39285714       0.32142857       0.42857143 </v>
   <v>      -0.35714286       0.32142857       0.42857143 </v>
   <v>       0.00000000       0.35714286       0.42857143 </v>
   <v>       0.03571429       0.35714286       0.42857143 </v>
   <v>       0.10714286       0.35714286       0.42857143 </v>
   <v>       0.14285714       0.35714286       0.42857143 </v>
   <v>       0.17857143       0.35714286       0.42857143 </v>
   <v>       0.25000000       0.35714286       0.42857143 </v>
   <v>       0.28571429       0.35714286       0.42857143 </v>
   <v>       0.32142857       0.35714286       0.42857143 </v>
   <v>       0.39285714       0.35714286       0.42857143 </v>
   <v>       0.42857143       0.35714286       0.42857143 </v>
   <v>       0.46428571       0.35714286       0.42857143 </v>
   <v>      -0.46428571       0.35714286       0.42857143 </v>
   <v>      -0.42857143       0.35714286       0.42857143 </v>
   <v>      -0.39285714       0.35714286       0.42857143 </v>
   <v>       0.00000000       0.39285714       0.42857143 </v>
   <v>       0.07142857       0.39285714       0.42857143 </v>
   <v>       0.10714286       0.39285714       0.42857143 </v>
   <v>       0.14285714       0.39285714       0.42857143 </v>
   <v>       0.21428571       0.39285714       0.42857143 </v>
   <v>       0.25000000       0.39285714       0.42857143 </v>
   <v>       0.28571429       0.39285714       0.42857143 </v>
   <v>       0.35714286       0.39285714       0.42857143 </v>
   <v>       0.39285714       0.39285714       0.42857143 </v>
   <v>       0.42857143       0.39285714       0.42857143 </v>
   <v>       0.50000000       0.39285714       0.42857143 </v>
   <v>      -0.46428571       0.39285714       0.42857143 </v>
   <v>      -0.42857143       0.39285714       0.42857143 </v>
   <v>       0.00000000       0.46428571       0.42857143 </v>
   <v>       0.03571429       0.46428571       0.42857143 </v>
   <v>       0.07142857       0.46428571       0.42857143 </v>
   <v>       0.14285714       0.46428571       0.42857143 </v>
   <v>       0.17857143       0.46428571       0.42857143 </v>
   <v>       0.21428571       0.46428571       0.42857143 </v>
   <v>       0.28571429       0.46428571       0.42857143 </v>
   <v>       0.32142857       0.46428571       0.42857143 </v>
   <v>       0.35714286       0.46428571       0.42857143 </v>
   <v>       0.42857143       0.46428571       0.42857143 </v>
   <v>       0.46428571       0.46428571       0.42857143 </v>
   <v>       0.50000000       0.46428571       0.42857143 </v>
   <v>       0.00000000       0.50000000       0.42857143 </v>
   <v>       0.03571429       0.50000000       0.42857143 </v>
   <v>       0.10714286       0.50000000       0.42857143 </v>
   <v>       0.14285714       0.50000000       0.42857143 </v>
   <v>       0.17857143       0.50000000       0.42857143 </v>
   <v>       0.25000000       0.50000000       0.42857143 </v>
   <v>       0.28571429       0.50000000       0.42857143 </v>
   <v>       0.32142857       0.50000000       0.42857143 </v>
   <v>       0.39285714       0.50000000       0.42857143 </v>
   <v>       0.42857143       0.50000000       0.42857143 </v>
   <v>       0.46428571       0.50000000       0.42857143 </v>
   <v>       0.00000000      -0.46428571       0.42857143 </v>
   <v>       0.07142857      -0.46428571       0.42857143 </v>
   <v>       0.10714286      -0.46428571       0.42857143 </v>
   <v>       0.14285714      -0.46428571       0.42857143 </v>
   <v>       0.21428571      -0.46428571       0.42857143 </v>
   <v>       0.25000000      -0.46428571       0.42857143 </v>
   <v>       0.28571429      -0.46428571       0.42857143 </v>
   <v>       0.35714286      -0.46428571       0.42857143 </v>
   <v>       0.39285714      -0.46428571       0.42857143 </v>
   <v>       0.42857143      -0.46428571       0.42857143 </v>
   <v>       0.00000000      -0.39285714       0.42857143 </v>
   <v>       0.03571429      -0.39285714       0.42857143 </v>
   <v>       0.07142857      -0.39285714       0.42857143 </v>
   <v>       0.14285714      -0.39285714       0.42857143 </v>
   <v>       0.17857143      -0.39285714       0.42857143 </v>
   <v>       0.21428571      -0.39285714       0.42857143 </v>
   <v>       0.28571429      -0.39285714       0.42857143 </v>
   <v>       0.32142857      -0.39285714       0.42857143 </v>
   <v>       0.35714286      -0.39285714       0.42857143 </v>
   <v>       0.00000000      -0.35714286       0.42857143 </v>
   <v>       0.03571429      -0.35714286       0.42857143 </v>
   <v>       0.10714286      -0.35714286       0.42857143 </v>
   <v>       0.14285714      -0.35714286       0.42857143 </v>
   <v>       0.17857143      -0.35714286       0.42857143 </v>
   <v>       0.25000000      -0.35714286       0.42857143 </v>
   <v>       0.28571429      -0.35714286       0.42857143 </v>
   <v>       0.32142857      -0.35714286       0.42857143 </v>
   <v>       0.00000000      -0.32142857       0.42857143 </v>
   <v>       0.07142857      -0.32142857       0.42857143 </v>
   <v>       0.10714286      -0.32142857       0.42857143 </v>
   <v>       0.14285714      -0.32142857       0.42857143 </v>
   <v>       0.21428571      -0.32142857       0.42857143 </v>
   <v>       0.25000000      -0.32142857       0.42857143 </v>
   <v>       0.28571429      -0.32142857       0.42857143 </v>
   <v>       0.00000000      -0.25000000       0.42857143 </v>
   <v>       0.03571429      -0.25000000       0.42857143 </v>
   <v>       0.07142857      -0.25000000       0.42857143 </v>
   <v>       0.14285714      -0.25000000       0.42857143 </v>
   <v>       0.17857143      -0.25000000       0.42857143 </v>
   <v>       0.21428571      -0.25000000       0.42857143 </v>
   <v>       0.00000000      -0.21428571       0.42857143 </v>
   <v>       0.03571429      -0.21428571       0.42857143 </v>
   <v>       0.10714286      -0.21428571       0.42857143 </v>
   <v>       0.14285714      -0.21428571       0.42857143 </v>
   <v>       0.17857143      -0.21428571       0.42857143 </v>
   <v>       0.00000000      -0.17857143       0.42857143 </v>
   <v>       0.07142857      -0.17857143       0.42857143 </v>
   <v>       0.10714286      -0.17857143       0.42857143 </v>
   <v>       0.14285714      -0.17857143       0.42857143 </v>
   <v>       0.00000000      -0.10714286       0.42857143 </v>
   <v>       0.03571429      -0.10714286       0.42857143 </v>
   <v>       0.07142857      -0.10714286       0.42857143 </v>
   <v>       0.00000000      -0.07142857       0.42857143 </v>
   <v>       0.03571429      -0.07142857       0.42857143 </v>
   <v>       0.00000000      -0.03571429       0.42857143 </v>
  </varray>
  <varray name="weights" >
   <v>       0.00018222 </v>
   <v>       0.00072886 </v>
   <v>       0.00072886 </v>
   <v>       0.00072886 </v>
   <v>       0.00109329 </v>
   <v>       0.00072886 </v>
   <v>       0.00072886 </v>
   <v>       0.00072886 </v>
   <v>       0.00109329 </v>
   <v>       0.00072886 </v>
   <v>       0.00072886 </v>
   <v>       0.00072886 </v>
   <v>       0.00109329 </v>
   <v>       0.00072886 </v>
   <v>       0.00036443 </v>
   <v>       0.00036443 </v>
   <v>       0.00072886 </v>
   <v>       0.00072886 </v>
   <v>       0.00145773 </v>
   <v>       0.00072886 </v>
   <v>       0.00072886 </v>
   <v>       0.00072886 </v>
   <v>       0.00145773 </v>
   <v>       0.00072886 </v>
   <v>       0.00072886 </v>
   <v>       0.00072886 </v>
   <v>       0.00145773 </v>
   <v>       0.00072886 </v>
   <v>       0.00072886 </v>
   <v>       0.00072886 </v>
   <v>       0.00145773 </v>
   <v>       0.00072886 </v>
   <v>       0.00072886 </v>
   <v>       0.00072886 </v>
   <v>       0.00145773 </v>
   <v>       0.00072886 </v>
   <v>       0.00072886 </v>
   <v>       0.00072886 </v>
   <v>       0.00145773 </v>
   <v>       0.00072886 </v>
   <v>       0.00072886 </v>
   <v>       0.00036443 </v>
   <v>       0.00036443 </v>
   <v>       0.00072886 </v>
   <v>       0.00145773 </v>
   <v>       0.00072886 </v>
   <v>       0.00072886 </v>
   <v>       0.00072886 </v>
   <v>       0.00145773 </v>
   <v>       0.00072886 </v>
   <v>       0.00072886 </v>
   <v>       0.00072886 </v>
   <v>       0.00145773 </v>
   <v>       0.00072886 </v>
   <v>       0.00072886 </v>
   <v>       0.00072886 </v>
   <v>       0.00145773 </v>
   <v>       0.00072886 </v>
   <v>       0.00072886 </v>
   <v>       0.00072886 </v>
   <v>       0.00145773 </v>
   <v>       0.00072886 </v>
   <v>       0.00072886 </v>
   <v>       0.00072886 </v>
   <v>       0.00145773 </v>
   <v>       0.00072886 </v>
   <v>       0.00036443 </v>
   <v>       0.00036443 </v>
   <v>       0.00145773 </v>
   <v>       0.00072886 </v>
   <v>       0.00072886 </v>
   <v>       0.00072886 </v>
   <v>       0.00145773 </v>
   <v>       0.00072886 </v>
   <v>       0.00072886 </v>
   <v>       0.00072886 </v>
   <v>       0.00145773 </v>
   <v>       0.00072886 </v>
   <v>       0.00072886 </v>
   <v>       0.00072886 </v>
   <v>       0.00145773 </v>
   <v>       0.00072886 </v>
   <v>       0.00072886 </v>
   <v>       0.00072886 </v>
   <v>       0.00145773 </v>
   <v>       0.00072886 </v>
   <v>       0.00072886 </v>
   <v>       0.00072886 </v>
   <v>       0.00145773 </v>
   <v>       0.00036443 </v>
   <v>       0.00109329 </v>
   <v>       0.00145773 </v>
   <v>       0.00145773 </v>
   <v>       0.00145773 </v>
   <v>       0.00218659 </v>
   <v>       0.00145773 </v>
   <v>       0.00145773 </v>
   <v>       0.00145773 </v>
   <v>       0.00218659 </v>
   <v>       0.00145773 </v>
   <v>       0.00145773 </v>
   <v>       0.00145773 </v>
   <v>       0.00218659 </v>
   <v>       0.00145773 </v>
   <v>       0.00145773 </v>
   <v>       0.00145773 </v>
   <v>       0.00218659 </v>
   <v>       0.00145773 </v>
   <v>       0.00145773 </v>
   <v>       0.00145773 </v>
   <v>       0.00109329 </v>
   <v>       0.00036443 </v>
   <v>       0.00072886 </v>
   <v>       0.00072886 </v>
   <v>       0.00145773 </v>
   <v>       0.00072886 </v>
   <v>       0.00072886 </v>
   <v>       0.00072886 </v>
   <v>       0.00145773 </v>
   <v>       0.00072886 </v>
   <v>       0.00072886 </v>
   <v>       0.00072886 </v>
   <v>       0.00145773 </v>
   <v>       0.00072886 </v>
   <v>       0.00072886 </v>
   <v>       0.00072886 </v>
   <v>       0.00145773 </v>
   <v>       0.00072886 </v>
   <v>       0.00072886 </v>
   <v>       0.00036443 </v>
   <v>       0.00036443 </v>
   <v>       0.00072886 </v>
   <v>       0.00145773 </v>
   <v>       0.00072886 </v>
   <v>       0.00072886 </v>
   <v>       0.00072886 </v>
   <v>       0.00145773 </v>
   <v>       0.00072886 </v>
   <v>       0.00072886 </v>
   <v>       0.00072886 </v>
   <v>       0.00145773 </v>
   <v>       0.00072886 </v>
   <v>       0.00072886 </v>
   <v>       0.00072886 </v>
   <v>       0.00145773 </v>
   <v>       0.00072886 </v>
   <v>       0.00036443 </v>
   <v>       0.00036443 </v>
   <v>       0.00145773 </v>
   <v>       0.00072886 </v>
   <v>       0.00072886 </v>
   <v>       0.00072886 </v>
   <v>       0.00145773 </v>
   <v>       0.00072886 </v>
   <v>       0.00072886 </v>
   <v>       0.00072886 </v>
   <v>       0.00145773 </v>
   <v>       0.00072886 </v>
   <v>       0.00072886 </v>
   <v>       0.00072886 </v>
   <v>       0.00145773 </v>
   <v>       0.00036443 </v>
   <v>       0.00109329 </v>
   <v>       0.00145773 </v>
   <v>       0.00145773 </v>
   <v>       0.00145773 </v>
   <v>       0.00218659 </v>
   <v>       0.00145773 </v>
   <v>       0.00145773 </v>
   <v>       0.00145773 </v>
   <v>       0.00218659 </v>
   <v>       0.00145773 </v>
   <v>       0.00145773 </v>
   <v>       0.00145773 </v>
   <v>       0.00109329 </v>
   <v>       0.00036443 </v>
   <v>       0.00072886 </v>
   <v>       0.00072886 </v>
   <v>       0.00145773 </v>
   <v>       0.00072886 </v>
   <v>       0.00072886 </v>
   <v>       0.00072886 </v>
   <v>       0.00145773 </v>
   <v>       0.00072886 </v>
   <v>       0.00072886 </v>
   <v>       0.00036443 </v>
   <v>       0.00036443 </v>
   <v>       0.00072886 </v>
   <v>       0.00145773 </v>
   <v>       0.00072886 </v>
[...]
       <r>    3.6322    1.0000 </r>
       <r>    3.7311    1.0000 </r>
       <r>    3.8331    1.0000 </r>
       <r>    4.0660    1.0000 </r>
       <r>    4.2419    1.0000 </r>
       <r>    4.2941    1.0000 </r>
       <r>    4.5136    1.0000 </r>
       <r>    4.6187    1.0000 </r>
       <r>    4.8031    1.0000 </r>
       <r>    4.9147    1.0000 </r>
       <r>    5.4374    1.0000 </r>
       <r>    5.8841    1.0000 </r>
       <r>    6.9834    1.0000 </r>
       <r>   13.3759    0.0000 </r>
       <r>   15.4168    0.0000 </r>
       <r>   22.4494    0.0000 </r>
       <r>   22.6208    0.0000 </r>
      </set>
      <set comment="kpoint 1152">
       <r>    0.0467    1.0000 </r>
       <r>    1.1970    1.0000 </r>
       <r>    1.8938    1.0000 </r>
       <r>    2.0786    1.0000 </r>
       <r>    3.2251    1.0000 </r>
       <r>    3.3243    1.0000 </r>
       <r>    3.3870    1.0000 </r>
       <r>    3.4931    1.0000 </r>
       <r>    3.5054    1.0000 </r>
       <r>    3.5201    1.0000 </r>
       <r>    3.5830    1.0000 </r>
       <r>    3.5854    1.0000 </r>
       <r>    3.7371    1.0000 </r>
       <r>    3.7899    1.0000 </r>
       <r>    4.2584    1.0000 </r>
       <r>    4.3342    1.0000 </r>
       <r>    4.3615    1.0000 </r>
       <r>    4.5297    1.0000 </r>
       <r>    4.5859    1.0000 </r>
       <r>    4.8103    1.0000 </r>
       <r>    4.8436    1.0000 </r>
       <r>    5.4897    1.0000 </r>
       <r>    5.7827    1.0000 </r>
       <r>    6.6878    1.0000 </r>
       <r>   13.3028    0.0000 </r>
       <r>   15.3560    0.0000 </r>
       <r>   22.4105    0.0000 </r>
       <r>   22.9209    0.0000 </r>
      </set>
      <set comment="kpoint 1153">
       <r>    0.0141    1.0000 </r>
       <r>    1.1570    1.0000 </r>
       <r>    1.8687    1.0000 </r>
       <r>    2.0548    1.0000 </r>
       <r>    3.2589    1.0000 </r>
       <r>    3.3188    1.0000 </r>
       <r>    3.4044    1.0000 </r>
       <r>    3.4843    1.0000 </r>
       <r>    3.4961    1.0000 </r>
       <r>    3.5218    1.0000 </r>
       <r>    3.5651    1.0000 </r>
       <r>    3.5732    1.0000 </r>
       <r>    3.7255    1.0000 </r>
       <r>    3.7715    1.0000 </r>
       <r>    4.2763    1.0000 </r>
       <r>    4.3183    1.0000 </r>
       <r>    4.3871    1.0000 </r>
       <r>    4.5624    1.0000 </r>
       <r>    4.6036    1.0000 </r>
       <r>    4.8535    1.0000 </r>
       <r>    4.9681    1.0000 </r>
       <r>    5.4554    1.0000 </r>
       <r>    5.6764    1.0000 </r>
       <r>    6.5530    1.0000 </r>
       <r>   13.3821    0.0000 </r>
       <r>   15.2211    0.0000 </r>
       <r>   22.4685    0.0000 </r>
       <r>   22.9564    0.0000 </r>
      </set>
      <set comment="kpoint 1154">
       <r>   -0.0561    1.0000 </r>
       <r>    1.0848    1.0000 </r>
       <r>    1.8167    1.0000 </r>
       <r>    2.0099    1.0000 </r>
       <r>    3.2983    1.0000 </r>
       <r>    3.3586    1.0000 </r>
       <r>    3.4254    1.0000 </r>
       <r>    3.4583    1.0000 </r>
       <r>    3.4916    1.0000 </r>
       <r>    3.4994    1.0000 </r>
       <r>    3.5306    1.0000 </r>
       <r>    3.5366    1.0000 </r>
       <r>    3.7204    1.0000 </r>
       <r>    3.7363    1.0000 </r>
       <r>    4.3054    1.0000 </r>
       <r>    4.3347    1.0000 </r>
       <r>    4.5333    1.0000 </r>
       <r>    4.5647    1.0000 </r>
       <r>    4.7055    1.0000 </r>
       <r>    4.8552    1.0000 </r>
       <r>    5.0699    1.0000 </r>
       <r>    5.4721    1.0000 </r>
       <r>    5.5326    1.0000 </r>
       <r>    6.2385    1.0000 </r>
       <r>   13.4360    0.0000 </r>
       <r>   15.0683    0.0000 </r>
       <r>   22.4899    0.0000 </r>
       <r>   22.9306    0.0000 </r>
      </set>
     </set>
    </set>
   </array>
  </eigenvalues>
  <separator name="orbital magnetization" >
   <v name="MAGDIPOLOUT">      0.00000000      0.00000000      0.00000000</v>
  </separator>
  <dos>
   <i name="efermi">      8.08009711 </i>
   <total>
    <array>
     <dimension dim="1">gridpoints</dimension>
     <dimension dim="2">spin</dimension>
     <field>energy</field>
     <field>total</field>
     <field>integrated</field>
     <set>
      <set comment="spin 1">
       <r>    -3.2047     0.0000     0.0000 </r>
       <r>    -3.1066     0.0000     0.0000 </r>
       <r>    -3.0086     0.0000     0.0000 </r>
       <r>    -2.9106     0.0000     0.0000 </r>
       <r>    -2.8126     0.0000     0.0000 </r>
       <r>    -2.7146     0.0000     0.0000 </r>
       <r>    -2.6166     0.0000     0.0000 </r>
       <r>    -2.5186     0.0000     0.0000 </r>
       <r>    -2.4206     0.0000     0.0000 </r>
       <r>    -2.3226     0.0000     0.0000 </r>
       <r>    -2.2246     0.0000     0.0000 </r>
       <r>    -2.1266     0.0000     0.0000 </r>
       <r>    -2.0286     0.0000     0.0000 </r>
       <r>    -1.9306     0.0000     0.0000 </r>
       <r>    -1.8326     0.0000     0.0000 </r>
       <r>    -1.7345     0.0000     0.0000 </r>
       <r>    -1.6365     0.0000     0.0000 </r>
       <r>    -1.5385     0.0000     0.0000 </r>
       <r>    -1.4405     0.0000     0.0000 </r>
       <r>    -1.3425     0.0000     0.0000 </r>
       <r>    -1.2445     0.0000     0.0000 </r>
       <r>    -1.1465     0.0000     0.0000 </r>
       <r>    -1.0485     0.0000     0.0000 </r>
       <r>    -0.9505    -0.0001     0.0000 </r>
       <r>    -0.8525    -0.0003     0.0000 </r>
       <r>    -0.7545    -0.0012    -0.0002 </r>
       <r>    -0.6565    -0.0032    -0.0005 </r>
       <r>    -0.5585    -0.0064    -0.0011 </r>
       <r>    -0.4605    -0.0078    -0.0019 </r>
       <r>    -0.3624     0.0003    -0.0018 </r>
       <r>    -0.2644     0.0280     0.0009 </r>
       <r>    -0.1664     0.0794     0.0087 </r>
       <r>    -0.0684     0.1452     0.0229 </r>
       <r>     0.0296     0.2064     0.0431 </r>
       <r>     0.1276     0.2480     0.0674 </r>
       <r>     0.2256     0.2681     0.0937 </r>
       <r>     0.3236     0.2748     0.1206 </r>
       <r>     0.4216     0.2774     0.1478 </r>
       <r>     0.5196     0.2803     0.1753 </r>
       <r>     0.6176     0.2845     0.2032 </r>
       <r>     0.7156     0.2900     0.2316 </r>
       <r>     0.8136     0.2988     0.2609 </r>
       <r>     0.9116     0.3159     0.2918 </r>
       <r>     1.0097     0.3469     0.3259 </r>
       <r>     1.1077     0.3922     0.3643 </r>
       <r>     1.2057     0.4464     0.4080 </r>
       <r>     1.3037     0.5130     0.4583 </r>
       <r>     1.4017     0.6248     0.5195 </r>
       <r>     1.4997     0.8446     0.6023 </r>
       <r>     1.5977     1.2253     0.7224 </r>
       <r>     1.6957     1.7675     0.8956 </r>
       <r>     1.7937     2.4573     1.1365 </r>
       <r>     1.8917     3.3710     1.4669 </r>
       <r>     1.9897     4.6856     1.9261 </r>
       <r>     2.0877     6.5061     2.5637 </r>
       <r>     2.1857     8.6497     3.4115 </r>
       <r>     2.2837    10.6189     4.4522 </r>
       <r>     2.3818    11.8472     5.6133 </r>
       <r>     2.4798    12.0433     6.7936 </r>
       <r>     2.5778    11.3550     7.9065 </r>
       <r>     2.6758    10.2600     8.9121 </r>
       <r>     2.7738     9.3218     9.8257 </r>
       <r>     2.8718     8.9382    10.7017 </r>
       <r>     2.9698     9.1559    11.5990 </r>
       <r>     3.0678     9.6852    12.5482 </r>
       <r>     3.1658    10.1829    13.5462 </r>
       <r>     3.2638    10.5936    14.5845 </r>
       <r>     3.3618    11.2036    15.6825 </r>
       <r>     3.4598    12.3009    16.8881 </r>
       <r>     3.5578    13.7326    18.2340 </r>
       <r>     3.6558    14.8240    19.6868 </r>
       <r>     3.7539    14.8673    21.1439 </r>
       <r>     3.8519    13.7788    22.4944 </r>
       <r>     3.9499    12.2340    23.6934 </r>
       <r>     4.0479    11.1110    24.7823 </r>
       <r>     4.1459    10.8305    25.8438 </r>
       <r>     4.2439    11.1803    26.9396 </r>
       <r>     4.3419    11.6262    28.0790 </r>
       <r>     4.4399    11.7496    29.2305 </r>
       <r>     4.5379    11.4976    30.3574 </r>
       <r>     4.6359    11.1034    31.4456 </r>
       <r>     4.7339    10.7962    32.5037 </r>
       <r>     4.8319    10.6163    33.5442 </r>
       <r>     4.9299    10.4900    34.5723 </r>
       <r>     5.0279    10.3764    35.5892 </r>
       <r>     5.1260    10.2648    36.5953 </r>
       <r>     5.2240    10.0877    37.5839 </r>
       <r>     5.3220     9.7089    38.5355 </r>
       <r>     5.4200     8.9722    39.4148 </r>
       <r>     5.5180     7.7593    40.1753 </r>
       <r>     5.6160     6.1068    40.7738 </r>
       <r>     5.7140     4.3113    41.1963 </r>
       <r>     5.8120     2.8091    41.4716 </r>
       <r>     5.9100     1.8733    41.6552 </r>
       <r>     6.0080     1.4539    41.7977 </r>
       <r>     6.1060     1.3058    41.9257 </r>
       <r>     6.2040     1.2203    42.0453 </r>
       <r>     6.3020     1.1326    42.1563 </r>
       <r>     6.4000     1.0685    42.2610 </r>
       <r>     6.4981     1.0387    42.3628 </r>
       <r>     6.5961     1.0098    42.4618 </r>
       <r>     6.6941     0.9618    42.5561 </r>
       <r>     6.7921     0.9286    42.6471 </r>
       <r>     6.8901     0.9526    42.7404 </r>
       <r>     6.9881     1.0195    42.8404 </r>
       <r>     7.0861     1.0654    42.9448 </r>
       <r>     7.1841     1.0505    43.0477 </r>
       <r>     7.2821     1.0006    43.1458 </r>
       <r>     7.3801     0.9721    43.2411 </r>
       <r>     7.4781     0.9969    43.3388 </r>
       <r>     7.5761     1.0631    43.4430 </r>
       <r>     7.6741     1.1276    43.5535 </r>
       <r>     7.7721     1.1483    43.6660 </r>
       <r>     7.8702     1.1203    43.7758 </r>
       <r>     7.9682     1.0781    43.8815 </r>
       <r>     8.0662     1.0584    43.9852 </r>
       <r>     8.1642     1.0713    44.0902 </r>
       <r>     8.2622     1.1031    44.1983 </r>
       <r>     8.3602     1.1316    44.3092 </r>
       <r>     8.4582     1.1376    44.4207 </r>
       <r>     8.5562     1.1169    44.5302 </r>
       <r>     8.6542     1.0828    44.6363 </r>
       <r>     8.7522     1.0567    44.7399 </r>
       <r>     8.8502     1.0531    44.8431 </r>
       <r>     8.9482     1.0728    44.9482 </r>
       <r>     9.0462     1.1043    45.0565 </r>
       <r>     9.1442     1.1275    45.1670 </r>
       <r>     9.2423     1.1217    45.2769 </r>
       <r>     9.3403     1.0829    45.3830 </r>
       <r>     9.4383     1.0396    45.4849 </r>
       <r>     9.5363     1.0344    45.5863 </r>
       <r>     9.6343     1.0781    45.6920 </r>
       <r>     9.7323     1.1296    45.8027 </r>
       <r>     9.8303     1.1342    45.9138 </r>
       <r>     9.9283     1.0826    46.0199 </r>
       <r>    10.0263     1.0188    46.1198 </r>
       <r>    10.1243     0.9905    46.2169 </r>
       <r>    10.2223     0.9981    46.3147 </r>
       <r>    10.3203     0.9992    46.4126 </r>
       <r>    10.4183     0.9595    46.5066 </r>
       <r>    10.5163     0.8913    46.5940 </r>
       <r>    10.6144     0.8403    46.6763 </r>
       <r>    10.7124     0.8348    46.7582 </r>
       <r>    10.8104     0.8542    46.8419 </r>
       <r>    10.9084     0.8550    46.9257 </r>
       <r>    11.0064     0.8281    47.0068 </r>
       <r>    11.1044     0.8220    47.0874 </r>
       <r>    11.2024     0.9031    47.1759 </r>
       <r>    11.3004     1.0862    47.2824 </r>
       <r>    11.3984     1.3109    47.4108 </r>
       <r>    11.4964     1.4894    47.5568 </r>
       <r>    11.5944     1.5703    47.7107 </r>
       <r>    11.6924     1.5557    47.8632 </r>
       <r>    11.7904     1.4752    48.0078 </r>
       <r>    11.8884     1.3670    48.1417 </r>
       <r>    11.9865     1.2726    48.2665 </r>
       <r>    12.0845     1.2263    48.3866 </r>
       <r>    12.1825     1.2364    48.5078 </r>
       <r>    12.2805     1.2761    48.6329 </r>
       <r>    12.3785     1.3001    48.7603 </r>
       <r>    12.4765     1.2781    48.8856 </r>
       <r>    12.5745     1.2174    49.0049 </r>
       <r>    12.6725     1.1539    49.1180 </r>
       <r>    12.7705     1.1198    49.2277 </r>
       <r>    12.8685     1.1221    49.3377 </r>
       <r>    12.9665     1.1475    49.4502 </r>
       <r>    13.0645     1.1809    49.5659 </r>
       <r>    13.1625     1.2134    49.6848 </r>
       <r>    13.2605     1.2356    49.8059 </r>
       <r>    13.3586     1.2378    49.9272 </r>
       <r>    13.4566     1.2183    50.0466 </r>
       <r>    13.5546     1.1894    50.1632 </r>
       <r>    13.6526     1.1691    50.2778 </r>
       <r>    13.7506     1.1660    50.3921 </r>
       <r>    13.8486     1.1708    50.5068 </r>
       <r>    13.9466     1.1687    50.6213 </r>
       <r>    14.0446     1.1629    50.7353 </r>
       <r>    14.1426     1.1791    50.8509 </r>
       <r>    14.2406     1.2378    50.9722 </r>
       <r>    14.3386     1.3242    51.1020 </r>
       <r>    14.4366     1.3957    51.2388 </r>
       <r>    14.5346     1.4248    51.3784 </r>
       <r>    14.6326     1.4270    51.5182 </r>
       <r>    14.7307     1.4379    51.6592 </r>
       <r>    14.8287     1.4683    51.8031 </r>
       <r>    14.9267     1.4923    51.9493 </r>
       <r>    15.0247     1.4754    52.0939 </r>
       <r>    15.1227     1.4100    52.2321 </r>
       <r>    15.2207     1.3267    52.3621 </r>
       <r>    15.3187     1.2731    52.4869 </r>
       <r>    15.4167     1.2737    52.6118 </r>
       <r>    15.5147     1.3070    52.7399 </r>
       <r>    15.6127     1.3266    52.8699 </r>
       <r>    15.7107     1.3051    52.9978 </r>
       <r>    15.8087     1.2540    53.1207 </r>
       <r>    15.9067     1.2016    53.2384 </r>
       <r>    16.0047     1.1586    53.3520 </r>
       <r>    16.1028     1.1155    53.4613 </r>
       <r>    16.2008     1.0623    53.5654 </r>
       <r>    16.2988     1.0032    53.6638 </r>
       <r>    16.3968     0.9513    53.7570 </r>
       <r>    16.4948     0.9138    53.8465 </r>
       <r>    16.5928     0.8849    53.9333 </r>
       <r>    16.6908     0.8525    54.0168 </r>
       <r>    16.7888     0.8121    54.0964 </r>
       <r>    16.8868     0.7706    54.1719 </r>
       <r>    16.9848     0.7386    54.2443 </r>
       <r>    17.0828     0.7188    54.3148 </r>
       <r>    17.1808     0.7011    54.3835 </r>
       <r>    17.2788     0.6679    54.4490 </r>
       <r>    17.3768     0.6081    54.5086 </r>
       <r>    17.4749     0.5296    54.5605 </r>
       <r>    17.5729     0.4568    54.6052 </r>
       <r>    17.6709     0.4156    54.6460 </r>
       <r>    17.7689     0.4162    54.6868 </r>
       <r>    17.8669     0.4455    54.7304 </r>
       <r>    17.9649     0.4768    54.7772 </r>
       <r>    18.0629     0.4890    54.8251 </r>
       <r>    18.1609     0.4784    54.8720 </r>
       <r>    18.2589     0.4561    54.9167 </r>
       <r>    18.3569     0.4365    54.9594 </r>
       <r>    18.4549     0.4244    55.0010 </r>
       <r>    18.5529     0.4107    55.0413 </r>
       <r>    18.6509     0.3832    55.0789 </r>
       <r>    18.7489     0.3449    55.1127 </r>
       <r>    18.8470     0.3181    55.1438 </r>
       <r>    18.9450     0.3228    55.1755 </r>
       <r>    19.0430     0.3508    55.2099 </r>
       <r>    19.1410     0.3696    55.2461 </r>
       <r>    19.2390     0.3546    55.2808 </r>
       <r>    19.3370     0.3138    55.3116 </r>
       <r>    19.4350     0.2772    55.3387 </r>
       <r>    19.5330     0.2666    55.3649 </r>
       <r>    19.6310     0.2806    55.3924 </r>
       <r>    19.7290     0.3011    55.4219 </r>
       <r>    19.8270     0.3090    55.4522 </r>
       <r>    19.9250     0.2946    55.4810 </r>
       <r>    20.0230     0.2610    55.5066 </r>
       <r>    20.1210     0.2221    55.5284 </r>
       <r>    20.2191     0.1938    55.5474 </r>
       <r>    20.3171     0.1836    55.5654 </r>
       <r>    20.4151     0.1855    55.5836 </r>
       <r>    20.5131     0.1864    55.6018 </r>
       <r>    20.6111     0.1789    55.6194 </r>
       <r>    20.7091     0.1662    55.6356 </r>
       <r>    20.8071     0.1572    55.6511 </r>
       <r>    20.9051     0.1593    55.6667 </r>
       <r>    21.0031     0.1724    55.6836 </r>
       <r>    21.1011     0.1873    55.7019 </r>
       <r>    21.1991     0.1913    55.7207 </r>
       <r>    21.2971     0.1790    55.7382 </r>
       <r>    21.3951     0.1571    55.7536 </r>
       <r>    21.4931     0.1403    55.7674 </r>
       <r>    21.5912     0.1382    55.7809 </r>
       <r>    21.6892     0.1451    55.7951 </r>
       <r>    21.7872     0.1446    55.8093 </r>
       <r>    21.8852     0.1285    55.8219 </r>
       <r>    21.9832     0.1068    55.8324 </r>
       <r>    22.0812     0.0976    55.8419 </r>
       <r>    22.1792     0.1062    55.8523 </r>
       <r>    22.2772     0.1222    55.8643 </r>
       <r>    22.3752     0.1337    55.8774 </r>
       <r>    22.4732     0.1428    55.8914 </r>
       <r>    22.5712     0.1610    55.9072 </r>
       <r>    22.6692     0.1906    55.9259 </r>
       <r>    22.7672     0.2151    55.9469 </r>
       <r>    22.8652     0.2112    55.9676 </r>
       <r>    22.9633     0.1705    55.9844 </r>
       <r>    23.0613     0.1086    55.9950 </r>
       <r>    23.1593     0.0511    56.0000 </r>
       <r>    23.2573     0.0142    56.0014 </r>
       <r>    23.3553    -0.0019    56.0012 </r>
       <r>    23.4533    -0.0053    56.0007 </r>
       <r>    23.5513    -0.0039    56.0003 </r>
       <r>    23.6493    -0.0020    56.0001 </r>
       <r>    23.7473    -0.0008    56.0000 </r>
       <r>    23.8453    -0.0003    56.0000 </r>
       <r>    23.9433    -0.0001    56.0000 </r>
       <r>    24.0413     0.0000    56.0000 </r>
       <r>    24.1393     0.0000    56.0000 </r>
       <r>    24.2373     0.0000    56.0000 </r>
       <r>    24.3354     0.0000    56.0000 </r>
       <r>    24.4334     0.0000    56.0000 </r>
       <r>    24.5314     0.0000    56.0000 </r>
       <r>    24.6294     0.0000    56.0000 </r>
       <r>    24.7274     0.0000    56.0000 </r>
       <r>    24.8254     0.0000    56.0000 </r>
       <r>    24.9234     0.0000    56.0000 </r>
       <r>    25.0214     0.0000    56.0000 </r>
       <r>    25.1194     0.0000    56.0000 </r>
       <r>    25.2174     0.0000    56.0000 </r>
       <r>    25.3154     0.0000    56.0000 </r>
       <r>    25.4134     0.0000    56.0000 </r>
       <r>    25.5114     0.0000    56.0000 </r>
       <r>    25.6095     0.0000    56.0000 </r>
       <r>    25.7075     0.0000    56.0000 </r>
       <r>    25.8055     0.0000    56.0000 </r>
       <r>    25.9035     0.0000    56.0000 </r>
       <r>    26.0015     0.0000    56.0000 </r>
       <r>    26.0995     0.0000    56.0000 </r>
       <r>    26.1975     0.0000    56.0000 </r>
      </set>
     </set>
    </array>
   </total>
  </dos>
 </calculation>
 <structure name="finalpos" >
  <crystal>
   <varray name="basis" >
    <v>      -2.07178317       0.00000000      -2.07178317 </v>
    <v>       2.07178317      -2.07178317       0.00000000 </v>
    <v>      -6.22744808      -4.15566491       6.22744808 </v>
   </varray>
   <i name="volume">     71.29727044 </i>
   <varray name="rec_basis" >
    <v>      -0.18095955      -0.18095955      -0.30171644 </v>
    <v>       0.12075689      -0.36191910      -0.12075689 </v>
    <v>      -0.06020266      -0.06020266       0.06020266 </v>
   </varray>
  </crystal>
  <varray name="positions" >
   <v>       0.24958014       0.49916028       0.74874043 </v>
   <v>       0.50000000       0.00000000       0.50000000 </v>
   <v>       0.75041986       0.50083972       0.25125957 </v>
   <v>       0.00000000       0.00000000       0.00000000 </v>
  </varray>
 </structure>
</modeling>
