<?xml version="1.0" encoding="ISO-8859-1"?>
<modeling>
 <generator>
  <i name="program" type="string">vasp </i>
  <i name="version" type="string">5.3.5  </i>
  <i name="subversion" type="string">31Mar14 (build Jun 20 2014 13:15:13) complex                          parallel </i>
  <i name="platform" type="string">LinuxIFC </i>
  <i name="date" type="string">2025 12 12 </i>
  <i name="time" type="string">11:45:46 </i>
 </generator>
 <incar>
  <i type="string" name="PREC">accurate</i>
  <i type="int" name="IALGO">    38</i>
  <i type="logical" name="ADDGRID"> T  </i>
  <i type="int" name="ISPIN">     2</i>
  <i type="int" name="NELM">   100</i>
  <i type="int" name="NELMIN">     4</i>
  <i name="EDIFF">      0.00000100</i>
  <i name="ENCUT">    500.00000000</i>
  <i type="logical" name="LREAL"> F  </i>
  <i type="int" name="ISMEAR">     0</i>
  <i name="SIGMA">      0.05000000</i>
  <i type="logical" name="LWAVE"> F  </i>
  <i type="logical" name="LCHARG"> F  </i>
  <i type="int" name="NELM">   100</i>
  <i type="logical" name="LDAU"> T  </i>
  <v name="LDAUU">      0.00000000      4.00000000      0.00000000</v>
  <v name="LDAUJ">      0.00000000      0.00000000      0.00000000</v>
 </incar>
 <kpoints>
  <generation param="Auto">
   <i name="subdivisionlength">     20.00000000 </i>
   <v type="int" name="divisions">       4        5        2 </v>
   <v name="usershift">      0.00000000       0.00000000       0.00000000 </v>
   <v name="genvec1">      0.25000000       0.00000000       0.00000000 </v>
   <v name="genvec2">      0.00000000       0.20000000       0.00000000 </v>
   <v name="genvec3">      0.00000000       0.00000000       0.50000000 </v>
   <v name="shift">      0.00000000       0.00000000       0.00000000 </v>
  </generation>
  <varray name="kpointlist" >
   <v>       0.00000000       0.00000000       0.00000000 </v>
   <v>       0.25000000       0.00000000       0.00000000 </v>
   <v>       0.50000000       0.00000000       0.00000000 </v>
   <v>       0.00000000       0.20000000       0.00000000 </v>
   <v>       0.25000000       0.20000000       0.00000000 </v>
   <v>       0.50000000       0.20000000       0.00000000 </v>
   <v>       0.00000000       0.40000000       0.00000000 </v>
   <v>       0.25000000       0.40000000       0.00000000 </v>
   <v>       0.50000000       0.40000000       0.00000000 </v>
   <v>       0.00000000       0.00000000       0.50000000 </v>
   <v>       0.25000000       0.00000000       0.50000000 </v>
   <v>       0.50000000       0.00000000       0.50000000 </v>
   <v>       0.00000000       0.20000000       0.50000000 </v>
   <v>       0.25000000       0.20000000       0.50000000 </v>
   <v>       0.50000000       0.20000000       0.50000000 </v>
   <v>       0.00000000       0.40000000       0.50000000 </v>
   <v>       0.25000000       0.40000000       0.50000000 </v>
   <v>       0.50000000       0.40000000       0.50000000 </v>
  </varray>
  <varray name="weights" >
   <v>       0.02500000 </v>
   <v>       0.05000000 </v>
   <v>       0.02500000 </v>
   <v>       0.05000000 </v>
   <v>       0.10000000 </v>
   <v>       0.05000000 </v>
   <v>       0.05000000 </v>
   <v>       0.10000000 </v>
   <v>       0.05000000 </v>
   <v>       0.02500000 </v>
   <v>       0.05000000 </v>
   <v>       0.02500000 </v>
   <v>       0.05000000 </v>
   <v>       0.10000000 </v>
   <v>       0.05000000 </v>
   <v>       0.05000000 </v>
   <v>       0.10000000 </v>
   <v>       0.05000000 </v>
  </varray>
 </kpoints>
 <parameters>
  <separator name="general" >
   <i type="string" name="SYSTEM">unknown system</i>
   <i type="logical" name="LCOMPAT"> F  </i>
  </separator>
  <separator name="electronic" >
   <i type="string" name="PREC">accura</i>
   <i name="ENMAX">    500.00000000</i>
   <i name="ENAUG">    586.98000000</i>
   <i name="EDIFF">      0.00000100</i>
   <i type="int" name="IALGO">    38</i>
   <i type="int" name="IWAVPR">    10</i>
   <i type="int" name="NBANDS">    88</i>
   <i name="NELECT">    132.00000000</i>
   <i type="int" name="TURBO">     0</i>
   <i type="int" name="IRESTART">     0</i>
   <i type="int" name="NREBOOT">     0</i>
   <i type="int" name="NMIN">     0</i>
   <i name="EREF">      0.00000000</i>
   <separator name="electronic smearing" >
    <i type="int" name="ISMEAR">     0</i>
    <i name="SIGMA">      0.05000000</i>
    <i name="KSPACING">      0.50000000</i>
    <i type="logical" name="KGAMMA"> T  </i>
   </separator>
   <separator name="electronic projectors" >
    <i type="logical" name="LREAL"> F  </i>
    <v name="ROPT">      0.00000000      0.00000000      0.00000000</v>
    <i type="int" name="LMAXPAW">  -100</i>
    <i type="int" name="LMAXMIX">     2</i>
    <i type="logical" name="NLSPLINE"> F  </i>
   </separator>
   <separator name="electronic startup" >
    <i type="int" name="ISTART">     0</i>
    <i type="int" name="ICHARG">     2</i>
    <i type="int" name="INIWAV">     1</i>
   </separator>
   <separator name="electronic spin" >
    <i type="int" name="ISPIN">     2</i>
    <i type="logical" name="LNONCOLLINEAR"> F  </i>
    <v name="MAGMOM">      1.00000000      1.00000000      1.00000000      1.00000000      1.00000000      1.00000000      1.00000000      1.00000000      1.00000000      1.00000000      1.00000000      1.00000000      1.00000000      1.00000000      1.00000000      1.00000000</v>
    <i name="NUPDOWN">     -1.00000000</i>
    <i type="logical" name="LSORBIT"> F  </i>
    <v name="SAXIS">      0.00000000      0.00000000      1.00000000</v>
    <i type="logical" name="LSPIRAL"> F  </i>
    <v name="QSPIRAL">      0.00000000      0.00000000      0.00000000</v>
    <i type="logical" name="LZEROZ"> F  </i>
   </separator>
   <separator name="electronic exchange-correlation" >
    <i type="logical" name="LASPH"> F  </i>
    <i type="logical" name="LMETAGGA"> F  </i>
   </separator>
   <separator name="electronic convergence" >
    <i type="int" name="NELM">   100</i>
    <i type="int" name="NELMDL">    -5</i>
    <i type="int" name="NELMIN">     4</i>
    <i name="ENINI">    500.00000000</i>
    <separator name="electronic convergence detail" >
     <i type="logical" name="LDIAG"> T  </i>
     <i type="logical" name="LSUBROT"> F  </i>
     <i name="WEIMIN">      0.00000000</i>
     <i name="EBREAK">      0.00000000</i>
     <i name="DEPER">      0.30000000</i>
     <i type="int" name="NRMM">     4</i>
     <i name="TIME">      0.40000000</i>
    </separator>
   </separator>
   <separator name="electronic mixer" >
    <i name="AMIX">      0.40000000</i>
    <i name="BMIX">      1.00000000</i>
    <i name="AMIN">      0.10000000</i>
    <i name="AMIX_MAG">      1.60000000</i>
    <i name="BMIX_MAG">      1.00000000</i>
    <separator name="electronic mixer details" >
     <i type="int" name="IMIX">     4</i>
     <i type="int" name="MAXMIX">   -45</i>
     <i name="WC">    100.00000000</i>
     <i type="int" name="INIMIX">     1</i>
     <i type="int" name="MIXPRE">     1</i>
     <i type="int" name="MREMOVE">     5</i>
    </separator>
   </separator>
   <separator name="electronic dipolcorrection" >
    <i type="logical" name="LDIPOL"> F  </i>
    <i type="logical" name="LMONO"> F  </i>
    <i type="int" name="IDIPOL">     0</i>
    <i name="EPSILON">      1.00000000</i>
    <v name="DIPOL">   -100.00000000   -100.00000000   -100.00000000</v>
    <i name="EFIELD">      0.00000000</i>
   </separator>
  </separator>
  <separator name="grids" >
   <i type="int" name="NGX">    42</i>
   <i type="int" name="NGY">    30</i>
   <i type="int" name="NGZ">    84</i>
   <i type="int" name="NGXF">    84</i>
   <i type="int" name="NGYF">    60</i>
   <i type="int" name="NGZF">   168</i>
   <i type="logical" name="ADDGRID"> T  </i>
  </separator>
  <separator name="ionic" >
   <i type="int" name="NSW">     0</i>
   <i type="int" name="IBRION">    -1</i>
   <i type="int" name="ISIF">     2</i>
   <i name="PSTRESS">      0.00000000</i>
   <i name="EDIFFG">      0.00001000</i>
   <i type="int" name="NFREE">     0</i>
   <i name="POTIM">      0.50000000</i>
   <i name="SMASS">     -3.00000000</i>
   <i name="SCALEE">      1.00000000</i>
  </separator>
  <separator name="ionic md" >
   <i name="TEBEG">      0.00010000</i>
   <i name="TEEND">      0.00010000</i>
   <i type="int" name="NBLOCK">     1</i>
   <i type="int" name="KBLOCK">     1</i>
   <i type="int" name="NPACO">   256</i>
   <i name="APACO">     16.00000000</i>
  </separator>
  <separator name="symmetry" >
   <i type="int" name="ISYM">     2</i>
   <i name="SYMPREC">      0.00001000</i>
  </separator>
  <separator name="dos" >
   <i type="logical" name="LORBIT"> F  </i>
   <v name="RWIGS">     -1.00000000     -1.00000000     -1.00000000</v>
   <i type="int" name="NEDOS">   301</i>
   <i name="EMIN">     10.00000000</i>
   <i name="EMAX">    -10.00000000</i>
   <i name="EFERMI">      0.00000000</i>
  </separator>
  <separator name="writing" >
   <i type="int" name="NWRITE">     2</i>
   <i type="logical" name="LWAVE"> F  </i>
   <i type="logical" name="LCHARG"> F  </i>
   <i type="logical" name="LPARD"> F  </i>
   <i type="logical" name="LVTOT"> F  </i>
   <i type="logical" name="LVHAR"> F  </i>
   <i type="logical" name="LELF"> F  </i>
   <i type="logical" name="LOPTICS"> F  </i>
   <v name="STM">      0.00000000      0.00000000      0.00000000      0.00000000      0.00000000      0.00000000      0.00000000</v>
  </separator>
  <separator name="performance" >
   <i type="int" name="NPAR">     4</i>
   <i type="int" name="NSIM">     4</i>
   <i type="int" name="NBLK">    -1</i>
   <i type="logical" name="LPLANE"> T  </i>
   <i type="logical" name="LSCALAPACK"> T  </i>
   <i type="logical" name="LSCAAWARE"> F  </i>
   <i type="logical" name="LSCALU"> F  </i>
   <i type="logical" name="LASYNC"> F  </i>
   <i type="logical" name="LORBITALREAL"> F  </i>
  </separator>
  <separator name="miscellaneous" >
   <i type="int" name="IDIOT">     3</i>
   <i type="logical" name="LMUSIC"> F  </i>
   <v name="POMASS">     87.62000000     63.54600000     16.00000000</v>
   <v name="DARWINR">      0.00000000      0.00000000      0.00000000</v>
   <v name="DARWINV">      1.00000000      1.00000000      1.00000000</v>
   <i type="logical" name="LCORR"> T  </i>
  </separator>
  <i type="logical" name="GGA_COMPAT"> T  </i>
  <i type="logical" name="LBERRY"> F  </i>
  <i type="int" name="ICORELEVEL">     0</i>
  <i type="logical" name="LDAU"> T  </i>
  <v type="int" name="LDAUTYPE">     2</v>
  <v type="int" name="LDAUL">     2</v>
  <v name="LDAUU">      0.00000000</v>
  <v name="LDAUJ">      0.00000000</v>
  <i type="int" name="LDAUPRINT">     0</i>
  <i type="int" name="I_CONSTRAINED_M">     0</i>
  <separator name="electronic exchange-correlation" >
   <i type="string" name="GGA">--</i>
   <i type="int" name="VOSKOWN">     0</i>
   <i type="logical" name="LHFCALC"> F  </i>
   <i type="string" name="PRECFOCK"></i>
   <i type="logical" name="LSYMGRAD"> F  </i>
   <i type="logical" name="LHFONE"> F  </i>
   <i type="logical" name="LRHFCALC"> F  </i>
   <i type="logical" name="LTHOMAS"> F  </i>
   <i type="logical" name="LMODELHF"> F  </i>
   <i name="ENCUT4O">     -1.00000000</i>
   <i type="int" name="EXXOEP">     0</i>
   <i type="int" name="FOURORBIT">     0</i>
   <i name="AEXX">      0.00000000</i>
   <i name="HFALPHA">      0.00000000</i>
   <i name="MCALPHA">      0.00000000</i>
   <i name="ALDAX">      1.00000000</i>
   <i name="AGGAX">      1.00000000</i>
   <i name="ALDAC">      1.00000000</i>
   <i name="AGGAC">      1.00000000</i>
   <i type="int" name="NKREDX">     1</i>
   <i type="int" name="NKREDY">     1</i>
   <i type="int" name="NKREDZ">     1</i>
   <i type="logical" name="SHIFTRED"> F  </i>
   <i type="logical" name="ODDONLY"> F  </i>
   <i type="logical" name="EVENONLY"> F  </i>
   <i type="int" name="LMAXFOCK">     0</i>
   <i type="int" name="NMAXFOCKAE">     0</i>
   <i type="logical" name="LFOCKAEDFT"> F  </i>
   <i name="HFSCREEN">      0.00000000</i>
   <i name="HFSCREENC">      0.00000000</i>
   <i type="int" name="NBANDSGWLOW">     0</i>
  </separator>
  <separator name="vdW DFT" >
   <i type="logical" name="LUSE_VDW"> F  </i>
   <i name="Zab_VDW">     -0.84910000</i>
   <i name="PARAM1">      0.12340000</i>
   <i name="PARAM2">      1.00000000</i>
   <i name="PARAM3">      0.00000000</i>
  </separator>
  <separator name="model GW" >
   <i type="int" name="MODEL_GW">     0</i>
   <i name="MODEL_EPS0">      9.60000000</i>
   <i name="MODEL_ALPHA">      1.00000000</i>
  </separator>
  <separator name="linear response parameters" >
   <i type="logical" name="LEPSILON"> F  </i>
   <i type="logical" name="LRPA"> F  </i>
   <i type="logical" name="LNABLA"> F  </i>
   <i type="logical" name="LVEL"> F  </i>
   <i type="int" name="KINTER">     0</i>
   <i name="CSHIFT">      0.10000000</i>
   <i name="OMEGAMAX">     -1.00000000</i>
   <i name="DEG_THRESHOLD">      0.00200000</i>
  </separator>
  <separator name="orbital magnetization" >
   <i type="logical" name="NUCIND"> F  </i>
   <v name="MAGPOS">      0.00000000      0.00000000      0.00000000</v>
   <i type="logical" name="LNICSALL"> T  </i>
   <i type="logical" name="ORBITALMAG"> F  </i>
   <i type="logical" name="LMAGBLOCH"> F  </i>
   <i type="logical" name="LCHIMAG"> F  </i>
   <i type="logical" name="LGAUGE"> T  </i>
   <i type="int" name="MAGATOM">     0</i>
   <v name="MAGDIPOL">      0.00000000      0.00000000      0.00000000</v>
   <v name="AVECCONST">      0.00000000      0.00000000      0.00000000</v>
  </separator>
  <separator name="response functions" >
   <i type="logical" name="LADDER"> F  </i>
   <i type="logical" name="LFXC"> F  </i>
   <i type="logical" name="LHARTREE"> T  </i>
   <i type="int" name="IBSE">     0</i>
   <i type="logical" name="LTCTE"> F  </i>
   <i type="logical" name="LTETE"> F  </i>
   <i type="logical" name="LTRIPLET"> F  </i>
   <i type="logical" name="LFXCEPS"> F  </i>
   <i type="logical" name="LFXHEG"> F  </i>
   <i type="logical" name="L2ORDER"> F  </i>
   <i type="logical" name="LUSEW"> F  </i>
   <i name="ENCUTGW">     -2.00000000</i>
   <i name="ENCUTGWSOFT">     -2.00000000</i>
   <i name="ENCUTLF">     -1.00000000</i>
   <i type="int" name="LMAXMP2">    -1</i>
   <i name="SCISSOR">      0.00000000</i>
   <i type="int" name="NOMEGA">     0</i>
   <i type="int" name="NOMEGAR">     0</i>
   <i type="int" name="NBANDSGW">    -1</i>
   <i type="int" name="NBANDSO">    -1</i>
   <i type="int" name="NBANDSV">    -1</i>
   <i type="int" name="NELM">   100</i>
   <i type="int" name="DIM">     3</i>
   <i type="int" name="ANTIRES">     0</i>
   <i name="OMEGAMAX">    -30.00000000</i>
   <i name="OMEGAMIN">    -30.00000000</i>
   <i name="OMEGATL">   -200.00000000</i>
   <i type="int" name="OMEGAGRID">     0</i>
   <i name="CSHIFT">     -0.10000000</i>
   <i type="logical" name="SELFENERGY"> F  </i>
   <i type="logical" name="LSPECTRAL"> F  </i>
   <i type="logical" name="ODDONLYGW"> F  </i>
   <i type="logical" name="EVENONLYGW"> F  </i>
   <i type="int" name="NKREDLFX">     1</i>
   <i type="int" name="NKREDLFY">     1</i>
   <i type="int" name="NKREDLFZ">     1</i>
   <i type="int" name="MAXMEM">  1800</i>
   <i type="int" name="TELESCOPE">     0</i>
   <i type="int" name="TAUPAR">     1</i>
  </separator>
  <separator name="External order field" >
   <i name="OFIELD_KAPPA">      0.00000000</i>
   <v name="OFIELD_K">      0.00000000      0.00000000      0.00000000</v>
   <i name="OFIELD_Q6_NEAR">      0.00000000</i>
   <i name="OFIELD_Q6_FAR">      0.00000000</i>
   <i name="OFIELD_A">      0.00000000</i>
  </separator>
 </parameters>
 <atominfo>
  <atoms>      16 </atoms>
  <types>       3 </types>
  <array name="atoms" >
   <dimension dim="1">ion</dimension>
   <field type="string">element</field>
   <field type="int">atomtype</field>
   <set>
    <rc><c>Sr</c><c>   1</c></rc>
    <rc><c>Sr</c><c>   1</c></rc>
    <rc><c>Sr</c><c>   1</c></rc>
    <rc><c>Sr</c><c>   1</c></rc>
    <rc><c>Cu</c><c>   2</c></rc>
    <rc><c>Cu</c><c>   2</c></rc>
    <rc><c>Cu</c><c>   2</c></rc>
    <rc><c>Cu</c><c>   2</c></rc>
    <rc><c>O </c><c>   3</c></rc>
    <rc><c>O </c><c>   3</c></rc>
    <rc><c>O </c><c>   3</c></rc>
    <rc><c>O </c><c>   3</c></rc>
    <rc><c>O </c><c>   3</c></rc>
    <rc><c>O </c><c>   3</c></rc>
    <rc><c>O </c><c>   3</c></rc>
    <rc><c>O </c><c>   3</c></rc>
   </set>
  </array>
  <array name="atomtypes" >
   <dimension dim="1">type</dimension>
   <field type="int">atomspertype</field>
   <field type="string">element</field>
   <field>mass</field>
   <field>valence</field>
   <field type="string">pseudopotential</field>
   <set>
    <rc><c>   4</c><c>Sr</c><c>     87.62000000</c><c>     10.00000000</c><c>  PAW_PBE Sr_sv 07Sep2000               </c></rc>
    <rc><c>   4</c><c>Cu</c><c>     63.54600000</c><c>     11.00000000</c><c>  PAW_PBE Cu 22Jun2005                  </c></rc>
    <rc><c>   8</c><c>O </c><c>     16.00000000</c><c>      6.00000000</c><c>  PAW_PBE O_s 07Sep2000                 </c></rc>
   </set>
  </array>
 </atominfo>
 <structure name="initialpos" >
  <crystal>
   <varray name="basis" >
    <v>       5.65685425       0.00000000       0.00000000 </v>
    <v>       0.00000000       4.00000000       0.00000000 </v>
    <v>       0.00000000       0.00000000      11.31370850 </v>
   </varray>
   <i name="volume">    256.00000000 </i>
   <varray name="rec_basis" >
    <v>       0.17677670       0.00000000       0.00000000 </v>
    <v>       0.00000000       0.25000000       0.00000000 </v>
    <v>       0.00000000       0.00000000       0.08838835 </v>
   </varray>
  </crystal>
  <varray name="positions" >
   <v>       0.00000000       0.00000000       0.00000000 </v>
   <v>       0.50000000       0.00000000       0.25000000 </v>
   <v>       0.00000000       0.00000000       0.50000000 </v>
   <v>       0.50000000       0.00000000       0.75000000 </v>
   <v>       0.50000000       0.50000000       0.00000000 </v>
   <v>       0.00000000       0.50000000       0.25000000 </v>
   <v>       0.50000000       0.50000000       0.50000000 </v>
   <v>       0.00000000       0.50000000       0.75000000 </v>
   <v>       0.75000000       0.50000000       0.37500000 </v>
   <v>       0.25000000       0.50000000       0.62500000 </v>
   <v>       0.50000000       0.00000000       0.00000000 </v>
   <v>       0.50000000       0.00000000       0.50000000 </v>
   <v>       0.00000000       0.00000000       0.75000000 </v>
   <v>       0.75000000       0.50000000       0.12500000 </v>
   <v>       0.75000000       0.50000000       0.62500000 </v>
   <v>       0.25000000       0.50000000       0.87500000 </v>
  </varray>
 </structure>
 <calculation>
  <scstep>
   <time name="dav">    2.03    2.03</time>
   <time name="total">    2.13    2.14</time>
   <energy>
    <i name="alphaZ">    598.65364144 </i>
    <i name="ewald">  -8465.86450570 </i>
    <i name="hartreedc">  -3978.23916811 </i>
    <i name="XCdc">    543.16519023 </i>
    <i name="pawpsdc">  10188.96972968 </i>
    <i name="pawaedc"> -10517.73277125 </i>
    <i name="eentropy">     -0.00615328 </i>
    <i name="bandstr">    883.95693295 </i>
    <i name="atom">  12395.00728236 </i>
    <i name="e_fr_energy">   1647.91017833 </i>
    <i name="e_wo_entrp">   1647.91633161 </i>
    <i name="e_0_energy">   1647.91325497 </i>
   </energy>
  </scstep>
  <scstep>
   <time name="dav">    2.20    2.20</time>
   <time name="total">    2.20    2.21</time>
   <energy>
    <i name="e_fr_energy">    151.42065698 </i>
    <i name="e_wo_entrp">    151.42644158 </i>
    <i name="e_0_energy">    151.42354928 </i>
   </energy>
  </scstep>
  <scstep>
   <time name="dav">    2.17    2.17</time>
   <time name="total">    2.17    2.19</time>
   <energy>
    <i name="e_fr_energy">    -78.16314155 </i>
    <i name="e_wo_entrp">    -78.14760621 </i>
    <i name="e_0_energy">    -78.15537388 </i>
   </energy>
  </scstep>
  <scstep>
   <time name="dav">    2.85    2.85</time>
   <time name="total">    2.85    2.86</time>
   <energy>
    <i name="e_fr_energy">    -95.81451577 </i>
    <i name="e_wo_entrp">    -95.79929063 </i>
    <i name="e_0_energy">    -95.80690320 </i>
   </energy>
  </scstep>
  <scstep>
   <time name="dav">    3.52    3.52</time>
   <time name="total">    3.72    3.73</time>
   <energy>
    <i name="e_fr_energy">    -96.84601238 </i>
    <i name="e_wo_entrp">    -96.83066697 </i>
    <i name="e_0_energy">    -96.83833967 </i>
   </energy>
  </scstep>
  <scstep>
   <time name="dav">    2.78    2.78</time>
   <time name="total">    3.08    3.09</time>
   <energy>
    <i name="e_fr_energy">    -86.30657626 </i>
    <i name="e_wo_entrp">    -86.29187759 </i>
    <i name="e_0_energy">    -86.29922693 </i>
   </energy>
  </scstep>
  <scstep>
   <time name="dav">    2.75    2.75</time>
   <time name="total">    3.05    3.06</time>
   <energy>
    <i name="e_fr_energy">    -78.44729526 </i>
    <i name="e_wo_entrp">    -78.43905360 </i>
    <i name="e_0_energy">    -78.44317443 </i>
   </energy>
  </scstep>
  <scstep>
   <time name="dav">    3.20    3.20</time>
   <time name="total">    3.49    3.51</time>
   <energy>
    <i name="e_fr_energy">    -81.02558388 </i>
    <i name="e_wo_entrp">    -81.00504761 </i>
    <i name="e_0_energy">    -81.01531575 </i>
   </energy>
  </scstep>
  <scstep>
   <time name="dav">    2.76    2.76</time>
   <time name="total">    3.05    3.07</time>
   <energy>
    <i name="e_fr_energy">    -80.33897993 </i>
    <i name="e_wo_entrp">    -80.32875562 </i>
    <i name="e_0_energy">    -80.33386778 </i>
   </energy>
  </scstep>
  <scstep>
   <time name="dav">    2.76    2.76</time>
   <time name="total">    3.05    3.07</time>
   <energy>
    <i name="e_fr_energy">    -78.24299216 </i>
    <i name="e_wo_entrp">    -78.23357845 </i>
    <i name="e_0_energy">    -78.23828530 </i>
   </energy>
  </scstep>
  <scstep>
   <time name="dav">    2.93    2.93</time>
   <time name="total">    3.23    3.24</time>
   <energy>
    <i name="e_fr_energy">    -77.63287935 </i>
    <i name="e_wo_entrp">    -77.62495225 </i>
    <i name="e_0_energy">    -77.62891580 </i>
   </energy>
  </scstep>
  <scstep>
   <time name="dav">    2.81    2.81</time>
   <time name="total">    3.11    3.12</time>
   <energy>
    <i name="e_fr_energy">    -77.70858649 </i>
    <i name="e_wo_entrp">    -77.70398058 </i>
    <i name="e_0_energy">    -77.70628354 </i>
   </energy>
  </scstep>
  <scstep>
   <time name="dav">    2.75    2.75</time>
   <time name="total">    3.04    3.06</time>
   <energy>
    <i name="e_fr_energy">    -77.77427874 </i>
    <i name="e_wo_entrp">    -77.76977352 </i>
    <i name="e_0_energy">    -77.77202613 </i>
   </energy>
  </scstep>
  <scstep>
   <time name="dav">    2.69    2.69</time>
   <time name="total">    2.98    3.00</time>
   <energy>
    <i name="e_fr_energy">    -77.77544955 </i>
    <i name="e_wo_entrp">    -77.77163843 </i>
    <i name="e_0_energy">    -77.77354399 </i>
   </energy>
  </scstep>
  <scstep>
   <time name="dav">    2.93    2.93</time>
   <time name="total">    3.22    3.24</time>
   <energy>
    <i name="e_fr_energy">    -77.77786523 </i>
    <i name="e_wo_entrp">    -77.77315497 </i>
    <i name="e_0_energy">    -77.77551010 </i>
   </energy>
  </scstep>
  <scstep>
   <time name="dav">    2.76    2.76</time>
   <time name="total">    3.05    3.06</time>
   <energy>
    <i name="e_fr_energy">    -77.78000739 </i>
    <i name="e_wo_entrp">    -77.77518935 </i>
    <i name="e_0_energy">    -77.77759837 </i>
   </energy>
  </scstep>
  <scstep>
   <time name="dav">    2.89    2.92</time>
   <time name="total">    3.19    3.23</time>
   <energy>
    <i name="e_fr_energy">    -77.78084912 </i>
    <i name="e_wo_entrp">    -77.77588756 </i>
    <i name="e_0_energy">    -77.77836834 </i>
   </energy>
  </scstep>
  <scstep>
   <time name="dav">    2.75    2.75</time>
   <time name="total">    3.06    3.07</time>
   <energy>
    <i name="e_fr_energy">    -77.78214180 </i>
    <i name="e_wo_entrp">    -77.77713047 </i>
    <i name="e_0_energy">    -77.77963614 </i>
   </energy>
  </scstep>
  <scstep>
   <time name="dav">    2.78    2.78</time>
   <time name="total">    3.07    3.09</time>
   <energy>
    <i name="e_fr_energy">    -77.78254067 </i>
    <i name="e_wo_entrp">    -77.77743922 </i>
    <i name="e_0_energy">    -77.77998995 </i>
   </energy>
  </scstep>
  <scstep>
   <time name="dav">    2.78    2.79</time>
   <time name="total">    3.08    3.09</time>
   <energy>
    <i name="e_fr_energy">    -77.78275421 </i>
    <i name="e_wo_entrp">    -77.77755044 </i>
    <i name="e_0_energy">    -77.78015233 </i>
   </energy>
  </scstep>
  <scstep>
   <time name="dav">    2.76    2.76</time>
   <time name="total">    3.06    3.07</time>
   <energy>
    <i name="e_fr_energy">    -77.78292004 </i>
    <i name="e_wo_entrp">    -77.77756261 </i>
    <i name="e_0_energy">    -77.78024132 </i>
   </energy>
  </scstep>
  <scstep>
   <time name="dav">    2.78    2.78</time>
   <time name="total">    3.08    3.09</time>
   <energy>
    <i name="e_fr_energy">    -77.78297325 </i>
    <i name="e_wo_entrp">    -77.77754050 </i>
    <i name="e_0_energy">    -77.78025688 </i>
   </energy>
  </scstep>
  <scstep>
   <time name="dav">    2.71    2.71</time>
   <time name="total">    3.07    3.08</time>
   <energy>
    <i name="e_fr_energy">    -77.78305432 </i>
    <i name="e_wo_entrp">    -77.77749935 </i>
    <i name="e_0_energy">    -77.78027683 </i>
   </energy>
  </scstep>
  <scstep>
   <time name="dav">    2.79    2.79</time>
   <time name="total">    3.08    3.10</time>
   <energy>
    <i name="e_fr_energy">    -77.78312424 </i>
    <i name="e_wo_entrp">    -77.77744906 </i>
    <i name="e_0_energy">    -77.78028665 </i>
   </energy>
  </scstep>
  <scstep>
   <time name="dav">    2.69    2.69</time>
   <time name="total">    2.98    3.00</time>
   <energy>
    <i name="e_fr_energy">    -77.78319316 </i>
    <i name="e_wo_entrp">    -77.77736596 </i>
    <i name="e_0_energy">    -77.78027956 </i>
   </energy>
  </scstep>
  <scstep>
   <time name="dav">    2.80    2.80</time>
   <time name="total">    3.10    3.11</time>
   <energy>
    <i name="e_fr_energy">    -77.78324316 </i>
    <i name="e_wo_entrp">    -77.77730528 </i>
    <i name="e_0_energy">    -77.78027422 </i>
   </energy>
  </scstep>
  <scstep>
   <time name="dav">    2.71    2.71</time>
   <time name="total">    3.01    3.02</time>
   <energy>
    <i name="e_fr_energy">    -77.78328074 </i>
    <i name="e_wo_entrp">    -77.77724553 </i>
    <i name="e_0_energy">    -77.78026314 </i>
   </energy>
  </scstep>
  <scstep>
   <time name="dav">    2.83    2.83</time>
   <time name="total">    3.13    3.14</time>
   <energy>
    <i name="e_fr_energy">    -77.78331056 </i>
    <i name="e_wo_entrp">    -77.77719733 </i>
    <i name="e_0_energy">    -77.78025394 </i>
   </energy>
  </scstep>
  <scstep>
   <time name="dav">    2.80    2.80</time>
   <time name="total">    3.10    3.11</time>
   <energy>
    <i name="e_fr_energy">    -77.78333412 </i>
    <i name="e_wo_entrp">    -77.77716215 </i>
    <i name="e_0_energy">    -77.78024814 </i>
   </energy>
  </scstep>
  <scstep>
   <time name="dav">    2.87    2.87</time>
   <time name="total">    3.17    3.18</time>
   <energy>
    <i name="e_fr_energy">    -77.78335272 </i>
    <i name="e_wo_entrp">    -77.77711706 </i>
    <i name="e_0_energy">    -77.78023489 </i>
   </energy>
  </scstep>
  <scstep>
   <time name="dav">    2.78    2.78</time>
   <time name="total">    3.08    3.09</time>
   <energy>
    <i name="e_fr_energy">    -77.78336836 </i>
    <i name="e_wo_entrp">    -77.77713539 </i>
    <i name="e_0_energy">    -77.78025187 </i>
   </energy>
  </scstep>
  <scstep>
   <time name="dav">    2.13    2.13</time>
   <time name="total">    2.43    2.45</time>
   <energy>
    <i name="e_fr_energy">    -77.78337410 </i>
    <i name="e_wo_entrp">    -77.77712797 </i>
    <i name="e_0_energy">    -77.78025104 </i>
   </energy>
  </scstep>
  <scstep>
   <time name="dav">    1.69    1.69</time>
   <time name="total">    1.99    2.00</time>
   <energy>
    <i name="e_fr_energy">    -77.78337569 </i>
    <i name="e_wo_entrp">    -77.77712997 </i>
    <i name="e_0_energy">    -77.78025283 </i>
   </energy>
  </scstep>
  <scstep>
   <time name="dav">    1.85    1.85</time>
   <time name="total">    2.15    2.16</time>
   <energy>
    <i name="e_fr_energy">    -77.78337119 </i>
    <i name="e_wo_entrp">    -77.77713538 </i>
    <i name="e_0_energy">    -77.78025329 </i>
   </energy>
  </scstep>
  <scstep>
   <time name="dav">    1.93    1.93</time>
   <time name="total">    2.23    2.24</time>
   <energy>
    <i name="e_fr_energy">    -77.78337832 </i>
    <i name="e_wo_entrp">    -77.77712664 </i>
    <i name="e_0_energy">    -77.78025248 </i>
   </energy>
  </scstep>
  <scstep>
   <time name="dav">    2.50    2.50</time>
   <time name="total">    2.80    2.81</time>
   <energy>
    <i name="e_fr_energy">    -77.78338536 </i>
    <i name="e_wo_entrp">    -77.77711642 </i>
    <i name="e_0_energy">    -77.78025089 </i>
   </energy>
  </scstep>
  <scstep>
   <time name="dav">    2.34    2.34</time>
   <time name="total">    2.64    2.65</time>
   <energy>
    <i name="e_fr_energy">    -77.78339124 </i>
    <i name="e_wo_entrp">    -77.77711388 </i>
    <i name="e_0_energy">    -77.78025256 </i>
   </energy>
  </scstep>
  <scstep>
   <time name="dav">    1.74    1.74</time>
   <time name="total">    2.05    2.06</time>
   <energy>
    <i name="e_fr_energy">    -77.78339297 </i>
    <i name="e_wo_entrp">    -77.77711486 </i>
    <i name="e_0_energy">    -77.78025392 </i>
   </energy>
  </scstep>
  <scstep>
   <time name="dav">    1.75    1.75</time>
   <time name="total">    2.05    2.06</time>
   <energy>
    <i name="e_fr_energy">    -77.78339541 </i>
    <i name="e_wo_entrp">    -77.77711197 </i>
    <i name="e_0_energy">    -77.78025369 </i>
   </energy>
  </scstep>
  <scstep>
   <time name="dav">    2.19    2.19</time>
   <time name="total">    2.49    2.50</time>
   <energy>
    <i name="e_fr_energy">    -77.78339961 </i>
    <i name="e_wo_entrp">    -77.77710251 </i>
    <i name="e_0_energy">    -77.78025106 </i>
   </energy>
  </scstep>
  <scstep>
   <time name="dav">    2.09    2.09</time>
   <time name="total">    2.39    2.41</time>
   <energy>
    <i name="e_fr_energy">    -77.78340263 </i>
    <i name="e_wo_entrp">    -77.77710359 </i>
    <i name="e_0_energy">    -77.78025311 </i>
   </energy>
  </scstep>
  <scstep>
   <time name="dav">    1.92    1.92</time>
   <time name="total">    2.22    2.24</time>
   <energy>
    <i name="e_fr_energy">    -77.78340507 </i>
    <i name="e_wo_entrp">    -77.77709926 </i>
    <i name="e_0_energy">    -77.78025217 </i>
   </energy>
  </scstep>
  <scstep>
   <time name="dav">    2.08    2.08</time>
   <time name="total">    2.39    2.40</time>
   <energy>
    <i name="e_fr_energy">    -77.78340762 </i>
    <i name="e_wo_entrp">    -77.77709478 </i>
    <i name="e_0_energy">    -77.78025120 </i>
   </energy>
  </scstep>
  <scstep>
   <time name="dav">    1.96    1.96</time>
   <time name="total">    2.26    2.27</time>
   <energy>
    <i name="e_fr_energy">    -77.78340931 </i>
    <i name="e_wo_entrp">    -77.77709442 </i>
    <i name="e_0_energy">    -77.78025187 </i>
   </energy>
  </scstep>
  <scstep>
   <time name="dav">    1.55    1.55</time>
   <time name="total">    1.65    1.66</time>
   <energy>
    <i name="alphaZ">    598.65364144 </i>
    <i name="ewald">  -8465.86450570 </i>
    <i name="hartreedc">  -3979.23481835 </i>
    <i name="XCdc">    543.11884434 </i>
    <i name="pawpsdc">  15496.43683341 </i>
    <i name="pawaedc"> -15861.53426966 </i>
    <i name="eentropy">     -0.00631534 </i>
    <i name="bandstr">   -804.36010228 </i>
    <i name="atom">  12395.00728236 </i>
    <i name="e_fr_energy">    -77.78340977 </i>
    <i name="e_wo_entrp">    -77.77709443 </i>
    <i name="e_0_energy">    -77.78025210 </i>
   </energy>
  </scstep>
  <structure>
   <crystal>
    <varray name="basis" >
     <v>       5.65685425       0.00000000       0.00000000 </v>
     <v>       0.00000000       4.00000000       0.00000000 </v>
     <v>       0.00000000       0.00000000      11.31370850 </v>
    </varray>
    <i name="volume">    256.00000000 </i>
    <varray name="rec_basis" >
     <v>       0.17677670       0.00000000       0.00000000 </v>
     <v>       0.00000000       0.25000000       0.00000000 </v>
     <v>       0.00000000       0.00000000       0.08838835 </v>
    </varray>
   </crystal>
   <varray name="positions" >
    <v>       0.00000000       0.00000000       0.00000000 </v>
    <v>       0.50000000       0.00000000       0.25000000 </v>
    <v>       0.00000000       0.00000000       0.50000000 </v>
    <v>       0.50000000       0.00000000       0.75000000 </v>
    <v>       0.50000000       0.50000000       0.00000000 </v>
    <v>       0.00000000       0.50000000       0.25000000 </v>
    <v>       0.50000000       0.50000000       0.50000000 </v>
    <v>       0.00000000       0.50000000       0.75000000 </v>
    <v>       0.75000000       0.50000000       0.37500000 </v>
    <v>       0.25000000       0.50000000       0.62500000 </v>
    <v>       0.50000000       0.00000000       0.00000000 </v>
    <v>       0.50000000       0.00000000       0.50000000 </v>
    <v>       0.00000000       0.00000000       0.75000000 </v>
    <v>       0.75000000       0.50000000       0.12500000 </v>
    <v>       0.75000000       0.50000000       0.62500000 </v>
    <v>       0.25000000       0.50000000       0.87500000 </v>
   </varray>
  </structure>
  <varray name="forces" >
   <v>       0.19608179       0.00000000      -1.02138741 </v>
   <v>       1.68399173       0.00000000       0.23430711 </v>
   <v>      -0.72287795       0.00000000       1.81256195 </v>
   <v>      -0.85613005       0.00000000      -1.05747377 </v>
   <v>      -0.20181266       0.00000000      -0.06205067 </v>
   <v>      -1.07405233       0.00000000       0.09154552 </v>
   <v>       0.10334588       0.00000000       0.93757103 </v>
   <v>       0.07177418       0.00000000      -0.94429783 </v>
   <v>       0.22866404       0.00000000      -0.62312584 </v>
   <v>       0.81250320       0.00000000      -1.48841604 </v>
   <v>       0.01503925       0.00000000       0.32298917 </v>
   <v>      -0.66318750       0.00000000      -1.00040487 </v>
   <v>      -0.69666182       0.00000000       0.86771627 </v>
   <v>       0.32320412       0.00000000      -0.52083933 </v>
   <v>       0.84780307       0.00000000       1.40835562 </v>
   <v>      -0.06768496       0.00000000       1.04294911 </v>
  </varray>
  <varray name="stress" >
   <v>    -101.17696428       0.00000000      11.22689292 </v>
   <v>       0.00000000     -86.15983411       0.00000000 </v>
   <v>      11.22689313       0.00000000     -83.91900125 </v>
  </varray>
  <energy>
   <i name="e_fr_energy">    -77.78340977 </i>
   <i name="e_wo_entrp">    -77.78025210 </i>
   <i name="e_0_energy">     -0.00631534 </i>
  </energy>
  <time name="totalsc">  128.84  129.51</time>
  <eigenvalues>
   <array>
    <dimension dim="1">band</dimension>
    <dimension dim="2">kpoint</dimension>
    <dimension dim="3">spin</dimension>
    <field>eigene</field>
    <field>occ</field>
    <set>
     <set comment="spin 1">
      <set comment="kpoint 1">
       <r>  -32.1165    1.0000 </r>
       <r>  -31.8166    1.0000 </r>
       <r>  -30.9146    1.0000 </r>
       <r>  -30.6131    1.0000 </r>
       <r>  -14.9978    1.0000 </r>
       <r>  -14.7815    1.0000 </r>
       <r>  -14.6845    1.0000 </r>
       <r>  -14.3648    1.0000 </r>
       <r>  -14.2115    1.0000 </r>
       <r>  -14.0344    1.0000 </r>
       <r>  -13.9796    1.0000 </r>
       <r>  -13.9294    1.0000 </r>
       <r>  -13.8412    1.0000 </r>
       <r>  -13.7675    1.0000 </r>
       <r>  -13.6323    1.0000 </r>
       <r>  -13.5969    1.0000 </r>
       <r>  -13.4364    1.0000 </r>
       <r>  -13.2118    1.0000 </r>
       <r>  -12.8367    1.0000 </r>
       <r>  -12.8278    1.0000 </r>
       <r>  -12.6364    1.0000 </r>
       <r>  -12.5686    1.0000 </r>
       <r>  -12.4116    1.0000 </r>
       <r>  -12.2602    1.0000 </r>
       <r>   -2.6410    1.0000 </r>
       <r>   -2.2764    1.0000 </r>
       <r>   -2.1015    1.0000 </r>
       <r>   -1.8545    1.0000 </r>
       <r>   -1.5185    1.0000 </r>
       <r>   -1.4563    1.0000 </r>
       <r>   -1.3891    1.0000 </r>
       <r>   -1.3463    1.0000 </r>
       <r>   -1.3103    1.0000 </r>
       <r>   -1.2484    1.0000 </r>
       <r>   -1.1449    1.0000 </r>
       <r>   -0.9946    1.0000 </r>
       <r>   -0.9010    1.0000 </r>
       <r>   -0.8367    1.0000 </r>
       <r>   -0.8006    1.0000 </r>
       <r>   -0.6478    1.0000 </r>
       <r>   -0.6324    1.0000 </r>
       <r>   -0.5905    1.0000 </r>
       <r>   -0.3915    1.0000 </r>
       <r>   -0.3105    1.0000 </r>
       <r>   -0.2883    1.0000 </r>
       <r>   -0.1712    1.0000 </r>
       <r>   -0.1159    1.0000 </r>
       <r>    0.0512    1.0000 </r>
       <r>    0.1003    1.0000 </r>
       <r>    0.4707    1.0000 </r>
       <r>    0.5766    1.0000 </r>
       <r>    0.7565    1.0000 </r>
       <r>    0.8810    1.0000 </r>
       <r>    1.0246    1.0000 </r>
       <r>    1.0669    1.0000 </r>
       <r>    1.1273    1.0000 </r>
       <r>    1.1437    1.0000 </r>
       <r>    1.2179    1.0000 </r>
       <r>    1.3735    1.0000 </r>
       <r>    1.4460    1.0000 </r>
       <r>    1.4644    1.0000 </r>
       <r>    1.7459    1.0000 </r>
       <r>    1.8327    1.0000 </r>
       <r>    1.8447    1.0000 </r>
       <r>    1.8863    1.0000 </r>
       <r>    2.0203    1.0000 </r>
       <r>    2.1277    1.0000 </r>
       <r>    2.2867    1.0000 </r>
       <r>    3.2319    0.0000 </r>
       <r>    4.5996    0.0000 </r>
       <r>    5.4000    0.0000 </r>
       <r>    5.8625    0.0000 </r>
       <r>    7.3170    0.0000 </r>
       <r>    7.5860    0.0000 </r>
       <r>    7.6625    0.0000 </r>
       <r>    7.6672    0.0000 </r>
       <r>    8.0053    0.0000 </r>
       <r>    8.1326    0.0000 </r>
       <r>    8.4843    0.0000 </r>
       <r>    8.6104    0.0000 </r>
       <r>    8.9854    0.0000 </r>
       <r>    9.0873    0.0000 </r>
       <r>    9.1807    0.0000 </r>
       <r>    9.5193    0.0000 </r>
       <r>    9.6228    0.0000 </r>
       <r>    9.7895    0.0000 </r>
       <r>    9.9395    0.0000 </r>
       <r>   10.0177    0.0000 </r>
      </set>
      <set comment="kpoint 2">
       <r>  -32.1164    1.0000 </r>
       <r>  -31.8165    1.0000 </r>
       <r>  -30.9144    1.0000 </r>
       <r>  -30.6130    1.0000 </r>
       <r>  -15.1149    1.0000 </r>
       <r>  -14.8368    1.0000 </r>
       <r>  -14.6800    1.0000 </r>
       <r>  -14.4334    1.0000 </r>
       <r>  -14.2745    1.0000 </r>
       <r>  -14.0341    1.0000 </r>
       <r>  -13.9335    1.0000 </r>
       <r>  -13.8843    1.0000 </r>
       <r>  -13.7723    1.0000 </r>
       <r>  -13.7676    1.0000 </r>
       <r>  -13.6804    1.0000 </r>
       <r>  -13.4587    1.0000 </r>
       <r>  -13.4072    1.0000 </r>
       <r>  -13.2197    1.0000 </r>
       <r>  -12.8271    1.0000 </r>
       <r>  -12.8106    1.0000 </r>
       <r>  -12.6145    1.0000 </r>
       <r>  -12.5691    1.0000 </r>
       <r>  -12.3673    1.0000 </r>
       <r>  -12.2252    1.0000 </r>
       <r>   -2.6303    1.0000 </r>
       <r>   -2.2905    1.0000 </r>
       <r>   -2.0684    1.0000 </r>
       <r>   -1.7401    1.0000 </r>
       <r>   -1.5387    1.0000 </r>
       <r>   -1.4204    1.0000 </r>
       <r>   -1.3721    1.0000 </r>
       <r>   -1.3228    1.0000 </r>
       <r>   -1.2944    1.0000 </r>
       <r>   -1.2474    1.0000 </r>
       <r>   -1.1931    1.0000 </r>
       <r>   -1.0132    1.0000 </r>
       <r>   -0.9149    1.0000 </r>
       <r>   -0.8317    1.0000 </r>
       <r>   -0.8141    1.0000 </r>
       <r>   -0.7083    1.0000 </r>
       <r>   -0.6376    1.0000 </r>
       <r>   -0.5894    1.0000 </r>
       <r>   -0.4218    1.0000 </r>
       <r>   -0.2941    1.0000 </r>
       <r>   -0.2894    1.0000 </r>
       <r>   -0.2347    1.0000 </r>
       <r>   -0.1943    1.0000 </r>
       <r>   -0.0372    1.0000 </r>
       <r>    0.1431    1.0000 </r>
       <r>    0.3611    1.0000 </r>
       <r>    0.4950    1.0000 </r>
       <r>    0.6994    1.0000 </r>
       <r>    0.7558    1.0000 </r>
       <r>    0.7844    1.0000 </r>
       <r>    0.9750    1.0000 </r>
       <r>    1.0888    1.0000 </r>
       <r>    1.0940    1.0000 </r>
       <r>    1.2104    1.0000 </r>
       <r>    1.4495    1.0000 </r>
       <r>    1.4676    1.0000 </r>
       <r>    1.5372    1.0000 </r>
       <r>    1.7430    1.0000 </r>
       <r>    1.7583    1.0000 </r>
       <r>    1.9031    1.0000 </r>
       <r>    2.0048    1.0000 </r>
       <r>    2.0863    1.0000 </r>
       <r>    2.1071    1.0000 </r>
       <r>    2.3973    0.9999 </r>
       <r>    2.9084    0.0000 </r>
       <r>    4.9622    0.0000 </r>
       <r>    5.5992    0.0000 </r>
       <r>    6.0342    0.0000 </r>
       <r>    6.9841    0.0000 </r>
       <r>    7.2992    0.0000 </r>
       <r>    7.5734    0.0000 </r>
       <r>    7.6934    0.0000 </r>
       <r>    7.9624    0.0000 </r>
       <r>    8.2887    0.0000 </r>
       <r>    8.4876    0.0000 </r>
       <r>    8.5516    0.0000 </r>
       <r>    9.0400    0.0000 </r>
       <r>    9.1713    0.0000 </r>
       <r>    9.2178    0.0000 </r>
       <r>    9.5304    0.0000 </r>
       <r>    9.7475    0.0000 </r>
       <r>    9.9595    0.0000 </r>
       <r>    9.9620    0.0000 </r>
       <r>   10.1276    0.0000 </r>
      </set>
      <set comment="kpoint 3">
       <r>  -32.1163    1.0000 </r>
       <r>  -31.8164    1.0000 </r>
       <r>  -30.9141    1.0000 </r>
       <r>  -30.6129    1.0000 </r>
       <r>  -15.2063    1.0000 </r>
       <r>  -14.8872    1.0000 </r>
       <r>  -14.7006    1.0000 </r>
       <r>  -14.5269    1.0000 </r>
       <r>  -14.2066    1.0000 </r>
       <r>  -14.0338    1.0000 </r>
       <r>  -14.0041    1.0000 </r>
       <r>  -13.8625    1.0000 </r>
       <r>  -13.7677    1.0000 </r>
       <r>  -13.7181    1.0000 </r>
       <r>  -13.5884    1.0000 </r>
       <r>  -13.4463    1.0000 </r>
       <r>  -13.3764    1.0000 </r>
       <r>  -13.2057    1.0000 </r>
       <r>  -12.8265    1.0000 </r>
       <r>  -12.7897    1.0000 </r>
       <r>  -12.5942    1.0000 </r>
       <r>  -12.5696    1.0000 </r>
       <r>  -12.3102    1.0000 </r>
       <r>  -12.1889    1.0000 </r>
       <r>   -2.6062    1.0000 </r>
       <r>   -2.3186    1.0000 </r>
       <r>   -2.0662    1.0000 </r>
       <r>   -1.5708    1.0000 </r>
       <r>   -1.5167    1.0000 </r>
       <r>   -1.3918    1.0000 </r>
       <r>   -1.3715    1.0000 </r>
       <r>   -1.3275    1.0000 </r>
       <r>   -1.2977    1.0000 </r>
       <r>   -1.2544    1.0000 </r>
       <r>   -1.1818    1.0000 </r>
       <r>   -1.0391    1.0000 </r>
       <r>   -0.9361    1.0000 </r>
       <r>   -0.8296    1.0000 </r>
       <r>   -0.8163    1.0000 </r>
       <r>   -0.8096    1.0000 </r>
       <r>   -0.6199    1.0000 </r>
       <r>   -0.6047    1.0000 </r>
       <r>   -0.4955    1.0000 </r>
       <r>   -0.4004    1.0000 </r>
       <r>   -0.2879    1.0000 </r>
       <r>   -0.2058    1.0000 </r>
       <r>   -0.1951    1.0000 </r>
       <r>   -0.1538    1.0000 </r>
       <r>    0.0668    1.0000 </r>
       <r>    0.3900    1.0000 </r>
       <r>    0.4445    1.0000 </r>
       <r>    0.5661    1.0000 </r>
       <r>    0.6221    1.0000 </r>
       <r>    0.7392    1.0000 </r>
       <r>    0.9124    1.0000 </r>
       <r>    1.0211    1.0000 </r>
       <r>    1.0572    1.0000 </r>
       <r>    1.1760    1.0000 </r>
       <r>    1.4536    1.0000 </r>
       <r>    1.5401    1.0000 </r>
       <r>    1.6079    1.0000 </r>
       <r>    1.7424    1.0000 </r>
       <r>    1.7642    1.0000 </r>
       <r>    1.8091    1.0000 </r>
       <r>    1.9980    1.0000 </r>
       <r>    2.0547    1.0000 </r>
       <r>    2.3063    1.0000 </r>
       <r>    2.3959    0.9999 </r>
       <r>    2.8153    0.0000 </r>
       <r>    5.3768    0.0000 </r>
       <r>    5.6693    0.0000 </r>
       <r>    6.1447    0.0000 </r>
       <r>    6.5498    0.0000 </r>
       <r>    7.0759    0.0000 </r>
       <r>    7.4920    0.0000 </r>
       <r>    7.7578    0.0000 </r>
       <r>    7.9420    0.0000 </r>
       <r>    8.4757    0.0000 </r>
       <r>    8.4851    0.0000 </r>
       <r>    8.7709    0.0000 </r>
       <r>    8.8467    0.0000 </r>
       <r>    9.0717    0.0000 </r>
       <r>    9.3384    0.0000 </r>
       <r>    9.5694    0.0000 </r>
       <r>    9.7001    0.0000 </r>
       <r>    9.9023    0.0000 </r>
       <r>   10.0767    0.0000 </r>
       <r>   10.2106    0.0000 </r>
      </set>
      <set comment="kpoint 4">
       <r>  -32.1123    1.0000 </r>
       <r>  -31.8123    1.0000 </r>
       <r>  -30.9101    1.0000 </r>
       <r>  -30.6085    1.0000 </r>
       <r>  -14.9659    1.0000 </r>
       <r>  -14.7467    1.0000 </r>
       <r>  -14.6120    1.0000 </r>
       <r>  -14.2615    1.0000 </r>
       <r>  -14.1981    1.0000 </r>
       <r>  -14.1530    1.0000 </r>
       <r>  -14.0802    1.0000 </r>
       <r>  -13.9639    1.0000 </r>
       <r>  -13.7979    1.0000 </r>
       <r>  -13.6575    1.0000 </r>
       <r>  -13.6378    1.0000 </r>
       <r>  -13.5494    1.0000 </r>
       <r>  -13.5119    1.0000 </r>
       <r>  -13.2940    1.0000 </r>
       <r>  -12.8857    1.0000 </r>
       <r>  -12.7771    1.0000 </r>
       <r>  -12.6565    1.0000 </r>
       <r>  -12.5475    1.0000 </r>
       <r>  -12.4240    1.0000 </r>
       <r>  -12.3270    1.0000 </r>
       <r>   -2.6628    1.0000 </r>
       <r>   -2.3009    1.0000 </r>
       <r>   -2.1133    1.0000 </r>
       <r>   -1.8298    1.0000 </r>
       <r>   -1.7494    1.0000 </r>
       <r>   -1.7079    1.0000 </r>
       <r>   -1.6693    1.0000 </r>
       <r>   -1.5864    1.0000 </r>
       <r>   -1.5090    1.0000 </r>
       <r>   -1.4477    1.0000 </r>
       <r>   -1.3999    1.0000 </r>
       <r>   -1.3307    1.0000 </r>
       <r>   -1.2318    1.0000 </r>
       <r>   -1.1659    1.0000 </r>
       <r>   -1.0857    1.0000 </r>
       <r>   -1.0675    1.0000 </r>
       <r>   -1.0407    1.0000 </r>
       <r>   -0.5559    1.0000 </r>
       <r>   -0.5325    1.0000 </r>
       <r>   -0.4667    1.0000 </r>
       <r>   -0.3785    1.0000 </r>
       <r>   -0.1438    1.0000 </r>
       <r>    0.1229    1.0000 </r>
       <r>    0.3865    1.0000 </r>
       <r>    0.5049    1.0000 </r>
       <r>    0.6483    1.0000 </r>
       <r>    0.7644    1.0000 </r>
       <r>    0.9643    1.0000 </r>
       <r>    1.0347    1.0000 </r>
       <r>    1.1285    1.0000 </r>
       <r>    1.1528    1.0000 </r>
       <r>    1.2210    1.0000 </r>
       <r>    1.2488    1.0000 </r>
       <r>    1.3478    1.0000 </r>
       <r>    1.3795    1.0000 </r>
       <r>    1.5073    1.0000 </r>
       <r>    1.6103    1.0000 </r>
       <r>    1.7037    1.0000 </r>
       <r>    1.8619    1.0000 </r>
       <r>    2.0280    1.0000 </r>
       <r>    2.1733    1.0000 </r>
       <r>    2.5469    0.3465 </r>
       <r>    2.6514    0.0004 </r>
       <r>    2.7822    0.0000 </r>
       <r>    3.4082    0.0000 </r>
       <r>    4.8991    0.0000 </r>
       <r>    5.2088    0.0000 </r>
       <r>    5.5108    0.0000 </r>
       <r>    7.2938    0.0000 </r>
       <r>    7.4269    0.0000 </r>
       <r>    7.8832    0.0000 </r>
       <r>    7.9596    0.0000 </r>
       <r>    8.2974    0.0000 </r>
       <r>    8.4151    0.0000 </r>
       <r>    8.5302    0.0000 </r>
       <r>    8.7207    0.0000 </r>
       <r>    8.8662    0.0000 </r>
       <r>    9.1047    0.0000 </r>
       <r>    9.2535    0.0000 </r>
       <r>    9.3484    0.0000 </r>
       <r>    9.6569    0.0000 </r>
       <r>    9.7699    0.0000 </r>
       <r>   10.0436    0.0000 </r>
       <r>   10.3004    0.0000 </r>
      </set>
      <set comment="kpoint 5">
       <r>  -32.1122    1.0000 </r>
       <r>  -31.8122    1.0000 </r>
       <r>  -30.9099    1.0000 </r>
       <r>  -30.6084    1.0000 </r>
       <r>  -15.0312    1.0000 </r>
       <r>  -14.7956    1.0000 </r>
       <r>  -14.6205    1.0000 </r>
       <r>  -14.3985    1.0000 </r>
       <r>  -14.2206    1.0000 </r>
       <r>  -14.1593    1.0000 </r>
       <r>  -14.0550    1.0000 </r>
       <r>  -13.8610    1.0000 </r>
       <r>  -13.8345    1.0000 </r>
       <r>  -13.7048    1.0000 </r>
       <r>  -13.6042    1.0000 </r>
       <r>  -13.5348    1.0000 </r>
       <r>  -13.4129    1.0000 </r>
       <r>  -13.2819    1.0000 </r>
       <r>  -12.8663    1.0000 </r>
       <r>  -12.7710    1.0000 </r>
       <r>  -12.6119    1.0000 </r>
       <r>  -12.5095    1.0000 </r>
       <r>  -12.3847    1.0000 </r>
       <r>  -12.2850    1.0000 </r>
       <r>   -2.6691    1.0000 </r>
       <r>   -2.3162    1.0000 </r>
       <r>   -2.0868    1.0000 </r>
       <r>   -1.8458    1.0000 </r>
       <r>   -1.7356    1.0000 </r>
       <r>   -1.6920    1.0000 </r>
       <r>   -1.6390    1.0000 </r>
       <r>   -1.6099    1.0000 </r>
       <r>   -1.5420    1.0000 </r>
       <r>   -1.4686    1.0000 </r>
       <r>   -1.4032    1.0000 </r>
       <r>   -1.2998    1.0000 </r>
       <r>   -1.2386    1.0000 </r>
       <r>   -1.2100    1.0000 </r>
       <r>   -1.1027    1.0000 </r>
       <r>   -1.0837    1.0000 </r>
       <r>   -1.0600    1.0000 </r>
       <r>   -0.6231    1.0000 </r>
       <r>   -0.4961    1.0000 </r>
       <r>   -0.4589    1.0000 </r>
       <r>   -0.3823    1.0000 </r>
       <r>   -0.1020    1.0000 </r>
       <r>    0.0509    1.0000 </r>
       <r>    0.2536    1.0000 </r>
       <r>    0.4056    1.0000 </r>
       <r>    0.6259    1.0000 </r>
       <r>    0.7758    1.0000 </r>
       <r>    0.8971    1.0000 </r>
       <r>    0.9365    1.0000 </r>
       <r>    1.0357    1.0000 </r>
       <r>    1.1279    1.0000 </r>
       <r>    1.2213    1.0000 </r>
       <r>    1.2524    1.0000 </r>
       <r>    1.2926    1.0000 </r>
       <r>    1.3524    1.0000 </r>
       <r>    1.5109    1.0000 </r>
       <r>    1.6947    1.0000 </r>
       <r>    1.7652    1.0000 </r>
       <r>    1.8703    1.0000 </r>
       <r>    2.0368    1.0000 </r>
       <r>    2.1277    1.0000 </r>
       <r>    2.4037    0.9999 </r>
       <r>    2.7455    0.0000 </r>
       <r>    2.8834    0.0000 </r>
       <r>    3.2365    0.0000 </r>
       <r>    5.2422    0.0000 </r>
       <r>    5.4709    0.0000 </r>
       <r>    5.7683    0.0000 </r>
       <r>    7.1470    0.0000 </r>
       <r>    7.3632    0.0000 </r>
       <r>    7.4554    0.0000 </r>
       <r>    7.9430    0.0000 </r>
       <r>    8.1150    0.0000 </r>
       <r>    8.3968    0.0000 </r>
       <r>    8.5685    0.0000 </r>
       <r>    8.7668    0.0000 </r>
       <r>    8.9184    0.0000 </r>
       <r>    9.2993    0.0000 </r>
       <r>    9.3688    0.0000 </r>
       <r>    9.6100    0.0000 </r>
       <r>    9.7433    0.0000 </r>
       <r>    9.9200    0.0000 </r>
       <r>   10.1484    0.0000 </r>
       <r>   10.2117    0.0000 </r>
      </set>
      <set comment="kpoint 6">
       <r>  -32.1121    1.0000 </r>
       <r>  -31.8121    1.0000 </r>
       <r>  -30.9097    1.0000 </r>
       <r>  -30.6084    1.0000 </r>
       <r>  -15.0981    1.0000 </r>
       <r>  -14.8310    1.0000 </r>
       <r>  -14.6288    1.0000 </r>
       <r>  -14.5075    1.0000 </r>
       <r>  -14.2104    1.0000 </r>
       <r>  -14.1525    1.0000 </r>
       <r>  -14.0216    1.0000 </r>
       <r>  -13.9259    1.0000 </r>
       <r>  -13.8092    1.0000 </r>
       <r>  -13.6674    1.0000 </r>
       <r>  -13.6121    1.0000 </r>
       <r>  -13.4945    1.0000 </r>
       <r>  -13.4105    1.0000 </r>
       <r>  -13.2496    1.0000 </r>
       <r>  -12.8455    1.0000 </r>
       <r>  -12.7184    1.0000 </r>
       <r>  -12.5937    1.0000 </r>
       <r>  -12.5043    1.0000 </r>
       <r>  -12.3270    1.0000 </r>
       <r>  -12.2289    1.0000 </r>
       <r>   -2.6603    1.0000 </r>
       <r>   -2.3521    1.0000 </r>
       <r>   -2.0899    1.0000 </r>
       <r>   -1.8615    1.0000 </r>
       <r>   -1.7384    1.0000 </r>
       <r>   -1.7136    1.0000 </r>
       <r>   -1.6301    1.0000 </r>
       <r>   -1.5989    1.0000 </r>
       <r>   -1.4971    1.0000 </r>
       <r>   -1.4771    1.0000 </r>
       <r>   -1.3922    1.0000 </r>
       <r>   -1.3386    1.0000 </r>
       <r>   -1.2621    1.0000 </r>
       <r>   -1.2091    1.0000 </r>
       <r>   -1.1230    1.0000 </r>
       <r>   -1.0945    1.0000 </r>
       <r>   -1.0492    1.0000 </r>
       <r>   -0.6811    1.0000 </r>
       <r>   -0.5166    1.0000 </r>
       <r>   -0.4530    1.0000 </r>
       <r>   -0.3868    1.0000 </r>
       <r>   -0.0820    1.0000 </r>
       <r>   -0.0069    1.0000 </r>
       <r>    0.1405    1.0000 </r>
       <r>    0.3622    1.0000 </r>
       <r>    0.6565    1.0000 </r>
       <r>    0.7505    1.0000 </r>
       <r>    0.7951    1.0000 </r>
       <r>    0.9021    1.0000 </r>
       <r>    0.9764    1.0000 </r>
       <r>    1.0841    1.0000 </r>
       <r>    1.1812    1.0000 </r>
       <r>    1.2459    1.0000 </r>
       <r>    1.2849    1.0000 </r>
       <r>    1.3245    1.0000 </r>
       <r>    1.5311    1.0000 </r>
       <r>    1.6867    1.0000 </r>
       <r>    1.7323    1.0000 </r>
       <r>    1.8135    1.0000 </r>
       <r>    1.9733    1.0000 </r>
       <r>    2.1952    1.0000 </r>
       <r>    2.4504    0.9902 </r>
       <r>    2.7850    0.0000 </r>
       <r>    3.0007    0.0000 </r>
       <r>    3.1273    0.0000 </r>
       <r>    5.6414    0.0000 </r>
       <r>    5.8050    0.0000 </r>
       <r>    6.1078    0.0000 </r>
       <r>    6.6775    0.0000 </r>
       <r>    6.9956    0.0000 </r>
       <r>    7.4677    0.0000 </r>
       <r>    7.5513    0.0000 </r>
       <r>    8.0772    0.0000 </r>
       <r>    8.2588    0.0000 </r>
       <r>    8.7394    0.0000 </r>
       <r>    8.8908    0.0000 </r>
       <r>    9.0206    0.0000 </r>
       <r>    9.3244    0.0000 </r>
       <r>    9.5966    0.0000 </r>
       <r>    9.7255    0.0000 </r>
       <r>    9.7927    0.0000 </r>
       <r>    9.9050    0.0000 </r>
       <r>   10.1128    0.0000 </r>
       <r>   10.2748    0.0000 </r>
      </set>
      <set comment="kpoint 7">
       <r>  -32.1054    1.0000 </r>
       <r>  -31.8053    1.0000 </r>
       <r>  -30.9028    1.0000 </r>
       <r>  -30.6011    1.0000 </r>
       <r>  -15.0079    1.0000 </r>
       <r>  -14.5894    1.0000 </r>
       <r>  -14.4809    1.0000 </r>
       <r>  -14.3638    1.0000 </r>
       <r>  -14.2211    1.0000 </r>
       <r>  -14.1280    1.0000 </r>
       <r>  -14.0053    1.0000 </r>
       <r>  -13.9503    1.0000 </r>
       <r>  -13.8012    1.0000 </r>
       <r>  -13.7173    1.0000 </r>
       <r>  -13.5612    1.0000 </r>
       <r>  -13.5030    1.0000 </r>
       <r>  -13.4831    1.0000 </r>
       <r>  -13.4186    1.0000 </r>
       <r>  -12.9201    1.0000 </r>
       <r>  -12.8047    1.0000 </r>
       <r>  -12.7577    1.0000 </r>
       <r>  -12.6121    1.0000 </r>
       <r>  -12.4349    1.0000 </r>
       <r>  -12.3325    1.0000 </r>
       <r>   -2.9862    1.0000 </r>
       <r>   -2.7653    1.0000 </r>
       <r>   -2.5328    1.0000 </r>
       <r>   -2.3373    1.0000 </r>
       <r>   -2.1779    1.0000 </r>
       <r>   -2.0190    1.0000 </r>
       <r>   -1.9418    1.0000 </r>
       <r>   -1.8149    1.0000 </r>
       <r>   -1.6964    1.0000 </r>
       <r>   -1.5986    1.0000 </r>
       <r>   -1.4848    1.0000 </r>
       <r>   -1.4240    1.0000 </r>
       <r>   -1.3745    1.0000 </r>
       <r>   -1.3442    1.0000 </r>
       <r>   -1.2643    1.0000 </r>
       <r>   -1.1697    1.0000 </r>
       <r>   -1.0659    1.0000 </r>
       <r>   -0.5692    1.0000 </r>
       <r>   -0.5329    1.0000 </r>
       <r>   -0.4806    1.0000 </r>
       <r>   -0.4543    1.0000 </r>
       <r>    0.1323    1.0000 </r>
       <r>    0.2346    1.0000 </r>
       <r>    0.4424    1.0000 </r>
       <r>    0.5637    1.0000 </r>
       <r>    0.7535    1.0000 </r>
       <r>    0.9026    1.0000 </r>
       <r>    0.9674    1.0000 </r>
       <r>    1.0098    1.0000 </r>
       <r>    1.2081    1.0000 </r>
       <r>    1.2945    1.0000 </r>
       <r>    1.3399    1.0000 </r>
       <r>    1.4041    1.0000 </r>
       <r>    1.4998    1.0000 </r>
       <r>    1.6858    1.0000 </r>
       <r>    1.7421    1.0000 </r>
       <r>    1.8469    1.0000 </r>
       <r>    1.9177    1.0000 </r>
       <r>    2.0462    1.0000 </r>
       <r>    2.3127    1.0000 </r>
       <r>    2.3762    1.0000 </r>
       <r>    2.6935    0.0000 </r>
       <r>    2.9808    0.0000 </r>
       <r>    3.7037    0.0000 </r>
       <r>    3.9898    0.0000 </r>
       <r>    4.0830    0.0000 </r>
       <r>    5.2071    0.0000 </r>
       <r>    5.8067    0.0000 </r>
       <r>    6.7610    0.0000 </r>
       <r>    7.5826    0.0000 </r>
       <r>    8.0950    0.0000 </r>
       <r>    8.2657    0.0000 </r>
       <r>    8.6000    0.0000 </r>
       <r>    8.7333    0.0000 </r>
       <r>    8.9088    0.0000 </r>
       <r>    8.9618    0.0000 </r>
       <r>    9.3774    0.0000 </r>
       <r>    9.4365    0.0000 </r>
       <r>    9.5096    0.0000 </r>
       <r>    9.6449    0.0000 </r>
       <r>    9.8490    0.0000 </r>
       <r>    9.9372    0.0000 </r>
       <r>   10.0107    0.0000 </r>
       <r>   10.4402    0.0000 </r>
      </set>
      <set comment="kpoint 8">
       <r>  -32.1053    1.0000 </r>
       <r>  -31.8053    1.0000 </r>
       <r>  -30.9026    1.0000 </r>
       <r>  -30.6010    1.0000 </r>
       <r>  -14.9920    1.0000 </r>
       <r>  -14.6485    1.0000 </r>
       <r>  -14.4916    1.0000 </r>
       <r>  -14.3962    1.0000 </r>
       <r>  -14.2272    1.0000 </r>
       <r>  -14.1633    1.0000 </r>
       <r>  -14.0884    1.0000 </r>
       <r>  -13.9944    1.0000 </r>
       <r>  -13.7902    1.0000 </r>
       <r>  -13.7076    1.0000 </r>
       <r>  -13.6272    1.0000 </r>
       <r>  -13.5482    1.0000 </r>
       <r>  -13.4343    1.0000 </r>
       <r>  -13.3724    1.0000 </r>
       <r>  -12.9023    1.0000 </r>
       <r>  -12.7318    1.0000 </r>
       <r>  -12.6430    1.0000 </r>
       <r>  -12.4910    1.0000 </r>
       <r>  -12.3817    1.0000 </r>
       <r>  -12.3485    1.0000 </r>
       <r>   -3.0253    1.0000 </r>
       <r>   -2.7341    1.0000 </r>
       <r>   -2.5696    1.0000 </r>
       <r>   -2.3428    1.0000 </r>
       <r>   -2.1854    1.0000 </r>
       <r>   -2.0830    1.0000 </r>
       <r>   -1.9657    1.0000 </r>
       <r>   -1.8867    1.0000 </r>
       <r>   -1.7310    1.0000 </r>
       <r>   -1.5444    1.0000 </r>
       <r>   -1.5220    1.0000 </r>
       <r>   -1.4434    1.0000 </r>
       <r>   -1.4006    1.0000 </r>
       <r>   -1.3665    1.0000 </r>
       <r>   -1.2773    1.0000 </r>
       <r>   -1.1768    1.0000 </r>
       <r>   -1.0834    1.0000 </r>
       <r>   -0.5886    1.0000 </r>
       <r>   -0.5756    1.0000 </r>
       <r>   -0.4748    1.0000 </r>
       <r>   -0.4470    1.0000 </r>
       <r>    0.1486    1.0000 </r>
       <r>    0.3010    1.0000 </r>
       <r>    0.4617    1.0000 </r>
       <r>    0.5301    1.0000 </r>
       <r>    0.6928    1.0000 </r>
       <r>    0.9401    1.0000 </r>
       <r>    0.9762    1.0000 </r>
       <r>    1.0765    1.0000 </r>
       <r>    1.1567    1.0000 </r>
       <r>    1.2567    1.0000 </r>
       <r>    1.3175    1.0000 </r>
       <r>    1.3595    1.0000 </r>
       <r>    1.4844    1.0000 </r>
       <r>    1.6369    1.0000 </r>
       <r>    1.7191    1.0000 </r>
       <r>    1.7953    1.0000 </r>
       <r>    1.8539    1.0000 </r>
       <r>    2.0440    1.0000 </r>
       <r>    2.2958    1.0000 </r>
       <r>    2.3346    1.0000 </r>
       <r>    2.5054    0.7817 </r>
       <r>    3.2984    0.0000 </r>
       <r>    3.6842    0.0000 </r>
       <r>    3.8899    0.0000 </r>
       <r>    4.3038    0.0000 </r>
       <r>    5.5820    0.0000 </r>
       <r>    6.0324    0.0000 </r>
       <r>    6.9314    0.0000 </r>
       <r>    7.5221    0.0000 </r>
       <r>    8.0522    0.0000 </r>
       <r>    8.2042    0.0000 </r>
       <r>    8.3661    0.0000 </r>
       <r>    8.5638    0.0000 </r>
       <r>    8.9575    0.0000 </r>
       <r>    9.0016    0.0000 </r>
       <r>    9.3685    0.0000 </r>
       <r>    9.4701    0.0000 </r>
       <r>    9.6705    0.0000 </r>
       <r>    9.7829    0.0000 </r>
       <r>   10.0521    0.0000 </r>
       <r>   10.2166    0.0000 </r>
       <r>   10.3316    0.0000 </r>
       <r>   10.5188    0.0000 </r>
      </set>
      <set comment="kpoint 9">
       <r>  -32.1052    1.0000 </r>
       <r>  -31.8052    1.0000 </r>
       <r>  -30.9024    1.0000 </r>
       <r>  -30.6010    1.0000 </r>
       <r>  -14.9774    1.0000 </r>
       <r>  -14.7299    1.0000 </r>
       <r>  -14.4984    1.0000 </r>
       <r>  -14.3856    1.0000 </r>
       <r>  -14.2240    1.0000 </r>
       <r>  -14.2206    1.0000 </r>
       <r>  -14.0992    1.0000 </r>
       <r>  -14.0063    1.0000 </r>
       <r>  -13.8745    1.0000 </r>
       <r>  -13.7562    1.0000 </r>
       <r>  -13.6518    1.0000 </r>
       <r>  -13.6070    1.0000 </r>
       <r>  -13.3873    1.0000 </r>
       <r>  -13.2729    1.0000 </r>
       <r>  -12.9005    1.0000 </r>
       <r>  -12.6168    1.0000 </r>
       <r>  -12.5799    1.0000 </r>
       <r>  -12.4337    1.0000 </r>
       <r>  -12.3607    1.0000 </r>
       <r>  -12.2820    1.0000 </r>
       <r>   -3.0510    1.0000 </r>
       <r>   -2.7036    1.0000 </r>
       <r>   -2.6219    1.0000 </r>
       <r>   -2.3484    1.0000 </r>
       <r>   -2.1979    1.0000 </r>
       <r>   -2.1776    1.0000 </r>
       <r>   -1.9863    1.0000 </r>
       <r>   -1.9693    1.0000 </r>
       <r>   -1.7861    1.0000 </r>
       <r>   -1.5693    1.0000 </r>
       <r>   -1.4732    1.0000 </r>
       <r>   -1.4394    1.0000 </r>
       <r>   -1.4175    1.0000 </r>
       <r>   -1.3731    1.0000 </r>
       <r>   -1.3027    1.0000 </r>
       <r>   -1.1381    1.0000 </r>
       <r>   -1.0745    1.0000 </r>
       <r>   -0.6362    1.0000 </r>
       <r>   -0.5817    1.0000 </r>
       <r>   -0.5042    1.0000 </r>
       <r>   -0.4730    1.0000 </r>
       <r>    0.1792    1.0000 </r>
       <r>    0.3214    1.0000 </r>
       <r>    0.4304    1.0000 </r>
       <r>    0.6705    1.0000 </r>
       <r>    0.7015    1.0000 </r>
       <r>    0.9285    1.0000 </r>
       <r>    0.9720    1.0000 </r>
       <r>    1.0960    1.0000 </r>
       <r>    1.1431    1.0000 </r>
       <r>    1.2134    1.0000 </r>
       <r>    1.2573    1.0000 </r>
       <r>    1.3191    1.0000 </r>
       <r>    1.4872    1.0000 </r>
       <r>    1.5580    1.0000 </r>
       <r>    1.6154    1.0000 </r>
       <r>    1.6468    1.0000 </r>
       <r>    1.8255    1.0000 </r>
       <r>    1.9210    1.0000 </r>
       <r>    2.2623    1.0000 </r>
       <r>    2.3422    1.0000 </r>
       <r>    2.8992    0.0000 </r>
       <r>    3.1243    0.0000 </r>
       <r>    3.6946    0.0000 </r>
       <r>    3.9773    0.0000 </r>
       <r>    4.5817    0.0000 </r>
       <r>    6.1236    0.0000 </r>
       <r>    6.2457    0.0000 </r>
       <r>    7.0304    0.0000 </r>
       <r>    7.2476    0.0000 </r>
       <r>    7.7396    0.0000 </r>
       <r>    7.9742    0.0000 </r>
       <r>    8.2918    0.0000 </r>
       <r>    8.4392    0.0000 </r>
       <r>    8.6985    0.0000 </r>
       <r>    9.0494    0.0000 </r>
       <r>    9.3892    0.0000 </r>
       <r>    9.6116    0.0000 </r>
       <r>    9.9275    0.0000 </r>
       <r>    9.9957    0.0000 </r>
       <r>   10.2363    0.0000 </r>
       <r>   10.3711    0.0000 </r>
       <r>   10.4200    0.0000 </r>
       <r>   10.5579    0.0000 </r>
      </set>
      <set comment="kpoint 10">
       <r>  -32.1165    1.0000 </r>
       <r>  -31.8166    1.0000 </r>
       <r>  -30.9146    1.0000 </r>
       <r>  -30.6131    1.0000 </r>
       <r>  -14.9901    1.0000 </r>
       <r>  -14.7839    1.0000 </r>
       <r>  -14.6285    1.0000 </r>
       <r>  -14.5201    1.0000 </r>
       <r>  -14.0715    1.0000 </r>
       <r>  -14.0344    1.0000 </r>
       <r>  -14.0227    1.0000 </r>
       <r>  -13.9210    1.0000 </r>
       <r>  -13.8306    1.0000 </r>
       <r>  -13.7675    1.0000 </r>
       <r>  -13.6792    1.0000 </r>
       <r>  -13.5971    1.0000 </r>
       <r>  -13.3882    1.0000 </r>
       <r>  -13.2268    1.0000 </r>
       <r>  -12.8369    1.0000 </r>
       <r>  -12.8278    1.0000 </r>
       <r>  -12.6423    1.0000 </r>
       <r>  -12.5686    1.0000 </r>
       <r>  -12.4122    1.0000 </r>
       <r>  -12.2619    1.0000 </r>
       <r>   -2.5791    1.0000 </r>
       <r>   -2.4110    1.0000 </r>
       <r>   -2.0219    1.0000 </r>
       <r>   -1.7898    1.0000 </r>
       <r>   -1.6028    1.0000 </r>
       <r>   -1.5056    1.0000 </r>
       <r>   -1.4532    1.0000 </r>
       <r>   -1.3462    1.0000 </r>
       <r>   -1.3326    1.0000 </r>
       <r>   -1.2567    1.0000 </r>
       <r>   -0.9868    1.0000 </r>
       <r>   -0.9112    1.0000 </r>
       <r>   -0.8985    1.0000 </r>
       <r>   -0.8317    1.0000 </r>
       <r>   -0.8151    1.0000 </r>
       <r>   -0.6943    1.0000 </r>
       <r>   -0.6215    1.0000 </r>
       <r>   -0.6043    1.0000 </r>
       <r>   -0.3954    1.0000 </r>
       <r>   -0.3154    1.0000 </r>
       <r>   -0.3041    1.0000 </r>
       <r>   -0.1565    1.0000 </r>
       <r>   -0.0506    1.0000 </r>
       <r>    0.0201    1.0000 </r>
       <r>    0.1717    1.0000 </r>
       <r>    0.4338    1.0000 </r>
       <r>    0.5415    1.0000 </r>
       <r>    0.7073    1.0000 </r>
       <r>    0.8751    1.0000 </r>
       <r>    0.9595    1.0000 </r>
       <r>    1.0563    1.0000 </r>
       <r>    1.1200    1.0000 </r>
       <r>    1.1623    1.0000 </r>
       <r>    1.2404    1.0000 </r>
       <r>    1.3632    1.0000 </r>
       <r>    1.4247    1.0000 </r>
       <r>    1.4571    1.0000 </r>
       <r>    1.7410    1.0000 </r>
       <r>    1.7445    1.0000 </r>
       <r>    1.8440    1.0000 </r>
       <r>    1.9053    1.0000 </r>
       <r>    2.1284    1.0000 </r>
       <r>    2.1786    1.0000 </r>
       <r>    2.3537    1.0000 </r>
       <r>    3.2180    0.0000 </r>
       <r>    4.3784    0.0000 </r>
       <r>    5.6006    0.0000 </r>
       <r>    5.9240    0.0000 </r>
       <r>    7.2904    0.0000 </r>
       <r>    7.4200    0.0000 </r>
       <r>    7.6545    0.0000 </r>
       <r>    7.6897    0.0000 </r>
       <r>    7.9159    0.0000 </r>
       <r>    8.0943    0.0000 </r>
       <r>    8.5037    0.0000 </r>
       <r>    8.6387    0.0000 </r>
       <r>    9.0452    0.0000 </r>
       <r>    9.0463    0.0000 </r>
       <r>    9.2298    0.0000 </r>
       <r>    9.6423    0.0000 </r>
       <r>    9.7443    0.0000 </r>
       <r>    9.8589    0.0000 </r>
       <r>    9.9294    0.0000 </r>
       <r>   10.0548    0.0000 </r>
      </set>
      <set comment="kpoint 11">
       <r>  -32.1164    1.0000 </r>
       <r>  -31.8165    1.0000 </r>
       <r>  -30.9144    1.0000 </r>
       <r>  -30.6130    1.0000 </r>
       <r>  -15.1062    1.0000 </r>
       <r>  -14.8279    1.0000 </r>
       <r>  -14.6652    1.0000 </r>
       <r>  -14.5471    1.0000 </r>
       <r>  -14.1375    1.0000 </r>
       <r>  -14.0463    1.0000 </r>
       <r>  -14.0341    1.0000 </r>
       <r>  -13.8457    1.0000 </r>
       <r>  -13.7676    1.0000 </r>
       <r>  -13.7507    1.0000 </r>
       <r>  -13.6494    1.0000 </r>
       <r>  -13.4754    1.0000 </r>
       <r>  -13.4244    1.0000 </r>
       <r>  -13.2176    1.0000 </r>
       <r>  -12.8271    1.0000 </r>
       <r>  -12.8103    1.0000 </r>
       <r>  -12.6118    1.0000 </r>
       <r>  -12.5691    1.0000 </r>
       <r>  -12.3712    1.0000 </r>
       <r>  -12.2272    1.0000 </r>
       <r>   -2.5923    1.0000 </r>
       <r>   -2.3685    1.0000 </r>
       <r>   -2.0407    1.0000 </r>
       <r>   -1.6672    1.0000 </r>
       <r>   -1.5485    1.0000 </r>
       <r>   -1.5096    1.0000 </r>
       <r>   -1.4189    1.0000 </r>
       <r>   -1.3398    1.0000 </r>
       <r>   -1.3227    1.0000 </r>
       <r>   -1.2495    1.0000 </r>
       <r>   -1.0176    1.0000 </r>
       <r>   -0.9780    1.0000 </r>
       <r>   -0.9136    1.0000 </r>
       <r>   -0.8318    1.0000 </r>
       <r>   -0.8093    1.0000 </r>
       <r>   -0.7672    1.0000 </r>
       <r>   -0.6325    1.0000 </r>
       <r>   -0.5994    1.0000 </r>
       <r>   -0.4340    1.0000 </r>
       <r>   -0.3010    1.0000 </r>
       <r>   -0.2875    1.0000 </r>
       <r>   -0.1984    1.0000 </r>
       <r>   -0.1890    1.0000 </r>
       <r>   -0.0898    1.0000 </r>
       <r>    0.1077    1.0000 </r>
       <r>    0.4996    1.0000 </r>
       <r>    0.5058    1.0000 </r>
       <r>    0.6587    1.0000 </r>
       <r>    0.7322    1.0000 </r>
       <r>    0.7778    1.0000 </r>
       <r>    0.9746    1.0000 </r>
       <r>    1.0622    1.0000 </r>
       <r>    1.0876    1.0000 </r>
       <r>    1.2031    1.0000 </r>
       <r>    1.4570    1.0000 </r>
       <r>    1.4943    1.0000 </r>
       <r>    1.5552    1.0000 </r>
       <r>    1.6505    1.0000 </r>
       <r>    1.7562    1.0000 </r>
       <r>    1.9027    1.0000 </r>
       <r>    1.9576    1.0000 </r>
       <r>    2.0870    1.0000 </r>
       <r>    2.1071    1.0000 </r>
       <r>    2.5297    0.5362 </r>
       <r>    2.8915    0.0000 </r>
       <r>    4.7982    0.0000 </r>
       <r>    5.7696    0.0000 </r>
       <r>    6.0637    0.0000 </r>
       <r>    6.9943    0.0000 </r>
       <r>    7.2372    0.0000 </r>
       <r>    7.5656    0.0000 </r>
       <r>    7.6320    0.0000 </r>
       <r>    7.9670    0.0000 </r>
       <r>    8.3454    0.0000 </r>
       <r>    8.5049    0.0000 </r>
       <r>    8.6850    0.0000 </r>
       <r>    8.9331    0.0000 </r>
       <r>    9.0672    0.0000 </r>
       <r>    9.1708    0.0000 </r>
       <r>    9.4650    0.0000 </r>
       <r>    9.6479    0.0000 </r>
       <r>   10.0145    0.0000 </r>
       <r>   10.0169    0.0000 </r>
       <r>   10.1244    0.0000 </r>
      </set>
      <set comment="kpoint 12">
       <r>  -32.1163    1.0000 </r>
       <r>  -31.8164    1.0000 </r>
       <r>  -30.9141    1.0000 </r>
       <r>  -30.6129    1.0000 </r>
       <r>  -15.1969    1.0000 </r>
       <r>  -14.8744    1.0000 </r>
       <r>  -14.7165    1.0000 </r>
       <r>  -14.5811    1.0000 </r>
       <r>  -14.1478    1.0000 </r>
       <r>  -14.0338    1.0000 </r>
       <r>  -14.0029    1.0000 </r>
       <r>  -13.8576    1.0000 </r>
       <r>  -13.7677    1.0000 </r>
       <r>  -13.7307    1.0000 </r>
       <r>  -13.5754    1.0000 </r>
       <r>  -13.4314    1.0000 </r>
       <r>  -13.4097    1.0000 </r>
       <r>  -13.2048    1.0000 </r>
       <r>  -12.8265    1.0000 </r>
       <r>  -12.7909    1.0000 </r>
       <r>  -12.5860    1.0000 </r>
       <r>  -12.5696    1.0000 </r>
       <r>  -12.3164    1.0000 </r>
       <r>  -12.1903    1.0000 </r>
       <r>   -2.6109    1.0000 </r>
       <r>   -2.3174    1.0000 </r>
       <r>   -2.0409    1.0000 </r>
       <r>   -1.5496    1.0000 </r>
       <r>   -1.5412    1.0000 </r>
       <r>   -1.4387    1.0000 </r>
       <r>   -1.3725    1.0000 </r>
       <r>   -1.3175    1.0000 </r>
       <r>   -1.2978    1.0000 </r>
       <r>   -1.2503    1.0000 </r>
       <r>   -1.1791    1.0000 </r>
       <r>   -1.0473    1.0000 </r>
       <r>   -0.9348    1.0000 </r>
       <r>   -0.8293    1.0000 </r>
       <r>   -0.8262    1.0000 </r>
       <r>   -0.8150    1.0000 </r>
       <r>   -0.6209    1.0000 </r>
       <r>   -0.5833    1.0000 </r>
       <r>   -0.4962    1.0000 </r>
       <r>   -0.4176    1.0000 </r>
       <r>   -0.2844    1.0000 </r>
       <r>   -0.2114    1.0000 </r>
       <r>   -0.1971    1.0000 </r>
       <r>   -0.0906    1.0000 </r>
       <r>    0.1163    1.0000 </r>
       <r>    0.3521    1.0000 </r>
       <r>    0.4558    1.0000 </r>
       <r>    0.5172    1.0000 </r>
       <r>    0.6503    1.0000 </r>
       <r>    0.7116    1.0000 </r>
       <r>    0.9778    1.0000 </r>
       <r>    0.9859    1.0000 </r>
       <r>    1.0520    1.0000 </r>
       <r>    1.1660    1.0000 </r>
       <r>    1.4566    1.0000 </r>
       <r>    1.5596    1.0000 </r>
       <r>    1.6037    1.0000 </r>
       <r>    1.7136    1.0000 </r>
       <r>    1.7673    1.0000 </r>
       <r>    1.8245    1.0000 </r>
       <r>    1.9969    1.0000 </r>
       <r>    2.0540    1.0000 </r>
       <r>    2.2890    1.0000 </r>
       <r>    2.3110    1.0000 </r>
       <r>    2.8841    0.0000 </r>
       <r>    5.3223    0.0000 </r>
       <r>    5.7433    0.0000 </r>
       <r>    6.1205    0.0000 </r>
       <r>    6.5611    0.0000 </r>
       <r>    7.0527    0.0000 </r>
       <r>    7.4881    0.0000 </r>
       <r>    7.7044    0.0000 </r>
       <r>    8.1053    0.0000 </r>
       <r>    8.4951    0.0000 </r>
       <r>    8.5113    0.0000 </r>
       <r>    8.7450    0.0000 </r>
       <r>    8.8546    0.0000 </r>
       <r>    9.0461    0.0000 </r>
       <r>    9.2114    0.0000 </r>
       <r>    9.6650    0.0000 </r>
       <r>    9.7793    0.0000 </r>
       <r>    9.9050    0.0000 </r>
       <r>   10.0591    0.0000 </r>
       <r>   10.1777    0.0000 </r>
      </set>
      <set comment="kpoint 13">
       <r>  -32.1123    1.0000 </r>
       <r>  -31.8123    1.0000 </r>
       <r>  -30.9101    1.0000 </r>
       <r>  -30.6085    1.0000 </r>
       <r>  -14.9651    1.0000 </r>
       <r>  -14.7412    1.0000 </r>
       <r>  -14.5509    1.0000 </r>
       <r>  -14.4341    1.0000 </r>
       <r>  -14.1864    1.0000 </r>
       <r>  -14.1033    1.0000 </r>
       <r>  -14.0282    1.0000 </r>
       <r>  -13.9484    1.0000 </r>
       <r>  -13.8003    1.0000 </r>
       <r>  -13.7136    1.0000 </r>
       <r>  -13.6584    1.0000 </r>
       <r>  -13.5103    1.0000 </r>
       <r>  -13.4619    1.0000 </r>
       <r>  -13.3200    1.0000 </r>
       <r>  -12.8859    1.0000 </r>
       <r>  -12.7768    1.0000 </r>
       <r>  -12.6585    1.0000 </r>
       <r>  -12.5502    1.0000 </r>
       <r>  -12.4237    1.0000 </r>
       <r>  -12.3312    1.0000 </r>
       <r>   -2.6030    1.0000 </r>
       <r>   -2.4276    1.0000 </r>
       <r>   -2.0334    1.0000 </r>
       <r>   -1.8321    1.0000 </r>
       <r>   -1.7417    1.0000 </r>
       <r>   -1.6833    1.0000 </r>
       <r>   -1.6622    1.0000 </r>
       <r>   -1.6002    1.0000 </r>
       <r>   -1.5364    1.0000 </r>
       <r>   -1.4846    1.0000 </r>
       <r>   -1.4291    1.0000 </r>
       <r>   -1.3768    1.0000 </r>
       <r>   -1.2038    1.0000 </r>
       <r>   -1.1590    1.0000 </r>
       <r>   -1.0842    1.0000 </r>
       <r>   -1.0701    1.0000 </r>
       <r>   -0.9126    1.0000 </r>
       <r>   -0.6228    1.0000 </r>
       <r>   -0.5026    1.0000 </r>
       <r>   -0.4613    1.0000 </r>
       <r>   -0.3809    1.0000 </r>
       <r>   -0.1462    1.0000 </r>
       <r>    0.1702    1.0000 </r>
       <r>    0.3937    1.0000 </r>
       <r>    0.5029    1.0000 </r>
       <r>    0.6270    1.0000 </r>
       <r>    0.7567    1.0000 </r>
       <r>    0.9247    1.0000 </r>
       <r>    0.9686    1.0000 </r>
       <r>    1.0917    1.0000 </r>
       <r>    1.1213    1.0000 </r>
       <r>    1.2153    1.0000 </r>
       <r>    1.3275    1.0000 </r>
       <r>    1.3609    1.0000 </r>
       <r>    1.3885    1.0000 </r>
       <r>    1.5047    1.0000 </r>
       <r>    1.5793    1.0000 </r>
       <r>    1.6686    1.0000 </r>
       <r>    1.9183    1.0000 </r>
       <r>    2.0045    1.0000 </r>
       <r>    2.2656    1.0000 </r>
       <r>    2.5007    0.8191 </r>
       <r>    2.7191    0.0000 </r>
       <r>    2.8128    0.0000 </r>
       <r>    3.3282    0.0000 </r>
       <r>    4.8451    0.0000 </r>
       <r>    5.2850    0.0000 </r>
       <r>    5.4877    0.0000 </r>
       <r>    7.3054    0.0000 </r>
       <r>    7.5315    0.0000 </r>
       <r>    7.7448    0.0000 </r>
       <r>    7.9099    0.0000 </r>
       <r>    8.0635    0.0000 </r>
       <r>    8.3484    0.0000 </r>
       <r>    8.7220    0.0000 </r>
       <r>    8.7681    0.0000 </r>
       <r>    8.9799    0.0000 </r>
       <r>    9.0941    0.0000 </r>
       <r>    9.3938    0.0000 </r>
       <r>    9.5379    0.0000 </r>
       <r>    9.7056    0.0000 </r>
       <r>    9.8151    0.0000 </r>
       <r>    9.9409    0.0000 </r>
       <r>   10.1796    0.0000 </r>
      </set>
      <set comment="kpoint 14">
       <r>  -32.1122    1.0000 </r>
       <r>  -31.8122    1.0000 </r>
       <r>  -30.9099    1.0000 </r>
       <r>  -30.6084    1.0000 </r>
       <r>  -15.0281    1.0000 </r>
       <r>  -14.7794    1.0000 </r>
       <r>  -14.5968    1.0000 </r>
       <r>  -14.4945    1.0000 </r>
       <r>  -14.1962    1.0000 </r>
       <r>  -14.1529    1.0000 </r>
       <r>  -14.0145    1.0000 </r>
       <r>  -13.9368    1.0000 </r>
       <r>  -13.7633    1.0000 </r>
       <r>  -13.7250    1.0000 </r>
       <r>  -13.5863    1.0000 </r>
       <r>  -13.4963    1.0000 </r>
       <r>  -13.4541    1.0000 </r>
       <r>  -13.2867    1.0000 </r>
       <r>  -12.8661    1.0000 </r>
       <r>  -12.7696    1.0000 </r>
       <r>  -12.6094    1.0000 </r>
       <r>  -12.5122    1.0000 </r>
       <r>  -12.3875    1.0000 </r>
       <r>  -12.2881    1.0000 </r>
       <r>   -2.6309    1.0000 </r>
       <r>   -2.3919    1.0000 </r>
       <r>   -2.0553    1.0000 </r>
       <r>   -1.8452    1.0000 </r>
       <r>   -1.7308    1.0000 </r>
       <r>   -1.6904    1.0000 </r>
       <r>   -1.6448    1.0000 </r>
       <r>   -1.5884    1.0000 </r>
       <r>   -1.5192    1.0000 </r>
       <r>   -1.4787    1.0000 </r>
       <r>   -1.4371    1.0000 </r>
       <r>   -1.3951    1.0000 </r>
       <r>   -1.2215    1.0000 </r>
       <r>   -1.1900    1.0000 </r>
       <r>   -1.0890    1.0000 </r>
       <r>   -1.0516    1.0000 </r>
       <r>   -0.9765    1.0000 </r>
       <r>   -0.6601    1.0000 </r>
       <r>   -0.5100    1.0000 </r>
       <r>   -0.4593    1.0000 </r>
       <r>   -0.3801    1.0000 </r>
       <r>   -0.1111    1.0000 </r>
       <r>    0.1001    1.0000 </r>
       <r>    0.1405    1.0000 </r>
       <r>    0.4660    1.0000 </r>
       <r>    0.6763    1.0000 </r>
       <r>    0.7677    1.0000 </r>
       <r>    0.8911    1.0000 </r>
       <r>    0.9671    1.0000 </r>
       <r>    1.0536    1.0000 </r>
       <r>    1.0874    1.0000 </r>
       <r>    1.1679    1.0000 </r>
       <r>    1.2524    1.0000 </r>
       <r>    1.3130    1.0000 </r>
       <r>    1.4113    1.0000 </r>
       <r>    1.4698    1.0000 </r>
       <r>    1.5411    1.0000 </r>
       <r>    1.7193    1.0000 </r>
       <r>    1.9442    1.0000 </r>
       <r>    1.9917    1.0000 </r>
       <r>    2.2952    1.0000 </r>
       <r>    2.4553    0.9859 </r>
       <r>    2.6704    0.0001 </r>
       <r>    2.8950    0.0000 </r>
       <r>    3.2164    0.0000 </r>
       <r>    5.1715    0.0000 </r>
       <r>    5.5285    0.0000 </r>
       <r>    5.7896    0.0000 </r>
       <r>    7.1269    0.0000 </r>
       <r>    7.3432    0.0000 </r>
[...]
       <r>     1.7713    10.1513    61.4221 </r>
       <r>     1.9279     8.4331    62.7429 </r>
       <r>     2.0846     6.6754    63.7885 </r>
       <r>     2.2412     4.1919    64.4450 </r>
       <r>     2.3978     6.7215    65.4978 </r>
       <r>     2.5544     3.5660    66.0563 </r>
       <r>     2.7110     2.0165    66.3722 </r>
       <r>     2.8677     3.7523    66.9599 </r>
       <r>     3.0243     3.0461    67.4370 </r>
       <r>     3.1809     1.3319    67.6456 </r>
       <r>     3.3375     2.9116    68.1016 </r>
       <r>     3.4942     0.6317    68.2005 </r>
       <r>     3.6508     0.5429    68.2856 </r>
       <r>     3.8074     2.0489    68.6065 </r>
       <r>     3.9640     1.5514    68.8495 </r>
       <r>     4.1207     1.3125    69.0551 </r>
       <r>     4.2773     0.4537    69.1261 </r>
       <r>     4.4339     1.2575    69.3231 </r>
       <r>     4.5905     0.3350    69.3755 </r>
       <r>     4.7472     0.5000    69.4539 </r>
       <r>     4.9038     0.7903    69.5776 </r>
       <r>     5.0604     0.4627    69.6501 </r>
       <r>     5.2170     1.4242    69.8732 </r>
       <r>     5.3737     1.3895    70.0908 </r>
       <r>     5.5303     2.3715    70.4622 </r>
       <r>     5.6869     2.2511    70.8148 </r>
       <r>     5.8435     2.5983    71.2218 </r>
       <r>     6.0002     1.0016    71.3786 </r>
       <r>     6.1568     3.0064    71.8495 </r>
       <r>     6.3134     0.9510    71.9985 </r>
       <r>     6.4700     0.0125    72.0004 </r>
       <r>     6.6267     0.3566    72.0563 </r>
       <r>     6.7833     0.9418    72.2038 </r>
       <r>     6.9399     1.3166    72.4100 </r>
       <r>     7.0965     2.5905    72.8157 </r>
       <r>     7.2532     1.8531    73.1060 </r>
       <r>     7.4098     3.3347    73.6283 </r>
       <r>     7.5664     4.4144    74.3197 </r>
       <r>     7.7230     2.9693    74.7847 </r>
       <r>     7.8797     1.3512    74.9964 </r>
       <r>     8.0363     4.2521    75.6624 </r>
       <r>     8.1929     4.4542    76.3600 </r>
       <r>     8.3495     3.8992    76.9707 </r>
       <r>     8.5062     4.9977    77.7535 </r>
       <r>     8.6628     4.5975    78.4735 </r>
       <r>     8.8194     4.1217    79.1191 </r>
       <r>     8.9760     5.0284    79.9067 </r>
       <r>     9.1327     6.6878    80.9541 </r>
       <r>     9.2893     3.3758    81.4829 </r>
       <r>     9.4459     5.6309    82.3648 </r>
       <r>     9.6025     3.8090    82.9614 </r>
       <r>     9.7592     6.6435    84.0019 </r>
       <r>     9.9158     5.5150    84.8657 </r>
       <r>    10.0724     6.9349    85.9519 </r>
       <r>    10.2290     5.9566    86.8848 </r>
       <r>    10.3856     3.7241    87.4681 </r>
       <r>    10.5423     2.0337    87.7866 </r>
       <r>    10.6989     1.3610    87.9998 </r>
       <r>    10.8555     0.0012    88.0000 </r>
       <r>    11.0121     0.0000    88.0000 </r>
       <r>    11.1688     0.0000    88.0000 </r>
       <r>    11.3254     0.0000    88.0000 </r>
       <r>    11.4820     0.0000    88.0000 </r>
       <r>    11.6386     0.0000    88.0000 </r>
       <r>    11.7953     0.0000    88.0000 </r>
       <r>    11.9519     0.0000    88.0000 </r>
       <r>    12.1085     0.0000    88.0000 </r>
       <r>    12.2651     0.0000    88.0000 </r>
       <r>    12.4218     0.0000    88.0000 </r>
       <r>    12.5784     0.0000    88.0000 </r>
       <r>    12.7350     0.0000    88.0000 </r>
      </set>
      <set comment="spin 2">
       <r>   -34.2523     0.0000     0.0000 </r>
       <r>   -34.0957     0.0000     0.0000 </r>
       <r>   -33.9391     0.0000     0.0000 </r>
       <r>   -33.7825     0.0000     0.0000 </r>
       <r>   -33.6258     0.0000     0.0000 </r>
       <r>   -33.4692     0.0000     0.0000 </r>
       <r>   -33.3126     0.0000     0.0000 </r>
       <r>   -33.1560     0.0000     0.0000 </r>
       <r>   -32.9993     0.0000     0.0000 </r>
       <r>   -32.8427     0.0000     0.0000 </r>
       <r>   -32.6861     0.0000     0.0000 </r>
       <r>   -32.5295     0.0000     0.0000 </r>
       <r>   -32.3728     0.0000     0.0000 </r>
       <r>   -32.2162     0.0087     0.0014 </r>
       <r>   -32.0596     5.8603     0.9192 </r>
       <r>   -31.9030     0.5450     1.0046 </r>
       <r>   -31.7463     6.1214     1.9634 </r>
       <r>   -31.5897     0.2340     2.0000 </r>
       <r>   -31.4331     0.0000     2.0000 </r>
       <r>   -31.2765     0.0000     2.0000 </r>
       <r>   -31.1198     0.0000     2.0000 </r>
       <r>   -30.9632     0.3830     2.0600 </r>
       <r>   -30.8066     5.9872     2.9977 </r>
       <r>   -30.6500     0.7234     3.1110 </r>
       <r>   -30.4934     5.6710     3.9992 </r>
       <r>   -30.3367     0.0048     4.0000 </r>
       <r>   -30.1801     0.0000     4.0000 </r>
       <r>   -30.0235     0.0000     4.0000 </r>
       <r>   -29.8669     0.0000     4.0000 </r>
       <r>   -29.7102     0.0000     4.0000 </r>
       <r>   -29.5536     0.0000     4.0000 </r>
       <r>   -29.3970     0.0000     4.0000 </r>
       <r>   -29.2404     0.0000     4.0000 </r>
       <r>   -29.0837     0.0000     4.0000 </r>
       <r>   -28.9271     0.0000     4.0000 </r>
       <r>   -28.7705     0.0000     4.0000 </r>
       <r>   -28.6139     0.0000     4.0000 </r>
       <r>   -28.4572     0.0000     4.0000 </r>
       <r>   -28.3006     0.0000     4.0000 </r>
       <r>   -28.1440     0.0000     4.0000 </r>
       <r>   -27.9874     0.0000     4.0000 </r>
       <r>   -27.8307     0.0000     4.0000 </r>
       <r>   -27.6741     0.0000     4.0000 </r>
       <r>   -27.5175     0.0000     4.0000 </r>
       <r>   -27.3609     0.0000     4.0000 </r>
       <r>   -27.2042     0.0000     4.0000 </r>
       <r>   -27.0476     0.0000     4.0000 </r>
       <r>   -26.8910     0.0000     4.0000 </r>
       <r>   -26.7344     0.0000     4.0000 </r>
       <r>   -26.5777     0.0000     4.0000 </r>
       <r>   -26.4211     0.0000     4.0000 </r>
       <r>   -26.2645     0.0000     4.0000 </r>
       <r>   -26.1079     0.0000     4.0000 </r>
       <r>   -25.9512     0.0000     4.0000 </r>
       <r>   -25.7946     0.0000     4.0000 </r>
       <r>   -25.6380     0.0000     4.0000 </r>
       <r>   -25.4814     0.0000     4.0000 </r>
       <r>   -25.3247     0.0000     4.0000 </r>
       <r>   -25.1681     0.0000     4.0000 </r>
       <r>   -25.0115     0.0000     4.0000 </r>
       <r>   -24.8549     0.0000     4.0000 </r>
       <r>   -24.6982     0.0000     4.0000 </r>
       <r>   -24.5416     0.0000     4.0000 </r>
       <r>   -24.3850     0.0000     4.0000 </r>
       <r>   -24.2284     0.0000     4.0000 </r>
       <r>   -24.0717     0.0000     4.0000 </r>
       <r>   -23.9151     0.0000     4.0000 </r>
       <r>   -23.7585     0.0000     4.0000 </r>
       <r>   -23.6019     0.0000     4.0000 </r>
       <r>   -23.4452     0.0000     4.0000 </r>
       <r>   -23.2886     0.0000     4.0000 </r>
       <r>   -23.1320     0.0000     4.0000 </r>
       <r>   -22.9754     0.0000     4.0000 </r>
       <r>   -22.8187     0.0000     4.0000 </r>
       <r>   -22.6621     0.0000     4.0000 </r>
       <r>   -22.5055     0.0000     4.0000 </r>
       <r>   -22.3489     0.0000     4.0000 </r>
       <r>   -22.1923     0.0000     4.0000 </r>
       <r>   -22.0356     0.0000     4.0000 </r>
       <r>   -21.8790     0.0000     4.0000 </r>
       <r>   -21.7224     0.0000     4.0000 </r>
       <r>   -21.5658     0.0000     4.0000 </r>
       <r>   -21.4091     0.0000     4.0000 </r>
       <r>   -21.2525     0.0000     4.0000 </r>
       <r>   -21.0959     0.0000     4.0000 </r>
       <r>   -20.9393     0.0000     4.0000 </r>
       <r>   -20.7826     0.0000     4.0000 </r>
       <r>   -20.6260     0.0000     4.0000 </r>
       <r>   -20.4694     0.0000     4.0000 </r>
       <r>   -20.3128     0.0000     4.0000 </r>
       <r>   -20.1561     0.0000     4.0000 </r>
       <r>   -19.9995     0.0000     4.0000 </r>
       <r>   -19.8429     0.0000     4.0000 </r>
       <r>   -19.6863     0.0000     4.0000 </r>
       <r>   -19.5296     0.0000     4.0000 </r>
       <r>   -19.3730     0.0000     4.0000 </r>
       <r>   -19.2164     0.0000     4.0000 </r>
       <r>   -19.0598     0.0000     4.0000 </r>
       <r>   -18.9031     0.0000     4.0000 </r>
       <r>   -18.7465     0.0000     4.0000 </r>
       <r>   -18.5899     0.0000     4.0000 </r>
       <r>   -18.4333     0.0000     4.0000 </r>
       <r>   -18.2766     0.0000     4.0000 </r>
       <r>   -18.1200     0.0000     4.0000 </r>
       <r>   -17.9634     0.0000     4.0000 </r>
       <r>   -17.8068     0.0000     4.0000 </r>
       <r>   -17.6501     0.0000     4.0000 </r>
       <r>   -17.4935     0.0000     4.0000 </r>
       <r>   -17.3369     0.0000     4.0000 </r>
       <r>   -17.1803     0.0000     4.0000 </r>
       <r>   -17.0236     0.0000     4.0000 </r>
       <r>   -16.8670     0.0000     4.0000 </r>
       <r>   -16.7104     0.0000     4.0000 </r>
       <r>   -16.5538     0.0000     4.0000 </r>
       <r>   -16.3971     0.0000     4.0000 </r>
       <r>   -16.2405     0.0000     4.0000 </r>
       <r>   -16.0839     0.0000     4.0000 </r>
       <r>   -15.9273     0.0000     4.0000 </r>
       <r>   -15.7706     0.0000     4.0000 </r>
       <r>   -15.6140     0.0000     4.0000 </r>
       <r>   -15.4574     0.0000     4.0000 </r>
       <r>   -15.3008     0.0009     4.0001 </r>
       <r>   -15.1441     0.4639     4.0728 </r>
       <r>   -14.9875     3.9067     4.6847 </r>
       <r>   -14.8309     3.0307     5.1593 </r>
       <r>   -14.6743     4.5055     5.8650 </r>
       <r>   -14.5176     6.4775     6.8796 </r>
       <r>   -14.3610     5.3239     7.7134 </r>
       <r>   -14.2044     6.7167     8.7654 </r>
       <r>   -14.0478    10.3809    10.3913 </r>
       <r>   -13.8912     8.8711    11.7808 </r>
       <r>   -13.7345     9.3711    13.2485 </r>
       <r>   -13.5779    10.5533    14.9014 </r>
       <r>   -13.4213    10.8908    16.6072 </r>
       <r>   -13.2647     6.5124    17.6272 </r>
       <r>   -13.1080     2.3785    17.9997 </r>
       <r>   -12.9514     0.2993    18.0466 </r>
       <r>   -12.7948     7.6536    19.2453 </r>
       <r>   -12.6382     7.0043    20.3423 </r>
       <r>   -12.4815     9.2535    21.7917 </r>
       <r>   -12.3249     8.8662    23.1803 </r>
       <r>   -12.1683     5.0838    23.9766 </r>
       <r>   -12.0117     0.1496    24.0000 </r>
       <r>   -11.8550     0.0000    24.0000 </r>
       <r>   -11.6984     0.0000    24.0000 </r>
       <r>   -11.5418     0.0000    24.0000 </r>
       <r>   -11.3852     0.0000    24.0000 </r>
       <r>   -11.2285     0.0000    24.0000 </r>
       <r>   -11.0719     0.0000    24.0000 </r>
       <r>   -10.9153     0.0000    24.0000 </r>
       <r>   -10.7587     0.0000    24.0000 </r>
       <r>   -10.6020     0.0000    24.0000 </r>
       <r>   -10.4454     0.0000    24.0000 </r>
       <r>   -10.2888     0.0000    24.0000 </r>
       <r>   -10.1322     0.0000    24.0000 </r>
       <r>    -9.9755     0.0000    24.0000 </r>
       <r>    -9.8189     0.0000    24.0000 </r>
       <r>    -9.6623     0.0000    24.0000 </r>
       <r>    -9.5057     0.0000    24.0000 </r>
       <r>    -9.3490     0.0000    24.0000 </r>
       <r>    -9.1924     0.0000    24.0000 </r>
       <r>    -9.0358     0.0000    24.0000 </r>
       <r>    -8.8792     0.0000    24.0000 </r>
       <r>    -8.7225     0.0000    24.0000 </r>
       <r>    -8.5659     0.0000    24.0000 </r>
       <r>    -8.4093     0.0000    24.0000 </r>
       <r>    -8.2527     0.0000    24.0000 </r>
       <r>    -8.0960     0.0000    24.0000 </r>
       <r>    -7.9394     0.0000    24.0000 </r>
       <r>    -7.7828     0.0000    24.0000 </r>
       <r>    -7.6262     0.0000    24.0000 </r>
       <r>    -7.4695     0.0000    24.0000 </r>
       <r>    -7.3129     0.0000    24.0000 </r>
       <r>    -7.1563     0.0000    24.0000 </r>
       <r>    -6.9997     0.0000    24.0000 </r>
       <r>    -6.8430     0.0000    24.0000 </r>
       <r>    -6.6864     0.0000    24.0000 </r>
       <r>    -6.5298     0.0000    24.0000 </r>
       <r>    -6.3732     0.0000    24.0000 </r>
       <r>    -6.2165     0.0000    24.0000 </r>
       <r>    -6.0599     0.0000    24.0000 </r>
       <r>    -5.9033     0.0000    24.0000 </r>
       <r>    -5.7467     0.0000    24.0000 </r>
       <r>    -5.5901     0.0000    24.0000 </r>
       <r>    -5.4334     0.0000    24.0000 </r>
       <r>    -5.2768     0.0000    24.0000 </r>
       <r>    -5.1202     0.0000    24.0000 </r>
       <r>    -4.9636     0.0000    24.0000 </r>
       <r>    -4.8069     0.0000    24.0000 </r>
       <r>    -4.6503     0.0000    24.0000 </r>
       <r>    -4.4937     0.0000    24.0000 </r>
       <r>    -4.3371     0.0000    24.0000 </r>
       <r>    -4.1804     0.0000    24.0000 </r>
       <r>    -4.0238     0.0000    24.0000 </r>
       <r>    -3.8672     0.0000    24.0000 </r>
       <r>    -3.7106     0.0000    24.0000 </r>
       <r>    -3.5539     0.0000    24.0000 </r>
       <r>    -3.3973     0.0000    24.0000 </r>
       <r>    -3.2407     0.0000    24.0000 </r>
       <r>    -3.0841     0.1779    24.0279 </r>
       <r>    -2.9274     2.3165    24.3907 </r>
       <r>    -2.7708     0.6633    24.4946 </r>
       <r>    -2.6142     5.2512    25.3170 </r>
       <r>    -2.4576     3.1720    25.8139 </r>
       <r>    -2.3009     5.2496    26.6361 </r>
       <r>    -2.1443     4.0302    27.2673 </r>
       <r>    -1.9877     6.3273    28.2583 </r>
       <r>    -1.8311     6.4958    29.2757 </r>
       <r>    -1.6744     8.8839    30.6672 </r>
       <r>    -1.5178    11.6453    32.4911 </r>
       <r>    -1.3612    17.9328    35.2998 </r>
       <r>    -1.2046    12.9742    37.3319 </r>
       <r>    -1.0479    11.8339    39.1854 </r>
       <r>    -0.8913     6.0076    40.1263 </r>
       <r>    -0.7347     3.7494    40.7136 </r>
       <r>    -0.5781     8.0148    41.9689 </r>
       <r>    -0.4214    13.1660    44.0310 </r>
       <r>    -0.2648     5.8050    44.9402 </r>
       <r>    -0.1082     4.1760    45.5942 </r>
       <r>     0.0484     3.5526    46.1507 </r>
       <r>     0.2051     6.3181    47.1403 </r>
       <r>     0.3617     3.7253    47.7237 </r>
       <r>     0.5183     7.2857    48.8648 </r>
       <r>     0.6749     6.4291    49.8718 </r>
       <r>     0.8316     8.1005    51.1405 </r>
       <r>     0.9882    10.3991    52.7693 </r>
       <r>     1.1448    11.9950    54.6480 </r>
       <r>     1.3014    13.3032    56.7316 </r>
       <r>     1.4581    10.7057    58.4084 </r>
       <r>     1.6147     9.0281    59.8224 </r>
       <r>     1.7713    10.2082    61.4213 </r>
       <r>     1.9279     8.3493    62.7290 </r>
       <r>     2.0846     6.6495    63.7705 </r>
       <r>     2.2412     4.2272    64.4325 </r>
       <r>     2.3978     6.6431    65.4730 </r>
       <r>     2.5544     3.6079    66.0381 </r>
       <r>     2.7110     2.1156    66.3695 </r>
       <r>     2.8677     3.7302    66.9537 </r>
       <r>     3.0243     3.0623    67.4333 </r>
       <r>     3.1809     1.2847    67.6345 </r>
       <r>     3.3375     2.9379    68.0947 </r>
       <r>     3.4942     0.6767    68.2007 </r>
       <r>     3.6508     0.5552    68.2876 </r>
       <r>     3.8074     2.0313    68.6058 </r>
       <r>     3.9640     1.5415    68.8472 </r>
       <r>     4.1207     1.2698    69.0461 </r>
       <r>     4.2773     0.4369    69.1145 </r>
       <r>     4.4339     1.3231    69.3218 </r>
       <r>     4.5905     0.2502    69.3610 </r>
       <r>     4.7472     0.5870    69.4529 </r>
       <r>     4.9038     0.7682    69.5732 </r>
       <r>     5.0604     0.4899    69.6499 </r>
       <r>     5.2170     1.3139    69.8557 </r>
       <r>     5.3737     1.4746    70.0867 </r>
       <r>     5.5303     2.2392    70.4374 </r>
       <r>     5.6869     2.3794    70.8101 </r>
       <r>     5.8435     2.5260    71.2057 </r>
       <r>     6.0002     1.0659    71.3727 </r>
       <r>     6.1568     3.0008    71.8427 </r>
       <r>     6.3134     0.9897    71.9977 </r>
       <r>     6.4700     0.0169    72.0003 </r>
       <r>     6.6267     0.3436    72.0541 </r>
       <r>     6.7833     0.9291    72.1997 </r>
       <r>     6.9399     1.2384    72.3936 </r>
       <r>     7.0965     2.6499    72.8087 </r>
       <r>     7.2532     1.8597    73.0999 </r>
       <r>     7.4098     3.3111    73.6185 </r>
       <r>     7.5664     4.3501    74.2999 </r>
       <r>     7.7230     3.0495    74.7775 </r>
       <r>     7.8797     1.3603    74.9906 </r>
       <r>     8.0363     4.1995    75.6483 </r>
       <r>     8.1929     4.4727    76.3488 </r>
       <r>     8.3495     3.9241    76.9635 </r>
       <r>     8.5062     4.9661    77.7413 </r>
       <r>     8.6628     4.6549    78.4703 </r>
       <r>     8.8194     4.1185    79.1154 </r>
       <r>     8.9760     5.0104    79.9002 </r>
       <r>     9.1327     6.7037    80.9501 </r>
       <r>     9.2893     3.3727    81.4784 </r>
       <r>     9.4459     5.6240    82.3592 </r>
       <r>     9.6025     3.8077    82.9556 </r>
       <r>     9.7592     6.6299    83.9940 </r>
       <r>     9.9158     5.5133    84.8575 </r>
       <r>    10.0724     6.9611    85.9478 </r>
       <r>    10.2290     5.9631    86.8818 </r>
       <r>    10.3856     3.7270    87.4655 </r>
       <r>    10.5423     2.2090    87.8115 </r>
       <r>    10.6989     1.2027    87.9999 </r>
       <r>    10.8555     0.0008    88.0000 </r>
       <r>    11.0121     0.0000    88.0000 </r>
       <r>    11.1688     0.0000    88.0000 </r>
       <r>    11.3254     0.0000    88.0000 </r>
       <r>    11.4820     0.0000    88.0000 </r>
       <r>    11.6386     0.0000    88.0000 </r>
       <r>    11.7953     0.0000    88.0000 </r>
       <r>    11.9519     0.0000    88.0000 </r>
       <r>    12.1085     0.0000    88.0000 </r>
       <r>    12.2651     0.0000    88.0000 </r>
       <r>    12.4218     0.0000    88.0000 </r>
       <r>    12.5784     0.0000    88.0000 </r>
       <r>    12.7350     0.0000    88.0000 </r>
      </set>
     </set>
    </array>
   </total>
  </dos>
 </calculation>
 <structure name="finalpos" >
  <crystal>
   <varray name="basis" >
    <v>       5.65685425       0.00000000       0.00000000 </v>
    <v>       0.00000000       4.00000000       0.00000000 </v>
    <v>       0.00000000       0.00000000      11.31370850 </v>
   </varray>
   <i name="volume">    256.00000000 </i>
   <varray name="rec_basis" >
    <v>       0.17677670       0.00000000       0.00000000 </v>
    <v>       0.00000000       0.25000000       0.00000000 </v>
    <v>       0.00000000       0.00000000       0.08838835 </v>
   </varray>
  </crystal>
  <varray name="positions" >
   <v>       0.00000000       0.00000000       0.00000000 </v>
   <v>       0.50000000       0.00000000       0.25000000 </v>
   <v>       0.00000000       0.00000000       0.50000000 </v>
   <v>       0.50000000       0.00000000       0.75000000 </v>
   <v>       0.50000000       0.50000000       0.00000000 </v>
   <v>       0.00000000       0.50000000       0.25000000 </v>
   <v>       0.50000000       0.50000000       0.50000000 </v>
   <v>       0.00000000       0.50000000       0.75000000 </v>
   <v>       0.75000000       0.50000000       0.37500000 </v>
   <v>       0.25000000       0.50000000       0.62500000 </v>
   <v>       0.50000000       0.00000000       0.00000000 </v>
   <v>       0.50000000       0.00000000       0.50000000 </v>
   <v>       0.00000000       0.00000000       0.75000000 </v>
   <v>       0.75000000       0.50000000       0.12500000 </v>
   <v>       0.75000000       0.50000000       0.62500000 </v>
   <v>       0.25000000       0.50000000       0.87500000 </v>
  </varray>
 </structure>
</modeling>
