<?xml version="1.0" encoding="ISO-8859-1"?>
<modeling>
 <generator>
  <i name="program" type="string">vasp </i>
  <i name="version" type="string">5.3.5  </i>
  <i name="subversion" type="string">31Mar14 (build Jun 20 2014 13:15:13) complex                          parallel </i>
  <i name="platform" type="string">LinuxIFC </i>
  <i name="date" type="string">2025 11 21 </i>
  <i name="time" type="string">13:51:17 </i>
 </generator>
 <incar>
  <i type="string" name="PREC">accurate</i>
  <i type="int" name="IALGO">    68</i>
  <i type="logical" name="ADDGRID"> T  </i>
  <i type="int" name="NELM">   100</i>
  <i type="int" name="NELMIN">     4</i>
  <i type="int" name="IBRION">     2</i>
  <i name="EDIFF">      0.00000100</i>
  <i name="EDIFFG">     -0.02000000</i>
  <i type="int" name="NSW">    30</i>
  <i type="int" name="ISIF">     3</i>
  <i name="ENCUT">    500.00000000</i>
  <i type="logical" name="LREAL"> F  </i>
  <i type="int" name="ISMEAR">     1</i>
  <i name="SIGMA">      0.30000000</i>
  <i type="logical" name="LWAVE"> F  </i>
  <i type="logical" name="LCHARG"> F  </i>
  <i type="int" name="NELM">   100</i>
 </incar>
 <kpoints>
  <generation param="Auto">
   <i name="subdivisionlength">     70.00000000 </i>
   <v type="int" name="divisions">      15       17       17 </v>
   <v name="usershift">      0.00000000       0.00000000       0.00000000 </v>
   <v name="genvec1">      0.06666667       0.00000000       0.00000000 </v>
   <v name="genvec2">      0.00000000       0.05882353       0.00000000 </v>
   <v name="genvec3">      0.00000000       0.00000000       0.05882353 </v>
   <v name="shift">      0.00000000       0.00000000       0.00000000 </v>
  </generation>
  <varray name="kpointlist" >
   <v>       0.00000000       0.00000000       0.00000000 </v>
   <v>       0.06666667       0.00000000       0.00000000 </v>
   <v>       0.13333333       0.00000000       0.00000000 </v>
   <v>       0.20000000       0.00000000       0.00000000 </v>
   <v>       0.26666667       0.00000000       0.00000000 </v>
   <v>       0.33333333       0.00000000       0.00000000 </v>
   <v>       0.40000000       0.00000000       0.00000000 </v>
   <v>       0.46666667       0.00000000       0.00000000 </v>
   <v>       0.00000000       0.05882353       0.00000000 </v>
   <v>       0.06666667       0.05882353       0.00000000 </v>
   <v>       0.13333333       0.05882353       0.00000000 </v>
   <v>       0.20000000       0.05882353       0.00000000 </v>
   <v>       0.26666667       0.05882353       0.00000000 </v>
   <v>       0.33333333       0.05882353       0.00000000 </v>
   <v>       0.40000000       0.05882353       0.00000000 </v>
   <v>       0.46666667       0.05882353       0.00000000 </v>
   <v>      -0.46666667       0.05882353       0.00000000 </v>
   <v>      -0.40000000       0.05882353       0.00000000 </v>
   <v>      -0.33333333       0.05882353       0.00000000 </v>
   <v>      -0.26666667       0.05882353       0.00000000 </v>
   <v>      -0.20000000       0.05882353       0.00000000 </v>
   <v>      -0.13333333       0.05882353       0.00000000 </v>
   <v>      -0.06666667       0.05882353       0.00000000 </v>
   <v>       0.00000000       0.11764706       0.00000000 </v>
   <v>       0.06666667       0.11764706       0.00000000 </v>
   <v>       0.13333333       0.11764706       0.00000000 </v>
   <v>       0.20000000       0.11764706       0.00000000 </v>
   <v>       0.26666667       0.11764706       0.00000000 </v>
   <v>       0.33333333       0.11764706       0.00000000 </v>
   <v>       0.40000000       0.11764706       0.00000000 </v>
   <v>       0.46666667       0.11764706       0.00000000 </v>
   <v>      -0.46666667       0.11764706       0.00000000 </v>
   <v>      -0.40000000       0.11764706       0.00000000 </v>
   <v>      -0.33333333       0.11764706       0.00000000 </v>
   <v>      -0.26666667       0.11764706       0.00000000 </v>
   <v>      -0.20000000       0.11764706       0.00000000 </v>
   <v>      -0.13333333       0.11764706       0.00000000 </v>
   <v>      -0.06666667       0.11764706       0.00000000 </v>
   <v>       0.00000000       0.17647059       0.00000000 </v>
   <v>       0.06666667       0.17647059       0.00000000 </v>
   <v>       0.13333333       0.17647059       0.00000000 </v>
   <v>       0.20000000       0.17647059       0.00000000 </v>
   <v>       0.26666667       0.17647059       0.00000000 </v>
   <v>       0.33333333       0.17647059       0.00000000 </v>
   <v>       0.40000000       0.17647059       0.00000000 </v>
   <v>       0.46666667       0.17647059       0.00000000 </v>
   <v>      -0.46666667       0.17647059       0.00000000 </v>
   <v>      -0.40000000       0.17647059       0.00000000 </v>
   <v>      -0.33333333       0.17647059       0.00000000 </v>
   <v>      -0.26666667       0.17647059       0.00000000 </v>
   <v>      -0.20000000       0.17647059       0.00000000 </v>
   <v>      -0.13333333       0.17647059       0.00000000 </v>
   <v>      -0.06666667       0.17647059       0.00000000 </v>
   <v>       0.00000000       0.23529412       0.00000000 </v>
   <v>       0.06666667       0.23529412       0.00000000 </v>
   <v>       0.13333333       0.23529412       0.00000000 </v>
   <v>       0.20000000       0.23529412       0.00000000 </v>
   <v>       0.26666667       0.23529412       0.00000000 </v>
   <v>       0.33333333       0.23529412       0.00000000 </v>
   <v>       0.40000000       0.23529412       0.00000000 </v>
   <v>       0.46666667       0.23529412       0.00000000 </v>
   <v>      -0.46666667       0.23529412       0.00000000 </v>
   <v>      -0.40000000       0.23529412       0.00000000 </v>
   <v>      -0.33333333       0.23529412       0.00000000 </v>
   <v>      -0.26666667       0.23529412       0.00000000 </v>
   <v>      -0.20000000       0.23529412       0.00000000 </v>
   <v>      -0.13333333       0.23529412       0.00000000 </v>
   <v>      -0.06666667       0.23529412       0.00000000 </v>
   <v>       0.00000000       0.29411765       0.00000000 </v>
   <v>       0.06666667       0.29411765       0.00000000 </v>
   <v>       0.13333333       0.29411765       0.00000000 </v>
   <v>       0.20000000       0.29411765       0.00000000 </v>
   <v>       0.26666667       0.29411765       0.00000000 </v>
   <v>       0.33333333       0.29411765       0.00000000 </v>
   <v>       0.40000000       0.29411765       0.00000000 </v>
   <v>       0.46666667       0.29411765       0.00000000 </v>
   <v>      -0.46666667       0.29411765       0.00000000 </v>
   <v>      -0.40000000       0.29411765       0.00000000 </v>
   <v>      -0.33333333       0.29411765       0.00000000 </v>
   <v>      -0.26666667       0.29411765       0.00000000 </v>
   <v>      -0.20000000       0.29411765       0.00000000 </v>
   <v>      -0.13333333       0.29411765       0.00000000 </v>
   <v>      -0.06666667       0.29411765       0.00000000 </v>
   <v>       0.00000000       0.35294118       0.00000000 </v>
   <v>       0.06666667       0.35294118       0.00000000 </v>
   <v>       0.13333333       0.35294118       0.00000000 </v>
   <v>       0.20000000       0.35294118       0.00000000 </v>
   <v>       0.26666667       0.35294118       0.00000000 </v>
   <v>       0.33333333       0.35294118       0.00000000 </v>
   <v>       0.40000000       0.35294118       0.00000000 </v>
   <v>       0.46666667       0.35294118       0.00000000 </v>
   <v>      -0.46666667       0.35294118       0.00000000 </v>
   <v>      -0.40000000       0.35294118       0.00000000 </v>
   <v>      -0.33333333       0.35294118       0.00000000 </v>
   <v>      -0.26666667       0.35294118       0.00000000 </v>
   <v>      -0.20000000       0.35294118       0.00000000 </v>
   <v>      -0.13333333       0.35294118       0.00000000 </v>
   <v>      -0.06666667       0.35294118       0.00000000 </v>
   <v>       0.00000000       0.41176471       0.00000000 </v>
   <v>       0.06666667       0.41176471       0.00000000 </v>
   <v>       0.13333333       0.41176471       0.00000000 </v>
   <v>       0.20000000       0.41176471       0.00000000 </v>
   <v>       0.26666667       0.41176471       0.00000000 </v>
   <v>       0.33333333       0.41176471       0.00000000 </v>
   <v>       0.40000000       0.41176471       0.00000000 </v>
   <v>       0.46666667       0.41176471       0.00000000 </v>
   <v>      -0.46666667       0.41176471       0.00000000 </v>
   <v>      -0.40000000       0.41176471       0.00000000 </v>
   <v>      -0.33333333       0.41176471       0.00000000 </v>
   <v>      -0.26666667       0.41176471       0.00000000 </v>
   <v>      -0.20000000       0.41176471       0.00000000 </v>
   <v>      -0.13333333       0.41176471       0.00000000 </v>
   <v>      -0.06666667       0.41176471       0.00000000 </v>
   <v>       0.00000000       0.47058824       0.00000000 </v>
   <v>       0.06666667       0.47058824       0.00000000 </v>
   <v>       0.13333333       0.47058824       0.00000000 </v>
   <v>       0.20000000       0.47058824       0.00000000 </v>
   <v>       0.26666667       0.47058824       0.00000000 </v>
   <v>       0.33333333       0.47058824       0.00000000 </v>
   <v>       0.40000000       0.47058824       0.00000000 </v>
   <v>       0.46666667       0.47058824       0.00000000 </v>
   <v>      -0.46666667       0.47058824       0.00000000 </v>
   <v>      -0.40000000       0.47058824       0.00000000 </v>
   <v>      -0.33333333       0.47058824       0.00000000 </v>
   <v>      -0.26666667       0.47058824       0.00000000 </v>
   <v>      -0.20000000       0.47058824       0.00000000 </v>
   <v>      -0.13333333       0.47058824       0.00000000 </v>
   <v>      -0.06666667       0.47058824       0.00000000 </v>
   <v>       0.00000000       0.05882353       0.05882353 </v>
   <v>       0.06666667       0.05882353       0.05882353 </v>
   <v>       0.13333333       0.05882353       0.05882353 </v>
   <v>       0.20000000       0.05882353       0.05882353 </v>
   <v>       0.26666667       0.05882353       0.05882353 </v>
   <v>       0.33333333       0.05882353       0.05882353 </v>
   <v>       0.40000000       0.05882353       0.05882353 </v>
   <v>       0.46666667       0.05882353       0.05882353 </v>
   <v>      -0.46666667       0.05882353       0.05882353 </v>
   <v>      -0.40000000       0.05882353       0.05882353 </v>
   <v>      -0.33333333       0.05882353       0.05882353 </v>
   <v>      -0.26666667       0.05882353       0.05882353 </v>
   <v>      -0.20000000       0.05882353       0.05882353 </v>
   <v>      -0.13333333       0.05882353       0.05882353 </v>
   <v>      -0.06666667       0.05882353       0.05882353 </v>
   <v>       0.00000000       0.11764706       0.05882353 </v>
   <v>       0.06666667       0.11764706       0.05882353 </v>
   <v>       0.13333333       0.11764706       0.05882353 </v>
   <v>       0.20000000       0.11764706       0.05882353 </v>
   <v>       0.26666667       0.11764706       0.05882353 </v>
   <v>       0.33333333       0.11764706       0.05882353 </v>
   <v>       0.40000000       0.11764706       0.05882353 </v>
   <v>       0.46666667       0.11764706       0.05882353 </v>
   <v>      -0.46666667       0.11764706       0.05882353 </v>
   <v>      -0.40000000       0.11764706       0.05882353 </v>
   <v>      -0.33333333       0.11764706       0.05882353 </v>
   <v>      -0.26666667       0.11764706       0.05882353 </v>
   <v>      -0.20000000       0.11764706       0.05882353 </v>
   <v>      -0.13333333       0.11764706       0.05882353 </v>
   <v>      -0.06666667       0.11764706       0.05882353 </v>
   <v>       0.00000000       0.17647059       0.05882353 </v>
   <v>       0.06666667       0.17647059       0.05882353 </v>
   <v>       0.13333333       0.17647059       0.05882353 </v>
   <v>       0.20000000       0.17647059       0.05882353 </v>
   <v>       0.26666667       0.17647059       0.05882353 </v>
   <v>       0.33333333       0.17647059       0.05882353 </v>
   <v>       0.40000000       0.17647059       0.05882353 </v>
   <v>       0.46666667       0.17647059       0.05882353 </v>
   <v>      -0.46666667       0.17647059       0.05882353 </v>
   <v>      -0.40000000       0.17647059       0.05882353 </v>
   <v>      -0.33333333       0.17647059       0.05882353 </v>
   <v>      -0.26666667       0.17647059       0.05882353 </v>
   <v>      -0.20000000       0.17647059       0.05882353 </v>
   <v>      -0.13333333       0.17647059       0.05882353 </v>
   <v>      -0.06666667       0.17647059       0.05882353 </v>
   <v>       0.00000000       0.23529412       0.05882353 </v>
   <v>       0.06666667       0.23529412       0.05882353 </v>
   <v>       0.13333333       0.23529412       0.05882353 </v>
   <v>       0.20000000       0.23529412       0.05882353 </v>
   <v>       0.26666667       0.23529412       0.05882353 </v>
   <v>       0.33333333       0.23529412       0.05882353 </v>
   <v>       0.40000000       0.23529412       0.05882353 </v>
   <v>       0.46666667       0.23529412       0.05882353 </v>
   <v>      -0.46666667       0.23529412       0.05882353 </v>
   <v>      -0.40000000       0.23529412       0.05882353 </v>
   <v>      -0.33333333       0.23529412       0.05882353 </v>
   <v>      -0.26666667       0.23529412       0.05882353 </v>
   <v>      -0.20000000       0.23529412       0.05882353 </v>
   <v>      -0.13333333       0.23529412       0.05882353 </v>
   <v>      -0.06666667       0.23529412       0.05882353 </v>
   <v>       0.00000000       0.29411765       0.05882353 </v>
   <v>       0.06666667       0.29411765       0.05882353 </v>
   <v>       0.13333333       0.29411765       0.05882353 </v>
   <v>       0.20000000       0.29411765       0.05882353 </v>
   <v>       0.26666667       0.29411765       0.05882353 </v>
   <v>       0.33333333       0.29411765       0.05882353 </v>
   <v>       0.40000000       0.29411765       0.05882353 </v>
   <v>       0.46666667       0.29411765       0.05882353 </v>
   <v>      -0.46666667       0.29411765       0.05882353 </v>
   <v>      -0.40000000       0.29411765       0.05882353 </v>
   <v>      -0.33333333       0.29411765       0.05882353 </v>
   <v>      -0.26666667       0.29411765       0.05882353 </v>
   <v>      -0.20000000       0.29411765       0.05882353 </v>
   <v>      -0.13333333       0.29411765       0.05882353 </v>
   <v>      -0.06666667       0.29411765       0.05882353 </v>
   <v>       0.00000000       0.35294118       0.05882353 </v>
   <v>       0.06666667       0.35294118       0.05882353 </v>
   <v>       0.13333333       0.35294118       0.05882353 </v>
   <v>       0.20000000       0.35294118       0.05882353 </v>
   <v>       0.26666667       0.35294118       0.05882353 </v>
   <v>       0.33333333       0.35294118       0.05882353 </v>
   <v>       0.40000000       0.35294118       0.05882353 </v>
   <v>       0.46666667       0.35294118       0.05882353 </v>
   <v>      -0.46666667       0.35294118       0.05882353 </v>
   <v>      -0.40000000       0.35294118       0.05882353 </v>
   <v>      -0.33333333       0.35294118       0.05882353 </v>
   <v>      -0.26666667       0.35294118       0.05882353 </v>
   <v>      -0.20000000       0.35294118       0.05882353 </v>
   <v>      -0.13333333       0.35294118       0.05882353 </v>
   <v>      -0.06666667       0.35294118       0.05882353 </v>
   <v>       0.00000000       0.41176471       0.05882353 </v>
   <v>       0.06666667       0.41176471       0.05882353 </v>
   <v>       0.13333333       0.41176471       0.05882353 </v>
   <v>       0.20000000       0.41176471       0.05882353 </v>
   <v>       0.26666667       0.41176471       0.05882353 </v>
   <v>       0.33333333       0.41176471       0.05882353 </v>
   <v>       0.40000000       0.41176471       0.05882353 </v>
   <v>       0.46666667       0.41176471       0.05882353 </v>
   <v>      -0.46666667       0.41176471       0.05882353 </v>
   <v>      -0.40000000       0.41176471       0.05882353 </v>
   <v>      -0.33333333       0.41176471       0.05882353 </v>
   <v>      -0.26666667       0.41176471       0.05882353 </v>
   <v>      -0.20000000       0.41176471       0.05882353 </v>
   <v>      -0.13333333       0.41176471       0.05882353 </v>
   <v>      -0.06666667       0.41176471       0.05882353 </v>
   <v>       0.00000000       0.47058824       0.05882353 </v>
   <v>       0.06666667       0.47058824       0.05882353 </v>
   <v>       0.13333333       0.47058824       0.05882353 </v>
   <v>       0.20000000       0.47058824       0.05882353 </v>
   <v>       0.26666667       0.47058824       0.05882353 </v>
   <v>       0.33333333       0.47058824       0.05882353 </v>
   <v>       0.40000000       0.47058824       0.05882353 </v>
   <v>       0.46666667       0.47058824       0.05882353 </v>
   <v>      -0.46666667       0.47058824       0.05882353 </v>
   <v>      -0.40000000       0.47058824       0.05882353 </v>
   <v>      -0.33333333       0.47058824       0.05882353 </v>
   <v>      -0.26666667       0.47058824       0.05882353 </v>
   <v>      -0.20000000       0.47058824       0.05882353 </v>
   <v>      -0.13333333       0.47058824       0.05882353 </v>
   <v>      -0.06666667       0.47058824       0.05882353 </v>
   <v>       0.00000000      -0.47058824       0.05882353 </v>
   <v>       0.06666667      -0.47058824       0.05882353 </v>
   <v>       0.13333333      -0.47058824       0.05882353 </v>
   <v>       0.20000000      -0.47058824       0.05882353 </v>
   <v>       0.26666667      -0.47058824       0.05882353 </v>
   <v>       0.33333333      -0.47058824       0.05882353 </v>
   <v>       0.40000000      -0.47058824       0.05882353 </v>
   <v>       0.46666667      -0.47058824       0.05882353 </v>
   <v>      -0.46666667      -0.47058824       0.05882353 </v>
   <v>      -0.40000000      -0.47058824       0.05882353 </v>
   <v>      -0.33333333      -0.47058824       0.05882353 </v>
   <v>      -0.26666667      -0.47058824       0.05882353 </v>
   <v>      -0.20000000      -0.47058824       0.05882353 </v>
   <v>      -0.13333333      -0.47058824       0.05882353 </v>
   <v>      -0.06666667      -0.47058824       0.05882353 </v>
   <v>       0.00000000      -0.41176471       0.05882353 </v>
   <v>       0.06666667      -0.41176471       0.05882353 </v>
   <v>       0.13333333      -0.41176471       0.05882353 </v>
   <v>       0.20000000      -0.41176471       0.05882353 </v>
   <v>       0.26666667      -0.41176471       0.05882353 </v>
   <v>       0.33333333      -0.41176471       0.05882353 </v>
   <v>       0.40000000      -0.41176471       0.05882353 </v>
   <v>       0.46666667      -0.41176471       0.05882353 </v>
   <v>      -0.46666667      -0.41176471       0.05882353 </v>
   <v>      -0.40000000      -0.41176471       0.05882353 </v>
   <v>      -0.33333333      -0.41176471       0.05882353 </v>
   <v>      -0.26666667      -0.41176471       0.05882353 </v>
   <v>      -0.20000000      -0.41176471       0.05882353 </v>
   <v>      -0.13333333      -0.41176471       0.05882353 </v>
   <v>      -0.06666667      -0.41176471       0.05882353 </v>
   <v>       0.00000000      -0.35294118       0.05882353 </v>
   <v>       0.06666667      -0.35294118       0.05882353 </v>
   <v>       0.13333333      -0.35294118       0.05882353 </v>
   <v>       0.20000000      -0.35294118       0.05882353 </v>
   <v>       0.26666667      -0.35294118       0.05882353 </v>
   <v>       0.33333333      -0.35294118       0.05882353 </v>
   <v>       0.40000000      -0.35294118       0.05882353 </v>
   <v>       0.46666667      -0.35294118       0.05882353 </v>
   <v>      -0.46666667      -0.35294118       0.05882353 </v>
   <v>      -0.40000000      -0.35294118       0.05882353 </v>
   <v>      -0.33333333      -0.35294118       0.05882353 </v>
   <v>      -0.26666667      -0.35294118       0.05882353 </v>
   <v>      -0.20000000      -0.35294118       0.05882353 </v>
   <v>      -0.13333333      -0.35294118       0.05882353 </v>
   <v>      -0.06666667      -0.35294118       0.05882353 </v>
   <v>       0.00000000      -0.29411765       0.05882353 </v>
   <v>       0.06666667      -0.29411765       0.05882353 </v>
   <v>       0.13333333      -0.29411765       0.05882353 </v>
   <v>       0.20000000      -0.29411765       0.05882353 </v>
   <v>       0.26666667      -0.29411765       0.05882353 </v>
   <v>       0.33333333      -0.29411765       0.05882353 </v>
   <v>       0.40000000      -0.29411765       0.05882353 </v>
   <v>       0.46666667      -0.29411765       0.05882353 </v>
   <v>      -0.46666667      -0.29411765       0.05882353 </v>
   <v>      -0.40000000      -0.29411765       0.05882353 </v>
   <v>      -0.33333333      -0.29411765       0.05882353 </v>
   <v>      -0.26666667      -0.29411765       0.05882353 </v>
   <v>      -0.20000000      -0.29411765       0.05882353 </v>
   <v>      -0.13333333      -0.29411765       0.05882353 </v>
   <v>      -0.06666667      -0.29411765       0.05882353 </v>
   <v>       0.00000000      -0.23529412       0.05882353 </v>
   <v>       0.06666667      -0.23529412       0.05882353 </v>
   <v>       0.13333333      -0.23529412       0.05882353 </v>
   <v>       0.20000000      -0.23529412       0.05882353 </v>
   <v>       0.26666667      -0.23529412       0.05882353 </v>
   <v>       0.33333333      -0.23529412       0.05882353 </v>
   <v>       0.40000000      -0.23529412       0.05882353 </v>
   <v>       0.46666667      -0.23529412       0.05882353 </v>
   <v>      -0.46666667      -0.23529412       0.05882353 </v>
   <v>      -0.40000000      -0.23529412       0.05882353 </v>
   <v>      -0.33333333      -0.23529412       0.05882353 </v>
   <v>      -0.26666667      -0.23529412       0.05882353 </v>
   <v>      -0.20000000      -0.23529412       0.05882353 </v>
   <v>      -0.13333333      -0.23529412       0.05882353 </v>
   <v>      -0.06666667      -0.23529412       0.05882353 </v>
   <v>       0.00000000      -0.17647059       0.05882353 </v>
   <v>       0.06666667      -0.17647059       0.05882353 </v>
   <v>       0.13333333      -0.17647059       0.05882353 </v>
   <v>       0.20000000      -0.17647059       0.05882353 </v>
   <v>       0.26666667      -0.17647059       0.05882353 </v>
   <v>       0.33333333      -0.17647059       0.05882353 </v>
   <v>       0.40000000      -0.17647059       0.05882353 </v>
   <v>       0.46666667      -0.17647059       0.05882353 </v>
   <v>      -0.46666667      -0.17647059       0.05882353 </v>
   <v>      -0.40000000      -0.17647059       0.05882353 </v>
   <v>      -0.33333333      -0.17647059       0.05882353 </v>
   <v>      -0.26666667      -0.17647059       0.05882353 </v>
   <v>      -0.20000000      -0.17647059       0.05882353 </v>
   <v>      -0.13333333      -0.17647059       0.05882353 </v>
   <v>      -0.06666667      -0.17647059       0.05882353 </v>
   <v>       0.00000000      -0.11764706       0.05882353 </v>
   <v>       0.06666667      -0.11764706       0.05882353 </v>
   <v>       0.13333333      -0.11764706       0.05882353 </v>
   <v>       0.20000000      -0.11764706       0.05882353 </v>
   <v>       0.26666667      -0.11764706       0.05882353 </v>
   <v>       0.33333333      -0.11764706       0.05882353 </v>
   <v>       0.40000000      -0.11764706       0.05882353 </v>
   <v>       0.46666667      -0.11764706       0.05882353 </v>
   <v>      -0.46666667      -0.11764706       0.05882353 </v>
   <v>      -0.40000000      -0.11764706       0.05882353 </v>
   <v>      -0.33333333      -0.11764706       0.05882353 </v>
   <v>      -0.26666667      -0.11764706       0.05882353 </v>
   <v>      -0.20000000      -0.11764706       0.05882353 </v>
   <v>      -0.13333333      -0.11764706       0.05882353 </v>
   <v>      -0.06666667      -0.11764706       0.05882353 </v>
   <v>       0.00000000      -0.05882353       0.05882353 </v>
   <v>       0.06666667      -0.05882353       0.05882353 </v>
   <v>       0.13333333      -0.05882353       0.05882353 </v>
   <v>       0.20000000      -0.05882353       0.05882353 </v>
   <v>       0.26666667      -0.05882353       0.05882353 </v>
   <v>       0.33333333      -0.05882353       0.05882353 </v>
   <v>       0.40000000      -0.05882353       0.05882353 </v>
   <v>       0.46666667      -0.05882353       0.05882353 </v>
   <v>       0.00000000       0.11764706       0.11764706 </v>
   <v>       0.06666667       0.11764706       0.11764706 </v>
   <v>       0.13333333       0.11764706       0.11764706 </v>
   <v>       0.20000000       0.11764706       0.11764706 </v>
   <v>       0.26666667       0.11764706       0.11764706 </v>
   <v>       0.33333333       0.11764706       0.11764706 </v>
   <v>       0.40000000       0.11764706       0.11764706 </v>
   <v>       0.46666667       0.11764706       0.11764706 </v>
   <v>      -0.46666667       0.11764706       0.11764706 </v>
   <v>      -0.40000000       0.11764706       0.11764706 </v>
   <v>      -0.33333333       0.11764706       0.11764706 </v>
   <v>      -0.26666667       0.11764706       0.11764706 </v>
   <v>      -0.20000000       0.11764706       0.11764706 </v>
   <v>      -0.13333333       0.11764706       0.11764706 </v>
   <v>      -0.06666667       0.11764706       0.11764706 </v>
   <v>       0.00000000       0.17647059       0.11764706 </v>
   <v>       0.06666667       0.17647059       0.11764706 </v>
   <v>       0.13333333       0.17647059       0.11764706 </v>
   <v>       0.20000000       0.17647059       0.11764706 </v>
   <v>       0.26666667       0.17647059       0.11764706 </v>
   <v>       0.33333333       0.17647059       0.11764706 </v>
   <v>       0.40000000       0.17647059       0.11764706 </v>
   <v>       0.46666667       0.17647059       0.11764706 </v>
   <v>      -0.46666667       0.17647059       0.11764706 </v>
   <v>      -0.40000000       0.17647059       0.11764706 </v>
   <v>      -0.33333333       0.17647059       0.11764706 </v>
   <v>      -0.26666667       0.17647059       0.11764706 </v>
   <v>      -0.20000000       0.17647059       0.11764706 </v>
   <v>      -0.13333333       0.17647059       0.11764706 </v>
   <v>      -0.06666667       0.17647059       0.11764706 </v>
   <v>       0.00000000       0.23529412       0.11764706 </v>
   <v>       0.06666667       0.23529412       0.11764706 </v>
   <v>       0.13333333       0.23529412       0.11764706 </v>
   <v>       0.20000000       0.23529412       0.11764706 </v>
   <v>       0.26666667       0.23529412       0.11764706 </v>
   <v>       0.33333333       0.23529412       0.11764706 </v>
   <v>       0.40000000       0.23529412       0.11764706 </v>
   <v>       0.46666667       0.23529412       0.11764706 </v>
   <v>      -0.46666667       0.23529412       0.11764706 </v>
   <v>      -0.40000000       0.23529412       0.11764706 </v>
   <v>      -0.33333333       0.23529412       0.11764706 </v>
   <v>      -0.26666667       0.23529412       0.11764706 </v>
   <v>      -0.20000000       0.23529412       0.11764706 </v>
   <v>      -0.13333333       0.23529412       0.11764706 </v>
   <v>      -0.06666667       0.23529412       0.11764706 </v>
   <v>       0.00000000       0.29411765       0.11764706 </v>
   <v>       0.06666667       0.29411765       0.11764706 </v>
   <v>       0.13333333       0.29411765       0.11764706 </v>
   <v>       0.20000000       0.29411765       0.11764706 </v>
   <v>       0.26666667       0.29411765       0.11764706 </v>
   <v>       0.33333333       0.29411765       0.11764706 </v>
   <v>       0.40000000       0.29411765       0.11764706 </v>
   <v>       0.46666667       0.29411765       0.11764706 </v>
   <v>      -0.46666667       0.29411765       0.11764706 </v>
   <v>      -0.40000000       0.29411765       0.11764706 </v>
   <v>      -0.33333333       0.29411765       0.11764706 </v>
   <v>      -0.26666667       0.29411765       0.11764706 </v>
   <v>      -0.20000000       0.29411765       0.11764706 </v>
   <v>      -0.13333333       0.29411765       0.11764706 </v>
   <v>      -0.06666667       0.29411765       0.11764706 </v>
   <v>       0.00000000       0.35294118       0.11764706 </v>
   <v>       0.06666667       0.35294118       0.11764706 </v>
   <v>       0.13333333       0.35294118       0.11764706 </v>
   <v>       0.20000000       0.35294118       0.11764706 </v>
   <v>       0.26666667       0.35294118       0.11764706 </v>
   <v>       0.33333333       0.35294118       0.11764706 </v>
   <v>       0.40000000       0.35294118       0.11764706 </v>
   <v>       0.46666667       0.35294118       0.11764706 </v>
   <v>      -0.46666667       0.35294118       0.11764706 </v>
   <v>      -0.40000000       0.35294118       0.11764706 </v>
   <v>      -0.33333333       0.35294118       0.11764706 </v>
   <v>      -0.26666667       0.35294118       0.11764706 </v>
   <v>      -0.20000000       0.35294118       0.11764706 </v>
   <v>      -0.13333333       0.35294118       0.11764706 </v>
   <v>      -0.06666667       0.35294118       0.11764706 </v>
   <v>       0.00000000       0.41176471       0.11764706 </v>
   <v>       0.06666667       0.41176471       0.11764706 </v>
   <v>       0.13333333       0.41176471       0.11764706 </v>
   <v>       0.20000000       0.41176471       0.11764706 </v>
   <v>       0.26666667       0.41176471       0.11764706 </v>
   <v>       0.33333333       0.41176471       0.11764706 </v>
   <v>       0.40000000       0.41176471       0.11764706 </v>
   <v>       0.46666667       0.41176471       0.11764706 </v>
   <v>      -0.46666667       0.41176471       0.11764706 </v>
   <v>      -0.40000000       0.41176471       0.11764706 </v>
   <v>      -0.33333333       0.41176471       0.11764706 </v>
   <v>      -0.26666667       0.41176471       0.11764706 </v>
   <v>      -0.20000000       0.41176471       0.11764706 </v>
   <v>      -0.13333333       0.41176471       0.11764706 </v>
   <v>      -0.06666667       0.41176471       0.11764706 </v>
   <v>       0.00000000       0.47058824       0.11764706 </v>
   <v>       0.06666667       0.47058824       0.11764706 </v>
   <v>       0.13333333       0.47058824       0.11764706 </v>
   <v>       0.20000000       0.47058824       0.11764706 </v>
   <v>       0.26666667       0.47058824       0.11764706 </v>
   <v>       0.33333333       0.47058824       0.11764706 </v>
   <v>       0.40000000       0.47058824       0.11764706 </v>
   <v>       0.46666667       0.47058824       0.11764706 </v>
   <v>      -0.46666667       0.47058824       0.11764706 </v>
   <v>      -0.40000000       0.47058824       0.11764706 </v>
   <v>      -0.33333333       0.47058824       0.11764706 </v>
   <v>      -0.26666667       0.47058824       0.11764706 </v>
   <v>      -0.20000000       0.47058824       0.11764706 </v>
   <v>      -0.13333333       0.47058824       0.11764706 </v>
   <v>      -0.06666667       0.47058824       0.11764706 </v>
   <v>       0.00000000      -0.47058824       0.11764706 </v>
   <v>       0.06666667      -0.47058824       0.11764706 </v>
   <v>       0.13333333      -0.47058824       0.11764706 </v>
   <v>       0.20000000      -0.47058824       0.11764706 </v>
   <v>       0.26666667      -0.47058824       0.11764706 </v>
   <v>       0.33333333      -0.47058824       0.11764706 </v>
   <v>       0.40000000      -0.47058824       0.11764706 </v>
   <v>       0.46666667      -0.47058824       0.11764706 </v>
   <v>      -0.46666667      -0.47058824       0.11764706 </v>
   <v>      -0.40000000      -0.47058824       0.11764706 </v>
   <v>      -0.33333333      -0.47058824       0.11764706 </v>
   <v>      -0.26666667      -0.47058824       0.11764706 </v>
   <v>      -0.20000000      -0.47058824       0.11764706 </v>
   <v>      -0.13333333      -0.47058824       0.11764706 </v>
   <v>      -0.06666667      -0.47058824       0.11764706 </v>
   <v>       0.00000000      -0.41176471       0.11764706 </v>
   <v>       0.06666667      -0.41176471       0.11764706 </v>
   <v>       0.13333333      -0.41176471       0.11764706 </v>
   <v>       0.20000000      -0.41176471       0.11764706 </v>
   <v>       0.26666667      -0.41176471       0.11764706 </v>
   <v>       0.33333333      -0.41176471       0.11764706 </v>
   <v>       0.40000000      -0.41176471       0.11764706 </v>
   <v>       0.46666667      -0.41176471       0.11764706 </v>
   <v>      -0.46666667      -0.41176471       0.11764706 </v>
   <v>      -0.40000000      -0.41176471       0.11764706 </v>
   <v>      -0.33333333      -0.41176471       0.11764706 </v>
   <v>      -0.26666667      -0.41176471       0.11764706 </v>
   <v>      -0.20000000      -0.41176471       0.11764706 </v>
   <v>      -0.13333333      -0.41176471       0.11764706 </v>
   <v>      -0.06666667      -0.41176471       0.11764706 </v>
   <v>       0.00000000      -0.35294118       0.11764706 </v>
   <v>       0.06666667      -0.35294118       0.11764706 </v>
   <v>       0.13333333      -0.35294118       0.11764706 </v>
   <v>       0.20000000      -0.35294118       0.11764706 </v>
   <v>       0.26666667      -0.35294118       0.11764706 </v>
   <v>       0.33333333      -0.35294118       0.11764706 </v>
   <v>       0.40000000      -0.35294118       0.11764706 </v>
   <v>       0.46666667      -0.35294118       0.11764706 </v>
   <v>      -0.46666667      -0.35294118       0.11764706 </v>
   <v>      -0.40000000      -0.35294118       0.11764706 </v>
   <v>      -0.33333333      -0.35294118       0.11764706 </v>
   <v>      -0.26666667      -0.35294118       0.11764706 </v>
   <v>      -0.20000000      -0.35294118       0.11764706 </v>
   <v>      -0.13333333      -0.35294118       0.11764706 </v>
   <v>      -0.06666667      -0.35294118       0.11764706 </v>
   <v>       0.00000000      -0.29411765       0.11764706 </v>
   <v>       0.06666667      -0.29411765       0.11764706 </v>
   <v>       0.13333333      -0.29411765       0.11764706 </v>
   <v>       0.20000000      -0.29411765       0.11764706 </v>
   <v>       0.26666667      -0.29411765       0.11764706 </v>
   <v>       0.33333333      -0.29411765       0.11764706 </v>
   <v>       0.40000000      -0.29411765       0.11764706 </v>
   <v>       0.46666667      -0.29411765       0.11764706 </v>
   <v>      -0.46666667      -0.29411765       0.11764706 </v>
   <v>      -0.40000000      -0.29411765       0.11764706 </v>
   <v>      -0.33333333      -0.29411765       0.11764706 </v>
   <v>      -0.26666667      -0.29411765       0.11764706 </v>
   <v>      -0.20000000      -0.29411765       0.11764706 </v>
   <v>      -0.13333333      -0.29411765       0.11764706 </v>
   <v>      -0.06666667      -0.29411765       0.11764706 </v>
   <v>       0.00000000      -0.23529412       0.11764706 </v>
   <v>       0.06666667      -0.23529412       0.11764706 </v>
   <v>       0.13333333      -0.23529412       0.11764706 </v>
   <v>       0.20000000      -0.23529412       0.11764706 </v>
   <v>       0.26666667      -0.23529412       0.11764706 </v>
   <v>       0.33333333      -0.23529412       0.11764706 </v>
   <v>       0.40000000      -0.23529412       0.11764706 </v>
   <v>       0.46666667      -0.23529412       0.11764706 </v>
   <v>      -0.46666667      -0.23529412       0.11764706 </v>
   <v>      -0.40000000      -0.23529412       0.11764706 </v>
   <v>      -0.33333333      -0.23529412       0.11764706 </v>
   <v>      -0.26666667      -0.23529412       0.11764706 </v>
   <v>      -0.20000000      -0.23529412       0.11764706 </v>
   <v>      -0.13333333      -0.23529412       0.11764706 </v>
   <v>      -0.06666667      -0.23529412       0.11764706 </v>
   <v>       0.00000000      -0.17647059       0.11764706 </v>
   <v>       0.06666667      -0.17647059       0.11764706 </v>
   <v>       0.13333333      -0.17647059       0.11764706 </v>
   <v>       0.20000000      -0.17647059       0.11764706 </v>
   <v>       0.26666667      -0.17647059       0.11764706 </v>
   <v>       0.33333333      -0.17647059       0.11764706 </v>
   <v>       0.40000000      -0.17647059       0.11764706 </v>
   <v>       0.46666667      -0.17647059       0.11764706 </v>
   <v>      -0.46666667      -0.17647059       0.11764706 </v>
   <v>      -0.40000000      -0.17647059       0.11764706 </v>
   <v>      -0.33333333      -0.17647059       0.11764706 </v>
   <v>      -0.26666667      -0.17647059       0.11764706 </v>
   <v>      -0.20000000      -0.17647059       0.11764706 </v>
   <v>      -0.13333333      -0.17647059       0.11764706 </v>
   <v>      -0.06666667      -0.17647059       0.11764706 </v>
   <v>       0.00000000      -0.11764706       0.11764706 </v>
   <v>       0.06666667      -0.11764706       0.11764706 </v>
   <v>       0.13333333      -0.11764706       0.11764706 </v>
   <v>       0.20000000      -0.11764706       0.11764706 </v>
   <v>       0.26666667      -0.11764706       0.11764706 </v>
   <v>       0.33333333      -0.11764706       0.11764706 </v>
   <v>       0.40000000      -0.11764706       0.11764706 </v>
   <v>       0.46666667      -0.11764706       0.11764706 </v>
   <v>       0.00000000       0.17647059       0.17647059 </v>
   <v>       0.06666667       0.17647059       0.17647059 </v>
   <v>       0.13333333       0.17647059       0.17647059 </v>
   <v>       0.20000000       0.17647059       0.17647059 </v>
   <v>       0.26666667       0.17647059       0.17647059 </v>
   <v>       0.33333333       0.17647059       0.17647059 </v>
   <v>       0.40000000       0.17647059       0.17647059 </v>
   <v>       0.46666667       0.17647059       0.17647059 </v>
   <v>      -0.46666667       0.17647059       0.17647059 </v>
   <v>      -0.40000000       0.17647059       0.17647059 </v>
   <v>      -0.33333333       0.17647059       0.17647059 </v>
   <v>      -0.26666667       0.17647059       0.17647059 </v>
   <v>      -0.20000000       0.17647059       0.17647059 </v>
   <v>      -0.13333333       0.17647059       0.17647059 </v>
   <v>      -0.06666667       0.17647059       0.17647059 </v>
   <v>       0.00000000       0.23529412       0.17647059 </v>
   <v>       0.06666667       0.23529412       0.17647059 </v>
   <v>       0.13333333       0.23529412       0.17647059 </v>
   <v>       0.20000000       0.23529412       0.17647059 </v>
   <v>       0.26666667       0.23529412       0.17647059 </v>
   <v>       0.33333333       0.23529412       0.17647059 </v>
   <v>       0.40000000       0.23529412       0.17647059 </v>
   <v>       0.46666667       0.23529412       0.17647059 </v>
   <v>      -0.46666667       0.23529412       0.17647059 </v>
   <v>      -0.40000000       0.23529412       0.17647059 </v>
   <v>      -0.33333333       0.23529412       0.17647059 </v>
   <v>      -0.26666667       0.23529412       0.17647059 </v>
   <v>      -0.20000000       0.23529412       0.17647059 </v>
   <v>      -0.13333333       0.23529412       0.17647059 </v>
   <v>      -0.06666667       0.23529412       0.17647059 </v>
   <v>       0.00000000       0.29411765       0.17647059 </v>
   <v>       0.06666667       0.29411765       0.17647059 </v>
   <v>       0.13333333       0.29411765       0.17647059 </v>
   <v>       0.20000000       0.29411765       0.17647059 </v>
   <v>       0.26666667       0.29411765       0.17647059 </v>
   <v>       0.33333333       0.29411765       0.17647059 </v>
   <v>       0.40000000       0.29411765       0.17647059 </v>
   <v>       0.46666667       0.29411765       0.17647059 </v>
   <v>      -0.46666667       0.29411765       0.17647059 </v>
   <v>      -0.40000000       0.29411765       0.17647059 </v>
   <v>      -0.33333333       0.29411765       0.17647059 </v>
   <v>      -0.26666667       0.29411765       0.17647059 </v>
   <v>      -0.20000000       0.29411765       0.17647059 </v>
   <v>      -0.13333333       0.29411765       0.17647059 </v>
   <v>      -0.06666667       0.29411765       0.17647059 </v>
   <v>       0.00000000       0.35294118       0.17647059 </v>
   <v>       0.06666667       0.35294118       0.17647059 </v>
   <v>       0.13333333       0.35294118       0.17647059 </v>
   <v>       0.20000000       0.35294118       0.17647059 </v>
   <v>       0.26666667       0.35294118       0.17647059 </v>
   <v>       0.33333333       0.35294118       0.17647059 </v>
   <v>       0.40000000       0.35294118       0.17647059 </v>
   <v>       0.46666667       0.35294118       0.17647059 </v>
   <v>      -0.46666667       0.35294118       0.17647059 </v>
   <v>      -0.40000000       0.35294118       0.17647059 </v>
   <v>      -0.33333333       0.35294118       0.17647059 </v>
   <v>      -0.26666667       0.35294118       0.17647059 </v>
   <v>      -0.20000000       0.35294118       0.17647059 </v>
   <v>      -0.13333333       0.35294118       0.17647059 </v>
   <v>      -0.06666667       0.35294118       0.17647059 </v>
   <v>       0.00000000       0.41176471       0.17647059 </v>
   <v>       0.06666667       0.41176471       0.17647059 </v>
   <v>       0.13333333       0.41176471       0.17647059 </v>
   <v>       0.20000000       0.41176471       0.17647059 </v>
   <v>       0.26666667       0.41176471       0.17647059 </v>
   <v>       0.33333333       0.41176471       0.17647059 </v>
   <v>       0.40000000       0.41176471       0.17647059 </v>
   <v>       0.46666667       0.41176471       0.17647059 </v>
   <v>      -0.46666667       0.41176471       0.17647059 </v>
   <v>      -0.40000000       0.41176471       0.17647059 </v>
   <v>      -0.33333333       0.41176471       0.17647059 </v>
   <v>      -0.26666667       0.41176471       0.17647059 </v>
   <v>      -0.20000000       0.41176471       0.17647059 </v>
   <v>      -0.13333333       0.41176471       0.17647059 </v>
   <v>      -0.06666667       0.41176471       0.17647059 </v>
   <v>       0.00000000       0.47058824       0.17647059 </v>
   <v>       0.06666667       0.47058824       0.17647059 </v>
   <v>       0.13333333       0.47058824       0.17647059 </v>
   <v>       0.20000000       0.47058824       0.17647059 </v>
   <v>       0.26666667       0.47058824       0.17647059 </v>
   <v>       0.33333333       0.47058824       0.17647059 </v>
   <v>       0.40000000       0.47058824       0.17647059 </v>
   <v>       0.46666667       0.47058824       0.17647059 </v>
   <v>      -0.46666667       0.47058824       0.17647059 </v>
   <v>      -0.40000000       0.47058824       0.17647059 </v>
   <v>      -0.33333333       0.47058824       0.17647059 </v>
   <v>      -0.26666667       0.47058824       0.17647059 </v>
   <v>      -0.20000000       0.47058824       0.17647059 </v>
   <v>      -0.13333333       0.47058824       0.17647059 </v>
   <v>      -0.06666667       0.47058824       0.17647059 </v>
   <v>       0.00000000      -0.47058824       0.17647059 </v>
   <v>       0.06666667      -0.47058824       0.17647059 </v>
   <v>       0.13333333      -0.47058824       0.17647059 </v>
   <v>       0.20000000      -0.47058824       0.17647059 </v>
   <v>       0.26666667      -0.47058824       0.17647059 </v>
   <v>       0.33333333      -0.47058824       0.17647059 </v>
   <v>       0.40000000      -0.47058824       0.17647059 </v>
   <v>       0.46666667      -0.47058824       0.17647059 </v>
   <v>      -0.46666667      -0.47058824       0.17647059 </v>
   <v>      -0.40000000      -0.47058824       0.17647059 </v>
   <v>      -0.33333333      -0.47058824       0.17647059 </v>
   <v>      -0.26666667      -0.47058824       0.17647059 </v>
   <v>      -0.20000000      -0.47058824       0.17647059 </v>
   <v>      -0.13333333      -0.47058824       0.17647059 </v>
   <v>      -0.06666667      -0.47058824       0.17647059 </v>
   <v>       0.00000000      -0.41176471       0.17647059 </v>
   <v>       0.06666667      -0.41176471       0.17647059 </v>
   <v>       0.13333333      -0.41176471       0.17647059 </v>
   <v>       0.20000000      -0.41176471       0.17647059 </v>
   <v>       0.26666667      -0.41176471       0.17647059 </v>
   <v>       0.33333333      -0.41176471       0.17647059 </v>
   <v>       0.40000000      -0.41176471       0.17647059 </v>
   <v>       0.46666667      -0.41176471       0.17647059 </v>
   <v>      -0.46666667      -0.41176471       0.17647059 </v>
   <v>      -0.40000000      -0.41176471       0.17647059 </v>
   <v>      -0.33333333      -0.41176471       0.17647059 </v>
   <v>      -0.26666667      -0.41176471       0.17647059 </v>
   <v>      -0.20000000      -0.41176471       0.17647059 </v>
   <v>      -0.13333333      -0.41176471       0.17647059 </v>
   <v>      -0.06666667      -0.41176471       0.17647059 </v>
   <v>       0.00000000      -0.35294118       0.17647059 </v>
   <v>       0.06666667      -0.35294118       0.17647059 </v>
   <v>       0.13333333      -0.35294118       0.17647059 </v>
   <v>       0.20000000      -0.35294118       0.17647059 </v>
   <v>       0.26666667      -0.35294118       0.17647059 </v>
   <v>       0.33333333      -0.35294118       0.17647059 </v>
   <v>       0.40000000      -0.35294118       0.17647059 </v>
   <v>       0.46666667      -0.35294118       0.17647059 </v>
   <v>      -0.46666667      -0.35294118       0.17647059 </v>
   <v>      -0.40000000      -0.35294118       0.17647059 </v>
   <v>      -0.33333333      -0.35294118       0.17647059 </v>
   <v>      -0.26666667      -0.35294118       0.17647059 </v>
   <v>      -0.20000000      -0.35294118       0.17647059 </v>
   <v>      -0.13333333      -0.35294118       0.17647059 </v>
   <v>      -0.06666667      -0.35294118       0.17647059 </v>
   <v>       0.00000000      -0.29411765       0.17647059 </v>
   <v>       0.06666667      -0.29411765       0.17647059 </v>
   <v>       0.13333333      -0.29411765       0.17647059 </v>
   <v>       0.20000000      -0.29411765       0.17647059 </v>
   <v>       0.26666667      -0.29411765       0.17647059 </v>
   <v>       0.33333333      -0.29411765       0.17647059 </v>
   <v>       0.40000000      -0.29411765       0.17647059 </v>
   <v>       0.46666667      -0.29411765       0.17647059 </v>
   <v>      -0.46666667      -0.29411765       0.17647059 </v>
   <v>      -0.40000000      -0.29411765       0.17647059 </v>
   <v>      -0.33333333      -0.29411765       0.17647059 </v>
   <v>      -0.26666667      -0.29411765       0.17647059 </v>
   <v>      -0.20000000      -0.29411765       0.17647059 </v>
   <v>      -0.13333333      -0.29411765       0.17647059 </v>
   <v>      -0.06666667      -0.29411765       0.17647059 </v>
   <v>       0.00000000      -0.23529412       0.17647059 </v>
   <v>       0.06666667      -0.23529412       0.17647059 </v>
   <v>       0.13333333      -0.23529412       0.17647059 </v>
   <v>       0.20000000      -0.23529412       0.17647059 </v>
   <v>       0.26666667      -0.23529412       0.17647059 </v>
   <v>       0.33333333      -0.23529412       0.17647059 </v>
   <v>       0.40000000      -0.23529412       0.17647059 </v>
   <v>       0.46666667      -0.23529412       0.17647059 </v>
   <v>      -0.46666667      -0.23529412       0.17647059 </v>
   <v>      -0.40000000      -0.23529412       0.17647059 </v>
   <v>      -0.33333333      -0.23529412       0.17647059 </v>
   <v>      -0.26666667      -0.23529412       0.17647059 </v>
   <v>      -0.20000000      -0.23529412       0.17647059 </v>
   <v>      -0.13333333      -0.23529412       0.17647059 </v>
   <v>      -0.06666667      -0.23529412       0.17647059 </v>
   <v>       0.00000000      -0.17647059       0.17647059 </v>
   <v>       0.06666667      -0.17647059       0.17647059 </v>
   <v>       0.13333333      -0.17647059       0.17647059 </v>
   <v>       0.20000000      -0.17647059       0.17647059 </v>
   <v>       0.26666667      -0.17647059       0.17647059 </v>
   <v>       0.33333333      -0.17647059       0.17647059 </v>
   <v>       0.40000000      -0.17647059       0.17647059 </v>
   <v>       0.46666667      -0.17647059       0.17647059 </v>
   <v>       0.00000000       0.23529412       0.23529412 </v>
   <v>       0.06666667       0.23529412       0.23529412 </v>
   <v>       0.13333333       0.23529412       0.23529412 </v>
   <v>       0.20000000       0.23529412       0.23529412 </v>
   <v>       0.26666667       0.23529412       0.23529412 </v>
   <v>       0.33333333       0.23529412       0.23529412 </v>
   <v>       0.40000000       0.23529412       0.23529412 </v>
   <v>       0.46666667       0.23529412       0.23529412 </v>
   <v>      -0.46666667       0.23529412       0.23529412 </v>
   <v>      -0.40000000       0.23529412       0.23529412 </v>
   <v>      -0.33333333       0.23529412       0.23529412 </v>
   <v>      -0.26666667       0.23529412       0.23529412 </v>
   <v>      -0.20000000       0.23529412       0.23529412 </v>
   <v>      -0.13333333       0.23529412       0.23529412 </v>
   <v>      -0.06666667       0.23529412       0.23529412 </v>
   <v>       0.00000000       0.29411765       0.23529412 </v>
   <v>       0.06666667       0.29411765       0.23529412 </v>
   <v>       0.13333333       0.29411765       0.23529412 </v>
   <v>       0.20000000       0.29411765       0.23529412 </v>
   <v>       0.26666667       0.29411765       0.23529412 </v>
   <v>       0.33333333       0.29411765       0.23529412 </v>
   <v>       0.40000000       0.29411765       0.23529412 </v>
   <v>       0.46666667       0.29411765       0.23529412 </v>
   <v>      -0.46666667       0.29411765       0.23529412 </v>
   <v>      -0.40000000       0.29411765       0.23529412 </v>
   <v>      -0.33333333       0.29411765       0.23529412 </v>
   <v>      -0.26666667       0.29411765       0.23529412 </v>
   <v>      -0.20000000       0.29411765       0.23529412 </v>
   <v>      -0.13333333       0.29411765       0.23529412 </v>
   <v>      -0.06666667       0.29411765       0.23529412 </v>
   <v>       0.00000000       0.35294118       0.23529412 </v>
   <v>       0.06666667       0.35294118       0.23529412 </v>
   <v>       0.13333333       0.35294118       0.23529412 </v>
   <v>       0.20000000       0.35294118       0.23529412 </v>
   <v>       0.26666667       0.35294118       0.23529412 </v>
   <v>       0.33333333       0.35294118       0.23529412 </v>
   <v>       0.40000000       0.35294118       0.23529412 </v>
   <v>       0.46666667       0.35294118       0.23529412 </v>
   <v>      -0.46666667       0.35294118       0.23529412 </v>
   <v>      -0.40000000       0.35294118       0.23529412 </v>
   <v>      -0.33333333       0.35294118       0.23529412 </v>
   <v>      -0.26666667       0.35294118       0.23529412 </v>
   <v>      -0.20000000       0.35294118       0.23529412 </v>
   <v>      -0.13333333       0.35294118       0.23529412 </v>
   <v>      -0.06666667       0.35294118       0.23529412 </v>
   <v>       0.00000000       0.41176471       0.23529412 </v>
   <v>       0.06666667       0.41176471       0.23529412 </v>
   <v>       0.13333333       0.41176471       0.23529412 </v>
   <v>       0.20000000       0.41176471       0.23529412 </v>
   <v>       0.26666667       0.41176471       0.23529412 </v>
   <v>       0.33333333       0.41176471       0.23529412 </v>
   <v>       0.40000000       0.41176471       0.23529412 </v>
   <v>       0.46666667       0.41176471       0.23529412 </v>
   <v>      -0.46666667       0.41176471       0.23529412 </v>
   <v>      -0.40000000       0.41176471       0.23529412 </v>
   <v>      -0.33333333       0.41176471       0.23529412 </v>
   <v>      -0.26666667       0.41176471       0.23529412 </v>
   <v>      -0.20000000       0.41176471       0.23529412 </v>
   <v>      -0.13333333       0.41176471       0.23529412 </v>
   <v>      -0.06666667       0.41176471       0.23529412 </v>
   <v>       0.00000000       0.47058824       0.23529412 </v>
   <v>       0.06666667       0.47058824       0.23529412 </v>
   <v>       0.13333333       0.47058824       0.23529412 </v>
   <v>       0.20000000       0.47058824       0.23529412 </v>
   <v>       0.26666667       0.47058824       0.23529412 </v>
   <v>       0.33333333       0.47058824       0.23529412 </v>
   <v>       0.40000000       0.47058824       0.23529412 </v>
   <v>       0.46666667       0.47058824       0.23529412 </v>
   <v>      -0.46666667       0.47058824       0.23529412 </v>
   <v>      -0.40000000       0.47058824       0.23529412 </v>
   <v>      -0.33333333       0.47058824       0.23529412 </v>
   <v>      -0.26666667       0.47058824       0.23529412 </v>
   <v>      -0.20000000       0.47058824       0.23529412 </v>
   <v>      -0.13333333       0.47058824       0.23529412 </v>
   <v>      -0.06666667       0.47058824       0.23529412 </v>
   <v>       0.00000000      -0.47058824       0.23529412 </v>
   <v>       0.06666667      -0.47058824       0.23529412 </v>
   <v>       0.13333333      -0.47058824       0.23529412 </v>
   <v>       0.20000000      -0.47058824       0.23529412 </v>
   <v>       0.26666667      -0.47058824       0.23529412 </v>
   <v>       0.33333333      -0.47058824       0.23529412 </v>
   <v>       0.40000000      -0.47058824       0.23529412 </v>
   <v>       0.46666667      -0.47058824       0.23529412 </v>
   <v>      -0.46666667      -0.47058824       0.23529412 </v>
   <v>      -0.40000000      -0.47058824       0.23529412 </v>
   <v>      -0.33333333      -0.47058824       0.23529412 </v>
   <v>      -0.26666667      -0.47058824       0.23529412 </v>
   <v>      -0.20000000      -0.47058824       0.23529412 </v>
   <v>      -0.13333333      -0.47058824       0.23529412 </v>
   <v>      -0.06666667      -0.47058824       0.23529412 </v>
   <v>       0.00000000      -0.41176471       0.23529412 </v>
   <v>       0.06666667      -0.41176471       0.23529412 </v>
   <v>       0.13333333      -0.41176471       0.23529412 </v>
   <v>       0.20000000      -0.41176471       0.23529412 </v>
   <v>       0.26666667      -0.41176471       0.23529412 </v>
   <v>       0.33333333      -0.41176471       0.23529412 </v>
   <v>       0.40000000      -0.41176471       0.23529412 </v>
   <v>       0.46666667      -0.41176471       0.23529412 </v>
   <v>      -0.46666667      -0.41176471       0.23529412 </v>
   <v>      -0.40000000      -0.41176471       0.23529412 </v>
   <v>      -0.33333333      -0.41176471       0.23529412 </v>
   <v>      -0.26666667      -0.41176471       0.23529412 </v>
   <v>      -0.20000000      -0.41176471       0.23529412 </v>
   <v>      -0.13333333      -0.41176471       0.23529412 </v>
   <v>      -0.06666667      -0.41176471       0.23529412 </v>
   <v>       0.00000000      -0.35294118       0.23529412 </v>
   <v>       0.06666667      -0.35294118       0.23529412 </v>
   <v>       0.13333333      -0.35294118       0.23529412 </v>
   <v>       0.20000000      -0.35294118       0.23529412 </v>
   <v>       0.26666667      -0.35294118       0.23529412 </v>
   <v>       0.33333333      -0.35294118       0.23529412 </v>
   <v>       0.40000000      -0.35294118       0.23529412 </v>
   <v>       0.46666667      -0.35294118       0.23529412 </v>
   <v>      -0.46666667      -0.35294118       0.23529412 </v>
   <v>      -0.40000000      -0.35294118       0.23529412 </v>
   <v>      -0.33333333      -0.35294118       0.23529412 </v>
   <v>      -0.26666667      -0.35294118       0.23529412 </v>
   <v>      -0.20000000      -0.35294118       0.23529412 </v>
   <v>      -0.13333333      -0.35294118       0.23529412 </v>
   <v>      -0.06666667      -0.35294118       0.23529412 </v>
   <v>       0.00000000      -0.29411765       0.23529412 </v>
   <v>       0.06666667      -0.29411765       0.23529412 </v>
   <v>       0.13333333      -0.29411765       0.23529412 </v>
   <v>       0.20000000      -0.29411765       0.23529412 </v>
   <v>       0.26666667      -0.29411765       0.23529412 </v>
   <v>       0.33333333      -0.29411765       0.23529412 </v>
   <v>       0.40000000      -0.29411765       0.23529412 </v>
   <v>       0.46666667      -0.29411765       0.23529412 </v>
   <v>      -0.46666667      -0.29411765       0.23529412 </v>
   <v>      -0.40000000      -0.29411765       0.23529412 </v>
   <v>      -0.33333333      -0.29411765       0.23529412 </v>
   <v>      -0.26666667      -0.29411765       0.23529412 </v>
   <v>      -0.20000000      -0.29411765       0.23529412 </v>
   <v>      -0.13333333      -0.29411765       0.23529412 </v>
   <v>      -0.06666667      -0.29411765       0.23529412 </v>
   <v>       0.00000000      -0.23529412       0.23529412 </v>
   <v>       0.06666667      -0.23529412       0.23529412 </v>
   <v>       0.13333333      -0.23529412       0.23529412 </v>
   <v>       0.20000000      -0.23529412       0.23529412 </v>
   <v>       0.26666667      -0.23529412       0.23529412 </v>
   <v>       0.33333333      -0.23529412       0.23529412 </v>
   <v>       0.40000000      -0.23529412       0.23529412 </v>
   <v>       0.46666667      -0.23529412       0.23529412 </v>
   <v>       0.00000000       0.29411765       0.29411765 </v>
   <v>       0.06666667       0.29411765       0.29411765 </v>
   <v>       0.13333333       0.29411765       0.29411765 </v>
   <v>       0.20000000       0.29411765       0.29411765 </v>
   <v>       0.26666667       0.29411765       0.29411765 </v>
   <v>       0.33333333       0.29411765       0.29411765 </v>
   <v>       0.40000000       0.29411765       0.29411765 </v>
   <v>       0.46666667       0.29411765       0.29411765 </v>
   <v>      -0.46666667       0.29411765       0.29411765 </v>
   <v>      -0.40000000       0.29411765       0.29411765 </v>
   <v>      -0.33333333       0.29411765       0.29411765 </v>
   <v>      -0.26666667       0.29411765       0.29411765 </v>
   <v>      -0.20000000       0.29411765       0.29411765 </v>
   <v>      -0.13333333       0.29411765       0.29411765 </v>
   <v>      -0.06666667       0.29411765       0.29411765 </v>
   <v>       0.00000000       0.35294118       0.29411765 </v>
   <v>       0.06666667       0.35294118       0.29411765 </v>
   <v>       0.13333333       0.35294118       0.29411765 </v>
   <v>       0.20000000       0.35294118       0.29411765 </v>
   <v>       0.26666667       0.35294118       0.29411765 </v>
   <v>       0.33333333       0.35294118       0.29411765 </v>
   <v>       0.40000000       0.35294118       0.29411765 </v>
   <v>       0.46666667       0.35294118       0.29411765 </v>
   <v>      -0.46666667       0.35294118       0.29411765 </v>
   <v>      -0.40000000       0.35294118       0.29411765 </v>
   <v>      -0.33333333       0.35294118       0.29411765 </v>
   <v>      -0.26666667       0.35294118       0.29411765 </v>
   <v>      -0.20000000       0.35294118       0.29411765 </v>
   <v>      -0.13333333       0.35294118       0.29411765 </v>
   <v>      -0.06666667       0.35294118       0.29411765 </v>
   <v>       0.00000000       0.41176471       0.29411765 </v>
   <v>       0.06666667       0.41176471       0.29411765 </v>
   <v>       0.13333333       0.41176471       0.29411765 </v>
   <v>       0.20000000       0.41176471       0.29411765 </v>
   <v>       0.26666667       0.41176471       0.29411765 </v>
   <v>       0.33333333       0.41176471       0.29411765 </v>
   <v>       0.40000000       0.41176471       0.29411765 </v>
   <v>       0.46666667       0.41176471       0.29411765 </v>
   <v>      -0.46666667       0.41176471       0.29411765 </v>
   <v>      -0.40000000       0.41176471       0.29411765 </v>
   <v>      -0.33333333       0.41176471       0.29411765 </v>
   <v>      -0.26666667       0.41176471       0.29411765 </v>
   <v>      -0.20000000       0.41176471       0.29411765 </v>
   <v>      -0.13333333       0.41176471       0.29411765 </v>
   <v>      -0.06666667       0.41176471       0.29411765 </v>
   <v>       0.00000000       0.47058824       0.29411765 </v>
   <v>       0.06666667       0.47058824       0.29411765 </v>
   <v>       0.13333333       0.47058824       0.29411765 </v>
   <v>       0.20000000       0.47058824       0.29411765 </v>
   <v>       0.26666667       0.47058824       0.29411765 </v>
   <v>       0.33333333       0.47058824       0.29411765 </v>
   <v>       0.40000000       0.47058824       0.29411765 </v>
   <v>       0.46666667       0.47058824       0.29411765 </v>
   <v>      -0.46666667       0.47058824       0.29411765 </v>
   <v>      -0.40000000       0.47058824       0.29411765 </v>
   <v>      -0.33333333       0.47058824       0.29411765 </v>
   <v>      -0.26666667       0.47058824       0.29411765 </v>
   <v>      -0.20000000       0.47058824       0.29411765 </v>
   <v>      -0.13333333       0.47058824       0.29411765 </v>
   <v>      -0.06666667       0.47058824       0.29411765 </v>
   <v>       0.00000000      -0.47058824       0.29411765 </v>
   <v>       0.06666667      -0.47058824       0.29411765 </v>
   <v>       0.13333333      -0.47058824       0.29411765 </v>
   <v>       0.20000000      -0.47058824       0.29411765 </v>
   <v>       0.26666667      -0.47058824       0.29411765 </v>
   <v>       0.33333333      -0.47058824       0.29411765 </v>
   <v>       0.40000000      -0.47058824       0.29411765 </v>
   <v>       0.46666667      -0.47058824       0.29411765 </v>
   <v>      -0.46666667      -0.47058824       0.29411765 </v>
   <v>      -0.40000000      -0.47058824       0.29411765 </v>
   <v>      -0.33333333      -0.47058824       0.29411765 </v>
   <v>      -0.26666667      -0.47058824       0.29411765 </v>
   <v>      -0.20000000      -0.47058824       0.29411765 </v>
   <v>      -0.13333333      -0.47058824       0.29411765 </v>
   <v>      -0.06666667      -0.47058824       0.29411765 </v>
   <v>       0.00000000      -0.41176471       0.29411765 </v>
   <v>       0.06666667      -0.41176471       0.29411765 </v>
   <v>       0.13333333      -0.41176471       0.29411765 </v>
   <v>       0.20000000      -0.41176471       0.29411765 </v>
   <v>       0.26666667      -0.41176471       0.29411765 </v>
   <v>       0.33333333      -0.41176471       0.29411765 </v>
   <v>       0.40000000      -0.41176471       0.29411765 </v>
   <v>       0.46666667      -0.41176471       0.29411765 </v>
   <v>      -0.46666667      -0.41176471       0.29411765 </v>
   <v>      -0.40000000      -0.41176471       0.29411765 </v>
   <v>      -0.33333333      -0.41176471       0.29411765 </v>
   <v>      -0.26666667      -0.41176471       0.29411765 </v>
   <v>      -0.20000000      -0.41176471       0.29411765 </v>
   <v>      -0.13333333      -0.41176471       0.29411765 </v>
   <v>      -0.06666667      -0.41176471       0.29411765 </v>
   <v>       0.00000000      -0.35294118       0.29411765 </v>
   <v>       0.06666667      -0.35294118       0.29411765 </v>
   <v>       0.13333333      -0.35294118       0.29411765 </v>
   <v>       0.20000000      -0.35294118       0.29411765 </v>
   <v>       0.26666667      -0.35294118       0.29411765 </v>
   <v>       0.33333333      -0.35294118       0.29411765 </v>
   <v>       0.40000000      -0.35294118       0.29411765 </v>
   <v>       0.46666667      -0.35294118       0.29411765 </v>
   <v>      -0.46666667      -0.35294118       0.29411765 </v>
   <v>      -0.40000000      -0.35294118       0.29411765 </v>
   <v>      -0.33333333      -0.35294118       0.29411765 </v>
   <v>      -0.26666667      -0.35294118       0.29411765 </v>
   <v>      -0.20000000      -0.35294118       0.29411765 </v>
   <v>      -0.13333333      -0.35294118       0.29411765 </v>
   <v>      -0.06666667      -0.35294118       0.29411765 </v>
   <v>       0.00000000      -0.29411765       0.29411765 </v>
   <v>       0.06666667      -0.29411765       0.29411765 </v>
   <v>       0.13333333      -0.29411765       0.29411765 </v>
   <v>       0.20000000      -0.29411765       0.29411765 </v>
   <v>       0.26666667      -0.29411765       0.29411765 </v>
   <v>       0.33333333      -0.29411765       0.29411765 </v>
   <v>       0.40000000      -0.29411765       0.29411765 </v>
   <v>       0.46666667      -0.29411765       0.29411765 </v>
   <v>       0.00000000       0.35294118       0.35294118 </v>
   <v>       0.06666667       0.35294118       0.35294118 </v>
   <v>       0.13333333       0.35294118       0.35294118 </v>
   <v>       0.20000000       0.35294118       0.35294118 </v>
   <v>       0.26666667       0.35294118       0.35294118 </v>
   <v>       0.33333333       0.35294118       0.35294118 </v>
   <v>       0.40000000       0.35294118       0.35294118 </v>
   <v>       0.46666667       0.35294118       0.35294118 </v>
   <v>      -0.46666667       0.35294118       0.35294118 </v>
   <v>      -0.40000000       0.35294118       0.35294118 </v>
   <v>      -0.33333333       0.35294118       0.35294118 </v>
   <v>      -0.26666667       0.35294118       0.35294118 </v>
   <v>      -0.20000000       0.35294118       0.35294118 </v>
   <v>      -0.13333333       0.35294118       0.35294118 </v>
   <v>      -0.06666667       0.35294118       0.35294118 </v>
   <v>       0.00000000       0.41176471       0.35294118 </v>
   <v>       0.06666667       0.41176471       0.35294118 </v>
   <v>       0.13333333       0.41176471       0.35294118 </v>
   <v>       0.20000000       0.41176471       0.35294118 </v>
   <v>       0.26666667       0.41176471       0.35294118 </v>
   <v>       0.33333333       0.41176471       0.35294118 </v>
   <v>       0.40000000       0.41176471       0.35294118 </v>
   <v>       0.46666667       0.41176471       0.35294118 </v>
   <v>      -0.46666667       0.41176471       0.35294118 </v>
   <v>      -0.40000000       0.41176471       0.35294118 </v>
   <v>      -0.33333333       0.41176471       0.35294118 </v>
   <v>      -0.26666667       0.41176471       0.35294118 </v>
   <v>      -0.20000000       0.41176471       0.35294118 </v>
   <v>      -0.13333333       0.41176471       0.35294118 </v>
   <v>      -0.06666667       0.41176471       0.35294118 </v>
   <v>       0.00000000       0.47058824       0.35294118 </v>
   <v>       0.06666667       0.47058824       0.35294118 </v>
   <v>       0.13333333       0.47058824       0.35294118 </v>
   <v>       0.20000000       0.47058824       0.35294118 </v>
   <v>       0.26666667       0.47058824       0.35294118 </v>
   <v>       0.33333333       0.47058824       0.35294118 </v>
   <v>       0.40000000       0.47058824       0.35294118 </v>
   <v>       0.46666667       0.47058824       0.35294118 </v>
   <v>      -0.46666667       0.47058824       0.35294118 </v>
   <v>      -0.40000000       0.47058824       0.35294118 </v>
   <v>      -0.33333333       0.47058824       0.35294118 </v>
   <v>      -0.26666667       0.47058824       0.35294118 </v>
   <v>      -0.20000000       0.47058824       0.35294118 </v>
   <v>      -0.13333333       0.47058824       0.35294118 </v>
   <v>      -0.06666667       0.47058824       0.35294118 </v>
   <v>       0.00000000      -0.47058824       0.35294118 </v>
   <v>       0.06666667      -0.47058824       0.35294118 </v>
   <v>       0.13333333      -0.47058824       0.35294118 </v>
   <v>       0.20000000      -0.47058824       0.35294118 </v>
   <v>       0.26666667      -0.47058824       0.35294118 </v>
   <v>       0.33333333      -0.47058824       0.35294118 </v>
   <v>       0.40000000      -0.47058824       0.35294118 </v>
   <v>       0.46666667      -0.47058824       0.35294118 </v>
   <v>      -0.46666667      -0.47058824       0.35294118 </v>
   <v>      -0.40000000      -0.47058824       0.35294118 </v>
   <v>      -0.33333333      -0.47058824       0.35294118 </v>
   <v>      -0.26666667      -0.47058824       0.35294118 </v>
   <v>      -0.20000000      -0.47058824       0.35294118 </v>
   <v>      -0.13333333      -0.47058824       0.35294118 </v>
   <v>      -0.06666667      -0.47058824       0.35294118 </v>
   <v>       0.00000000      -0.41176471       0.35294118 </v>
   <v>       0.06666667      -0.41176471       0.35294118 </v>
   <v>       0.13333333      -0.41176471       0.35294118 </v>
   <v>       0.20000000      -0.41176471       0.35294118 </v>
   <v>       0.26666667      -0.41176471       0.35294118 </v>
   <v>       0.33333333      -0.41176471       0.35294118 </v>
   <v>       0.40000000      -0.41176471       0.35294118 </v>
   <v>       0.46666667      -0.41176471       0.35294118 </v>
   <v>      -0.46666667      -0.41176471       0.35294118 </v>
   <v>      -0.40000000      -0.41176471       0.35294118 </v>
   <v>      -0.33333333      -0.41176471       0.35294118 </v>
   <v>      -0.26666667      -0.41176471       0.35294118 </v>
   <v>      -0.20000000      -0.41176471       0.35294118 </v>
   <v>      -0.13333333      -0.41176471       0.35294118 </v>
   <v>      -0.06666667      -0.41176471       0.35294118 </v>
   <v>       0.00000000      -0.35294118       0.35294118 </v>
   <v>       0.06666667      -0.35294118       0.35294118 </v>
   <v>       0.13333333      -0.35294118       0.35294118 </v>
   <v>       0.20000000      -0.35294118       0.35294118 </v>
   <v>       0.26666667      -0.35294118       0.35294118 </v>
   <v>       0.33333333      -0.35294118       0.35294118 </v>
   <v>       0.40000000      -0.35294118       0.35294118 </v>
   <v>       0.46666667      -0.35294118       0.35294118 </v>
   <v>       0.00000000       0.41176471       0.41176471 </v>
   <v>       0.06666667       0.41176471       0.41176471 </v>
   <v>       0.13333333       0.41176471       0.41176471 </v>
   <v>       0.20000000       0.41176471       0.41176471 </v>
   <v>       0.26666667       0.41176471       0.41176471 </v>
   <v>       0.33333333       0.41176471       0.41176471 </v>
   <v>       0.40000000       0.41176471       0.41176471 </v>
   <v>       0.46666667       0.41176471       0.41176471 </v>
   <v>      -0.46666667       0.41176471       0.41176471 </v>
   <v>      -0.40000000       0.41176471       0.41176471 </v>
   <v>      -0.33333333       0.41176471       0.41176471 </v>
   <v>      -0.26666667       0.41176471       0.41176471 </v>
   <v>      -0.20000000       0.41176471       0.41176471 </v>
   <v>      -0.13333333       0.41176471       0.41176471 </v>
   <v>      -0.06666667       0.41176471       0.41176471 </v>
   <v>       0.00000000       0.47058824       0.41176471 </v>
   <v>       0.06666667       0.47058824       0.41176471 </v>
   <v>       0.13333333       0.47058824       0.41176471 </v>
   <v>       0.20000000       0.47058824       0.41176471 </v>
   <v>       0.26666667       0.47058824       0.41176471 </v>
   <v>       0.33333333       0.47058824       0.41176471 </v>
   <v>       0.40000000       0.47058824       0.41176471 </v>
   <v>       0.46666667       0.47058824       0.41176471 </v>
   <v>      -0.46666667       0.47058824       0.41176471 </v>
   <v>      -0.40000000       0.47058824       0.41176471 </v>
   <v>      -0.33333333       0.47058824       0.41176471 </v>
   <v>      -0.26666667       0.47058824       0.41176471 </v>
   <v>      -0.20000000       0.47058824       0.41176471 </v>
   <v>      -0.13333333       0.47058824       0.41176471 </v>
   <v>      -0.06666667       0.47058824       0.41176471 </v>
   <v>       0.00000000      -0.47058824       0.41176471 </v>
   <v>       0.06666667      -0.47058824       0.41176471 </v>
   <v>       0.13333333      -0.47058824       0.41176471 </v>
   <v>       0.20000000      -0.47058824       0.41176471 </v>
   <v>       0.26666667      -0.47058824       0.41176471 </v>
   <v>       0.33333333      -0.47058824       0.41176471 </v>
   <v>       0.40000000      -0.47058824       0.41176471 </v>
   <v>       0.46666667      -0.47058824       0.41176471 </v>
   <v>      -0.46666667      -0.47058824       0.41176471 </v>
   <v>      -0.40000000      -0.47058824       0.41176471 </v>
   <v>      -0.33333333      -0.47058824       0.41176471 </v>
   <v>      -0.26666667      -0.47058824       0.41176471 </v>
   <v>      -0.20000000      -0.47058824       0.41176471 </v>
   <v>      -0.13333333      -0.47058824       0.41176471 </v>
   <v>      -0.06666667      -0.47058824       0.41176471 </v>
   <v>       0.00000000      -0.41176471       0.41176471 </v>
   <v>       0.06666667      -0.41176471       0.41176471 </v>
   <v>       0.13333333      -0.41176471       0.41176471 </v>
   <v>       0.20000000      -0.41176471       0.41176471 </v>
   <v>       0.26666667      -0.41176471       0.41176471 </v>
   <v>       0.33333333      -0.41176471       0.41176471 </v>
   <v>       0.40000000      -0.41176471       0.41176471 </v>
   <v>       0.46666667      -0.41176471       0.41176471 </v>
   <v>       0.00000000       0.47058824       0.47058824 </v>
   <v>       0.06666667       0.47058824       0.47058824 </v>
   <v>       0.13333333       0.47058824       0.47058824 </v>
   <v>       0.20000000       0.47058824       0.47058824 </v>
   <v>       0.26666667       0.47058824       0.47058824 </v>
   <v>       0.33333333       0.47058824       0.47058824 </v>
   <v>       0.40000000       0.47058824       0.47058824 </v>
   <v>       0.46666667       0.47058824       0.47058824 </v>
   <v>      -0.46666667       0.47058824       0.47058824 </v>
   <v>      -0.40000000       0.47058824       0.47058824 </v>
   <v>      -0.33333333       0.47058824       0.47058824 </v>
   <v>      -0.26666667       0.47058824       0.47058824 </v>
   <v>      -0.20000000       0.47058824       0.47058824 </v>
   <v>      -0.13333333       0.47058824       0.47058824 </v>
   <v>      -0.06666667       0.47058824       0.47058824 </v>
   <v>       0.00000000      -0.47058824       0.47058824 </v>
   <v>       0.06666667      -0.47058824       0.47058824 </v>
   <v>       0.13333333      -0.47058824       0.47058824 </v>
   <v>       0.20000000      -0.47058824       0.47058824 </v>
   <v>       0.26666667      -0.47058824       0.47058824 </v>
   <v>       0.33333333      -0.47058824       0.47058824 </v>
   <v>       0.40000000      -0.47058824       0.47058824 </v>
   <v>       0.46666667      -0.47058824       0.47058824 </v>
  </varray>
  <varray name="weights" >
   <v>       0.00023068 </v>
   <v>       0.00046136 </v>
   <v>       0.00046136 </v>
   <v>       0.00046136 </v>
   <v>       0.00046136 </v>
   <v>       0.00046136 </v>
   <v>       0.00046136 </v>
   <v>       0.00046136 </v>
   <v>       0.00092272 </v>
   <v>       0.00092272 </v>
   <v>       0.00092272 </v>
   <v>       0.00092272 </v>
   <v>       0.00092272 </v>
   <v>       0.00092272 </v>
   <v>       0.00092272 </v>
   <v>       0.00092272 </v>
   <v>       0.00092272 </v>
   <v>       0.00092272 </v>
   <v>       0.00092272 </v>
   <v>       0.00092272 </v>
   <v>       0.00092272 </v>
   <v>       0.00092272 </v>
   <v>       0.00092272 </v>
   <v>       0.00092272 </v>
   <v>       0.00092272 </v>
   <v>       0.00092272 </v>
   <v>       0.00092272 </v>
   <v>       0.00092272 </v>
   <v>       0.00092272 </v>
   <v>       0.00092272 </v>
   <v>       0.00092272 </v>
   <v>       0.00092272 </v>
   <v>       0.00092272 </v>
   <v>       0.00092272 </v>
   <v>       0.00092272 </v>
   <v>       0.00092272 </v>
   <v>       0.00092272 </v>
   <v>       0.00092272 </v>
   <v>       0.00092272 </v>
   <v>       0.00092272 </v>
   <v>       0.00092272 </v>
   <v>       0.00092272 </v>
   <v>       0.00092272 </v>
   <v>       0.00092272 </v>
   <v>       0.00092272 </v>
   <v>       0.00092272 </v>
   <v>       0.00092272 </v>
   <v>       0.00092272 </v>
   <v>       0.00092272 </v>
   <v>       0.00092272 </v>
   <v>       0.00092272 </v>
   <v>       0.00092272 </v>
   <v>       0.00092272 </v>
   <v>       0.00092272 </v>
   <v>       0.00092272 </v>
   <v>       0.00092272 </v>
   <v>       0.00092272 </v>
   <v>       0.00092272 </v>
   <v>       0.00092272 </v>
   <v>       0.00092272 </v>
   <v>       0.00092272 </v>
   <v>       0.00092272 </v>
   <v>       0.00092272 </v>
   <v>       0.00092272 </v>
   <v>       0.00092272 </v>
   <v>       0.00092272 </v>
   <v>       0.00092272 </v>
   <v>       0.00092272 </v>
   <v>       0.00092272 </v>
   <v>       0.00092272 </v>
   <v>       0.00092272 </v>
   <v>       0.00092272 </v>
   <v>       0.00092272 </v>
   <v>       0.00092272 </v>
   <v>       0.00092272 </v>
   <v>       0.00092272 </v>
   <v>       0.00092272 </v>
   <v>       0.00092272 </v>
   <v>       0.00092272 </v>
   <v>       0.00092272 </v>
   <v>       0.00092272 </v>
   <v>       0.00092272 </v>
   <v>       0.00092272 </v>
   <v>       0.00092272 </v>
   <v>       0.00092272 </v>
   <v>       0.00092272 </v>
   <v>       0.00092272 </v>
   <v>       0.00092272 </v>
   <v>       0.00092272 </v>
   <v>       0.00092272 </v>
   <v>       0.00092272 </v>
   <v>       0.00092272 </v>
   <v>       0.00092272 </v>
   <v>       0.00092272 </v>
   <v>       0.00092272 </v>
   <v>       0.00092272 </v>
   <v>       0.00092272 </v>
   <v>       0.00092272 </v>
   <v>       0.00092272 </v>
   <v>       0.00092272 </v>
   <v>       0.00092272 </v>
   <v>       0.00092272 </v>
   <v>       0.00092272 </v>
   <v>       0.00092272 </v>
   <v>       0.00092272 </v>
   <v>       0.00092272 </v>
   <v>       0.00092272 </v>
   <v>       0.00092272 </v>
   <v>       0.00092272 </v>
   <v>       0.00092272 </v>
   <v>       0.00092272 </v>
   <v>       0.00092272 </v>
   <v>       0.00092272 </v>
   <v>       0.00092272 </v>
   <v>       0.00092272 </v>
   <v>       0.00092272 </v>
   <v>       0.00092272 </v>
   <v>       0.00092272 </v>
   <v>       0.00092272 </v>
   <v>       0.00092272 </v>
   <v>       0.00092272 </v>
   <v>       0.00092272 </v>
   <v>       0.00092272 </v>
   <v>       0.00092272 </v>
   <v>       0.00092272 </v>
   <v>       0.00092272 </v>
   <v>       0.00092272 </v>
   <v>       0.00092272 </v>
   <v>       0.00046136 </v>
   <v>       0.00046136 </v>
   <v>       0.00046136 </v>
   <v>       0.00046136 </v>
   <v>       0.00046136 </v>
   <v>       0.00046136 </v>
   <v>       0.00046136 </v>
   <v>       0.00046136 </v>
   <v>       0.00046136 </v>
   <v>       0.00046136 </v>
   <v>       0.00046136 </v>
   <v>       0.00046136 </v>
   <v>       0.00046136 </v>
   <v>       0.00046136 </v>
   <v>       0.00046136 </v>
   <v>       0.00092272 </v>
   <v>       0.00092272 </v>
   <v>       0.00092272 </v>
   <v>       0.00092272 </v>
   <v>       0.00092272 </v>
   <v>       0.00092272 </v>
   <v>       0.00092272 </v>
   <v>       0.00092272 </v>
   <v>       0.00092272 </v>
   <v>       0.00092272 </v>
   <v>       0.00092272 </v>
   <v>       0.00092272 </v>
   <v>       0.00092272 </v>
   <v>       0.00092272 </v>
   <v>       0.00092272 </v>
   <v>       0.00092272 </v>
   <v>       0.00092272 </v>
   <v>       0.00092272 </v>
   <v>       0.00092272 </v>
   <v>       0.00092272 </v>
   <v>       0.00092272 </v>
   <v>       0.00092272 </v>
   <v>       0.00092272 </v>
   <v>       0.00092272 </v>
   <v>       0.00092272 </v>
   <v>       0.00092272 </v>
   <v>       0.00092272 </v>
   <v>       0.00092272 </v>
   <v>       0.00092272 </v>
   <v>       0.00092272 </v>
   <v>       0.00092272 </v>
   <v>       0.00092272 </v>
   <v>       0.00092272 </v>
   <v>       0.00092272 </v>
   <v>       0.00092272 </v>
   <v>       0.00092272 </v>
   <v>       0.00092272 </v>
   <v>       0.00092272 </v>
   <v>       0.00092272 </v>
   <v>       0.00092272 </v>
   <v>       0.00092272 </v>
   <v>       0.00092272 </v>
   <v>       0.00092272 </v>
   <v>       0.00092272 </v>
   <v>       0.00092272 </v>
   <v>       0.00092272 </v>
   <v>       0.00092272 </v>
   <v>       0.00092272 </v>
   <v>       0.00092272 </v>
   <v>       0.00092272 </v>
   <v>       0.00092272 </v>
[...]
       <r>    5.3872    1.0000 </r>
       <r>    5.5674    1.0000 </r>
       <r>    5.6702    1.0000 </r>
       <r>    5.6952    1.0000 </r>
       <r>    5.8617    1.0000 </r>
       <r>    5.9697    1.0000 </r>
       <r>    6.0821    1.0000 </r>
       <r>    6.1331    1.0000 </r>
       <r>    6.2884    1.0000 </r>
       <r>    6.3382    1.0000 </r>
       <r>    6.6585    1.0000 </r>
       <r>    8.1126    1.0322 </r>
       <r>    8.5152    0.5387 </r>
       <r>    9.2378   -0.0021 </r>
       <r>    9.7072    0.0000 </r>
       <r>   12.5974    0.0000 </r>
       <r>   15.0892    0.0000 </r>
       <r>   16.6659    0.0000 </r>
       <r>   17.1266    0.0000 </r>
      </set>
      <set comment="kpoint 1151">
       <r>    2.0309    1.0000 </r>
       <r>    2.2485    1.0000 </r>
       <r>    2.4106    1.0000 </r>
       <r>    2.5500    1.0000 </r>
       <r>    2.7469    1.0000 </r>
       <r>    2.9390    1.0000 </r>
       <r>    2.9812    1.0000 </r>
       <r>    3.1583    1.0000 </r>
       <r>    3.1785    1.0000 </r>
       <r>    3.3247    1.0000 </r>
       <r>    3.3701    1.0000 </r>
       <r>    3.6242    1.0000 </r>
       <r>    3.8981    1.0000 </r>
       <r>    3.9779    1.0000 </r>
       <r>    4.1465    1.0000 </r>
       <r>    4.1810    1.0000 </r>
       <r>    4.4343    1.0000 </r>
       <r>    4.7332    1.0000 </r>
       <r>    4.8115    1.0000 </r>
       <r>    4.8436    1.0000 </r>
       <r>    4.9165    1.0000 </r>
       <r>    5.3884    1.0000 </r>
       <r>    5.4722    1.0000 </r>
       <r>    5.4836    1.0000 </r>
       <r>    5.5455    1.0000 </r>
       <r>    5.8141    1.0000 </r>
       <r>    5.9902    1.0000 </r>
       <r>    6.1988    1.0000 </r>
       <r>    6.3218    1.0000 </r>
       <r>    6.3406    1.0000 </r>
       <r>    6.5384    1.0000 </r>
       <r>    6.6520    1.0000 </r>
       <r>    7.6015    1.0001 </r>
       <r>    7.9800    1.0133 </r>
       <r>    9.3716   -0.0003 </r>
       <r>    9.6430    0.0000 </r>
       <r>   13.0943    0.0000 </r>
       <r>   14.7256    0.0000 </r>
       <r>   16.9425    0.0000 </r>
       <r>   17.7913    0.0000 </r>
      </set>
      <set comment="kpoint 1152">
       <r>    2.2568    1.0000 </r>
       <r>    2.3661    1.0000 </r>
       <r>    2.4742    1.0000 </r>
       <r>    2.5239    1.0000 </r>
       <r>    2.5691    1.0000 </r>
       <r>    2.8474    1.0000 </r>
       <r>    3.1902    1.0000 </r>
       <r>    3.2162    1.0000 </r>
       <r>    3.2244    1.0000 </r>
       <r>    3.2609    1.0000 </r>
       <r>    3.3128    1.0000 </r>
       <r>    3.4599    1.0000 </r>
       <r>    3.9898    1.0000 </r>
       <r>    4.0479    1.0000 </r>
       <r>    4.1066    1.0000 </r>
       <r>    4.1178    1.0000 </r>
       <r>    4.3877    1.0000 </r>
       <r>    4.5436    1.0000 </r>
       <r>    4.9096    1.0000 </r>
       <r>    4.9406    1.0000 </r>
       <r>    5.0902    1.0000 </r>
       <r>    5.2478    1.0000 </r>
       <r>    5.2640    1.0000 </r>
       <r>    5.3194    1.0000 </r>
       <r>    5.4900    1.0000 </r>
       <r>    5.8067    1.0000 </r>
       <r>    6.0362    1.0000 </r>
       <r>    6.1441    1.0000 </r>
       <r>    6.3356    1.0000 </r>
       <r>    6.6457    1.0000 </r>
       <r>    6.6682    1.0000 </r>
       <r>    6.9389    1.0000 </r>
       <r>    7.1859    1.0000 </r>
       <r>    7.4739    1.0000 </r>
       <r>    9.4804    0.0000 </r>
       <r>    9.5749    0.0000 </r>
       <r>   13.6411    0.0000 </r>
       <r>   14.2067    0.0000 </r>
       <r>   17.1485    0.0000 </r>
       <r>   17.5877    0.0000 </r>
      </set>
     </set>
    </set>
   </array>
  </eigenvalues>
  <separator name="orbital magnetization" >
   <v name="MAGDIPOLOUT">      0.00000000      0.00000000      0.00000000</v>
  </separator>
  <dos>
   <i name="efermi">      8.52888343 </i>
   <total>
    <array>
     <dimension dim="1">gridpoints</dimension>
     <dimension dim="2">spin</dimension>
     <field>energy</field>
     <field>total</field>
     <field>integrated</field>
     <set>
      <set comment="spin 1">
       <r>    -3.5494     0.0000     0.0000 </r>
       <r>    -3.4660     0.0000     0.0000 </r>
       <r>    -3.3827     0.0000     0.0000 </r>
       <r>    -3.2993     0.0000     0.0000 </r>
       <r>    -3.2159     0.0000     0.0000 </r>
       <r>    -3.1325     0.0000     0.0000 </r>
       <r>    -3.0492     0.0000     0.0000 </r>
       <r>    -2.9658     0.0000     0.0000 </r>
       <r>    -2.8824     0.0000     0.0000 </r>
       <r>    -2.7990     0.0000     0.0000 </r>
       <r>    -2.7157     0.0000     0.0000 </r>
       <r>    -2.6323     0.0000     0.0000 </r>
       <r>    -2.5489     0.0000     0.0000 </r>
       <r>    -2.4655     0.0000     0.0000 </r>
       <r>    -2.3822     0.0000     0.0000 </r>
       <r>    -2.2988     0.0000     0.0000 </r>
       <r>    -2.2154     0.0000     0.0000 </r>
       <r>    -2.1320     0.0000     0.0000 </r>
       <r>    -2.0487     0.0000     0.0000 </r>
       <r>    -1.9653     0.0000     0.0000 </r>
       <r>    -1.8819     0.0000     0.0000 </r>
       <r>    -1.7985     0.0000     0.0000 </r>
       <r>    -1.7152     0.0000     0.0000 </r>
       <r>    -1.6318     0.0000     0.0000 </r>
       <r>    -1.5484     0.0000     0.0000 </r>
       <r>    -1.4650     0.0000     0.0000 </r>
       <r>    -1.3817     0.0000     0.0000 </r>
       <r>    -1.2983    -0.0001     0.0000 </r>
       <r>    -1.2149    -0.0003     0.0000 </r>
       <r>    -1.1315    -0.0008    -0.0001 </r>
       <r>    -1.0482    -0.0021    -0.0003 </r>
       <r>    -0.9648    -0.0044    -0.0006 </r>
       <r>    -0.8814    -0.0071    -0.0012 </r>
       <r>    -0.7980    -0.0079    -0.0019 </r>
       <r>    -0.7147    -0.0021    -0.0021 </r>
       <r>    -0.6313     0.0164    -0.0007 </r>
       <r>    -0.5479     0.0518     0.0036 </r>
       <r>    -0.4645     0.1032     0.0122 </r>
       <r>    -0.3811     0.1645     0.0260 </r>
       <r>    -0.2978     0.2271     0.0449 </r>
       <r>    -0.2144     0.2845     0.0686 </r>
       <r>    -0.1310     0.3344     0.0965 </r>
       <r>    -0.0476     0.3778     0.1280 </r>
       <r>     0.0357     0.4172     0.1628 </r>
       <r>     0.1191     0.4547     0.2007 </r>
       <r>     0.2025     0.4917     0.2417 </r>
       <r>     0.2859     0.5287     0.2858 </r>
       <r>     0.3692     0.5661     0.3330 </r>
       <r>     0.4526     0.6046     0.3834 </r>
       <r>     0.5360     0.6451     0.4372 </r>
       <r>     0.6194     0.6885     0.4946 </r>
       <r>     0.7027     0.7353     0.5559 </r>
       <r>     0.7861     0.7858     0.6214 </r>
       <r>     0.8695     0.8392     0.6914 </r>
       <r>     0.9529     0.8934     0.7659 </r>
       <r>     1.0362     0.9467     0.8448 </r>
       <r>     1.1196     1.0002     0.9282 </r>
       <r>     1.2030     1.0581     1.0164 </r>
       <r>     1.2864     1.1241     1.1101 </r>
       <r>     1.3697     1.2018     1.2103 </r>
       <r>     1.4531     1.3014     1.3188 </r>
       <r>     1.5365     1.4508     1.4398 </r>
       <r>     1.6199     1.6940     1.5810 </r>
       <r>     1.7032     2.0711     1.7537 </r>
       <r>     1.7866     2.5934     1.9699 </r>
       <r>     1.8700     3.2413     2.2402 </r>
       <r>     1.9534     3.9941     2.5732 </r>
       <r>     2.0367     4.8617     2.9785 </r>
       <r>     2.1201     5.8800     3.4688 </r>
       <r>     2.2035     7.0675     4.0580 </r>
       <r>     2.2869     8.3784     4.7566 </r>
       <r>     2.3702     9.6928     5.5647 </r>
       <r>     2.4536    10.8540     6.4697 </r>
       <r>     2.5370    11.7280     7.4475 </r>
       <r>     2.6204    12.2491     8.4688 </r>
       <r>     2.7037    12.4265     9.5049 </r>
       <r>     2.7871    12.3112    10.5313 </r>
       <r>     2.8705    11.9518    11.5278 </r>
       <r>     2.9539    11.3850    12.4770 </r>
       <r>     3.0372    10.6829    13.3677 </r>
       <r>     3.1206    10.0130    14.2025 </r>
       <r>     3.2040     9.6243    15.0050 </r>
       <r>     3.2874     9.7263    15.8159 </r>
       <r>     3.3707    10.3447    16.6784 </r>
       <r>     3.4541    11.2837    17.6192 </r>
       <r>     3.5375    12.2337    18.6392 </r>
       <r>     3.6209    12.9439    19.7184 </r>
       <r>     3.7042    13.3408    20.8307 </r>
       <r>     3.7876    13.5429    21.9598 </r>
       <r>     3.8710    13.7942    23.1099 </r>
       <r>     3.9544    14.3624    24.3074 </r>
       <r>     4.0377    15.4208    25.5931 </r>
       <r>     4.1211    16.9183    27.0036 </r>
       <r>     4.2045    18.4942    28.5456 </r>
       <r>     4.2879    19.5502    30.1756 </r>
       <r>     4.3712    19.5393    31.8047 </r>
       <r>     4.4546    18.3226    33.3323 </r>
       <r>     4.5380    16.3064    34.6919 </r>
       <r>     4.6214    14.2137    35.8770 </r>
       <r>     4.7047    12.6712    36.9334 </r>
       <r>     4.7881    11.9331    37.9283 </r>
       <r>     4.8715    11.8917    38.9198 </r>
       <r>     4.9549    12.2654    39.9424 </r>
       <r>     5.0382    12.7821    41.0082 </r>
       <r>     5.1216    13.2643    42.1141 </r>
       <r>     5.2050    13.6213    43.2498 </r>
       <r>     5.2884    13.8004    44.4004 </r>
       <r>     5.3717    13.7526    45.5470 </r>
       <r>     5.4551    13.4487    46.6683 </r>
       <r>     5.5385    12.9191    47.7454 </r>
       <r>     5.6219    12.2672    48.7682 </r>
       <r>     5.7052    11.6406    49.7387 </r>
       <r>     5.7886    11.1990    50.6725 </r>
       <r>     5.8720    11.1008    51.5980 </r>
       <r>     5.9554    11.4751    52.5547 </r>
       <r>     6.0387    12.3481    53.5842 </r>
       <r>     6.1221    13.5634    54.7151 </r>
       <r>     6.2055    14.7848    55.9478 </r>
       <r>     6.2889    15.6087    57.2492 </r>
       <r>     6.3722    15.7115    58.5591 </r>
       <r>     6.4556    14.9305    59.8040 </r>
       <r>     6.5390    13.2697    60.9103 </r>
       <r>     6.6224    10.8965    61.8188 </r>
       <r>     6.7057     8.1527    62.4985 </r>
       <r>     6.7891     5.5091    62.9579 </r>
       <r>     6.8725     3.4098    63.2422 </r>
       <r>     6.9559     2.0837    63.4159 </r>
       <r>     7.0392     1.4749    63.5389 </r>
       <r>     7.1226     1.3433    63.6509 </r>
       <r>     7.2060     1.4298    63.7701 </r>
       <r>     7.2894     1.5594    63.9001 </r>
       <r>     7.3728     1.6518    64.0378 </r>
       <r>     7.4561     1.6888    64.1786 </r>
       <r>     7.5395     1.6848    64.3191 </r>
       <r>     7.6229     1.6671    64.4581 </r>
       <r>     7.7063     1.6596    64.5964 </r>
       <r>     7.7896     1.6709    64.7358 </r>
       <r>     7.8730     1.6941    64.8770 </r>
       <r>     7.9564     1.7164    65.0201 </r>
       <r>     8.0398     1.7306    65.1644 </r>
       <r>     8.1231     1.7369    65.3092 </r>
       <r>     8.2065     1.7359    65.4540 </r>
       <r>     8.2899     1.7241    65.5977 </r>
       <r>     8.3733     1.7009    65.7395 </r>
       <r>     8.4566     1.6773    65.8794 </r>
       <r>     8.5400     1.6702    66.0186 </r>
       <r>     8.6234     1.6858    66.1592 </r>
       <r>     8.7068     1.7113    66.3018 </r>
       <r>     8.7901     1.7272    66.4459 </r>
       <r>     8.8735     1.7239    66.5896 </r>
       <r>     8.9569     1.7066    66.7319 </r>
       <r>     9.0403     1.6867    66.8725 </r>
       <r>     9.1236     1.6710    67.0118 </r>
       <r>     9.2070     1.6590    67.1501 </r>
       <r>     9.2904     1.6467    67.2874 </r>
       <r>     9.3738     1.6355    67.4238 </r>
       <r>     9.4571     1.6349    67.5601 </r>
       <r>     9.5405     1.6560    67.6982 </r>
       <r>     9.6239     1.6984    67.8398 </r>
       <r>     9.7073     1.7424    67.9851 </r>
       <r>     9.7906     1.7599    68.1318 </r>
       <r>     9.8740     1.7347    68.2764 </r>
       <r>     9.9574     1.6760    68.4162 </r>
       <r>    10.0408     1.6117    68.5505 </r>
       <r>    10.1241     1.5694    68.6814 </r>
       <r>    10.2075     1.5624    68.8117 </r>
       <r>    10.2909     1.5874    68.9440 </r>
       <r>    10.3743     1.6265    69.0796 </r>
       <r>    10.4576     1.6538    69.2175 </r>
       <r>    10.5410     1.6476    69.3549 </r>
       <r>    10.6244     1.6041    69.4886 </r>
       <r>    10.7078     1.5393    69.6169 </r>
       <r>    10.7911     1.4771    69.7401 </r>
       <r>    10.8745     1.4338    69.8596 </r>
       <r>    10.9579     1.4159    69.9777 </r>
       <r>    11.0413     1.4286    70.0968 </r>
       <r>    11.1246     1.4840    70.2205 </r>
       <r>    11.2080     1.5947    70.3535 </r>
       <r>    11.2914     1.7572    70.5000 </r>
       <r>    11.3748     1.9410    70.6618 </r>
       <r>    11.4581     2.0970    70.8367 </r>
       <r>    11.5415     2.1828    71.0187 </r>
       <r>    11.6249     2.1866    71.2010 </r>
       <r>    11.7083     2.1312    71.3787 </r>
       <r>    11.7916     2.0571    71.5502 </r>
       <r>    11.8750     2.0000    71.7169 </r>
       <r>    11.9584     1.9752    71.8816 </r>
       <r>    12.0418     1.9759    72.0463 </r>
       <r>    12.1251     1.9792    72.2114 </r>
       <r>    12.2085     1.9605    72.3748 </r>
       <r>    12.2919     1.9101    72.5341 </r>
       <r>    12.3753     1.8387    72.6874 </r>
       <r>    12.4586     1.7684    72.8348 </r>
       <r>    12.5420     1.7158    72.9779 </r>
       <r>    12.6254     1.6849    73.1183 </r>
       <r>    12.7088     1.6729    73.2578 </r>
       <r>    12.7921     1.6807    73.3980 </r>
       <r>    12.8755     1.7147    73.5409 </r>
       <r>    12.9589     1.7770    73.6891 </r>
       <r>    13.0423     1.8547    73.8437 </r>
       <r>    13.1256     1.9219    74.0040 </r>
       <r>    13.2090     1.9576    74.1672 </r>
       <r>    13.2924     1.9614    74.3307 </r>
       <r>    13.3758     1.9524    74.4935 </r>
       <r>    13.4591     1.9505    74.6561 </r>
       <r>    13.5425     1.9614    74.8196 </r>
       <r>    13.6259     1.9796    74.9847 </r>
       <r>    13.7093     2.0029    75.1517 </r>
       <r>    13.7926     2.0392    75.3217 </r>
       <r>    13.8760     2.0949    75.4964 </r>
       <r>    13.9594     2.1601    75.6765 </r>
       <r>    14.0428     2.2089    75.8606 </r>
       <r>    14.1261     2.2158    76.0454 </r>
       <r>    14.2095     2.1734    76.2266 </r>
       <r>    14.2929     2.0935    76.4011 </r>
       <r>    14.3763     1.9937    76.5674 </r>
       <r>    14.4596     1.8859    76.7246 </r>
       <r>    14.5430     1.7786    76.8729 </r>
       <r>    14.6264     1.6852    77.0134 </r>
       <r>    14.7098     1.6261    77.1490 </r>
       <r>    14.7931     1.6173    77.2838 </r>
       <r>    14.8765     1.6536    77.4217 </r>
       <r>    14.9599     1.7042    77.5638 </r>
       <r>    15.0433     1.7261    77.7077 </r>
       <r>    15.1267     1.6890    77.8485 </r>
       <r>    15.2100     1.5945    77.9815 </r>
       <r>    15.2934     1.4760    78.1045 </r>
       <r>    15.3768     1.3788    78.2195 </r>
       <r>    15.4602     1.3337    78.3307 </r>
       <r>    15.5435     1.3412    78.4425 </r>
       <r>    15.6269     1.3752    78.5572 </r>
       <r>    15.7103     1.3999    78.6739 </r>
       <r>    15.7937     1.3877    78.7896 </r>
       <r>    15.8770     1.3299    78.9005 </r>
       <r>    15.9604     1.2368    79.0036 </r>
       <r>    16.0438     1.1301    79.0978 </r>
       <r>    16.1272     1.0307    79.1837 </r>
       <r>    16.2105     0.9491    79.2629 </r>
       <r>    16.2939     0.8834    79.3365 </r>
       <r>    16.3773     0.8259    79.4054 </r>
       <r>    16.4607     0.7712    79.4697 </r>
       <r>    16.5440     0.7185    79.5296 </r>
       <r>    16.6274     0.6685    79.5853 </r>
       <r>    16.7108     0.6195    79.6370 </r>
       <r>    16.7942     0.5684    79.6844 </r>
       <r>    16.8775     0.5144    79.7272 </r>
       <r>    16.9609     0.4613    79.7657 </r>
       <r>    17.0443     0.4156    79.8004 </r>
       <r>    17.1277     0.3829    79.8323 </r>
       <r>    17.2110     0.3626    79.8625 </r>
       <r>    17.2944     0.3464    79.8914 </r>
       <r>    17.3778     0.3226    79.9183 </r>
       <r>    17.4612     0.2832    79.9419 </r>
       <r>    17.5445     0.2298    79.9611 </r>
       <r>    17.6279     0.1710    79.9753 </r>
       <r>    17.7113     0.1169    79.9851 </r>
       <r>    17.7947     0.0736    79.9912 </r>
       <r>    17.8780     0.0426    79.9948 </r>
       <r>    17.9614     0.0228    79.9967 </r>
       <r>    18.0448     0.0119    79.9976 </r>
       <r>    18.1282     0.0070    79.9982 </r>
       <r>    18.2115     0.0054    79.9987 </r>
       <r>    18.2949     0.0047    79.9991 </r>
       <r>    18.3783     0.0040    79.9994 </r>
       <r>    18.4617     0.0032    79.9997 </r>
       <r>    18.5450     0.0023    79.9999 </r>
       <r>    18.6284     0.0014    80.0000 </r>
       <r>    18.7118     0.0007    80.0000 </r>
       <r>    18.7952     0.0001    80.0000 </r>
       <r>    18.8785    -0.0001    80.0000 </r>
       <r>    18.9619    -0.0002    80.0000 </r>
       <r>    19.0453    -0.0001    80.0000 </r>
       <r>    19.1287    -0.0001    80.0000 </r>
       <r>    19.2120     0.0000    80.0000 </r>
       <r>    19.2954     0.0000    80.0000 </r>
       <r>    19.3788     0.0000    80.0000 </r>
       <r>    19.4622     0.0000    80.0000 </r>
       <r>    19.5455     0.0000    80.0000 </r>
       <r>    19.6289     0.0000    80.0000 </r>
       <r>    19.7123     0.0000    80.0000 </r>
       <r>    19.7957     0.0000    80.0000 </r>
       <r>    19.8790     0.0000    80.0000 </r>
       <r>    19.9624     0.0000    80.0000 </r>
       <r>    20.0458     0.0000    80.0000 </r>
       <r>    20.1292     0.0000    80.0000 </r>
       <r>    20.2125     0.0000    80.0000 </r>
       <r>    20.2959     0.0000    80.0000 </r>
       <r>    20.3793     0.0000    80.0000 </r>
       <r>    20.4627     0.0000    80.0000 </r>
       <r>    20.5460     0.0000    80.0000 </r>
       <r>    20.6294     0.0000    80.0000 </r>
       <r>    20.7128     0.0000    80.0000 </r>
       <r>    20.7962     0.0000    80.0000 </r>
       <r>    20.8795     0.0000    80.0000 </r>
       <r>    20.9629     0.0000    80.0000 </r>
       <r>    21.0463     0.0000    80.0000 </r>
       <r>    21.1297     0.0000    80.0000 </r>
       <r>    21.2130     0.0000    80.0000 </r>
       <r>    21.2964     0.0000    80.0000 </r>
       <r>    21.3798     0.0000    80.0000 </r>
       <r>    21.4632     0.0000    80.0000 </r>
      </set>
     </set>
    </array>
   </total>
  </dos>
 </calculation>
 <structure name="finalpos" >
  <crystal>
   <varray name="basis" >
    <v>      -2.07451241      -4.15227785      -2.07451241 </v>
    <v>      -4.15188406       2.07621948       2.07721059 </v>
    <v>       2.07721059       2.07621948      -4.15188406 </v>
   </varray>
   <i name="volume">    107.32049140 </i>
   <varray name="rec_basis" >
    <v>      -0.12050791      -0.12041817      -0.12050791 </v>
    <v>      -0.20077172       0.12040882      -0.04023474 </v>
    <v>      -0.04023474       0.12040882      -0.20077172 </v>
   </varray>
  </crystal>
  <varray name="positions" >
   <v>       0.50000000       0.16666667       0.83333333 </v>
   <v>       0.00000000       0.00018483       0.99981517 </v>
   <v>       0.50000000       0.83319410       0.16680590 </v>
   <v>       0.00000000       0.66666667       0.33333333 </v>
   <v>       0.50000000       0.50013923       0.49986077 </v>
   <v>       0.00000000       0.33314850       0.66685150 </v>
  </varray>
 </structure>
</modeling>
