<?xml version="1.0" encoding="ISO-8859-1"?>
<modeling>
 <generator>
  <i name="program" type="string">vasp </i>
  <i name="version" type="string">5.3.5  </i>
  <i name="subversion" type="string">31Mar14 (build Jun 20 2014 13:15:13) complex                          parallel </i>
  <i name="platform" type="string">LinuxIFC </i>
  <i name="date" type="string">2025 12 12 </i>
  <i name="time" type="string">11:35:45 </i>
 </generator>
 <incar>
  <i type="string" name="PREC">accurate</i>
  <i type="int" name="IALGO">    38</i>
  <i type="logical" name="ADDGRID"> T  </i>
  <i type="int" name="ISPIN">     2</i>
  <i type="int" name="NELM">   100</i>
  <i type="int" name="NELMIN">     4</i>
  <i name="EDIFF">      0.00000100</i>
  <i name="ENCUT">    500.00000000</i>
  <i type="logical" name="LREAL"> F  </i>
  <i type="int" name="ISMEAR">     0</i>
  <i name="SIGMA">      0.05000000</i>
  <i type="logical" name="LWAVE"> F  </i>
  <i type="logical" name="LCHARG"> F  </i>
  <i type="int" name="NELM">   100</i>
  <i type="logical" name="LDAU"> T  </i>
  <v name="LDAUU">      0.00000000      4.00000000      0.00000000</v>
  <v name="LDAUJ">      0.00000000      0.00000000      0.00000000</v>
 </incar>
 <kpoints>
  <generation param="Auto">
   <i name="subdivisionlength">     20.00000000 </i>
   <v type="int" name="divisions">       5        5        1 </v>
   <v name="usershift">      0.00000000       0.00000000       0.00000000 </v>
   <v name="genvec1">      0.20000000       0.00000000       0.00000000 </v>
   <v name="genvec2">      0.00000000       0.20000000       0.00000000 </v>
   <v name="genvec3">      0.00000000       0.00000000       1.00000000 </v>
   <v name="shift">      0.00000000       0.00000000       0.00000000 </v>
  </generation>
  <varray name="kpointlist" >
   <v>       0.00000000       0.00000000       0.00000000 </v>
   <v>       0.20000000       0.00000000       0.00000000 </v>
   <v>       0.40000000       0.00000000       0.00000000 </v>
   <v>       0.20000000       0.20000000       0.00000000 </v>
   <v>       0.40000000       0.20000000       0.00000000 </v>
   <v>       0.40000000       0.40000000       0.00000000 </v>
  </varray>
  <varray name="weights" >
   <v>       0.04000000 </v>
   <v>       0.16000000 </v>
   <v>       0.16000000 </v>
   <v>       0.16000000 </v>
   <v>       0.32000000 </v>
   <v>       0.16000000 </v>
  </varray>
 </kpoints>
 <parameters>
  <separator name="general" >
   <i type="string" name="SYSTEM">unknown system</i>
   <i type="logical" name="LCOMPAT"> F  </i>
  </separator>
  <separator name="electronic" >
   <i type="string" name="PREC">accura</i>
   <i name="ENMAX">    500.00000000</i>
   <i name="ENAUG">    586.98000000</i>
   <i name="EDIFF">      0.00000100</i>
   <i type="int" name="IALGO">    38</i>
   <i type="int" name="IWAVPR">    10</i>
   <i type="int" name="NBANDS">    88</i>
   <i name="NELECT">    132.00000000</i>
   <i type="int" name="TURBO">     0</i>
   <i type="int" name="IRESTART">     0</i>
   <i type="int" name="NREBOOT">     0</i>
   <i type="int" name="NMIN">     0</i>
   <i name="EREF">      0.00000000</i>
   <separator name="electronic smearing" >
    <i type="int" name="ISMEAR">     0</i>
    <i name="SIGMA">      0.05000000</i>
    <i name="KSPACING">      0.50000000</i>
    <i type="logical" name="KGAMMA"> T  </i>
   </separator>
   <separator name="electronic projectors" >
    <i type="logical" name="LREAL"> F  </i>
    <v name="ROPT">      0.00000000      0.00000000      0.00000000</v>
    <i type="int" name="LMAXPAW">  -100</i>
    <i type="int" name="LMAXMIX">     2</i>
    <i type="logical" name="NLSPLINE"> F  </i>
   </separator>
   <separator name="electronic startup" >
    <i type="int" name="ISTART">     0</i>
    <i type="int" name="ICHARG">     2</i>
    <i type="int" name="INIWAV">     1</i>
   </separator>
   <separator name="electronic spin" >
    <i type="int" name="ISPIN">     2</i>
    <i type="logical" name="LNONCOLLINEAR"> F  </i>
    <v name="MAGMOM">      1.00000000      1.00000000      1.00000000      1.00000000      1.00000000      1.00000000      1.00000000      1.00000000      1.00000000      1.00000000      1.00000000      1.00000000      1.00000000      1.00000000      1.00000000      1.00000000</v>
    <i name="NUPDOWN">     -1.00000000</i>
    <i type="logical" name="LSORBIT"> F  </i>
    <v name="SAXIS">      0.00000000      0.00000000      1.00000000</v>
    <i type="logical" name="LSPIRAL"> F  </i>
    <v name="QSPIRAL">      0.00000000      0.00000000      0.00000000</v>
    <i type="logical" name="LZEROZ"> F  </i>
   </separator>
   <separator name="electronic exchange-correlation" >
    <i type="logical" name="LASPH"> F  </i>
    <i type="logical" name="LMETAGGA"> F  </i>
   </separator>
   <separator name="electronic convergence" >
    <i type="int" name="NELM">   100</i>
    <i type="int" name="NELMDL">    -5</i>
    <i type="int" name="NELMIN">     4</i>
    <i name="ENINI">    500.00000000</i>
    <separator name="electronic convergence detail" >
     <i type="logical" name="LDIAG"> T  </i>
     <i type="logical" name="LSUBROT"> F  </i>
     <i name="WEIMIN">      0.00000000</i>
     <i name="EBREAK">      0.00000000</i>
     <i name="DEPER">      0.30000000</i>
     <i type="int" name="NRMM">     4</i>
     <i name="TIME">      0.40000000</i>
    </separator>
   </separator>
   <separator name="electronic mixer" >
    <i name="AMIX">      0.40000000</i>
    <i name="BMIX">      1.00000000</i>
    <i name="AMIN">      0.10000000</i>
    <i name="AMIX_MAG">      1.60000000</i>
    <i name="BMIX_MAG">      1.00000000</i>
    <separator name="electronic mixer details" >
     <i type="int" name="IMIX">     4</i>
     <i type="int" name="MAXMIX">   -45</i>
     <i name="WC">    100.00000000</i>
     <i type="int" name="INIMIX">     1</i>
     <i type="int" name="MIXPRE">     1</i>
     <i type="int" name="MREMOVE">     5</i>
    </separator>
   </separator>
   <separator name="electronic dipolcorrection" >
    <i type="logical" name="LDIPOL"> F  </i>
    <i type="logical" name="LMONO"> F  </i>
    <i type="int" name="IDIPOL">     0</i>
    <i name="EPSILON">      1.00000000</i>
    <v name="DIPOL">   -100.00000000   -100.00000000   -100.00000000</v>
    <i name="EFIELD">      0.00000000</i>
   </separator>
  </separator>
  <separator name="grids" >
   <i type="int" name="NGX">    30</i>
   <i type="int" name="NGY">    30</i>
   <i type="int" name="NGZ">   120</i>
   <i type="int" name="NGXF">    60</i>
   <i type="int" name="NGYF">    60</i>
   <i type="int" name="NGZF">   240</i>
   <i type="logical" name="ADDGRID"> T  </i>
  </separator>
  <separator name="ionic" >
   <i type="int" name="NSW">     0</i>
   <i type="int" name="IBRION">    -1</i>
   <i type="int" name="ISIF">     2</i>
   <i name="PSTRESS">      0.00000000</i>
   <i name="EDIFFG">      0.00001000</i>
   <i type="int" name="NFREE">     0</i>
   <i name="POTIM">      0.50000000</i>
   <i name="SMASS">     -3.00000000</i>
   <i name="SCALEE">      1.00000000</i>
  </separator>
  <separator name="ionic md" >
   <i name="TEBEG">      0.00010000</i>
   <i name="TEEND">      0.00010000</i>
   <i type="int" name="NBLOCK">     1</i>
   <i type="int" name="KBLOCK">     1</i>
   <i type="int" name="NPACO">   256</i>
   <i name="APACO">     16.00000000</i>
  </separator>
  <separator name="symmetry" >
   <i type="int" name="ISYM">     2</i>
   <i name="SYMPREC">      0.00001000</i>
  </separator>
  <separator name="dos" >
   <i type="logical" name="LORBIT"> F  </i>
   <v name="RWIGS">     -1.00000000     -1.00000000     -1.00000000</v>
   <i type="int" name="NEDOS">   301</i>
   <i name="EMIN">     10.00000000</i>
   <i name="EMAX">    -10.00000000</i>
   <i name="EFERMI">      0.00000000</i>
  </separator>
  <separator name="writing" >
   <i type="int" name="NWRITE">     2</i>
   <i type="logical" name="LWAVE"> F  </i>
   <i type="logical" name="LCHARG"> F  </i>
   <i type="logical" name="LPARD"> F  </i>
   <i type="logical" name="LVTOT"> F  </i>
   <i type="logical" name="LVHAR"> F  </i>
   <i type="logical" name="LELF"> F  </i>
   <i type="logical" name="LOPTICS"> F  </i>
   <v name="STM">      0.00000000      0.00000000      0.00000000      0.00000000      0.00000000      0.00000000      0.00000000</v>
  </separator>
  <separator name="performance" >
   <i type="int" name="NPAR">     4</i>
   <i type="int" name="NSIM">     4</i>
   <i type="int" name="NBLK">    -1</i>
   <i type="logical" name="LPLANE"> T  </i>
   <i type="logical" name="LSCALAPACK"> T  </i>
   <i type="logical" name="LSCAAWARE"> F  </i>
   <i type="logical" name="LSCALU"> F  </i>
   <i type="logical" name="LASYNC"> F  </i>
   <i type="logical" name="LORBITALREAL"> F  </i>
  </separator>
  <separator name="miscellaneous" >
   <i type="int" name="IDIOT">     3</i>
   <i type="logical" name="LMUSIC"> F  </i>
   <v name="POMASS">     87.62000000     63.54600000     16.00000000</v>
   <v name="DARWINR">      0.00000000      0.00000000      0.00000000</v>
   <v name="DARWINV">      1.00000000      1.00000000      1.00000000</v>
   <i type="logical" name="LCORR"> T  </i>
  </separator>
  <i type="logical" name="GGA_COMPAT"> T  </i>
  <i type="logical" name="LBERRY"> F  </i>
  <i type="int" name="ICORELEVEL">     0</i>
  <i type="logical" name="LDAU"> T  </i>
  <v type="int" name="LDAUTYPE">     2</v>
  <v type="int" name="LDAUL">     2</v>
  <v name="LDAUU">      0.00000000</v>
  <v name="LDAUJ">      0.00000000</v>
  <i type="int" name="LDAUPRINT">     0</i>
  <i type="int" name="I_CONSTRAINED_M">     0</i>
  <separator name="electronic exchange-correlation" >
   <i type="string" name="GGA">--</i>
   <i type="int" name="VOSKOWN">     0</i>
   <i type="logical" name="LHFCALC"> F  </i>
   <i type="string" name="PRECFOCK"></i>
   <i type="logical" name="LSYMGRAD"> F  </i>
   <i type="logical" name="LHFONE"> F  </i>
   <i type="logical" name="LRHFCALC"> F  </i>
   <i type="logical" name="LTHOMAS"> F  </i>
   <i type="logical" name="LMODELHF"> F  </i>
   <i name="ENCUT4O">     -1.00000000</i>
   <i type="int" name="EXXOEP">     0</i>
   <i type="int" name="FOURORBIT">     0</i>
   <i name="AEXX">      0.00000000</i>
   <i name="HFALPHA">      0.00000000</i>
   <i name="MCALPHA">      0.00000000</i>
   <i name="ALDAX">      1.00000000</i>
   <i name="AGGAX">      1.00000000</i>
   <i name="ALDAC">      1.00000000</i>
   <i name="AGGAC">      1.00000000</i>
   <i type="int" name="NKREDX">     1</i>
   <i type="int" name="NKREDY">     1</i>
   <i type="int" name="NKREDZ">     1</i>
   <i type="logical" name="SHIFTRED"> F  </i>
   <i type="logical" name="ODDONLY"> F  </i>
   <i type="logical" name="EVENONLY"> F  </i>
   <i type="int" name="LMAXFOCK">     0</i>
   <i type="int" name="NMAXFOCKAE">     0</i>
   <i type="logical" name="LFOCKAEDFT"> F  </i>
   <i name="HFSCREEN">      0.00000000</i>
   <i name="HFSCREENC">      0.00000000</i>
   <i type="int" name="NBANDSGWLOW">     0</i>
  </separator>
  <separator name="vdW DFT" >
   <i type="logical" name="LUSE_VDW"> F  </i>
   <i name="Zab_VDW">     -0.84910000</i>
   <i name="PARAM1">      0.12340000</i>
   <i name="PARAM2">      1.00000000</i>
   <i name="PARAM3">      0.00000000</i>
  </separator>
  <separator name="model GW" >
   <i type="int" name="MODEL_GW">     0</i>
   <i name="MODEL_EPS0">      9.60000000</i>
   <i name="MODEL_ALPHA">      1.00000000</i>
  </separator>
  <separator name="linear response parameters" >
   <i type="logical" name="LEPSILON"> F  </i>
   <i type="logical" name="LRPA"> F  </i>
   <i type="logical" name="LNABLA"> F  </i>
   <i type="logical" name="LVEL"> F  </i>
   <i type="int" name="KINTER">     0</i>
   <i name="CSHIFT">      0.10000000</i>
   <i name="OMEGAMAX">     -1.00000000</i>
   <i name="DEG_THRESHOLD">      0.00200000</i>
  </separator>
  <separator name="orbital magnetization" >
   <i type="logical" name="NUCIND"> F  </i>
   <v name="MAGPOS">      0.00000000      0.00000000      0.00000000</v>
   <i type="logical" name="LNICSALL"> T  </i>
   <i type="logical" name="ORBITALMAG"> F  </i>
   <i type="logical" name="LMAGBLOCH"> F  </i>
   <i type="logical" name="LCHIMAG"> F  </i>
   <i type="logical" name="LGAUGE"> T  </i>
   <i type="int" name="MAGATOM">     0</i>
   <v name="MAGDIPOL">      0.00000000      0.00000000      0.00000000</v>
   <v name="AVECCONST">      0.00000000      0.00000000      0.00000000</v>
  </separator>
  <separator name="response functions" >
   <i type="logical" name="LADDER"> F  </i>
   <i type="logical" name="LFXC"> F  </i>
   <i type="logical" name="LHARTREE"> T  </i>
   <i type="int" name="IBSE">     0</i>
   <i type="logical" name="LTCTE"> F  </i>
   <i type="logical" name="LTETE"> F  </i>
   <i type="logical" name="LTRIPLET"> F  </i>
   <i type="logical" name="LFXCEPS"> F  </i>
   <i type="logical" name="LFXHEG"> F  </i>
   <i type="logical" name="L2ORDER"> F  </i>
   <i type="logical" name="LUSEW"> F  </i>
   <i name="ENCUTGW">     -2.00000000</i>
   <i name="ENCUTGWSOFT">     -2.00000000</i>
   <i name="ENCUTLF">     -1.00000000</i>
   <i type="int" name="LMAXMP2">    -1</i>
   <i name="SCISSOR">      0.00000000</i>
   <i type="int" name="NOMEGA">     0</i>
   <i type="int" name="NOMEGAR">     0</i>
   <i type="int" name="NBANDSGW">    -1</i>
   <i type="int" name="NBANDSO">    -1</i>
   <i type="int" name="NBANDSV">    -1</i>
   <i type="int" name="NELM">   100</i>
   <i type="int" name="DIM">     3</i>
   <i type="int" name="ANTIRES">     0</i>
   <i name="OMEGAMAX">    -30.00000000</i>
   <i name="OMEGAMIN">    -30.00000000</i>
   <i name="OMEGATL">   -200.00000000</i>
   <i type="int" name="OMEGAGRID">     0</i>
   <i name="CSHIFT">     -0.10000000</i>
   <i type="logical" name="SELFENERGY"> F  </i>
   <i type="logical" name="LSPECTRAL"> F  </i>
   <i type="logical" name="ODDONLYGW"> F  </i>
   <i type="logical" name="EVENONLYGW"> F  </i>
   <i type="int" name="NKREDLFX">     1</i>
   <i type="int" name="NKREDLFY">     1</i>
   <i type="int" name="NKREDLFZ">     1</i>
   <i type="int" name="MAXMEM">  1800</i>
   <i type="int" name="TELESCOPE">     0</i>
   <i type="int" name="TAUPAR">     1</i>
  </separator>
  <separator name="External order field" >
   <i name="OFIELD_KAPPA">      0.00000000</i>
   <v name="OFIELD_K">      0.00000000      0.00000000      0.00000000</v>
   <i name="OFIELD_Q6_NEAR">      0.00000000</i>
   <i name="OFIELD_Q6_FAR">      0.00000000</i>
   <i name="OFIELD_A">      0.00000000</i>
  </separator>
 </parameters>
 <atominfo>
  <atoms>      16 </atoms>
  <types>       3 </types>
  <array name="atoms" >
   <dimension dim="1">ion</dimension>
   <field type="string">element</field>
   <field type="int">atomtype</field>
   <set>
    <rc><c>Sr</c><c>   1</c></rc>
    <rc><c>Sr</c><c>   1</c></rc>
    <rc><c>Sr</c><c>   1</c></rc>
    <rc><c>Sr</c><c>   1</c></rc>
    <rc><c>Cu</c><c>   2</c></rc>
    <rc><c>Cu</c><c>   2</c></rc>
    <rc><c>Cu</c><c>   2</c></rc>
    <rc><c>Cu</c><c>   2</c></rc>
    <rc><c>O </c><c>   3</c></rc>
    <rc><c>O </c><c>   3</c></rc>
    <rc><c>O </c><c>   3</c></rc>
    <rc><c>O </c><c>   3</c></rc>
    <rc><c>O </c><c>   3</c></rc>
    <rc><c>O </c><c>   3</c></rc>
    <rc><c>O </c><c>   3</c></rc>
    <rc><c>O </c><c>   3</c></rc>
   </set>
  </array>
  <array name="atomtypes" >
   <dimension dim="1">type</dimension>
   <field type="int">atomspertype</field>
   <field type="string">element</field>
   <field>mass</field>
   <field>valence</field>
   <field type="string">pseudopotential</field>
   <set>
    <rc><c>   4</c><c>Sr</c><c>     87.62000000</c><c>     10.00000000</c><c>  PAW_PBE Sr_sv 07Sep2000               </c></rc>
    <rc><c>   4</c><c>Cu</c><c>     63.54600000</c><c>     11.00000000</c><c>  PAW_PBE Cu 22Jun2005                  </c></rc>
    <rc><c>   8</c><c>O </c><c>     16.00000000</c><c>      6.00000000</c><c>  PAW_PBE O_s 07Sep2000                 </c></rc>
   </set>
  </array>
 </atominfo>
 <structure name="initialpos" >
  <crystal>
   <varray name="basis" >
    <v>       4.00000000       0.00000000       0.00000000 </v>
    <v>       0.00000000       4.00000000       0.00000000 </v>
    <v>       0.00000000       0.00000000      16.00000000 </v>
   </varray>
   <i name="volume">    256.00000000 </i>
   <varray name="rec_basis" >
    <v>       0.25000000       0.00000000       0.00000000 </v>
    <v>       0.00000000       0.25000000       0.00000000 </v>
    <v>       0.00000000       0.00000000       0.06250000 </v>
   </varray>
  </crystal>
  <varray name="positions" >
   <v>       0.00000000       0.00000000       0.75000000 </v>
   <v>       0.00000000       0.00000000       0.00000000 </v>
   <v>       0.00000000       0.00000000       0.25000000 </v>
   <v>       0.00000000       0.00000000       0.50000000 </v>
   <v>       0.50000000       0.50000000       0.87500000 </v>
   <v>       0.50000000       0.50000000       0.12500000 </v>
   <v>       0.50000000       0.50000000       0.37500000 </v>
   <v>       0.50000000       0.50000000       0.62500000 </v>
   <v>       0.50000000       0.50000000       0.00000000 </v>
   <v>       0.50000000       0.50000000       0.50000000 </v>
   <v>       0.00000000       0.50000000       0.12500000 </v>
   <v>       0.00000000       0.50000000       0.37500000 </v>
   <v>       0.00000000       0.50000000       0.62500000 </v>
   <v>       0.50000000       0.00000000       0.87500000 </v>
   <v>       0.50000000       0.00000000       0.37500000 </v>
   <v>       0.50000000       0.00000000       0.62500000 </v>
  </varray>
 </structure>
 <calculation>
  <scstep>
   <time name="dav">    1.09    1.09</time>
   <time name="total">    1.28    1.29</time>
   <energy>
    <i name="alphaZ">    598.65364144 </i>
    <i name="ewald">  -8352.11771836 </i>
    <i name="hartreedc">  -4092.03344360 </i>
    <i name="XCdc">    543.15158325 </i>
    <i name="pawpsdc">  10188.96972968 </i>
    <i name="pawaedc"> -10517.73277125 </i>
    <i name="eentropy">     -0.00500449 </i>
    <i name="bandstr">    880.29638444 </i>
    <i name="atom">  12395.00728236 </i>
    <i name="e_fr_energy">   1644.18968347 </i>
    <i name="e_wo_entrp">   1644.19468796 </i>
    <i name="e_0_energy">   1644.19218571 </i>
   </energy>
  </scstep>
  <scstep>
   <time name="dav">    1.10    1.10</time>
   <time name="total">    1.10    1.11</time>
   <energy>
    <i name="e_fr_energy">    151.62152706 </i>
    <i name="e_wo_entrp">    151.62797022 </i>
    <i name="e_0_energy">    151.62474864 </i>
   </energy>
  </scstep>
  <scstep>
   <time name="dav">    1.21    1.21</time>
   <time name="total">    1.21    1.23</time>
   <energy>
    <i name="e_fr_energy">    -78.63971359 </i>
    <i name="e_wo_entrp">    -78.63071780 </i>
    <i name="e_0_energy">    -78.63521570 </i>
   </energy>
  </scstep>
  <scstep>
   <time name="dav">    1.54    1.54</time>
   <time name="total">    1.54    1.55</time>
   <energy>
    <i name="e_fr_energy">    -96.05025625 </i>
    <i name="e_wo_entrp">    -96.04184392 </i>
    <i name="e_0_energy">    -96.04605008 </i>
   </energy>
  </scstep>
  <scstep>
   <time name="dav">    1.84    1.84</time>
   <time name="total">    2.08    2.10</time>
   <energy>
    <i name="e_fr_energy">    -97.07693307 </i>
    <i name="e_wo_entrp">    -97.06874792 </i>
    <i name="e_0_energy">    -97.07284049 </i>
   </energy>
  </scstep>
  <scstep>
   <time name="dav">    1.54    1.54</time>
   <time name="total">    1.97    1.98</time>
   <energy>
    <i name="e_fr_energy">    -86.09670607 </i>
    <i name="e_wo_entrp">    -86.08262203 </i>
    <i name="e_0_energy">    -86.08966405 </i>
   </energy>
  </scstep>
  <scstep>
   <time name="dav">    1.49    1.49</time>
   <time name="total">    1.92    1.93</time>
   <energy>
    <i name="e_fr_energy">    -78.60827635 </i>
    <i name="e_wo_entrp">    -78.59302008 </i>
    <i name="e_0_energy">    -78.60064821 </i>
   </energy>
  </scstep>
  <scstep>
   <time name="dav">    1.59    1.59</time>
   <time name="total">    2.02    2.03</time>
   <energy>
    <i name="e_fr_energy">    -85.18254626 </i>
    <i name="e_wo_entrp">    -85.17483122 </i>
    <i name="e_0_energy">    -85.17868874 </i>
   </energy>
  </scstep>
  <scstep>
   <time name="dav">    1.55    1.55</time>
   <time name="total">    1.99    2.00</time>
   <energy>
    <i name="e_fr_energy">    -80.33553899 </i>
    <i name="e_wo_entrp">    -80.32655554 </i>
    <i name="e_0_energy">    -80.33104727 </i>
   </energy>
  </scstep>
  <scstep>
   <time name="dav">    1.51    1.51</time>
   <time name="total">    1.94    1.96</time>
   <energy>
    <i name="e_fr_energy">    -78.38347794 </i>
    <i name="e_wo_entrp">    -78.38005398 </i>
    <i name="e_0_energy">    -78.38176596 </i>
   </energy>
  </scstep>
  <scstep>
   <time name="dav">    1.58    1.58</time>
   <time name="total">    2.00    2.02</time>
   <energy>
    <i name="e_fr_energy">    -77.85024162 </i>
    <i name="e_wo_entrp">    -77.84122012 </i>
    <i name="e_0_energy">    -77.84573087 </i>
   </energy>
  </scstep>
  <scstep>
   <time name="dav">    1.50    1.50</time>
   <time name="total">    1.92    1.94</time>
   <energy>
    <i name="e_fr_energy">    -77.76092201 </i>
    <i name="e_wo_entrp">    -77.75507665 </i>
    <i name="e_0_energy">    -77.75799933 </i>
   </energy>
  </scstep>
  <scstep>
   <time name="dav">    1.54    1.54</time>
   <time name="total">    1.96    1.98</time>
   <energy>
    <i name="e_fr_energy">    -77.79835646 </i>
    <i name="e_wo_entrp">    -77.79271219 </i>
    <i name="e_0_energy">    -77.79553433 </i>
   </energy>
  </scstep>
  <scstep>
   <time name="dav">    1.50    1.50</time>
   <time name="total">    1.93    1.94</time>
   <energy>
    <i name="e_fr_energy">    -77.82326180 </i>
    <i name="e_wo_entrp">    -77.81978794 </i>
    <i name="e_0_energy">    -77.82152487 </i>
   </energy>
  </scstep>
  <scstep>
   <time name="dav">    1.48    1.48</time>
   <time name="total">    1.90    1.92</time>
   <energy>
    <i name="e_fr_energy">    -78.05644947 </i>
    <i name="e_wo_entrp">    -78.04739565 </i>
    <i name="e_0_energy">    -78.05192256 </i>
   </energy>
  </scstep>
  <scstep>
   <time name="dav">    1.43    1.44</time>
   <time name="total">    1.86    1.87</time>
   <energy>
    <i name="e_fr_energy">    -78.12223733 </i>
    <i name="e_wo_entrp">    -78.11032131 </i>
    <i name="e_0_energy">    -78.11627932 </i>
   </energy>
  </scstep>
  <scstep>
   <time name="dav">    1.45    1.45</time>
   <time name="total">    1.88    1.89</time>
   <energy>
    <i name="e_fr_energy">    -78.17379027 </i>
    <i name="e_wo_entrp">    -78.16308185 </i>
    <i name="e_0_energy">    -78.16843606 </i>
   </energy>
  </scstep>
  <scstep>
   <time name="dav">    1.51    1.51</time>
   <time name="total">    1.93    1.95</time>
   <energy>
    <i name="e_fr_energy">    -78.18124150 </i>
    <i name="e_wo_entrp">    -78.17368920 </i>
    <i name="e_0_energy">    -78.17746535 </i>
   </energy>
  </scstep>
  <scstep>
   <time name="dav">    1.48    1.48</time>
   <time name="total">    1.90    1.92</time>
   <energy>
    <i name="e_fr_energy">    -78.19321386 </i>
    <i name="e_wo_entrp">    -78.18851685 </i>
    <i name="e_0_energy">    -78.19086536 </i>
   </energy>
  </scstep>
  <scstep>
   <time name="dav">    1.53    1.53</time>
   <time name="total">    1.95    1.97</time>
   <energy>
    <i name="e_fr_energy">    -78.19709817 </i>
    <i name="e_wo_entrp">    -78.19240671 </i>
    <i name="e_0_energy">    -78.19475244 </i>
   </energy>
  </scstep>
  <scstep>
   <time name="dav">    1.62    1.62</time>
   <time name="total">    2.05    2.07</time>
   <energy>
    <i name="e_fr_energy">    -78.19769980 </i>
    <i name="e_wo_entrp">    -78.19299451 </i>
    <i name="e_0_energy">    -78.19534716 </i>
   </energy>
  </scstep>
  <scstep>
   <time name="dav">    1.51    1.51</time>
   <time name="total">    1.94    1.96</time>
   <energy>
    <i name="e_fr_energy">    -78.19842699 </i>
    <i name="e_wo_entrp">    -78.19366312 </i>
    <i name="e_0_energy">    -78.19604505 </i>
   </energy>
  </scstep>
  <scstep>
   <time name="dav">    1.44    1.44</time>
   <time name="total">    1.87    1.88</time>
   <energy>
    <i name="e_fr_energy">    -78.19885134 </i>
    <i name="e_wo_entrp">    -78.19404876 </i>
    <i name="e_0_energy">    -78.19645005 </i>
   </energy>
  </scstep>
  <scstep>
   <time name="dav">    1.51    1.51</time>
   <time name="total">    1.93    1.95</time>
   <energy>
    <i name="e_fr_energy">    -78.19893308 </i>
    <i name="e_wo_entrp">    -78.19405682 </i>
    <i name="e_0_energy">    -78.19649495 </i>
   </energy>
  </scstep>
  <scstep>
   <time name="dav">    1.63    1.63</time>
   <time name="total">    2.06    2.07</time>
   <energy>
    <i name="e_fr_energy">    -78.19897097 </i>
    <i name="e_wo_entrp">    -78.19406684 </i>
    <i name="e_0_energy">    -78.19651891 </i>
   </energy>
  </scstep>
  <scstep>
   <time name="dav">    1.44    1.44</time>
   <time name="total">    1.87    1.88</time>
   <energy>
    <i name="e_fr_energy">    -78.19893633 </i>
    <i name="e_wo_entrp">    -78.19404541 </i>
    <i name="e_0_energy">    -78.19649087 </i>
   </energy>
  </scstep>
  <scstep>
   <time name="dav">    1.48    1.48</time>
   <time name="total">    1.91    1.92</time>
   <energy>
    <i name="e_fr_energy">    -78.19901255 </i>
    <i name="e_wo_entrp">    -78.19408165 </i>
    <i name="e_0_energy">    -78.19654710 </i>
   </energy>
  </scstep>
  <scstep>
   <time name="dav">    1.55    1.55</time>
   <time name="total">    1.97    1.99</time>
   <energy>
    <i name="e_fr_energy">    -78.19905198 </i>
    <i name="e_wo_entrp">    -78.19409847 </i>
    <i name="e_0_energy">    -78.19657523 </i>
   </energy>
  </scstep>
  <scstep>
   <time name="dav">    1.55    1.55</time>
   <time name="total">    1.98    1.99</time>
   <energy>
    <i name="e_fr_energy">    -78.19908944 </i>
    <i name="e_wo_entrp">    -78.19412830 </i>
    <i name="e_0_energy">    -78.19660887 </i>
   </energy>
  </scstep>
  <scstep>
   <time name="dav">    1.52    1.52</time>
   <time name="total">    1.95    1.96</time>
   <energy>
    <i name="e_fr_energy">    -78.19911499 </i>
    <i name="e_wo_entrp">    -78.19415422 </i>
    <i name="e_0_energy">    -78.19663460 </i>
   </energy>
  </scstep>
  <scstep>
   <time name="dav">    1.49    1.49</time>
   <time name="total">    1.92    1.93</time>
   <energy>
    <i name="e_fr_energy">    -78.19912420 </i>
    <i name="e_wo_entrp">    -78.19416790 </i>
    <i name="e_0_energy">    -78.19664605 </i>
   </energy>
  </scstep>
  <scstep>
   <time name="dav">    1.21    1.21</time>
   <time name="total">    1.64    1.65</time>
   <energy>
    <i name="e_fr_energy">    -78.19912610 </i>
    <i name="e_wo_entrp">    -78.19417122 </i>
    <i name="e_0_energy">    -78.19664866 </i>
   </energy>
  </scstep>
  <scstep>
   <time name="dav">    0.98    0.98</time>
   <time name="total">    1.42    1.48</time>
   <energy>
    <i name="e_fr_energy">    -78.19912738 </i>
    <i name="e_wo_entrp">    -78.19417377 </i>
    <i name="e_0_energy">    -78.19665058 </i>
   </energy>
  </scstep>
  <scstep>
   <time name="dav">    1.00    1.00</time>
   <time name="total">    1.18    1.20</time>
   <energy>
    <i name="alphaZ">    598.65364144 </i>
    <i name="ewald">  -8352.11771836 </i>
    <i name="hartreedc">  -4098.26969267 </i>
    <i name="XCdc">    543.20082550 </i>
    <i name="pawpsdc">  15511.81555850 </i>
    <i name="pawaedc"> -15876.91853152 </i>
    <i name="eentropy">     -0.00495144 </i>
    <i name="bandstr">   -799.56554173 </i>
    <i name="atom">  12395.00728236 </i>
    <i name="e_fr_energy">    -78.19912794 </i>
    <i name="e_wo_entrp">    -78.19417649 </i>
    <i name="e_0_energy">    -78.19665221 </i>
   </energy>
  </scstep>
  <structure>
   <crystal>
    <varray name="basis" >
     <v>       4.00000000       0.00000000       0.00000000 </v>
     <v>       0.00000000       4.00000000       0.00000000 </v>
     <v>       0.00000000       0.00000000      16.00000000 </v>
    </varray>
    <i name="volume">    256.00000000 </i>
    <varray name="rec_basis" >
     <v>       0.25000000       0.00000000       0.00000000 </v>
     <v>       0.00000000       0.25000000       0.00000000 </v>
     <v>       0.00000000       0.00000000       0.06250000 </v>
    </varray>
   </crystal>
   <varray name="positions" >
    <v>       0.00000000       0.00000000       0.75000000 </v>
    <v>       0.00000000       0.00000000       0.00000000 </v>
    <v>       0.00000000       0.00000000       0.25000000 </v>
    <v>       0.00000000       0.00000000       0.50000000 </v>
    <v>       0.50000000       0.50000000       0.87500000 </v>
    <v>       0.50000000       0.50000000       0.12500000 </v>
    <v>       0.50000000       0.50000000       0.37500000 </v>
    <v>       0.50000000       0.50000000       0.62500000 </v>
    <v>       0.50000000       0.50000000       0.00000000 </v>
    <v>       0.50000000       0.50000000       0.50000000 </v>
    <v>       0.00000000       0.50000000       0.12500000 </v>
    <v>       0.00000000       0.50000000       0.37500000 </v>
    <v>       0.00000000       0.50000000       0.62500000 </v>
    <v>       0.50000000       0.00000000       0.87500000 </v>
    <v>       0.50000000       0.00000000       0.37500000 </v>
    <v>       0.50000000       0.00000000       0.62500000 </v>
   </varray>
  </structure>
  <varray name="forces" >
   <v>       0.00000000       0.00000000      -1.72137293 </v>
   <v>       0.00000000       0.00000000       0.00000000 </v>
   <v>       0.00000000       0.00000000       1.72137293 </v>
   <v>       0.00000000       0.00000000       0.00000000 </v>
   <v>       0.00000000       0.00000000       0.38529214 </v>
   <v>       0.00000000       0.00000000      -0.38529214 </v>
   <v>       0.00000000       0.00000000       0.99419127 </v>
   <v>       0.00000000       0.00000000      -0.99419127 </v>
   <v>       0.00000000       0.00000000       0.00000000 </v>
   <v>       0.00000000       0.00000000       0.00000000 </v>
   <v>       0.00000000       0.00000000       1.11664285 </v>
   <v>       0.00000000       0.00000000      -1.34360720 </v>
   <v>       0.00000000       0.00000000       1.53076943 </v>
   <v>       0.00000000       0.00000000      -1.11664285 </v>
   <v>       0.00000000       0.00000000      -1.53076943 </v>
   <v>       0.00000000       0.00000000       1.34360720 </v>
  </varray>
  <varray name="stress" >
   <v>     -92.94630935       0.00000000       0.00000000 </v>
   <v>       0.00000000     -92.94630935       0.00000000 </v>
   <v>       0.00000000       0.00000000     -88.60629749 </v>
  </varray>
  <energy>
   <i name="e_fr_energy">    -78.19912794 </i>
   <i name="e_wo_entrp">    -78.19665221 </i>
   <i name="e_0_energy">     -0.00495144 </i>
  </energy>
  <time name="totalsc">   66.77   67.36</time>
  <eigenvalues>
   <array>
    <dimension dim="1">band</dimension>
    <dimension dim="2">kpoint</dimension>
    <dimension dim="3">spin</dimension>
    <field>eigene</field>
    <field>occ</field>
    <set>
     <set comment="spin 1">
      <set comment="kpoint 1">
       <r>  -32.0327    1.0000 </r>
       <r>  -32.0326    1.0000 </r>
       <r>  -31.5897    1.0000 </r>
       <r>  -29.8501    1.0000 </r>
       <r>  -15.1470    1.0000 </r>
       <r>  -15.0433    1.0000 </r>
       <r>  -14.7657    1.0000 </r>
       <r>  -14.6908    1.0000 </r>
       <r>  -14.0691    1.0000 </r>
       <r>  -14.0691    1.0000 </r>
       <r>  -13.9319    1.0000 </r>
       <r>  -13.9319    1.0000 </r>
       <r>  -13.8060    1.0000 </r>
       <r>  -13.6021    1.0000 </r>
       <r>  -13.5649    1.0000 </r>
       <r>  -13.4838    1.0000 </r>
       <r>  -13.4724    1.0000 </r>
       <r>  -13.4535    1.0000 </r>
       <r>  -13.4535    1.0000 </r>
       <r>  -13.3388    1.0000 </r>
       <r>  -13.1691    1.0000 </r>
       <r>  -11.7841    1.0000 </r>
       <r>  -11.7841    1.0000 </r>
       <r>  -11.6230    1.0000 </r>
       <r>   -1.9323    1.0000 </r>
       <r>   -1.8803    1.0000 </r>
       <r>   -1.0412    1.0000 </r>
       <r>   -1.0412    1.0000 </r>
       <r>   -0.9809    1.0000 </r>
       <r>   -0.9809    1.0000 </r>
       <r>   -0.8868    1.0000 </r>
       <r>   -0.8817    1.0000 </r>
       <r>   -0.8722    1.0000 </r>
       <r>   -0.8426    1.0000 </r>
       <r>   -0.8426    1.0000 </r>
       <r>   -0.7773    1.0000 </r>
       <r>   -0.7773    1.0000 </r>
       <r>   -0.7496    1.0000 </r>
       <r>   -0.7368    1.0000 </r>
       <r>   -0.7368    1.0000 </r>
       <r>   -0.5463    1.0000 </r>
       <r>   -0.5463    1.0000 </r>
       <r>   -0.4169    1.0000 </r>
       <r>   -0.3218    1.0000 </r>
       <r>   -0.3137    1.0000 </r>
       <r>   -0.2588    1.0000 </r>
       <r>   -0.2362    1.0000 </r>
       <r>   -0.2362    1.0000 </r>
       <r>   -0.0557    1.0000 </r>
       <r>   -0.0186    1.0000 </r>
       <r>   -0.0186    1.0000 </r>
       <r>    0.1426    1.0000 </r>
       <r>    0.1460    1.0000 </r>
       <r>    0.2297    1.0000 </r>
       <r>    0.4080    1.0000 </r>
       <r>    0.4880    1.0000 </r>
       <r>    1.0349    1.0000 </r>
       <r>    1.3238    1.0000 </r>
       <r>    1.6261    1.0000 </r>
       <r>    1.8148    1.0000 </r>
       <r>    1.8148    1.0000 </r>
       <r>    1.8289    1.0000 </r>
       <r>    1.8289    1.0000 </r>
       <r>    1.8849    1.0000 </r>
       <r>    1.8849    1.0000 </r>
       <r>    2.2480    1.0000 </r>
       <r>    2.3671    1.0000 </r>
       <r>    2.3671    1.0000 </r>
       <r>    2.5604    0.9849 </r>
       <r>    3.2466    0.0000 </r>
       <r>    5.0225    0.0000 </r>
       <r>    5.5983    0.0000 </r>
       <r>    6.7484    0.0000 </r>
       <r>    7.0931    0.0000 </r>
       <r>    7.2413    0.0000 </r>
       <r>    7.3633    0.0000 </r>
       <r>    8.1278    0.0000 </r>
       <r>    8.4967    0.0000 </r>
       <r>    8.6457    0.0000 </r>
       <r>    8.6457    0.0000 </r>
       <r>    9.0672    0.0000 </r>
       <r>    9.0885    0.0000 </r>
       <r>    9.0959    0.0000 </r>
       <r>    9.3311    0.0000 </r>
       <r>    9.3311    0.0000 </r>
       <r>    9.4819    0.0000 </r>
       <r>    9.4820    0.0000 </r>
       <r>    9.4892    0.0000 </r>
      </set>
      <set comment="kpoint 2">
       <r>  -32.0284    1.0000 </r>
       <r>  -32.0283    1.0000 </r>
       <r>  -31.5851    1.0000 </r>
       <r>  -29.8451    1.0000 </r>
       <r>  -15.0774    1.0000 </r>
       <r>  -14.9974    1.0000 </r>
       <r>  -14.7304    1.0000 </r>
       <r>  -14.6692    1.0000 </r>
       <r>  -14.1582    1.0000 </r>
       <r>  -14.1094    1.0000 </r>
       <r>  -14.0623    1.0000 </r>
       <r>  -13.9250    1.0000 </r>
       <r>  -13.9185    1.0000 </r>
       <r>  -13.7136    1.0000 </r>
       <r>  -13.5879    1.0000 </r>
       <r>  -13.4875    1.0000 </r>
       <r>  -13.4433    1.0000 </r>
       <r>  -13.4419    1.0000 </r>
       <r>  -13.3862    1.0000 </r>
       <r>  -13.2139    1.0000 </r>
       <r>  -13.1250    1.0000 </r>
       <r>  -11.7708    1.0000 </r>
       <r>  -11.6595    1.0000 </r>
       <r>  -11.6509    1.0000 </r>
       <r>   -2.0347    1.0000 </r>
       <r>   -1.9298    1.0000 </r>
       <r>   -1.7823    1.0000 </r>
       <r>   -1.7452    1.0000 </r>
       <r>   -1.6881    1.0000 </r>
       <r>   -1.4074    1.0000 </r>
       <r>   -1.2268    1.0000 </r>
       <r>   -1.1719    1.0000 </r>
       <r>   -1.1479    1.0000 </r>
       <r>   -1.0439    1.0000 </r>
       <r>   -1.0419    1.0000 </r>
       <r>   -0.9988    1.0000 </r>
       <r>   -0.8695    1.0000 </r>
       <r>   -0.8125    1.0000 </r>
       <r>   -0.5825    1.0000 </r>
       <r>   -0.5691    1.0000 </r>
       <r>   -0.5511    1.0000 </r>
       <r>   -0.4522    1.0000 </r>
       <r>   -0.4520    1.0000 </r>
       <r>   -0.3817    1.0000 </r>
       <r>   -0.3351    1.0000 </r>
       <r>   -0.3160    1.0000 </r>
       <r>   -0.2338    1.0000 </r>
       <r>   -0.1740    1.0000 </r>
       <r>   -0.0227    1.0000 </r>
       <r>    0.1392    1.0000 </r>
       <r>    0.4160    1.0000 </r>
       <r>    0.5308    1.0000 </r>
       <r>    0.6449    1.0000 </r>
       <r>    0.6609    1.0000 </r>
       <r>    0.7382    1.0000 </r>
       <r>    0.8413    1.0000 </r>
       <r>    1.1482    1.0000 </r>
       <r>    1.4145    1.0000 </r>
       <r>    1.4707    1.0000 </r>
       <r>    1.5345    1.0000 </r>
       <r>    1.6928    1.0000 </r>
       <r>    1.7914    1.0000 </r>
       <r>    1.8062    1.0000 </r>
       <r>    1.8794    1.0000 </r>
       <r>    2.0285    1.0000 </r>
       <r>    2.1704    1.0000 </r>
       <r>    2.2682    1.0000 </r>
       <r>    2.8609    0.0000 </r>
       <r>    3.2890    0.0000 </r>
       <r>    3.6704    0.0000 </r>
       <r>    5.4945    0.0000 </r>
       <r>    5.8882    0.0000 </r>
       <r>    6.8332    0.0000 </r>
       <r>    7.2583    0.0000 </r>
       <r>    7.5165    0.0000 </r>
       <r>    7.6470    0.0000 </r>
       <r>    8.1371    0.0000 </r>
       <r>    8.2297    0.0000 </r>
       <r>    8.3910    0.0000 </r>
       <r>    8.5119    0.0000 </r>
       <r>    8.6276    0.0000 </r>
       <r>    9.0573    0.0000 </r>
       <r>    9.1928    0.0000 </r>
       <r>    9.3889    0.0000 </r>
       <r>    9.5148    0.0000 </r>
       <r>    9.6728    0.0000 </r>
       <r>    9.6728    0.0000 </r>
       <r>   10.0104    0.0000 </r>
      </set>
      <set comment="kpoint 3">
       <r>  -32.0215    1.0000 </r>
       <r>  -32.0214    1.0000 </r>
       <r>  -31.5778    1.0000 </r>
       <r>  -29.8369    1.0000 </r>
       <r>  -15.1145    1.0000 </r>
       <r>  -14.8728    1.0000 </r>
       <r>  -14.6431    1.0000 </r>
       <r>  -14.5327    1.0000 </r>
       <r>  -14.3416    1.0000 </r>
       <r>  -14.1799    1.0000 </r>
       <r>  -14.0513    1.0000 </r>
       <r>  -14.0416    1.0000 </r>
       <r>  -13.9138    1.0000 </r>
       <r>  -13.9099    1.0000 </r>
       <r>  -13.5996    1.0000 </r>
       <r>  -13.5428    1.0000 </r>
       <r>  -13.4668    1.0000 </r>
       <r>  -13.4230    1.0000 </r>
       <r>  -13.3304    1.0000 </r>
       <r>  -13.2555    1.0000 </r>
       <r>  -12.8688    1.0000 </r>
       <r>  -11.7490    1.0000 </r>
       <r>  -11.6901    1.0000 </r>
       <r>  -11.4978    1.0000 </r>
       <r>   -2.9421    1.0000 </r>
       <r>   -2.6087    1.0000 </r>
       <r>   -2.5431    1.0000 </r>
       <r>   -1.9165    1.0000 </r>
       <r>   -1.8528    1.0000 </r>
       <r>   -1.7916    1.0000 </r>
       <r>   -1.6705    1.0000 </r>
       <r>   -1.3724    1.0000 </r>
       <r>   -1.3264    1.0000 </r>
       <r>   -1.3143    1.0000 </r>
       <r>   -1.2244    1.0000 </r>
       <r>   -1.0963    1.0000 </r>
       <r>   -1.0492    1.0000 </r>
       <r>   -0.8149    1.0000 </r>
       <r>   -0.6306    1.0000 </r>
       <r>   -0.5826    1.0000 </r>
       <r>   -0.4830    1.0000 </r>
       <r>   -0.4247    1.0000 </r>
       <r>   -0.3709    1.0000 </r>
       <r>   -0.3013    1.0000 </r>
       <r>   -0.2500    1.0000 </r>
       <r>   -0.2436    1.0000 </r>
       <r>   -0.1960    1.0000 </r>
       <r>   -0.0986    1.0000 </r>
       <r>    0.0759    1.0000 </r>
       <r>    0.2992    1.0000 </r>
       <r>    0.6075    1.0000 </r>
       <r>    0.6997    1.0000 </r>
       <r>    0.9057    1.0000 </r>
       <r>    1.0355    1.0000 </r>
       <r>    1.0865    1.0000 </r>
       <r>    1.1621    1.0000 </r>
       <r>    1.2497    1.0000 </r>
       <r>    1.2593    1.0000 </r>
       <r>    1.3775    1.0000 </r>
       <r>    1.5030    1.0000 </r>
       <r>    1.6503    1.0000 </r>
       <r>    1.7699    1.0000 </r>
       <r>    1.9091    1.0000 </r>
       <r>    1.9208    1.0000 </r>
       <r>    2.0952    1.0000 </r>
       <r>    2.1196    1.0000 </r>
       <r>    2.2292    1.0000 </r>
       <r>    3.2090    0.0000 </r>
       <r>    4.1505    0.0000 </r>
       <r>    5.0480    0.0000 </r>
       <r>    5.5076    0.0000 </r>
       <r>    6.4144    0.0000 </r>
       <r>    6.6679    0.0000 </r>
       <r>    7.2256    0.0000 </r>
       <r>    7.3033    0.0000 </r>
       <r>    7.3421    0.0000 </r>
       <r>    7.8819    0.0000 </r>
       <r>    8.0039    0.0000 </r>
       <r>    8.2569    0.0000 </r>
       <r>    8.5918    0.0000 </r>
       <r>    8.7999    0.0000 </r>
       <r>    9.4713    0.0000 </r>
       <r>    9.6262    0.0000 </r>
       <r>    9.9241    0.0000 </r>
       <r>    9.9315    0.0000 </r>
       <r>   10.2207    0.0000 </r>
       <r>   10.4144    0.0000 </r>
       <r>   10.4159    0.0000 </r>
      </set>
      <set comment="kpoint 4">
       <r>  -32.0242    1.0000 </r>
       <r>  -32.0241    1.0000 </r>
       <r>  -31.5808    1.0000 </r>
       <r>  -29.8402    1.0000 </r>
       <r>  -15.0011    1.0000 </r>
       <r>  -14.9616    1.0000 </r>
       <r>  -14.6723    1.0000 </r>
       <r>  -14.6444    1.0000 </r>
       <r>  -14.1887    1.0000 </r>
       <r>  -14.1862    1.0000 </r>
       <r>  -14.1403    1.0000 </r>
       <r>  -13.9504    1.0000 </r>
       <r>  -13.8817    1.0000 </r>
       <r>  -13.6711    1.0000 </r>
       <r>  -13.5915    1.0000 </r>
       <r>  -13.5704    1.0000 </r>
       <r>  -13.5057    1.0000 </r>
       <r>  -13.4520    1.0000 </r>
       <r>  -13.3331    1.0000 </r>
       <r>  -13.2387    1.0000 </r>
       <r>  -13.0633    1.0000 </r>
       <r>  -11.7756    1.0000 </r>
       <r>  -11.6892    1.0000 </r>
       <r>  -11.6139    1.0000 </r>
       <r>   -2.0650    1.0000 </r>
       <r>   -1.9331    1.0000 </r>
       <r>   -1.8970    1.0000 </r>
       <r>   -1.7907    1.0000 </r>
       <r>   -1.7405    1.0000 </r>
       <r>   -1.7190    1.0000 </r>
       <r>   -1.6768    1.0000 </r>
       <r>   -1.6707    1.0000 </r>
       <r>   -1.4229    1.0000 </r>
       <r>   -1.2577    1.0000 </r>
       <r>   -1.2167    1.0000 </r>
       <r>   -1.2070    1.0000 </r>
       <r>   -1.1797    1.0000 </r>
       <r>   -1.1639    1.0000 </r>
       <r>   -1.0367    1.0000 </r>
       <r>   -0.9927    1.0000 </r>
       <r>   -0.9864    1.0000 </r>
       <r>   -0.9191    1.0000 </r>
       <r>   -0.4145    1.0000 </r>
       <r>   -0.3910    1.0000 </r>
       <r>   -0.2369    1.0000 </r>
       <r>   -0.1647    1.0000 </r>
       <r>   -0.1289    1.0000 </r>
       <r>    0.2744    1.0000 </r>
       <r>    0.3686    1.0000 </r>
       <r>    0.5503    1.0000 </r>
       <r>    0.6236    1.0000 </r>
       <r>    0.7078    1.0000 </r>
       <r>    0.9406    1.0000 </r>
       <r>    0.9764    1.0000 </r>
       <r>    1.2209    1.0000 </r>
       <r>    1.2531    1.0000 </r>
       <r>    1.2949    1.0000 </r>
       <r>    1.3085    1.0000 </r>
       <r>    1.3143    1.0000 </r>
       <r>    1.3882    1.0000 </r>
       <r>    1.4840    1.0000 </r>
       <r>    1.6506    1.0000 </r>
       <r>    1.8638    1.0000 </r>
       <r>    2.1558    1.0000 </r>
       <r>    2.4357    1.0000 </r>
       <r>    2.5991    0.8585 </r>
       <r>    2.7975    0.0000 </r>
       <r>    2.8320    0.0000 </r>
       <r>    3.8394    0.0000 </r>
       <r>    3.8549    0.0000 </r>
       <r>    5.7563    0.0000 </r>
       <r>    5.9786    0.0000 </r>
       <r>    6.8800    0.0000 </r>
       <r>    7.2826    0.0000 </r>
       <r>    7.5629    0.0000 </r>
       <r>    7.7298    0.0000 </r>
       <r>    7.7452    0.0000 </r>
       <r>    7.9868    0.0000 </r>
       <r>    8.3340    0.0000 </r>
       <r>    8.3520    0.0000 </r>
       <r>    8.5558    0.0000 </r>
       <r>    8.9637    0.0000 </r>
       <r>    9.3080    0.0000 </r>
       <r>    9.4976    0.0000 </r>
       <r>    9.8264    0.0000 </r>
       <r>   10.1917    0.0000 </r>
       <r>   10.2358    0.0000 </r>
       <r>   10.3350    0.0000 </r>
      </set>
      <set comment="kpoint 5">
       <r>  -32.0173    1.0000 </r>
       <r>  -32.0172    1.0000 </r>
       <r>  -31.5736    1.0000 </r>
       <r>  -29.8323    1.0000 </r>
       <r>  -15.0256    1.0000 </r>
       <r>  -14.8414    1.0000 </r>
       <r>  -14.5880    1.0000 </r>
       <r>  -14.4794    1.0000 </r>
       <r>  -14.3180    1.0000 </r>
       <r>  -14.2649    1.0000 </r>
       <r>  -14.1377    1.0000 </r>
       <r>  -13.9675    1.0000 </r>
       <r>  -13.8591    1.0000 </r>
       <r>  -13.8286    1.0000 </r>
       <r>  -13.6096    1.0000 </r>
       <r>  -13.5621    1.0000 </r>
       <r>  -13.4683    1.0000 </r>
       <r>  -13.4489    1.0000 </r>
       <r>  -13.3665    1.0000 </r>
       <r>  -13.2658    1.0000 </r>
       <r>  -13.0026    1.0000 </r>
       <r>  -11.7623    1.0000 </r>
       <r>  -11.7460    1.0000 </r>
       <r>  -11.5816    1.0000 </r>
       <r>   -2.9127    1.0000 </r>
       <r>   -2.6339    1.0000 </r>
       <r>   -2.5680    1.0000 </r>
       <r>   -1.9556    1.0000 </r>
       <r>   -1.8941    1.0000 </r>
       <r>   -1.7682    1.0000 </r>
       <r>   -1.7431    1.0000 </r>
       <r>   -1.6797    1.0000 </r>
       <r>   -1.6474    1.0000 </r>
       <r>   -1.5929    1.0000 </r>
       <r>   -1.5465    1.0000 </r>
       <r>   -1.4794    1.0000 </r>
       <r>   -1.3633    1.0000 </r>
       <r>   -1.2856    1.0000 </r>
       <r>   -1.2712    1.0000 </r>
       <r>   -1.0899    1.0000 </r>
       <r>   -1.0622    1.0000 </r>
       <r>   -1.0379    1.0000 </r>
       <r>   -0.4800    1.0000 </r>
       <r>   -0.4105    1.0000 </r>
       <r>   -0.1835    1.0000 </r>
       <r>    0.0200    1.0000 </r>
       <r>    0.1054    1.0000 </r>
       <r>    0.3171    1.0000 </r>
       <r>    0.5741    1.0000 </r>
       <r>    0.7506    1.0000 </r>
       <r>    0.9432    1.0000 </r>
       <r>    1.0132    1.0000 </r>
       <r>    1.1299    1.0000 </r>
       <r>    1.1977    1.0000 </r>
       <r>    1.2247    1.0000 </r>
       <r>    1.2524    1.0000 </r>
       <r>    1.3193    1.0000 </r>
       <r>    1.3719    1.0000 </r>
       <r>    1.5039    1.0000 </r>
       <r>    1.6390    1.0000 </r>
       <r>    1.8081    1.0000 </r>
       <r>    1.9221    1.0000 </r>
       <r>    1.9849    1.0000 </r>
       <r>    2.2398    1.0000 </r>
       <r>    2.4283    1.0000 </r>
       <r>    2.5930    0.8935 </r>
       <r>    3.1150    0.0000 </r>
       <r>    3.2603    0.0000 </r>
       <r>    4.3744    0.0000 </r>
       <r>    4.9618    0.0000 </r>
       <r>    5.3044    0.0000 </r>
       <r>    5.7876    0.0000 </r>
       <r>    7.0104    0.0000 </r>
       <r>    7.2703    0.0000 </r>
       <r>    7.3762    0.0000 </r>
       <r>    7.7687    0.0000 </r>
       <r>    8.0596    0.0000 </r>
       <r>    8.4244    0.0000 </r>
       <r>    8.5514    0.0000 </r>
       <r>    8.6267    0.0000 </r>
       <r>    8.9965    0.0000 </r>
       <r>    9.3608    0.0000 </r>
       <r>    9.5565    0.0000 </r>
       <r>    9.6749    0.0000 </r>
       <r>   10.0598    0.0000 </r>
       <r>   10.3622    0.0000 </r>
       <r>   10.5597    0.0000 </r>
       <r>   10.7291    0.0000 </r>
      </set>
      <set comment="kpoint 6">
       <r>  -32.0105    1.0000 </r>
       <r>  -32.0105    1.0000 </r>
       <r>  -31.5669    1.0000 </r>
       <r>  -29.8248    1.0000 </r>
       <r>  -14.8756    1.0000 </r>
       <r>  -14.8675    1.0000 </r>
       <r>  -14.4936    1.0000 </r>
       <r>  -14.4808    1.0000 </r>
       <r>  -14.2651    1.0000 </r>
       <r>  -14.2434    1.0000 </r>
       <r>  -14.0108    1.0000 </r>
       <r>  -13.9082    1.0000 </r>
       <r>  -13.8070    1.0000 </r>
       <r>  -13.7253    1.0000 </r>
       <r>  -13.6805    1.0000 </r>
       <r>  -13.6191    1.0000 </r>
       <r>  -13.5188    1.0000 </r>
       <r>  -13.4682    1.0000 </r>
       <r>  -13.3534    1.0000 </r>
       <r>  -13.3469    1.0000 </r>
       <r>  -13.2570    1.0000 </r>
       <r>  -11.8423    1.0000 </r>
       <r>  -11.7757    1.0000 </r>
       <r>  -11.7224    1.0000 </r>
       <r>   -2.9635    1.0000 </r>
       <r>   -2.8682    1.0000 </r>
       <r>   -2.8457    1.0000 </r>
       <r>   -2.7751    1.0000 </r>
       <r>   -2.3746    1.0000 </r>
       <r>   -2.3691    1.0000 </r>
       <r>   -2.0185    1.0000 </r>
       <r>   -1.8775    1.0000 </r>
       <r>   -1.8621    1.0000 </r>
       <r>   -1.7702    1.0000 </r>
       <r>   -1.6003    1.0000 </r>
       <r>   -1.5406    1.0000 </r>
       <r>   -1.5377    1.0000 </r>
       <r>   -1.4259    1.0000 </r>
       <r>   -1.4152    1.0000 </r>
       <r>   -1.3695    1.0000 </r>
       <r>   -1.3342    1.0000 </r>
       <r>   -1.3147    1.0000 </r>
       <r>   -0.4722    1.0000 </r>
       <r>   -0.4537    1.0000 </r>
       <r>   -0.0579    1.0000 </r>
       <r>    0.1835    1.0000 </r>
       <r>    0.2300    1.0000 </r>
       <r>    0.9018    1.0000 </r>
       <r>    1.0987    1.0000 </r>
       <r>    1.1018    1.0000 </r>
       <r>    1.1182    1.0000 </r>
       <r>    1.2420    1.0000 </r>
       <r>    1.3214    1.0000 </r>
       <r>    1.3408    1.0000 </r>
       <r>    1.3574    1.0000 </r>
       <r>    1.4272    1.0000 </r>
       <r>    1.4432    1.0000 </r>
       <r>    1.4864    1.0000 </r>
       <r>    1.4986    1.0000 </r>
       <r>    1.6094    1.0000 </r>
       <r>    2.1286    1.0000 </r>
       <r>    2.1999    1.0000 </r>
       <r>    2.2456    1.0000 </r>
       <r>    2.4798    1.0000 </r>
       <r>    2.5081    0.9999 </r>
       <r>    2.9255    0.0000 </r>
       <r>    4.0351    0.0000 </r>
       <r>    4.0630    0.0000 </r>
       <r>    4.3808    0.0000 </r>
       <r>    4.4637    0.0000 </r>
       <r>    4.9374    0.0000 </r>
       <r>    5.3263    0.0000 </r>
       <r>    7.7434    0.0000 </r>
       <r>    8.0601    0.0000 </r>
       <r>    8.1011    0.0000 </r>
       <r>    8.5095    0.0000 </r>
       <r>    8.6711    0.0000 </r>
       <r>    8.7834    0.0000 </r>
       <r>    8.8679    0.0000 </r>
       <r>    8.8931    0.0000 </r>
       <r>    9.1751    0.0000 </r>
       <r>    9.3112    0.0000 </r>
       <r>    9.4866    0.0000 </r>
       <r>    9.9219    0.0000 </r>
       <r>   10.0720    0.0000 </r>
       <r>   10.2779    0.0000 </r>
       <r>   10.4786    0.0000 </r>
       <r>   10.6423    0.0000 </r>
      </set>
     </set>
     <set comment="spin 2">
      <set comment="kpoint 1">
       <r>  -32.0337    1.0000 </r>
       <r>  -32.0336    1.0000 </r>
       <r>  -31.5905    1.0000 </r>
       <r>  -29.8507    1.0000 </r>
       <r>  -15.1277    1.0000 </r>
       <r>  -15.0193    1.0000 </r>
       <r>  -14.7274    1.0000 </r>
       <r>  -14.6529    1.0000 </r>
       <r>  -14.0705    1.0000 </r>
       <r>  -14.0705    1.0000 </r>
       <r>  -13.9334    1.0000 </r>
       <r>  -13.9334    1.0000 </r>
       <r>  -13.7472    1.0000 </r>
       <r>  -13.5945    1.0000 </r>
       <r>  -13.5460    1.0000 </r>
       <r>  -13.4546    1.0000 </r>
       <r>  -13.4546    1.0000 </r>
       <r>  -13.4131    1.0000 </r>
       <r>  -13.4005    1.0000 </r>
       <r>  -13.3303    1.0000 </r>
       <r>  -13.1626    1.0000 </r>
       <r>  -11.7847    1.0000 </r>
       <r>  -11.7847    1.0000 </r>
       <r>  -11.6181    1.0000 </r>
       <r>   -1.8623    1.0000 </r>
       <r>   -1.7338    1.0000 </r>
       <r>   -0.9914    1.0000 </r>
       <r>   -0.9914    1.0000 </r>
       <r>   -0.9541    1.0000 </r>
       <r>   -0.9541    1.0000 </r>
       <r>   -0.8277    1.0000 </r>
       <r>   -0.8260    1.0000 </r>
       <r>   -0.8209    1.0000 </r>
       <r>   -0.7817    1.0000 </r>
       <r>   -0.7817    1.0000 </r>
       <r>   -0.7276    1.0000 </r>
       <r>   -0.7138    1.0000 </r>
       <r>   -0.7138    1.0000 </r>
       <r>   -0.6761    1.0000 </r>
       <r>   -0.6761    1.0000 </r>
       <r>   -0.5129    1.0000 </r>
       <r>   -0.5129    1.0000 </r>
       <r>   -0.3865    1.0000 </r>
       <r>   -0.2903    1.0000 </r>
       <r>   -0.2821    1.0000 </r>
       <r>   -0.2288    1.0000 </r>
       <r>   -0.2023    1.0000 </r>
       <r>   -0.2023    1.0000 </r>
       <r>   -0.0081    1.0000 </r>
       <r>   -0.0081    1.0000 </r>
       <r>    0.0345    1.0000 </r>
       <r>    0.2738    1.0000 </r>
       <r>    0.4612    1.0000 </r>
       <r>    0.6126    1.0000 </r>
       <r>    0.6135    1.0000 </r>
       <r>    0.7030    1.0000 </r>
       <r>    1.0602    1.0000 </r>
       <r>    1.3511    1.0000 </r>
       <r>    1.8127    1.0000 </r>
       <r>    1.8570    1.0000 </r>
       <r>    1.8570    1.0000 </r>
       <r>    1.8819    1.0000 </r>
       <r>    1.8819    1.0000 </r>
       <r>    1.9355    1.0000 </r>
       <r>    1.9355    1.0000 </r>
       <r>    2.3119    1.0000 </r>
       <r>    2.3676    1.0000 </r>
       <r>    2.3676    1.0000 </r>
       <r>    2.5863    0.9246 </r>
       <r>    3.2707    0.0000 </r>
       <r>    5.0220    0.0000 </r>
       <r>    5.6127    0.0000 </r>
       <r>    6.7500    0.0000 </r>
       <r>    7.0983    0.0000 </r>
       <r>    7.2399    0.0000 </r>
       <r>    7.3679    0.0000 </r>
       <r>    8.1363    0.0000 </r>
       <r>    8.5032    0.0000 </r>
       <r>    8.6465    0.0000 </r>
       <r>    8.6465    0.0000 </r>
       <r>    9.0672    0.0000 </r>
       <r>    9.0846    0.0000 </r>
       <r>    9.0919    0.0000 </r>
       <r>    9.3315    0.0000 </r>
       <r>    9.3315    0.0000 </r>
       <r>    9.4833    0.0000 </r>
       <r>    9.4879    0.0000 </r>
       <r>    9.4939    0.0000 </r>
      </set>
      <set comment="kpoint 2">
       <r>  -32.0294    1.0000 </r>
       <r>  -32.0293    1.0000 </r>
       <r>  -31.5860    1.0000 </r>
       <r>  -29.8457    1.0000 </r>
       <r>  -15.0593    1.0000 </r>
       <r>  -14.9749    1.0000 </r>
       <r>  -14.6952    1.0000 </r>
       <r>  -14.6337    1.0000 </r>
       <r>  -14.1520    1.0000 </r>
       <r>  -14.0776    1.0000 </r>
       <r>  -14.0637    1.0000 </r>
       <r>  -13.9265    1.0000 </r>
       <r>  -13.9005    1.0000 </r>
       <r>  -13.7017    1.0000 </r>
       <r>  -13.5773    1.0000 </r>
       <r>  -13.4430    1.0000 </r>
       <r>  -13.4373    1.0000 </r>
       <r>  -13.3939    1.0000 </r>
       <r>  -13.3643    1.0000 </r>
       <r>  -13.2036    1.0000 </r>
       <r>  -13.0939    1.0000 </r>
       <r>  -11.7713    1.0000 </r>
       <r>  -11.6598    1.0000 </r>
       <r>  -11.6464    1.0000 </r>
       <r>   -1.9694    1.0000 </r>
       <r>   -1.8683    1.0000 </r>
       <r>   -1.6403    1.0000 </r>
       <r>   -1.5775    1.0000 </r>
       <r>   -1.5161    1.0000 </r>
       <r>   -1.3520    1.0000 </r>
       <r>   -1.1868    1.0000 </r>
       <r>   -1.1156    1.0000 </r>
       <r>   -1.0929    1.0000 </r>
       <r>   -0.9929    1.0000 </r>
       <r>   -0.9898    1.0000 </r>
       <r>   -0.9716    1.0000 </r>
       <r>   -0.8456    1.0000 </r>
       <r>   -0.7532    1.0000 </r>
       <r>   -0.5451    1.0000 </r>
       <r>   -0.5291    1.0000 </r>
       <r>   -0.4913    1.0000 </r>
       <r>   -0.4210    1.0000 </r>
       <r>   -0.3840    1.0000 </r>
       <r>   -0.3368    1.0000 </r>
       <r>   -0.3030    1.0000 </r>
       <r>   -0.2760    1.0000 </r>
       <r>   -0.1998    1.0000 </r>
       <r>   -0.1202    1.0000 </r>
       <r>    0.0074    1.0000 </r>
       <r>    0.2295    1.0000 </r>
       <r>    0.5311    1.0000 </r>
       <r>    0.6598    1.0000 </r>
       <r>    0.6648    1.0000 </r>
       <r>    0.8632    1.0000 </r>
       <r>    0.9305    1.0000 </r>
       <r>    0.9825    1.0000 </r>
       <r>    1.1783    1.0000 </r>
       <r>    1.4474    1.0000 </r>
       <r>    1.5215    1.0000 </r>
       <r>    1.6321    1.0000 </r>
       <r>    1.7331    1.0000 </r>
       <r>    1.8590    1.0000 </r>
       <r>    1.9021    1.0000 </r>
       <r>    1.9235    1.0000 </r>
       <r>    2.1150    1.0000 </r>
       <r>    2.2667    1.0000 </r>
       <r>    2.2735    1.0000 </r>
       <r>    2.9473    0.0000 </r>
       <r>    3.3231    0.0000 </r>
       <r>    3.7036    0.0000 </r>
       <r>    5.4955    0.0000 </r>
       <r>    5.8979    0.0000 </r>
       <r>    6.8359    0.0000 </r>
       <r>    7.2639    0.0000 </r>
       <r>    7.5213    0.0000 </r>
       <r>    7.6496    0.0000 </r>
       <r>    8.1337    0.0000 </r>
       <r>    8.2369    0.0000 </r>
       <r>    8.3987    0.0000 </r>
       <r>    8.5085    0.0000 </r>
       <r>    8.6279    0.0000 </r>
       <r>    9.0598    0.0000 </r>
       <r>    9.1973    0.0000 </r>
       <r>    9.3887    0.0000 </r>
       <r>    9.5168    0.0000 </r>
       <r>    9.6742    0.0000 </r>
       <r>    9.6759    0.0000 </r>
       <r>   10.0142    0.0000 </r>
      </set>
      <set comment="kpoint 3">
       <r>  -32.0224    1.0000 </r>
       <r>  -32.0224    1.0000 </r>
       <r>  -31.5787    1.0000 </r>
       <r>  -29.8375    1.0000 </r>
       <r>  -15.0927    1.0000 </r>
       <r>  -14.8571    1.0000 </r>
       <r>  -14.6184    1.0000 </r>
       <r>  -14.5044    1.0000 </r>
       <r>  -14.3102    1.0000 </r>
       <r>  -14.1604    1.0000 </r>
       <r>  -14.0527    1.0000 </r>
       <r>  -14.0148    1.0000 </r>
       <r>  -13.9153    1.0000 </r>
       <r>  -13.8936    1.0000 </r>
       <r>  -13.5657    1.0000 </r>
       <r>  -13.5344    1.0000 </r>
       <r>  -13.4337    1.0000 </r>
       <r>  -13.4241    1.0000 </r>
       <r>  -13.3037    1.0000 </r>
       <r>  -13.2371    1.0000 </r>
       <r>  -12.8300    1.0000 </r>
       <r>  -11.7495    1.0000 </r>
       <r>  -11.6855    1.0000 </r>
       <r>  -11.4988    1.0000 </r>
       <r>   -2.8808    1.0000 </r>
       <r>   -2.4036    1.0000 </r>
       <r>   -2.3373    1.0000 </r>
       <r>   -1.8414    1.0000 </r>
       <r>   -1.7675    1.0000 </r>
       <r>   -1.6922    1.0000 </r>
       <r>   -1.6296    1.0000 </r>
       <r>   -1.3204    1.0000 </r>
       <r>   -1.2753    1.0000 </r>
       <r>   -1.2653    1.0000 </r>
       <r>   -1.1968    1.0000 </r>
       <r>   -1.0492    1.0000 </r>
       <r>   -1.0215    1.0000 </r>
       <r>   -0.7550    1.0000 </r>
       <r>   -0.6200    1.0000 </r>
       <r>   -0.5492    1.0000 </r>
       <r>   -0.4518    1.0000 </r>
       <r>   -0.3594    1.0000 </r>
       <r>   -0.3373    1.0000 </r>
       <r>   -0.2702    1.0000 </r>
       <r>   -0.2035    1.0000 </r>
       <r>   -0.1544    1.0000 </r>
       <r>   -0.1267    1.0000 </r>
       <r>   -0.0050    1.0000 </r>
       <r>    0.1225    1.0000 </r>
       <r>    0.3600    1.0000 </r>
       <r>    0.7632    1.0000 </r>
       <r>    0.7967    1.0000 </r>
       <r>    0.9589    1.0000 </r>
       <r>    1.1092    1.0000 </r>
       <r>    1.1330    1.0000 </r>
       <r>    1.2043    1.0000 </r>
       <r>    1.2730    1.0000 </r>
       <r>    1.3918    1.0000 </r>
       <r>    1.4935    1.0000 </r>
       <r>    1.5402    1.0000 </r>
       <r>    1.6825    1.0000 </r>
       <r>    1.8220    1.0000 </r>
       <r>    1.9504    1.0000 </r>
       <r>    2.1003    1.0000 </r>
       <r>    2.1124    1.0000 </r>
       <r>    2.1611    1.0000 </r>
       <r>    2.3934    1.0000 </r>
       <r>    3.3054    0.0000 </r>
       <r>    4.1718    0.0000 </r>
       <r>    5.1025    0.0000 </r>
       <r>    5.5184    0.0000 </r>
       <r>    6.4159    0.0000 </r>
       <r>    6.6724    0.0000 </r>
       <r>    7.2298    0.0000 </r>
       <r>    7.3002    0.0000 </r>
       <r>    7.3498    0.0000 </r>
       <r>    7.8791    0.0000 </r>
       <r>    8.0196    0.0000 </r>
       <r>    8.2680    0.0000 </r>
       <r>    8.5916    0.0000 </r>
       <r>    8.8058    0.0000 </r>
       <r>    9.4706    0.0000 </r>
       <r>    9.6281    0.0000 </r>
       <r>    9.9240    0.0000 </r>
       <r>    9.9329    0.0000 </r>
       <r>   10.2246    0.0000 </r>
       <r>   10.4184    0.0000 </r>
       <r>   10.4204    0.0000 </r>
      </set>
      <set comment="kpoint 4">
       <r>  -32.0251    1.0000 </r>
       <r>  -32.0251    1.0000 </r>
       <r>  -31.5816    1.0000 </r>
       <r>  -29.8408    1.0000 </r>
       <r>  -14.9849    1.0000 </r>
       <r>  -14.9396    1.0000 </r>
       <r>  -14.6407    1.0000 </r>
       <r>  -14.6103    1.0000 </r>
       <r>  -14.1823    1.0000 </r>
       <r>  -14.1787    1.0000 </r>
       <r>  -14.1051    1.0000 </r>
       <r>  -13.9457    1.0000 </r>
       <r>  -13.8732    1.0000 </r>
       <r>  -13.6665    1.0000 </r>
       <r>  -13.5868    1.0000 </r>
       <r>  -13.5559    1.0000 </r>
       <r>  -13.4593    1.0000 </r>
       <r>  -13.3966    1.0000 </r>
       <r>  -13.3274    1.0000 </r>
       <r>  -13.2268    1.0000 </r>
       <r>  -13.0301    1.0000 </r>
       <r>  -11.7732    1.0000 </r>
       <r>  -11.6853    1.0000 </r>
       <r>  -11.6155    1.0000 </r>
       <r>   -2.0098    1.0000 </r>
       <r>   -1.8827    1.0000 </r>
       <r>   -1.8360    1.0000 </r>
       <r>   -1.7232    1.0000 </r>
       <r>   -1.6291    1.0000 </r>
       <r>   -1.5855    1.0000 </r>
       <r>   -1.4358    1.0000 </r>
       <r>   -1.4088    1.0000 </r>
       <r>   -1.3765    1.0000 </r>
       <r>   -1.2056    1.0000 </r>
       <r>   -1.1849    1.0000 </r>
       <r>   -1.1409    1.0000 </r>
       <r>   -1.1335    1.0000 </r>
       <r>   -1.1065    1.0000 </r>
       <r>   -0.9883    1.0000 </r>
       <r>   -0.9560    1.0000 </r>
       <r>   -0.9434    1.0000 </r>
       <r>   -0.8953    1.0000 </r>
       <r>   -0.3827    1.0000 </r>
       <r>   -0.3586    1.0000 </r>
       <r>   -0.2005    1.0000 </r>
       <r>   -0.1353    1.0000 </r>
       <r>   -0.0503    1.0000 </r>
       <r>    0.3082    1.0000 </r>
       <r>    0.4363    1.0000 </r>
       <r>    0.5955    1.0000 </r>
       <r>    0.6448    1.0000 </r>
       <r>    0.7468    1.0000 </r>
       <r>    0.9959    1.0000 </r>
       <r>    1.0935    1.0000 </r>
       <r>    1.2825    1.0000 </r>
       <r>    1.3416    1.0000 </r>
       <r>    1.3456    1.0000 </r>
       <r>    1.3889    1.0000 </r>
       <r>    1.4381    1.0000 </r>
       <r>    1.4390    1.0000 </r>
       <r>    1.5347    1.0000 </r>
       <r>    1.6923    1.0000 </r>
       <r>    1.8490    1.0000 </r>
       <r>    2.1682    1.0000 </r>
       <r>    2.5932    0.8925 </r>
       <r>    2.7947    0.0000 </r>
       <r>    2.8936    0.0000 </r>
       <r>    2.9573    0.0000 </r>
       <r>    3.8650    0.0000 </r>
       <r>    3.8889    0.0000 </r>
       <r>    5.7569    0.0000 </r>
       <r>    5.9873    0.0000 </r>
       <r>    6.8797    0.0000 </r>
       <r>    7.2857    0.0000 </r>
       <r>    7.5640    0.0000 </r>
       <r>    7.7303    0.0000 </r>
       <r>    7.7471    0.0000 </r>
       <r>    7.9906    0.0000 </r>
       <r>    8.3407    0.0000 </r>
       <r>    8.3541    0.0000 </r>
       <r>    8.5589    0.0000 </r>
       <r>    8.9691    0.0000 </r>
       <r>    9.3100    0.0000 </r>
       <r>    9.5008    0.0000 </r>
       <r>    9.8294    0.0000 </r>
       <r>   10.1972    0.0000 </r>
       <r>   10.2399    0.0000 </r>
       <r>   10.3379    0.0000 </r>
      </set>
      <set comment="kpoint 5">
       <r>  -32.0183    1.0000 </r>
       <r>  -32.0182    1.0000 </r>
       <r>  -31.5745    1.0000 </r>
       <r>  -29.8329    1.0000 </r>
       <r>  -15.0060    1.0000 </r>
       <r>  -14.8262    1.0000 </r>
       <r>  -14.5655    1.0000 </r>
       <r>  -14.4531    1.0000 </r>
       <r>  -14.2929    1.0000 </r>
       <r>  -14.2484    1.0000 </r>
       <r>  -14.1193    1.0000 </r>
       <r>  -13.9563    1.0000 </r>
       <r>  -13.8415    1.0000 </r>
       <r>  -13.8232    1.0000 </r>
       <r>  -13.6069    1.0000 </r>
       <r>  -13.5339    1.0000 </r>
       <r>  -13.4311    1.0000 </r>
       <r>  -13.4191    1.0000 </r>
       <r>  -13.3604    1.0000 </r>
       <r>  -13.2499    1.0000 </r>
       <r>  -12.9671    1.0000 </r>
       <r>  -11.7603    1.0000 </r>
       <r>  -11.7428    1.0000 </r>
       <r>  -11.5816    1.0000 </r>
       <r>   -2.8505    1.0000 </r>
       <r>   -2.4671    1.0000 </r>
       <r>   -2.3997    1.0000 </r>
       <r>   -1.8834    1.0000 </r>
       <r>   -1.8231    1.0000 </r>
       <r>   -1.6775    1.0000 </r>
       <r>   -1.6290    1.0000 </r>
       <r>   -1.5995    1.0000 </r>
       <r>   -1.5739    1.0000 </r>
       <r>   -1.5122    1.0000 </r>
       <r>   -1.4313    1.0000 </r>
       <r>   -1.3410    1.0000 </r>
       <r>   -1.3220    1.0000 </r>
       <r>   -1.2452    1.0000 </r>
       <r>   -1.2102    1.0000 </r>
       <r>   -1.0670    1.0000 </r>
       <r>   -1.0220    1.0000 </r>
       <r>   -0.9846    1.0000 </r>
       <r>   -0.4485    1.0000 </r>
       <r>   -0.3786    1.0000 </r>
       <r>   -0.1421    1.0000 </r>
       <r>    0.0803    1.0000 </r>
       <r>    0.1748    1.0000 </r>
       <r>    0.3527    1.0000 </r>
       <r>    0.6157    1.0000 </r>
       <r>    0.7987    1.0000 </r>
       <r>    1.0133    1.0000 </r>
       <r>    1.1066    1.0000 </r>
       <r>    1.1618    1.0000 </r>
       <r>    1.2474    1.0000 </r>
       <r>    1.2656    1.0000 </r>
       <r>    1.2959    1.0000 </r>
       <r>    1.3498    1.0000 </r>
       <r>    1.4062    1.0000 </r>
       <r>    1.5422    1.0000 </r>
       <r>    1.6725    1.0000 </r>
       <r>    1.8299    1.0000 </r>
       <r>    1.9829    1.0000 </r>
       <r>    2.0252    1.0000 </r>
       <r>    2.2530    1.0000 </r>
       <r>    2.5381    0.9974 </r>
       <r>    2.7490    0.0008 </r>
       <r>    3.3422    0.0000 </r>
       <r>    3.4404    0.0000 </r>
       <r>    4.3910    0.0000 </r>
       <r>    5.0081    0.0000 </r>
       <r>    5.3182    0.0000 </r>
       <r>    5.8003    0.0000 </r>
       <r>    7.0118    0.0000 </r>
       <r>    7.2695    0.0000 </r>
       <r>    7.3751    0.0000 </r>
       <r>    7.7783    0.0000 </r>
       <r>    8.0622    0.0000 </r>
       <r>    8.4320    0.0000 </r>
       <r>    8.5541    0.0000 </r>
       <r>    8.6298    0.0000 </r>
       <r>    9.0011    0.0000 </r>
       <r>    9.3645    0.0000 </r>
       <r>    9.5590    0.0000 </r>
       <r>    9.6792    0.0000 </r>
       <r>   10.0622    0.0000 </r>
       <r>   10.3658    0.0000 </r>
       <r>   10.5639    0.0000 </r>
       <r>   10.7352    0.0000 </r>
      </set>
      <set comment="kpoint 6">
       <r>  -32.0115    1.0000 </r>
       <r>  -32.0114    1.0000 </r>
       <r>  -31.5677    1.0000 </r>
       <r>  -29.8254    1.0000 </r>
       <r>  -14.8602    1.0000 </r>
       <r>  -14.8537    1.0000 </r>
       <r>  -14.4770    1.0000 </r>
       <r>  -14.4654    1.0000 </r>
       <r>  -14.2438    1.0000 </r>
       <r>  -14.2247    1.0000 </r>
       <r>  -13.9806    1.0000 </r>
       <r>  -13.9049    1.0000 </r>
       <r>  -13.7741    1.0000 </r>
       <r>  -13.7159    1.0000 </r>
       <r>  -13.6785    1.0000 </r>
       <r>  -13.5853    1.0000 </r>
       <r>  -13.4937    1.0000 </r>
       <r>  -13.4328    1.0000 </r>
       <r>  -13.3393    1.0000 </r>
       <r>  -13.3337    1.0000 </r>
       <r>  -13.2360    1.0000 </r>
       <r>  -11.8417    1.0000 </r>
       <r>  -11.7708    1.0000 </r>
       <r>  -11.7194    1.0000 </r>
       <r>   -2.9083    1.0000 </r>
       <r>   -2.8058    1.0000 </r>
       <r>   -2.7692    1.0000 </r>
       <r>   -2.6929    1.0000 </r>
       <r>   -2.0550    1.0000 </r>
       <r>   -2.0491    1.0000 </r>
       <r>   -1.9731    1.0000 </r>
       <r>   -1.8240    1.0000 </r>
       <r>   -1.7910    1.0000 </r>
       <r>   -1.6030    1.0000 </r>
       <r>   -1.5694    1.0000 </r>
       <r>   -1.5082    1.0000 </r>
       <r>   -1.4986    1.0000 </r>
       <r>   -1.3999    1.0000 </r>
       <r>   -1.3798    1.0000 </r>
       <r>   -1.3394    1.0000 </r>
       <r>   -1.2846    1.0000 </r>
       <r>   -1.2715    1.0000 </r>
       <r>   -0.4406    1.0000 </r>
       <r>   -0.4219    1.0000 </r>
       <r>    0.0153    1.0000 </r>
       <r>    0.2652    1.0000 </r>
       <r>    0.2728    1.0000 </r>
       <r>    0.9407    1.0000 </r>
       <r>    1.1286    1.0000 </r>
       <r>    1.1572    1.0000 </r>
       <r>    1.2183    1.0000 </r>
       <r>    1.2747    1.0000 </r>
       <r>    1.3639    1.0000 </r>
       <r>    1.3774    1.0000 </r>
       <r>    1.3972    1.0000 </r>
       <r>    1.4697    1.0000 </r>
       <r>    1.4873    1.0000 </r>
       <r>    1.5166    1.0000 </r>
       <r>    1.5297    1.0000 </r>
       <r>    1.6440    1.0000 </r>
       <r>    2.1174    1.0000 </r>
       <r>    2.2091    1.0000 </r>
       <r>    2.2979    1.0000 </r>
       <r>    2.5329    0.9984 </r>
       <r>    2.5548    0.9900 </r>
       <r>    3.0447    0.0000 </r>
       <r>    4.3015    0.0000 </r>
       <r>    4.3266    0.0000 </r>
       <r>    4.3852    0.0000 </r>
       <r>    4.4640    0.0000 </r>
       <r>    4.9717    0.0000 </r>
       <r>    5.3833    0.0000 </r>
       <r>    7.7449    0.0000 </r>
       <r>    8.0584    0.0000 </r>
       <r>    8.1016    0.0000 </r>
       <r>    8.5203    0.0000 </r>
       <r>    8.6704    0.0000 </r>
       <r>    8.7885    0.0000 </r>
       <r>    8.8690    0.0000 </r>
       <r>    8.8966    0.0000 </r>
       <r>    9.1771    0.0000 </r>
       <r>    9.3141    0.0000 </r>
       <r>    9.4884    0.0000 </r>
       <r>    9.9302    0.0000 </r>
       <r>   10.0888    0.0000 </r>
       <r>   10.2804    0.0000 </r>
       <r>   10.4793    0.0000 </r>
       <r>   10.6506    0.0000 </r>
      </set>
     </set>
    </set>
   </array>
  </eigenvalues>
  <separator name="orbital magnetization" >
   <v name="MAGDIPOLOUT">      0.00000000      0.00000000      0.00000000</v>
  </separator>
  <dos>
   <i name="efermi">      2.63705938 </i>
   <total>
    <array>
     <dimension dim="1">gridpoints</dimension>
     <dimension dim="2">spin</dimension>
     <field>energy</field>
     <field>total</field>
     <field>integrated</field>
     <set>
      <set comment="spin 1">
       <r>   -34.1721     0.0000     0.0000 </r>
       <r>   -34.0153     0.0000     0.0000 </r>
       <r>   -33.8585     0.0000     0.0000 </r>
       <r>   -33.7016     0.0000     0.0000 </r>
       <r>   -33.5448     0.0000     0.0000 </r>
       <r>   -33.3880     0.0000     0.0000 </r>
       <r>   -33.2312     0.0000     0.0000 </r>
       <r>   -33.0744     0.0000     0.0000 </r>
       <r>   -32.9176     0.0000     0.0000 </r>
       <r>   -32.7607     0.0000     0.0000 </r>
       <r>   -32.6039     0.0000     0.0000 </r>
       <r>   -32.4471     0.0000     0.0000 </r>
       <r>   -32.2903     0.0000     0.0000 </r>
       <r>   -32.1335     0.0103     0.0016 </r>
       <r>   -31.9766    11.3192     1.7767 </r>
       <r>   -31.8198     1.4241     2.0000 </r>
       <r>   -31.6630     0.0524     2.0082 </r>
       <r>   -31.5062     6.1680     2.9755 </r>
       <r>   -31.3494     0.1564     3.0000 </r>
       <r>   -31.1925     0.0000     3.0000 </r>
       <r>   -31.0357     0.0000     3.0000 </r>
       <r>   -30.8789     0.0000     3.0000 </r>
       <r>   -30.7221     0.0000     3.0000 </r>
       <r>   -30.5653     0.0000     3.0000 </r>
       <r>   -30.4084     0.0000     3.0000 </r>
       <r>   -30.2516     0.0000     3.0000 </r>
       <r>   -30.0948     0.0000     3.0000 </r>
       <r>   -29.9380     0.0147     3.0023 </r>
       <r>   -29.7812     5.9507     3.9355 </r>
       <r>   -29.6244     0.4114     4.0000 </r>
       <r>   -29.4675     0.0000     4.0000 </r>
       <r>   -29.3107     0.0000     4.0000 </r>
       <r>   -29.1539     0.0000     4.0000 </r>
       <r>   -28.9971     0.0000     4.0000 </r>
       <r>   -28.8403     0.0000     4.0000 </r>
       <r>   -28.6834     0.0000     4.0000 </r>
       <r>   -28.5266     0.0000     4.0000 </r>
       <r>   -28.3698     0.0000     4.0000 </r>
       <r>   -28.2130     0.0000     4.0000 </r>
       <r>   -28.0562     0.0000     4.0000 </r>
       <r>   -27.8993     0.0000     4.0000 </r>
       <r>   -27.7425     0.0000     4.0000 </r>
       <r>   -27.5857     0.0000     4.0000 </r>
       <r>   -27.4289     0.0000     4.0000 </r>
       <r>   -27.2721     0.0000     4.0000 </r>
       <r>   -27.1152     0.0000     4.0000 </r>
       <r>   -26.9584     0.0000     4.0000 </r>
       <r>   -26.8016     0.0000     4.0000 </r>
       <r>   -26.6448     0.0000     4.0000 </r>
       <r>   -26.4880     0.0000     4.0000 </r>
       <r>   -26.3311     0.0000     4.0000 </r>
       <r>   -26.1743     0.0000     4.0000 </r>
       <r>   -26.0175     0.0000     4.0000 </r>
       <r>   -25.8607     0.0000     4.0000 </r>
       <r>   -25.7039     0.0000     4.0000 </r>
       <r>   -25.5471     0.0000     4.0000 </r>
       <r>   -25.3902     0.0000     4.0000 </r>
       <r>   -25.2334     0.0000     4.0000 </r>
       <r>   -25.0766     0.0000     4.0000 </r>
       <r>   -24.9198     0.0000     4.0000 </r>
       <r>   -24.7630     0.0000     4.0000 </r>
       <r>   -24.6061     0.0000     4.0000 </r>
       <r>   -24.4493     0.0000     4.0000 </r>
       <r>   -24.2925     0.0000     4.0000 </r>
       <r>   -24.1357     0.0000     4.0000 </r>
       <r>   -23.9789     0.0000     4.0000 </r>
       <r>   -23.8220     0.0000     4.0000 </r>
       <r>   -23.6652     0.0000     4.0000 </r>
       <r>   -23.5084     0.0000     4.0000 </r>
       <r>   -23.3516     0.0000     4.0000 </r>
       <r>   -23.1948     0.0000     4.0000 </r>
       <r>   -23.0379     0.0000     4.0000 </r>
       <r>   -22.8811     0.0000     4.0000 </r>
       <r>   -22.7243     0.0000     4.0000 </r>
       <r>   -22.5675     0.0000     4.0000 </r>
       <r>   -22.4107     0.0000     4.0000 </r>
       <r>   -22.2539     0.0000     4.0000 </r>
       <r>   -22.0970     0.0000     4.0000 </r>
       <r>   -21.9402     0.0000     4.0000 </r>
       <r>   -21.7834     0.0000     4.0000 </r>
       <r>   -21.6266     0.0000     4.0000 </r>
       <r>   -21.4698     0.0000     4.0000 </r>
       <r>   -21.3129     0.0000     4.0000 </r>
       <r>   -21.1561     0.0000     4.0000 </r>
       <r>   -20.9993     0.0000     4.0000 </r>
       <r>   -20.8425     0.0000     4.0000 </r>
       <r>   -20.6857     0.0000     4.0000 </r>
       <r>   -20.5288     0.0000     4.0000 </r>
       <r>   -20.3720     0.0000     4.0000 </r>
       <r>   -20.2152     0.0000     4.0000 </r>
       <r>   -20.0584     0.0000     4.0000 </r>
       <r>   -19.9016     0.0000     4.0000 </r>
       <r>   -19.7447     0.0000     4.0000 </r>
       <r>   -19.5879     0.0000     4.0000 </r>
       <r>   -19.4311     0.0000     4.0000 </r>
       <r>   -19.2743     0.0000     4.0000 </r>
       <r>   -19.1175     0.0000     4.0000 </r>
       <r>   -18.9607     0.0000     4.0000 </r>
       <r>   -18.8038     0.0000     4.0000 </r>
       <r>   -18.6470     0.0000     4.0000 </r>
       <r>   -18.4902     0.0000     4.0000 </r>
       <r>   -18.3334     0.0000     4.0000 </r>
       <r>   -18.1766     0.0000     4.0000 </r>
       <r>   -18.0197     0.0000     4.0000 </r>
       <r>   -17.8629     0.0000     4.0000 </r>
       <r>   -17.7061     0.0000     4.0000 </r>
       <r>   -17.5493     0.0000     4.0000 </r>
       <r>   -17.3925     0.0000     4.0000 </r>
       <r>   -17.2356     0.0000     4.0000 </r>
       <r>   -17.0788     0.0000     4.0000 </r>
       <r>   -16.9220     0.0000     4.0000 </r>
       <r>   -16.7652     0.0000     4.0000 </r>
       <r>   -16.6084     0.0000     4.0000 </r>
       <r>   -16.4515     0.0000     4.0000 </r>
       <r>   -16.2947     0.0000     4.0000 </r>
       <r>   -16.1379     0.0000     4.0000 </r>
       <r>   -15.9811     0.0000     4.0000 </r>
       <r>   -15.8243     0.0000     4.0000 </r>
       <r>   -15.6675     0.0000     4.0000 </r>
       <r>   -15.5106     0.0000     4.0000 </r>
       <r>   -15.3538     0.0000     4.0000 </r>
       <r>   -15.1970     0.0304     4.0048 </r>
       <r>   -15.0402     3.1936     4.5056 </r>
       <r>   -14.8834     5.7989     5.4150 </r>
       <r>   -14.7265     4.6819     6.1492 </r>
       <r>   -14.5697     6.2243     7.1253 </r>
       <r>   -14.4129     5.5066     7.9888 </r>
       <r>   -14.2561     5.3178     8.8227 </r>
       <r>   -14.0993     9.5810    10.3252 </r>
       <r>   -13.9424     8.5862    11.6717 </r>
       <r>   -13.7856    10.9773    13.3931 </r>
       <r>   -13.6288     6.1015    14.3500 </r>
       <r>   -13.4720    15.2841    16.7468 </r>
       <r>   -13.3152    14.7018    19.0523 </r>
       <r>   -13.1583     7.3224    20.2006 </r>
       <r>   -13.0015     3.0396    20.6773 </r>
       <r>   -12.8447     1.8049    20.9604 </r>
       <r>   -12.6879     0.2528    21.0000 </r>
       <r>   -12.5311     0.0000    21.0000 </r>
       <r>   -12.3743     0.0000    21.0000 </r>
       <r>   -12.2174     0.0000    21.0000 </r>
       <r>   -12.0606     0.0000    21.0000 </r>
       <r>   -11.9038     0.0425    21.0067 </r>
       <r>   -11.7470     7.0494    22.1121 </r>
       <r>   -11.5902     9.4326    23.5913 </r>
       <r>   -11.4333     2.5710    23.9945 </r>
       <r>   -11.2765     0.0349    24.0000 </r>
       <r>   -11.1197     0.0000    24.0000 </r>
       <r>   -10.9629     0.0000    24.0000 </r>
       <r>   -10.8061     0.0000    24.0000 </r>
       <r>   -10.6492     0.0000    24.0000 </r>
       <r>   -10.4924     0.0000    24.0000 </r>
       <r>   -10.3356     0.0000    24.0000 </r>
       <r>   -10.1788     0.0000    24.0000 </r>
       <r>   -10.0220     0.0000    24.0000 </r>
       <r>    -9.8651     0.0000    24.0000 </r>
       <r>    -9.7083     0.0000    24.0000 </r>
       <r>    -9.5515     0.0000    24.0000 </r>
       <r>    -9.3947     0.0000    24.0000 </r>
       <r>    -9.2379     0.0000    24.0000 </r>
       <r>    -9.0811     0.0000    24.0000 </r>
       <r>    -8.9242     0.0000    24.0000 </r>
       <r>    -8.7674     0.0000    24.0000 </r>
       <r>    -8.6106     0.0000    24.0000 </r>
       <r>    -8.4538     0.0000    24.0000 </r>
       <r>    -8.2970     0.0000    24.0000 </r>
       <r>    -8.1401     0.0000    24.0000 </r>
       <r>    -7.9833     0.0000    24.0000 </r>
       <r>    -7.8265     0.0000    24.0000 </r>
       <r>    -7.6697     0.0000    24.0000 </r>
       <r>    -7.5129     0.0000    24.0000 </r>
       <r>    -7.3560     0.0000    24.0000 </r>
       <r>    -7.1992     0.0000    24.0000 </r>
       <r>    -7.0424     0.0000    24.0000 </r>
       <r>    -6.8856     0.0000    24.0000 </r>
       <r>    -6.7288     0.0000    24.0000 </r>
       <r>    -6.5719     0.0000    24.0000 </r>
       <r>    -6.4151     0.0000    24.0000 </r>
       <r>    -6.2583     0.0000    24.0000 </r>
       <r>    -6.1015     0.0000    24.0000 </r>
       <r>    -5.9447     0.0000    24.0000 </r>
       <r>    -5.7879     0.0000    24.0000 </r>
       <r>    -5.6310     0.0000    24.0000 </r>
       <r>    -5.4742     0.0000    24.0000 </r>
       <r>    -5.3174     0.0000    24.0000 </r>
       <r>    -5.1606     0.0000    24.0000 </r>
       <r>    -5.0038     0.0000    24.0000 </r>
       <r>    -4.8469     0.0000    24.0000 </r>
       <r>    -4.6901     0.0000    24.0000 </r>
       <r>    -4.5333     0.0000    24.0000 </r>
       <r>    -4.3765     0.0000    24.0000 </r>
       <r>    -4.2197     0.0000    24.0000 </r>
       <r>    -4.0628     0.0000    24.0000 </r>
       <r>    -3.9060     0.0000    24.0000 </r>
       <r>    -3.7492     0.0000    24.0000 </r>
       <r>    -3.5924     0.0000    24.0000 </r>
[...]
       <r>     1.8963     8.7849    62.0174 </r>
       <r>     2.0531     6.6415    63.0590 </r>
       <r>     2.2099     6.5941    64.0930 </r>
       <r>     2.3667     5.3781    64.9364 </r>
       <r>     2.5236     4.8955    65.7041 </r>
       <r>     2.6804     3.6478    66.2762 </r>
       <r>     2.8372     1.7446    66.5498 </r>
       <r>     2.9940     2.3345    66.9159 </r>
       <r>     3.1508     1.8036    67.1987 </r>
       <r>     3.3077     4.0977    67.8413 </r>
       <r>     3.4645     0.5019    67.9200 </r>
       <r>     3.6213     0.0841    67.9332 </r>
       <r>     3.7781     0.9926    68.0888 </r>
       <r>     3.9349     1.9712    68.3980 </r>
       <r>     4.0917     1.8350    68.6857 </r>
       <r>     4.2486     1.2366    68.8796 </r>
       <r>     4.4054     2.4768    69.2680 </r>
       <r>     4.5622     1.6040    69.5196 </r>
       <r>     4.7190     0.0027    69.5200 </r>
       <r>     4.8758     0.0570    69.5289 </r>
       <r>     5.0327     3.4496    70.0699 </r>
       <r>     5.1895     0.8307    70.2002 </r>
       <r>     5.3463     2.5269    70.5965 </r>
       <r>     5.5031     1.6012    70.8475 </r>
       <r>     5.6599     1.2204    71.0389 </r>
       <r>     5.8168     2.6268    71.4509 </r>
       <r>     5.9736     1.9053    71.7496 </r>
       <r>     6.1304     0.5762    71.8400 </r>
       <r>     6.2872     0.0002    71.8400 </r>
       <r>     6.4440     0.8150    71.9678 </r>
       <r>     6.6009     0.2347    72.0046 </r>
       <r>     6.7577     1.1560    72.1859 </r>
       <r>     6.9145     1.9580    72.4930 </r>
       <r>     7.0713     2.1950    72.8372 </r>
       <r>     7.2281     1.4217    73.0601 </r>
       <r>     7.3849     7.5245    74.2401 </r>
       <r>     7.5418     2.0796    74.5662 </r>
       <r>     7.6986     2.3680    74.9376 </r>
       <r>     7.8554     4.9495    75.7137 </r>
       <r>     8.0122     2.4699    76.1011 </r>
       <r>     8.1690     5.5341    76.9689 </r>
       <r>     8.3259     2.9003    77.4238 </r>
       <r>     8.4827     4.9322    78.1972 </r>
       <r>     8.6395     8.1350    79.4729 </r>
       <r>     8.7963     3.4899    80.0202 </r>
       <r>     8.9531     3.4951    80.5683 </r>
       <r>     9.1100     4.0688    81.2064 </r>
       <r>     9.2668     2.4883    81.5966 </r>
       <r>     9.4236     5.3171    82.4304 </r>
       <r>     9.5804     6.5053    83.4506 </r>
       <r>     9.7372     5.4002    84.2974 </r>
       <r>     9.8941     1.7052    84.5648 </r>
       <r>    10.0509     4.5094    85.2720 </r>
       <r>    10.2077     3.3850    85.8028 </r>
       <r>    10.3645     4.8233    86.5592 </r>
       <r>    10.5213     4.2514    87.2259 </r>
       <r>    10.6782     2.8885    87.6789 </r>
       <r>    10.8350     2.0448    87.9996 </r>
       <r>    10.9918     0.0028    88.0000 </r>
       <r>    11.1486     0.0000    88.0000 </r>
       <r>    11.3054     0.0000    88.0000 </r>
       <r>    11.4622     0.0000    88.0000 </r>
       <r>    11.6191     0.0000    88.0000 </r>
       <r>    11.7759     0.0000    88.0000 </r>
       <r>    11.9327     0.0000    88.0000 </r>
       <r>    12.0895     0.0000    88.0000 </r>
       <r>    12.2463     0.0000    88.0000 </r>
       <r>    12.4032     0.0000    88.0000 </r>
       <r>    12.5600     0.0000    88.0000 </r>
       <r>    12.7168     0.0000    88.0000 </r>
       <r>    12.8736     0.0000    88.0000 </r>
      </set>
      <set comment="spin 2">
       <r>   -34.1721     0.0000     0.0000 </r>
       <r>   -34.0153     0.0000     0.0000 </r>
       <r>   -33.8585     0.0000     0.0000 </r>
       <r>   -33.7016     0.0000     0.0000 </r>
       <r>   -33.5448     0.0000     0.0000 </r>
       <r>   -33.3880     0.0000     0.0000 </r>
       <r>   -33.2312     0.0000     0.0000 </r>
       <r>   -33.0744     0.0000     0.0000 </r>
       <r>   -32.9176     0.0000     0.0000 </r>
       <r>   -32.7607     0.0000     0.0000 </r>
       <r>   -32.6039     0.0000     0.0000 </r>
       <r>   -32.4471     0.0000     0.0000 </r>
       <r>   -32.2903     0.0000     0.0000 </r>
       <r>   -32.1335     0.0113     0.0018 </r>
       <r>   -31.9766    11.3833     1.7869 </r>
       <r>   -31.8198     1.3589     2.0000 </r>
       <r>   -31.6630     0.0559     2.0088 </r>
       <r>   -31.5062     6.1730     2.9768 </r>
       <r>   -31.3494     0.1479     3.0000 </r>
       <r>   -31.1925     0.0000     3.0000 </r>
       <r>   -31.0357     0.0000     3.0000 </r>
       <r>   -30.8789     0.0000     3.0000 </r>
       <r>   -30.7221     0.0000     3.0000 </r>
       <r>   -30.5653     0.0000     3.0000 </r>
       <r>   -30.4084     0.0000     3.0000 </r>
       <r>   -30.2516     0.0000     3.0000 </r>
       <r>   -30.0948     0.0000     3.0000 </r>
       <r>   -29.9380     0.0154     3.0024 </r>
       <r>   -29.7812     5.9631     3.9375 </r>
       <r>   -29.6244     0.3983     4.0000 </r>
       <r>   -29.4675     0.0000     4.0000 </r>
       <r>   -29.3107     0.0000     4.0000 </r>
       <r>   -29.1539     0.0000     4.0000 </r>
       <r>   -28.9971     0.0000     4.0000 </r>
       <r>   -28.8403     0.0000     4.0000 </r>
       <r>   -28.6834     0.0000     4.0000 </r>
       <r>   -28.5266     0.0000     4.0000 </r>
       <r>   -28.3698     0.0000     4.0000 </r>
       <r>   -28.2130     0.0000     4.0000 </r>
       <r>   -28.0562     0.0000     4.0000 </r>
       <r>   -27.8993     0.0000     4.0000 </r>
       <r>   -27.7425     0.0000     4.0000 </r>
       <r>   -27.5857     0.0000     4.0000 </r>
       <r>   -27.4289     0.0000     4.0000 </r>
       <r>   -27.2721     0.0000     4.0000 </r>
       <r>   -27.1152     0.0000     4.0000 </r>
       <r>   -26.9584     0.0000     4.0000 </r>
       <r>   -26.8016     0.0000     4.0000 </r>
       <r>   -26.6448     0.0000     4.0000 </r>
       <r>   -26.4880     0.0000     4.0000 </r>
       <r>   -26.3311     0.0000     4.0000 </r>
       <r>   -26.1743     0.0000     4.0000 </r>
       <r>   -26.0175     0.0000     4.0000 </r>
       <r>   -25.8607     0.0000     4.0000 </r>
       <r>   -25.7039     0.0000     4.0000 </r>
       <r>   -25.5471     0.0000     4.0000 </r>
       <r>   -25.3902     0.0000     4.0000 </r>
       <r>   -25.2334     0.0000     4.0000 </r>
       <r>   -25.0766     0.0000     4.0000 </r>
       <r>   -24.9198     0.0000     4.0000 </r>
       <r>   -24.7630     0.0000     4.0000 </r>
       <r>   -24.6061     0.0000     4.0000 </r>
       <r>   -24.4493     0.0000     4.0000 </r>
       <r>   -24.2925     0.0000     4.0000 </r>
       <r>   -24.1357     0.0000     4.0000 </r>
       <r>   -23.9789     0.0000     4.0000 </r>
       <r>   -23.8220     0.0000     4.0000 </r>
       <r>   -23.6652     0.0000     4.0000 </r>
       <r>   -23.5084     0.0000     4.0000 </r>
       <r>   -23.3516     0.0000     4.0000 </r>
       <r>   -23.1948     0.0000     4.0000 </r>
       <r>   -23.0379     0.0000     4.0000 </r>
       <r>   -22.8811     0.0000     4.0000 </r>
       <r>   -22.7243     0.0000     4.0000 </r>
       <r>   -22.5675     0.0000     4.0000 </r>
       <r>   -22.4107     0.0000     4.0000 </r>
       <r>   -22.2539     0.0000     4.0000 </r>
       <r>   -22.0970     0.0000     4.0000 </r>
       <r>   -21.9402     0.0000     4.0000 </r>
       <r>   -21.7834     0.0000     4.0000 </r>
       <r>   -21.6266     0.0000     4.0000 </r>
       <r>   -21.4698     0.0000     4.0000 </r>
       <r>   -21.3129     0.0000     4.0000 </r>
       <r>   -21.1561     0.0000     4.0000 </r>
       <r>   -20.9993     0.0000     4.0000 </r>
       <r>   -20.8425     0.0000     4.0000 </r>
       <r>   -20.6857     0.0000     4.0000 </r>
       <r>   -20.5288     0.0000     4.0000 </r>
       <r>   -20.3720     0.0000     4.0000 </r>
       <r>   -20.2152     0.0000     4.0000 </r>
       <r>   -20.0584     0.0000     4.0000 </r>
       <r>   -19.9016     0.0000     4.0000 </r>
       <r>   -19.7447     0.0000     4.0000 </r>
       <r>   -19.5879     0.0000     4.0000 </r>
       <r>   -19.4311     0.0000     4.0000 </r>
       <r>   -19.2743     0.0000     4.0000 </r>
       <r>   -19.1175     0.0000     4.0000 </r>
       <r>   -18.9607     0.0000     4.0000 </r>
       <r>   -18.8038     0.0000     4.0000 </r>
       <r>   -18.6470     0.0000     4.0000 </r>
       <r>   -18.4902     0.0000     4.0000 </r>
       <r>   -18.3334     0.0000     4.0000 </r>
       <r>   -18.1766     0.0000     4.0000 </r>
       <r>   -18.0197     0.0000     4.0000 </r>
       <r>   -17.8629     0.0000     4.0000 </r>
       <r>   -17.7061     0.0000     4.0000 </r>
       <r>   -17.5493     0.0000     4.0000 </r>
       <r>   -17.3925     0.0000     4.0000 </r>
       <r>   -17.2356     0.0000     4.0000 </r>
       <r>   -17.0788     0.0000     4.0000 </r>
       <r>   -16.9220     0.0000     4.0000 </r>
       <r>   -16.7652     0.0000     4.0000 </r>
       <r>   -16.6084     0.0000     4.0000 </r>
       <r>   -16.4515     0.0000     4.0000 </r>
       <r>   -16.2947     0.0000     4.0000 </r>
       <r>   -16.1379     0.0000     4.0000 </r>
       <r>   -15.9811     0.0000     4.0000 </r>
       <r>   -15.8243     0.0000     4.0000 </r>
       <r>   -15.6675     0.0000     4.0000 </r>
       <r>   -15.5106     0.0000     4.0000 </r>
       <r>   -15.3538     0.0000     4.0000 </r>
       <r>   -15.1970     0.0081     4.0013 </r>
       <r>   -15.0402     2.4225     4.3812 </r>
       <r>   -14.8834     5.9651     5.3166 </r>
       <r>   -14.7265     4.6929     6.0526 </r>
       <r>   -14.5697     5.9640     6.9878 </r>
       <r>   -14.4129     6.0858     7.9422 </r>
       <r>   -14.2561     4.5069     8.6490 </r>
       <r>   -14.0993     9.6327    10.1596 </r>
       <r>   -13.9424     8.9817    11.5681 </r>
       <r>   -13.7856    10.9475    13.2848 </r>
       <r>   -13.6288     6.0363    14.2315 </r>
       <r>   -13.4720    12.3186    16.1632 </r>
       <r>   -13.3152    17.4875    18.9056 </r>
       <r>   -13.1583     8.0069    20.1612 </r>
       <r>   -13.0015     2.4054    20.5385 </r>
       <r>   -12.8447     2.2673    20.8940 </r>
       <r>   -12.6879     0.6758    21.0000 </r>
       <r>   -12.5311     0.0000    21.0000 </r>
       <r>   -12.3743     0.0000    21.0000 </r>
       <r>   -12.2174     0.0000    21.0000 </r>
       <r>   -12.0606     0.0000    21.0000 </r>
       <r>   -11.9038     0.0410    21.0064 </r>
       <r>   -11.7470     6.8322    22.0778 </r>
       <r>   -11.5902     9.6421    23.5899 </r>
       <r>   -11.4333     2.5824    23.9949 </r>
       <r>   -11.2765     0.0327    24.0000 </r>
       <r>   -11.1197     0.0000    24.0000 </r>
       <r>   -10.9629     0.0000    24.0000 </r>
       <r>   -10.8061     0.0000    24.0000 </r>
       <r>   -10.6492     0.0000    24.0000 </r>
       <r>   -10.4924     0.0000    24.0000 </r>
       <r>   -10.3356     0.0000    24.0000 </r>
       <r>   -10.1788     0.0000    24.0000 </r>
       <r>   -10.0220     0.0000    24.0000 </r>
       <r>    -9.8651     0.0000    24.0000 </r>
       <r>    -9.7083     0.0000    24.0000 </r>
       <r>    -9.5515     0.0000    24.0000 </r>
       <r>    -9.3947     0.0000    24.0000 </r>
       <r>    -9.2379     0.0000    24.0000 </r>
       <r>    -9.0811     0.0000    24.0000 </r>
       <r>    -8.9242     0.0000    24.0000 </r>
       <r>    -8.7674     0.0000    24.0000 </r>
       <r>    -8.6106     0.0000    24.0000 </r>
       <r>    -8.4538     0.0000    24.0000 </r>
       <r>    -8.2970     0.0000    24.0000 </r>
       <r>    -8.1401     0.0000    24.0000 </r>
       <r>    -7.9833     0.0000    24.0000 </r>
       <r>    -7.8265     0.0000    24.0000 </r>
       <r>    -7.6697     0.0000    24.0000 </r>
       <r>    -7.5129     0.0000    24.0000 </r>
       <r>    -7.3560     0.0000    24.0000 </r>
       <r>    -7.1992     0.0000    24.0000 </r>
       <r>    -7.0424     0.0000    24.0000 </r>
       <r>    -6.8856     0.0000    24.0000 </r>
       <r>    -6.7288     0.0000    24.0000 </r>
       <r>    -6.5719     0.0000    24.0000 </r>
       <r>    -6.4151     0.0000    24.0000 </r>
       <r>    -6.2583     0.0000    24.0000 </r>
       <r>    -6.1015     0.0000    24.0000 </r>
       <r>    -5.9447     0.0000    24.0000 </r>
       <r>    -5.7879     0.0000    24.0000 </r>
       <r>    -5.6310     0.0000    24.0000 </r>
       <r>    -5.4742     0.0000    24.0000 </r>
       <r>    -5.3174     0.0000    24.0000 </r>
       <r>    -5.1606     0.0000    24.0000 </r>
       <r>    -5.0038     0.0000    24.0000 </r>
       <r>    -4.8469     0.0000    24.0000 </r>
       <r>    -4.6901     0.0000    24.0000 </r>
       <r>    -4.5333     0.0000    24.0000 </r>
       <r>    -4.3765     0.0000    24.0000 </r>
       <r>    -4.2197     0.0000    24.0000 </r>
       <r>    -4.0628     0.0000    24.0000 </r>
       <r>    -3.9060     0.0000    24.0000 </r>
       <r>    -3.7492     0.0000    24.0000 </r>
       <r>    -3.5924     0.0000    24.0000 </r>
       <r>    -3.4356     0.0000    24.0000 </r>
       <r>    -3.2787     0.0000    24.0000 </r>
       <r>    -3.1219     0.0000    24.0000 </r>
       <r>    -2.9651     0.0652    24.0102 </r>
       <r>    -2.8083     4.3750    24.6963 </r>
       <r>    -2.6515     2.5781    25.1006 </r>
       <r>    -2.4947     0.5814    25.1918 </r>
       <r>    -2.3378     5.0339    25.9812 </r>
       <r>    -2.1810     0.6303    26.0800 </r>
       <r>    -2.0242     2.0863    26.4072 </r>
       <r>    -1.8674     6.4747    27.4226 </r>
       <r>    -1.7106     9.5288    28.9169 </r>
       <r>    -1.5537    14.9264    31.2576 </r>
       <r>    -1.3969    10.9668    32.9774 </r>
       <r>    -1.2401    14.8742    35.3100 </r>
       <r>    -1.0833    12.0461    37.1990 </r>
       <r>    -0.9265    14.5359    39.4785 </r>
       <r>    -0.7696     4.5770    40.1963 </r>
       <r>    -0.6128     3.4769    40.7415 </r>
       <r>    -0.4560     6.8110    41.8096 </r>
       <r>    -0.2992    13.4892    43.9250 </r>
       <r>    -0.1424     9.1283    45.3565 </r>
       <r>     0.0145     6.9080    46.4398 </r>
       <r>     0.1713     5.4934    47.3013 </r>
       <r>     0.3281     5.7496    48.2029 </r>
       <r>     0.4849     4.0109    48.8319 </r>
       <r>     0.6417     5.0269    49.6202 </r>
       <r>     0.7985     6.3196    50.6112 </r>
       <r>     0.9554     5.1072    51.4121 </r>
       <r>     1.1122     8.3245    52.7176 </r>
       <r>     1.2690    13.1999    54.7876 </r>
       <r>     1.4258    16.2959    57.3431 </r>
       <r>     1.5826    12.8936    59.3651 </r>
       <r>     1.7395     6.9985    60.4626 </r>
       <r>     1.8963     7.2483    61.5992 </r>
       <r>     2.0531     7.1306    62.7174 </r>
       <r>     2.2099     7.0202    63.8183 </r>
       <r>     2.3667     6.1807    64.7876 </r>
       <r>     2.5236     2.4239    65.1677 </r>
       <r>     2.6804     4.0777    65.8072 </r>
       <r>     2.8372     2.9427    66.2686 </r>
       <r>     2.9940     2.9608    66.7329 </r>
       <r>     3.1508     1.1916    66.9198 </r>
       <r>     3.3077     1.4292    67.1439 </r>
       <r>     3.4645     4.4419    67.8405 </r>
       <r>     3.6213     0.5172    67.9216 </r>
       <r>     3.7781     1.0002    68.0785 </r>
       <r>     3.9349     1.9274    68.3807 </r>
       <r>     4.0917     0.1351    68.4019 </r>
       <r>     4.2486     1.0758    68.5706 </r>
       <r>     4.4054     4.0822    69.2108 </r>
       <r>     4.5622     1.9692    69.5196 </r>
       <r>     4.7190     0.0028    69.5200 </r>
       <r>     4.8758     0.0036    69.5206 </r>
       <r>     5.0327     2.7002    69.9440 </r>
       <r>     5.1895     1.6256    70.1989 </r>
       <r>     5.3463     1.7622    70.4753 </r>
       <r>     5.5031     2.2426    70.8270 </r>
       <r>     5.6599     1.3384    71.0369 </r>
       <r>     5.8168     2.3911    71.4118 </r>
       <r>     5.9736     2.0499    71.7333 </r>
       <r>     6.1304     0.6805    71.8400 </r>
       <r>     6.2872     0.0002    71.8400 </r>
       <r>     6.4440     0.8024    71.9659 </r>
       <r>     6.6009     0.2397    72.0034 </r>
       <r>     6.7577     1.1539    72.1844 </r>
       <r>     6.9145     1.9668    72.4928 </r>
       <r>     7.0713     2.1763    72.8341 </r>
       <r>     7.2281     1.3583    73.0471 </r>
       <r>     7.3849     7.5751    74.2350 </r>
       <r>     7.5418     2.0566    74.5576 </r>
       <r>     7.6986     2.3680    74.9289 </r>
       <r>     7.8554     5.0146    75.7153 </r>
       <r>     8.0122     2.2299    76.0650 </r>
       <r>     8.1690     5.7535    76.9672 </r>
       <r>     8.3259     2.7750    77.4024 </r>
       <r>     8.4827     4.9286    78.1753 </r>
       <r>     8.6395     8.1980    79.4609 </r>
       <r>     8.7963     3.4423    80.0007 </r>
       <r>     8.9531     3.5045    80.5503 </r>
       <r>     9.1100     4.1858    81.2067 </r>
       <r>     9.2668     2.4501    81.5909 </r>
       <r>     9.4236     5.3222    82.4255 </r>
       <r>     9.5804     6.4675    83.4398 </r>
       <r>     9.7372     5.4334    84.2918 </r>
       <r>     9.8941     1.6630    84.5526 </r>
       <r>    10.0509     4.3720    85.2382 </r>
       <r>    10.2077     3.4631    85.7813 </r>
       <r>    10.3645     4.8201    86.5372 </r>
       <r>    10.5213     4.3359    87.2172 </r>
       <r>    10.6782     2.8367    87.6620 </r>
       <r>    10.8350     2.1505    87.9992 </r>
       <r>    10.9918     0.0049    88.0000 </r>
       <r>    11.1486     0.0000    88.0000 </r>
       <r>    11.3054     0.0000    88.0000 </r>
       <r>    11.4622     0.0000    88.0000 </r>
       <r>    11.6191     0.0000    88.0000 </r>
       <r>    11.7759     0.0000    88.0000 </r>
       <r>    11.9327     0.0000    88.0000 </r>
       <r>    12.0895     0.0000    88.0000 </r>
       <r>    12.2463     0.0000    88.0000 </r>
       <r>    12.4032     0.0000    88.0000 </r>
       <r>    12.5600     0.0000    88.0000 </r>
       <r>    12.7168     0.0000    88.0000 </r>
       <r>    12.8736     0.0000    88.0000 </r>
      </set>
     </set>
    </array>
   </total>
  </dos>
 </calculation>
 <structure name="finalpos" >
  <crystal>
   <varray name="basis" >
    <v>       4.00000000       0.00000000       0.00000000 </v>
    <v>       0.00000000       4.00000000       0.00000000 </v>
    <v>       0.00000000       0.00000000      16.00000000 </v>
   </varray>
   <i name="volume">    256.00000000 </i>
   <varray name="rec_basis" >
    <v>       0.25000000       0.00000000       0.00000000 </v>
    <v>       0.00000000       0.25000000       0.00000000 </v>
    <v>       0.00000000       0.00000000       0.06250000 </v>
   </varray>
  </crystal>
  <varray name="positions" >
   <v>       0.00000000       0.00000000       0.75000000 </v>
   <v>       0.00000000       0.00000000       0.00000000 </v>
   <v>       0.00000000       0.00000000       0.25000000 </v>
   <v>       0.00000000       0.00000000       0.50000000 </v>
   <v>       0.50000000       0.50000000       0.87500000 </v>
   <v>       0.50000000       0.50000000       0.12500000 </v>
   <v>       0.50000000       0.50000000       0.37500000 </v>
   <v>       0.50000000       0.50000000       0.62500000 </v>
   <v>       0.50000000       0.50000000       0.00000000 </v>
   <v>       0.50000000       0.50000000       0.50000000 </v>
   <v>       0.00000000       0.50000000       0.12500000 </v>
   <v>       0.00000000       0.50000000       0.37500000 </v>
   <v>       0.00000000       0.50000000       0.62500000 </v>
   <v>       0.50000000       0.00000000       0.87500000 </v>
   <v>       0.50000000       0.00000000       0.37500000 </v>
   <v>       0.50000000       0.00000000       0.62500000 </v>
  </varray>
 </structure>
</modeling>
