<?xml version="1.0" encoding="ISO-8859-1"?>
<modeling>
 <generator>
  <i name="program" type="string">vasp </i>
  <i name="version" type="string">5.3.5  </i>
  <i name="subversion" type="string">31Mar14 (build Jun 20 2014 13:15:13) complex                          parallel </i>
  <i name="platform" type="string">LinuxIFC </i>
  <i name="date" type="string">2025 12 12 </i>
  <i name="time" type="string">12:06:14 </i>
 </generator>
 <incar>
  <i type="string" name="PREC">accurate</i>
  <i type="int" name="IALGO">    38</i>
  <i type="logical" name="ADDGRID"> T  </i>
  <i type="int" name="ISPIN">     2</i>
  <i type="int" name="NELM">   100</i>
  <i type="int" name="NELMIN">     4</i>
  <i name="EDIFF">      0.00000100</i>
  <i name="ENCUT">    500.00000000</i>
  <i type="logical" name="LREAL"> F  </i>
  <i type="int" name="ISMEAR">     0</i>
  <i name="SIGMA">      0.05000000</i>
  <i type="logical" name="LWAVE"> F  </i>
  <i type="logical" name="LCHARG"> F  </i>
  <i type="int" name="NELM">   100</i>
  <i type="logical" name="LDAU"> T  </i>
  <v name="LDAUU">      0.00000000      4.00000000      0.00000000</v>
  <v name="LDAUJ">      0.00000000      0.00000000      0.00000000</v>
 </incar>
 <kpoints>
  <generation param="Auto">
   <i name="subdivisionlength">     20.00000000 </i>
   <v type="int" name="divisions">       3        1        5 </v>
   <v name="usershift">      0.00000000       0.00000000       0.00000000 </v>
   <v name="genvec1">      0.33333333       0.00000000       0.00000000 </v>
   <v name="genvec2">      0.00000000       1.00000000       0.00000000 </v>
   <v name="genvec3">      0.00000000       0.00000000       0.20000000 </v>
   <v name="shift">      0.00000000       0.00000000       0.00000000 </v>
  </generation>
  <varray name="kpointlist" >
   <v>       0.00000000       0.00000000       0.00000000 </v>
   <v>       0.33333333       0.00000000       0.00000000 </v>
   <v>       0.00000000       0.00000000       0.20000000 </v>
   <v>       0.33333333       0.00000000       0.20000000 </v>
   <v>       0.00000000       0.00000000       0.40000000 </v>
   <v>       0.33333333       0.00000000       0.40000000 </v>
  </varray>
  <varray name="weights" >
   <v>       0.06666667 </v>
   <v>       0.13333333 </v>
   <v>       0.13333333 </v>
   <v>       0.26666667 </v>
   <v>       0.13333333 </v>
   <v>       0.26666667 </v>
  </varray>
 </kpoints>
 <parameters>
  <separator name="general" >
   <i type="string" name="SYSTEM">unknown system</i>
   <i type="logical" name="LCOMPAT"> F  </i>
  </separator>
  <separator name="electronic" >
   <i type="string" name="PREC">accura</i>
   <i name="ENMAX">    500.00000000</i>
   <i name="ENAUG">    586.98000000</i>
   <i name="EDIFF">      0.00000100</i>
   <i type="int" name="IALGO">    38</i>
   <i type="int" name="IWAVPR">    10</i>
   <i type="int" name="NBANDS">   184</i>
   <i name="NELECT">    276.00000000</i>
   <i type="int" name="TURBO">     0</i>
   <i type="int" name="IRESTART">     0</i>
   <i type="int" name="NREBOOT">     0</i>
   <i type="int" name="NMIN">     0</i>
   <i name="EREF">      0.00000000</i>
   <separator name="electronic smearing" >
    <i type="int" name="ISMEAR">     0</i>
    <i name="SIGMA">      0.05000000</i>
    <i name="KSPACING">      0.50000000</i>
    <i type="logical" name="KGAMMA"> T  </i>
   </separator>
   <separator name="electronic projectors" >
    <i type="logical" name="LREAL"> F  </i>
    <v name="ROPT">      0.00000000      0.00000000      0.00000000</v>
    <i type="int" name="LMAXPAW">  -100</i>
    <i type="int" name="LMAXMIX">     2</i>
    <i type="logical" name="NLSPLINE"> F  </i>
   </separator>
   <separator name="electronic startup" >
    <i type="int" name="ISTART">     0</i>
    <i type="int" name="ICHARG">     2</i>
    <i type="int" name="INIWAV">     1</i>
   </separator>
   <separator name="electronic spin" >
    <i type="int" name="ISPIN">     2</i>
    <i type="logical" name="LNONCOLLINEAR"> F  </i>
    <v name="MAGMOM">      1.00000000      1.00000000      1.00000000      1.00000000      1.00000000      1.00000000      1.00000000      1.00000000      1.00000000      1.00000000      1.00000000      1.00000000      1.00000000      1.00000000      1.00000000      1.00000000      1.00000000      1.00000000      1.00000000      1.00000000
      1.00000000      1.00000000      1.00000000      1.00000000      1.00000000      1.00000000      1.00000000      1.00000000      1.00000000      1.00000000      1.00000000      1.00000000      1.00000000      1.00000000</v>
    <i name="NUPDOWN">     -1.00000000</i>
    <i type="logical" name="LSORBIT"> F  </i>
    <v name="SAXIS">      0.00000000      0.00000000      1.00000000</v>
    <i type="logical" name="LSPIRAL"> F  </i>
    <v name="QSPIRAL">      0.00000000      0.00000000      0.00000000</v>
    <i type="logical" name="LZEROZ"> F  </i>
   </separator>
   <separator name="electronic exchange-correlation" >
    <i type="logical" name="LASPH"> F  </i>
    <i type="logical" name="LMETAGGA"> F  </i>
   </separator>
   <separator name="electronic convergence" >
    <i type="int" name="NELM">   100</i>
    <i type="int" name="NELMDL">    -5</i>
    <i type="int" name="NELMIN">     4</i>
    <i name="ENINI">    500.00000000</i>
    <separator name="electronic convergence detail" >
     <i type="logical" name="LDIAG"> T  </i>
     <i type="logical" name="LSUBROT"> F  </i>
     <i name="WEIMIN">      0.00000000</i>
     <i name="EBREAK">      0.00000000</i>
     <i name="DEPER">      0.30000000</i>
     <i type="int" name="NRMM">     4</i>
     <i name="TIME">      0.40000000</i>
    </separator>
   </separator>
   <separator name="electronic mixer" >
    <i name="AMIX">      0.40000000</i>
    <i name="BMIX">      1.00000000</i>
    <i name="AMIN">      0.10000000</i>
    <i name="AMIX_MAG">      1.60000000</i>
    <i name="BMIX_MAG">      1.00000000</i>
    <separator name="electronic mixer details" >
     <i type="int" name="IMIX">     4</i>
     <i type="int" name="MAXMIX">   -45</i>
     <i name="WC">    100.00000000</i>
     <i type="int" name="INIMIX">     1</i>
     <i type="int" name="MIXPRE">     1</i>
     <i type="int" name="MREMOVE">     5</i>
    </separator>
   </separator>
   <separator name="electronic dipolcorrection" >
    <i type="logical" name="LDIPOL"> F  </i>
    <i type="logical" name="LMONO"> F  </i>
    <i type="int" name="IDIPOL">     0</i>
    <i name="EPSILON">      1.00000000</i>
    <v name="DIPOL">   -100.00000000   -100.00000000   -100.00000000</v>
    <i name="EFIELD">      0.00000000</i>
   </separator>
  </separator>
  <separator name="grids" >
   <i type="int" name="NGX">    60</i>
   <i type="int" name="NGY">   120</i>
   <i type="int" name="NGZ">    30</i>
   <i type="int" name="NGXF">   120</i>
   <i type="int" name="NGYF">   240</i>
   <i type="int" name="NGZF">    60</i>
   <i type="logical" name="ADDGRID"> T  </i>
  </separator>
  <separator name="ionic" >
   <i type="int" name="NSW">     0</i>
   <i type="int" name="IBRION">    -1</i>
   <i type="int" name="ISIF">     2</i>
   <i name="PSTRESS">      0.00000000</i>
   <i name="EDIFFG">      0.00001000</i>
   <i type="int" name="NFREE">     0</i>
   <i name="POTIM">      0.50000000</i>
   <i name="SMASS">     -3.00000000</i>
   <i name="SCALEE">      1.00000000</i>
  </separator>
  <separator name="ionic md" >
   <i name="TEBEG">      0.00010000</i>
   <i name="TEEND">      0.00010000</i>
   <i type="int" name="NBLOCK">     1</i>
   <i type="int" name="KBLOCK">     1</i>
   <i type="int" name="NPACO">   256</i>
   <i name="APACO">     16.00000000</i>
  </separator>
  <separator name="symmetry" >
   <i type="int" name="ISYM">     2</i>
   <i name="SYMPREC">      0.00001000</i>
  </separator>
  <separator name="dos" >
   <i type="logical" name="LORBIT"> F  </i>
   <v name="RWIGS">     -1.00000000     -1.00000000     -1.00000000</v>
   <i type="int" name="NEDOS">   301</i>
   <i name="EMIN">     10.00000000</i>
   <i name="EMAX">    -10.00000000</i>
   <i name="EFERMI">      0.00000000</i>
  </separator>
  <separator name="writing" >
   <i type="int" name="NWRITE">     2</i>
   <i type="logical" name="LWAVE"> F  </i>
   <i type="logical" name="LCHARG"> F  </i>
   <i type="logical" name="LPARD"> F  </i>
   <i type="logical" name="LVTOT"> F  </i>
   <i type="logical" name="LVHAR"> F  </i>
   <i type="logical" name="LELF"> F  </i>
   <i type="logical" name="LOPTICS"> F  </i>
   <v name="STM">      0.00000000      0.00000000      0.00000000      0.00000000      0.00000000      0.00000000      0.00000000</v>
  </separator>
  <separator name="performance" >
   <i type="int" name="NPAR">     4</i>
   <i type="int" name="NSIM">     4</i>
   <i type="int" name="NBLK">    -1</i>
   <i type="logical" name="LPLANE"> T  </i>
   <i type="logical" name="LSCALAPACK"> T  </i>
   <i type="logical" name="LSCAAWARE"> F  </i>
   <i type="logical" name="LSCALU"> F  </i>
   <i type="logical" name="LASYNC"> F  </i>
   <i type="logical" name="LORBITALREAL"> F  </i>
  </separator>
  <separator name="miscellaneous" >
   <i type="int" name="IDIOT">     3</i>
   <i type="logical" name="LMUSIC"> F  </i>
   <v name="POMASS">     87.62000000     63.54600000     16.00000000</v>
   <v name="DARWINR">      0.00000000      0.00000000      0.00000000</v>
   <v name="DARWINV">      1.00000000      1.00000000      1.00000000</v>
   <i type="logical" name="LCORR"> T  </i>
  </separator>
  <i type="logical" name="GGA_COMPAT"> T  </i>
  <i type="logical" name="LBERRY"> F  </i>
  <i type="int" name="ICORELEVEL">     0</i>
  <i type="logical" name="LDAU"> T  </i>
  <v type="int" name="LDAUTYPE">     2</v>
  <v type="int" name="LDAUL">     2</v>
  <v name="LDAUU">      0.00000000</v>
  <v name="LDAUJ">      0.00000000</v>
  <i type="int" name="LDAUPRINT">     0</i>
  <i type="int" name="I_CONSTRAINED_M">     0</i>
  <separator name="electronic exchange-correlation" >
   <i type="string" name="GGA">--</i>
   <i type="int" name="VOSKOWN">     0</i>
   <i type="logical" name="LHFCALC"> F  </i>
   <i type="string" name="PRECFOCK"></i>
   <i type="logical" name="LSYMGRAD"> F  </i>
   <i type="logical" name="LHFONE"> F  </i>
   <i type="logical" name="LRHFCALC"> F  </i>
   <i type="logical" name="LTHOMAS"> F  </i>
   <i type="logical" name="LMODELHF"> F  </i>
   <i name="ENCUT4O">     -1.00000000</i>
   <i type="int" name="EXXOEP">     0</i>
   <i type="int" name="FOURORBIT">     0</i>
   <i name="AEXX">      0.00000000</i>
   <i name="HFALPHA">      0.00000000</i>
   <i name="MCALPHA">      0.00000000</i>
   <i name="ALDAX">      1.00000000</i>
   <i name="AGGAX">      1.00000000</i>
   <i name="ALDAC">      1.00000000</i>
   <i name="AGGAC">      1.00000000</i>
   <i type="int" name="NKREDX">     1</i>
   <i type="int" name="NKREDY">     1</i>
   <i type="int" name="NKREDZ">     1</i>
   <i type="logical" name="SHIFTRED"> F  </i>
   <i type="logical" name="ODDONLY"> F  </i>
   <i type="logical" name="EVENONLY"> F  </i>
   <i type="int" name="LMAXFOCK">     0</i>
   <i type="int" name="NMAXFOCKAE">     0</i>
   <i type="logical" name="LFOCKAEDFT"> F  </i>
   <i name="HFSCREEN">      0.00000000</i>
   <i name="HFSCREENC">      0.00000000</i>
   <i type="int" name="NBANDSGWLOW">     0</i>
  </separator>
  <separator name="vdW DFT" >
   <i type="logical" name="LUSE_VDW"> F  </i>
   <i name="Zab_VDW">     -0.84910000</i>
   <i name="PARAM1">      0.12340000</i>
   <i name="PARAM2">      1.00000000</i>
   <i name="PARAM3">      0.00000000</i>
  </separator>
  <separator name="model GW" >
   <i type="int" name="MODEL_GW">     0</i>
   <i name="MODEL_EPS0">      9.03529412</i>
   <i name="MODEL_ALPHA">      1.00000000</i>
  </separator>
  <separator name="linear response parameters" >
   <i type="logical" name="LEPSILON"> F  </i>
   <i type="logical" name="LRPA"> F  </i>
   <i type="logical" name="LNABLA"> F  </i>
   <i type="logical" name="LVEL"> F  </i>
   <i type="int" name="KINTER">     0</i>
   <i name="CSHIFT">      0.10000000</i>
   <i name="OMEGAMAX">     -1.00000000</i>
   <i name="DEG_THRESHOLD">      0.00200000</i>
  </separator>
  <separator name="orbital magnetization" >
   <i type="logical" name="NUCIND"> F  </i>
   <v name="MAGPOS">      0.00000000      0.00000000      0.00000000</v>
   <i type="logical" name="LNICSALL"> T  </i>
   <i type="logical" name="ORBITALMAG"> F  </i>
   <i type="logical" name="LMAGBLOCH"> F  </i>
   <i type="logical" name="LCHIMAG"> F  </i>
   <i type="logical" name="LGAUGE"> T  </i>
   <i type="int" name="MAGATOM">     0</i>
   <v name="MAGDIPOL">      0.00000000      0.00000000      0.00000000</v>
   <v name="AVECCONST">      0.00000000      0.00000000      0.00000000</v>
  </separator>
  <separator name="response functions" >
   <i type="logical" name="LADDER"> F  </i>
   <i type="logical" name="LFXC"> F  </i>
   <i type="logical" name="LHARTREE"> T  </i>
   <i type="int" name="IBSE">     0</i>
   <i type="logical" name="LTCTE"> F  </i>
   <i type="logical" name="LTETE"> F  </i>
   <i type="logical" name="LTRIPLET"> F  </i>
   <i type="logical" name="LFXCEPS"> F  </i>
   <i type="logical" name="LFXHEG"> F  </i>
   <i type="logical" name="L2ORDER"> F  </i>
   <i type="logical" name="LUSEW"> F  </i>
   <i name="ENCUTGW">     -2.00000000</i>
   <i name="ENCUTGWSOFT">     -2.00000000</i>
   <i name="ENCUTLF">     -1.00000000</i>
   <i type="int" name="LMAXMP2">    -1</i>
   <i name="SCISSOR">      0.00000000</i>
   <i type="int" name="NOMEGA">     0</i>
   <i type="int" name="NOMEGAR">     0</i>
   <i type="int" name="NBANDSGW">    -1</i>
   <i type="int" name="NBANDSO">    -1</i>
   <i type="int" name="NBANDSV">    -1</i>
   <i type="int" name="NELM">   100</i>
   <i type="int" name="DIM">     3</i>
   <i type="int" name="ANTIRES">     0</i>
   <i name="OMEGAMAX">    -30.00000000</i>
   <i name="OMEGAMIN">    -30.00000000</i>
   <i name="OMEGATL">   -200.00000000</i>
   <i type="int" name="OMEGAGRID">     0</i>
   <i name="CSHIFT">     -0.10000000</i>
   <i type="logical" name="SELFENERGY"> F  </i>
   <i type="logical" name="LSPECTRAL"> F  </i>
   <i type="logical" name="ODDONLYGW"> F  </i>
   <i type="logical" name="EVENONLYGW"> F  </i>
   <i type="int" name="NKREDLFX">     1</i>
   <i type="int" name="NKREDLFY">     1</i>
   <i type="int" name="NKREDLFZ">     1</i>
   <i type="int" name="MAXMEM">  1800</i>
   <i type="int" name="TELESCOPE">     0</i>
   <i type="int" name="TAUPAR">     1</i>
  </separator>
  <separator name="External order field" >
   <i name="OFIELD_KAPPA">      0.00000000</i>
   <v name="OFIELD_K">      0.00000000      0.00000000      0.00000000</v>
   <i name="OFIELD_Q6_NEAR">      0.00000000</i>
   <i name="OFIELD_Q6_FAR">      0.00000000</i>
   <i name="OFIELD_A">      0.00000000</i>
  </separator>
 </parameters>
 <atominfo>
  <atoms>      34 </atoms>
  <types>       3 </types>
  <array name="atoms" >
   <dimension dim="1">ion</dimension>
   <field type="string">element</field>
   <field type="int">atomtype</field>
   <set>
    <rc><c>Sr</c><c>   1</c></rc>
    <rc><c>Sr</c><c>   1</c></rc>
    <rc><c>Sr</c><c>   1</c></rc>
    <rc><c>Sr</c><c>   1</c></rc>
    <rc><c>Sr</c><c>   1</c></rc>
    <rc><c>Sr</c><c>   1</c></rc>
    <rc><c>Sr</c><c>   1</c></rc>
    <rc><c>Sr</c><c>   1</c></rc>
    <rc><c>Cu</c><c>   2</c></rc>
    <rc><c>Cu</c><c>   2</c></rc>
    <rc><c>Cu</c><c>   2</c></rc>
    <rc><c>Cu</c><c>   2</c></rc>
    <rc><c>Cu</c><c>   2</c></rc>
    <rc><c>Cu</c><c>   2</c></rc>
    <rc><c>Cu</c><c>   2</c></rc>
    <rc><c>Cu</c><c>   2</c></rc>
    <rc><c>O </c><c>   3</c></rc>
    <rc><c>O </c><c>   3</c></rc>
    <rc><c>O </c><c>   3</c></rc>
    <rc><c>O </c><c>   3</c></rc>
    <rc><c>O </c><c>   3</c></rc>
    <rc><c>O </c><c>   3</c></rc>
    <rc><c>O </c><c>   3</c></rc>
    <rc><c>O </c><c>   3</c></rc>
    <rc><c>O </c><c>   3</c></rc>
    <rc><c>O </c><c>   3</c></rc>
    <rc><c>O </c><c>   3</c></rc>
    <rc><c>O </c><c>   3</c></rc>
    <rc><c>O </c><c>   3</c></rc>
    <rc><c>O </c><c>   3</c></rc>
    <rc><c>O </c><c>   3</c></rc>
    <rc><c>O </c><c>   3</c></rc>
    <rc><c>O </c><c>   3</c></rc>
    <rc><c>O </c><c>   3</c></rc>
   </set>
  </array>
  <array name="atomtypes" >
   <dimension dim="1">type</dimension>
   <field type="int">atomspertype</field>
   <field type="string">element</field>
   <field>mass</field>
   <field>valence</field>
   <field type="string">pseudopotential</field>
   <set>
    <rc><c>   8</c><c>Sr</c><c>     87.62000000</c><c>     10.00000000</c><c>  PAW_PBE Sr_sv 07Sep2000               </c></rc>
    <rc><c>   8</c><c>Cu</c><c>     63.54600000</c><c>     11.00000000</c><c>  PAW_PBE Cu 22Jun2005                  </c></rc>
    <rc><c>  18</c><c>O </c><c>     16.00000000</c><c>      6.00000000</c><c>  PAW_PBE O_s 07Sep2000                 </c></rc>
   </set>
  </array>
 </atominfo>
 <structure name="initialpos" >
  <crystal>
   <varray name="basis" >
    <v>       8.00000000       0.00000000       0.00000000 </v>
    <v>       0.00000000      16.00000000       0.00000000 </v>
    <v>       0.00000000       0.00000000       4.00000000 </v>
   </varray>
   <i name="volume">    512.00000000 </i>
   <varray name="rec_basis" >
    <v>       0.12500000       0.00000000       0.00000000 </v>
    <v>       0.00000000       0.06250000       0.00000000 </v>
    <v>       0.00000000       0.00000000       0.25000000 </v>
   </varray>
  </crystal>
  <varray name="positions" >
   <v>       0.75000000       0.12500000       0.00000000 </v>
   <v>       0.25000000       0.37500000       0.00000000 </v>
   <v>       0.25000000       0.12500000       0.00000000 </v>
   <v>       0.75000000       0.37500000       0.00000000 </v>
   <v>       0.25000000       0.62500000       0.00000000 </v>
   <v>       0.75000000       0.87500000       0.00000000 </v>
   <v>       0.75000000       0.62500000       0.00000000 </v>
   <v>       0.25000000       0.87500000       0.00000000 </v>
   <v>       0.50000000       0.50000000       0.50000000 </v>
   <v>       0.50000000       0.25000000       0.50000000 </v>
   <v>       0.00000000       0.50000000       0.50000000 </v>
   <v>       0.00000000       0.25000000       0.50000000 </v>
   <v>       0.00000000       0.00000000       0.50000000 </v>
   <v>       0.00000000       0.75000000       0.50000000 </v>
   <v>       0.50000000       0.00000000       0.50000000 </v>
   <v>       0.50000000       0.75000000       0.50000000 </v>
   <v>       0.00000000       0.12500000       0.50000000 </v>
   <v>       0.50000000       0.37500000       0.50000000 </v>
   <v>       0.50000000       0.12500000       0.50000000 </v>
   <v>       0.00000000       0.37500000       0.50000000 </v>
   <v>       0.50000000       0.25000000       0.00000000 </v>
   <v>       0.00000000       0.50000000       0.00000000 </v>
   <v>       0.00000000       0.25000000       0.00000000 </v>
   <v>       0.25000000       0.25000000       0.50000000 </v>
   <v>       0.75000000       0.25000000       0.50000000 </v>
   <v>       0.50000000       0.62500000       0.50000000 </v>
   <v>       0.00000000       0.87500000       0.50000000 </v>
   <v>       0.00000000       0.62500000       0.50000000 </v>
   <v>       0.50000000       0.87500000       0.50000000 </v>
   <v>       0.00000000       0.75000000       0.00000000 </v>
   <v>       0.50000000       0.00000000       0.00000000 </v>
   <v>       0.50000000       0.75000000       0.00000000 </v>
   <v>       0.75000000       0.75000000       0.50000000 </v>
   <v>       0.25000000       0.75000000       0.50000000 </v>
  </varray>
 </structure>
 <calculation>
  <scstep>
   <time name="dav">    7.28    7.29</time>
   <time name="total">    7.72    7.73</time>
   <energy>
    <i name="alphaZ">   1271.29833366 </i>
    <i name="ewald"> -17893.00649584 </i>
    <i name="hartreedc">  -7979.19070358 </i>
    <i name="XCdc">   1142.48798781 </i>
    <i name="pawpsdc">  21065.97634094 </i>
    <i name="pawaedc"> -21731.86537179 </i>
    <i name="eentropy">     -0.00925910 </i>
    <i name="bandstr">   2137.69194452 </i>
    <i name="atom">  25654.75912617 </i>
    <i name="e_fr_energy">   3668.14190280 </i>
    <i name="e_wo_entrp">   3668.15116190 </i>
    <i name="e_0_energy">   3668.14653235 </i>
   </energy>
  </scstep>
  <scstep>
   <time name="dav">    7.33    7.34</time>
   <time name="total">    7.34    7.35</time>
   <energy>
    <i name="e_fr_energy">    422.49410220 </i>
    <i name="e_wo_entrp">    422.50501953 </i>
    <i name="e_0_energy">    422.49956087 </i>
   </energy>
  </scstep>
  <scstep>
   <time name="dav">    7.28    7.28</time>
   <time name="total">    7.28    7.29</time>
   <energy>
    <i name="e_fr_energy">   -156.96876334 </i>
    <i name="e_wo_entrp">   -156.94561819 </i>
    <i name="e_0_energy">   -156.95719076 </i>
   </energy>
  </scstep>
  <scstep>
   <time name="dav">    9.53    9.53</time>
   <time name="total">    9.53    9.55</time>
   <energy>
    <i name="e_fr_energy">   -210.79570596 </i>
    <i name="e_wo_entrp">   -210.75643431 </i>
    <i name="e_0_energy">   -210.77607013 </i>
   </energy>
  </scstep>
  <scstep>
   <time name="dav">   11.55   11.55</time>
   <time name="total">   12.26   12.28</time>
   <energy>
    <i name="e_fr_energy">   -214.07854610 </i>
    <i name="e_wo_entrp">   -214.03847375 </i>
    <i name="e_0_energy">   -214.05850992 </i>
   </energy>
  </scstep>
  <scstep>
   <time name="dav">   10.25   10.25</time>
   <time name="total">   11.39   11.41</time>
   <energy>
    <i name="e_fr_energy">   -193.53874355 </i>
    <i name="e_wo_entrp">   -193.50851408 </i>
    <i name="e_0_energy">   -193.52362882 </i>
   </energy>
  </scstep>
  <scstep>
   <time name="dav">    9.73    9.73</time>
   <time name="total">   10.87   10.89</time>
   <energy>
    <i name="e_fr_energy">   -171.58469166 </i>
    <i name="e_wo_entrp">   -171.56002169 </i>
    <i name="e_0_energy">   -171.57235668 </i>
   </energy>
  </scstep>
  <scstep>
   <time name="dav">   10.06   10.07</time>
   <time name="total">   11.20   11.22</time>
   <energy>
    <i name="e_fr_energy">   -170.91969452 </i>
    <i name="e_wo_entrp">   -170.88932029 </i>
    <i name="e_0_energy">   -170.90450741 </i>
   </energy>
  </scstep>
  <scstep>
   <time name="dav">    9.60    9.60</time>
   <time name="total">   10.73   10.75</time>
   <energy>
    <i name="e_fr_energy">   -176.90336099 </i>
    <i name="e_wo_entrp">   -176.86494536 </i>
    <i name="e_0_energy">   -176.88415317 </i>
   </energy>
  </scstep>
  <scstep>
   <time name="dav">   10.11   10.11</time>
   <time name="total">   11.25   11.27</time>
   <energy>
    <i name="e_fr_energy">   -170.19692494 </i>
    <i name="e_wo_entrp">   -170.17710181 </i>
    <i name="e_0_energy">   -170.18701337 </i>
   </energy>
  </scstep>
  <scstep>
   <time name="dav">   10.26   10.27</time>
   <time name="total">   11.40   11.42</time>
   <energy>
    <i name="e_fr_energy">   -167.50451556 </i>
    <i name="e_wo_entrp">   -167.47759865 </i>
    <i name="e_0_energy">   -167.49105711 </i>
   </energy>
  </scstep>
  <scstep>
   <time name="dav">   10.28   10.29</time>
   <time name="total">   11.42   11.44</time>
   <energy>
    <i name="e_fr_energy">   -167.79133602 </i>
    <i name="e_wo_entrp">   -167.77977666 </i>
    <i name="e_0_energy">   -167.78555634 </i>
   </energy>
  </scstep>
  <scstep>
   <time name="dav">   10.42   10.42</time>
   <time name="total">   11.56   11.58</time>
   <energy>
    <i name="e_fr_energy">   -167.99405813 </i>
    <i name="e_wo_entrp">   -167.98366051 </i>
    <i name="e_0_energy">   -167.98885932 </i>
   </energy>
  </scstep>
  <scstep>
   <time name="dav">   10.55   10.55</time>
   <time name="total">   11.69   11.71</time>
   <energy>
    <i name="e_fr_energy">   -168.42611566 </i>
    <i name="e_wo_entrp">   -168.40906020 </i>
    <i name="e_0_energy">   -168.41758793 </i>
   </energy>
  </scstep>
  <scstep>
   <time name="dav">    9.46    9.46</time>
   <time name="total">   10.59   10.61</time>
   <energy>
    <i name="e_fr_energy">   -168.77807516 </i>
    <i name="e_wo_entrp">   -168.75966744 </i>
    <i name="e_0_energy">   -168.76887130 </i>
   </energy>
  </scstep>
  <scstep>
   <time name="dav">    9.83    9.84</time>
   <time name="total">   10.97   10.99</time>
   <energy>
    <i name="e_fr_energy">   -168.85215333 </i>
    <i name="e_wo_entrp">   -168.83404518 </i>
    <i name="e_0_energy">   -168.84309925 </i>
   </energy>
  </scstep>
  <scstep>
   <time name="dav">    9.99   10.00</time>
   <time name="total">   11.13   11.15</time>
   <energy>
    <i name="e_fr_energy">   -168.90671706 </i>
    <i name="e_wo_entrp">   -168.88849133 </i>
    <i name="e_0_energy">   -168.89760419 </i>
   </energy>
  </scstep>
  <scstep>
   <time name="dav">    9.59    9.60</time>
   <time name="total">   10.73   10.75</time>
   <energy>
    <i name="e_fr_energy">   -168.92893579 </i>
    <i name="e_wo_entrp">   -168.91102957 </i>
    <i name="e_0_energy">   -168.91998268 </i>
   </energy>
  </scstep>
  <scstep>
   <time name="dav">   10.23   10.23</time>
   <time name="total">   11.36   11.38</time>
   <energy>
    <i name="e_fr_energy">   -168.93327908 </i>
    <i name="e_wo_entrp">   -168.91581150 </i>
    <i name="e_0_energy">   -168.92454529 </i>
   </energy>
  </scstep>
  <scstep>
   <time name="dav">    9.59    9.60</time>
   <time name="total">   10.73   10.75</time>
   <energy>
    <i name="e_fr_energy">   -168.93532642 </i>
    <i name="e_wo_entrp">   -168.91725586 </i>
    <i name="e_0_energy">   -168.92629114 </i>
   </energy>
  </scstep>
  <scstep>
   <time name="dav">   10.95   10.95</time>
   <time name="total">   12.08   12.10</time>
   <energy>
    <i name="e_fr_energy">   -168.93570480 </i>
    <i name="e_wo_entrp">   -168.91751946 </i>
    <i name="e_0_energy">   -168.92661213 </i>
   </energy>
  </scstep>
  <scstep>
   <time name="dav">   10.59   10.59</time>
   <time name="total">   11.73   11.75</time>
   <energy>
    <i name="e_fr_energy">   -168.93590016 </i>
    <i name="e_wo_entrp">   -168.91778503 </i>
    <i name="e_0_energy">   -168.92684259 </i>
   </energy>
  </scstep>
  <scstep>
   <time name="dav">   10.39   10.39</time>
   <time name="total">   11.53   11.55</time>
   <energy>
    <i name="e_fr_energy">   -168.93605978 </i>
    <i name="e_wo_entrp">   -168.91771862 </i>
    <i name="e_0_energy">   -168.92688920 </i>
   </energy>
  </scstep>
  <scstep>
   <time name="dav">   10.29   10.29</time>
   <time name="total">   11.43   11.45</time>
   <energy>
    <i name="e_fr_energy">   -168.93614237 </i>
    <i name="e_wo_entrp">   -168.91775589 </i>
    <i name="e_0_energy">   -168.92694913 </i>
   </energy>
  </scstep>
  <scstep>
   <time name="dav">   10.46   10.46</time>
   <time name="total">   11.60   11.62</time>
   <energy>
    <i name="e_fr_energy">   -168.93621425 </i>
    <i name="e_wo_entrp">   -168.91777266 </i>
    <i name="e_0_energy">   -168.92699346 </i>
   </energy>
  </scstep>
  <scstep>
   <time name="dav">   10.33   10.33</time>
   <time name="total">   11.46   11.48</time>
   <energy>
    <i name="e_fr_energy">   -168.93626508 </i>
    <i name="e_wo_entrp">   -168.91778409 </i>
    <i name="e_0_energy">   -168.92702459 </i>
   </energy>
  </scstep>
  <scstep>
   <time name="dav">   10.37   10.37</time>
   <time name="total">   11.50   11.52</time>
   <energy>
    <i name="e_fr_energy">   -168.93629837 </i>
    <i name="e_wo_entrp">   -168.91775728 </i>
    <i name="e_0_energy">   -168.92702782 </i>
   </energy>
  </scstep>
  <scstep>
   <time name="dav">    9.73    9.74</time>
   <time name="total">   10.87   10.89</time>
   <energy>
    <i name="e_fr_energy">   -168.93632007 </i>
    <i name="e_wo_entrp">   -168.91774385 </i>
    <i name="e_0_energy">   -168.92703196 </i>
   </energy>
  </scstep>
  <scstep>
   <time name="dav">    9.84    9.84</time>
   <time name="total">   10.98   10.99</time>
   <energy>
    <i name="e_fr_energy">   -168.93633392 </i>
    <i name="e_wo_entrp">   -168.91773683 </i>
    <i name="e_0_energy">   -168.92703538 </i>
   </energy>
  </scstep>
  <scstep>
   <time name="dav">   10.09   10.10</time>
   <time name="total">   11.23   11.25</time>
   <energy>
    <i name="e_fr_energy">   -168.93634479 </i>
    <i name="e_wo_entrp">   -168.91772336 </i>
    <i name="e_0_energy">   -168.92703407 </i>
   </energy>
  </scstep>
  <scstep>
   <time name="dav">    9.00    9.00</time>
   <time name="total">   10.14   10.15</time>
   <energy>
    <i name="e_fr_energy">   -168.93635291 </i>
    <i name="e_wo_entrp">   -168.91771112 </i>
    <i name="e_0_energy">   -168.92703202 </i>
   </energy>
  </scstep>
  <scstep>
   <time name="dav">    9.30    9.30</time>
   <time name="total">   10.44   10.46</time>
   <energy>
    <i name="e_fr_energy">   -168.93635745 </i>
    <i name="e_wo_entrp">   -168.91769951 </i>
    <i name="e_0_energy">   -168.92702848 </i>
   </energy>
  </scstep>
  <scstep>
   <time name="dav">    7.28    7.28</time>
   <time name="total">    8.42    8.43</time>
   <energy>
    <i name="e_fr_energy">   -168.93636192 </i>
    <i name="e_wo_entrp">   -168.91769928 </i>
    <i name="e_0_energy">   -168.92703060 </i>
   </energy>
  </scstep>
  <scstep>
   <time name="dav">    6.04    6.04</time>
   <time name="total">    7.18    7.20</time>
   <energy>
    <i name="e_fr_energy">   -168.93636361 </i>
    <i name="e_wo_entrp">   -168.91769394 </i>
    <i name="e_0_energy">   -168.92702877 </i>
   </energy>
  </scstep>
  <scstep>
   <time name="dav">    5.72    5.72</time>
   <time name="total">    6.15    6.17</time>
   <energy>
    <i name="alphaZ">   1271.29833366 </i>
    <i name="ewald"> -17893.00649584 </i>
    <i name="hartreedc">  -7954.96049007 </i>
    <i name="XCdc">   1142.16895066 </i>
    <i name="pawpsdc">  32552.41957957 </i>
    <i name="pawaedc"> -33294.16528545 </i>
    <i name="eentropy">     -0.01867184 </i>
    <i name="bandstr">  -1647.43141138 </i>
    <i name="atom">  25654.75912617 </i>
    <i name="e_fr_energy">   -168.93636453 </i>
    <i name="e_wo_entrp">   -168.91769269 </i>
    <i name="e_0_energy">   -168.92702861 </i>
   </energy>
  </scstep>
  <structure>
   <crystal>
    <varray name="basis" >
     <v>       8.00000000       0.00000000       0.00000000 </v>
     <v>       0.00000000      16.00000000       0.00000000 </v>
     <v>       0.00000000       0.00000000       4.00000000 </v>
    </varray>
    <i name="volume">    512.00000000 </i>
    <varray name="rec_basis" >
     <v>       0.12500000       0.00000000       0.00000000 </v>
     <v>       0.00000000       0.06250000       0.00000000 </v>
     <v>       0.00000000       0.00000000       0.25000000 </v>
    </varray>
   </crystal>
   <varray name="positions" >
    <v>       0.75000000       0.12500000       0.00000000 </v>
    <v>       0.25000000       0.37500000       0.00000000 </v>
    <v>       0.25000000       0.12500000       0.00000000 </v>
    <v>       0.75000000       0.37500000       0.00000000 </v>
    <v>       0.25000000       0.62500000       0.00000000 </v>
    <v>       0.75000000       0.87500000       0.00000000 </v>
    <v>       0.75000000       0.62500000       0.00000000 </v>
    <v>       0.25000000       0.87500000       0.00000000 </v>
    <v>       0.50000000       0.50000000       0.50000000 </v>
    <v>       0.50000000       0.25000000       0.50000000 </v>
    <v>       0.00000000       0.50000000       0.50000000 </v>
    <v>       0.00000000       0.25000000       0.50000000 </v>
    <v>       0.00000000       0.00000000       0.50000000 </v>
    <v>       0.00000000       0.75000000       0.50000000 </v>
    <v>       0.50000000       0.00000000       0.50000000 </v>
    <v>       0.50000000       0.75000000       0.50000000 </v>
    <v>       0.00000000       0.12500000       0.50000000 </v>
    <v>       0.50000000       0.37500000       0.50000000 </v>
    <v>       0.50000000       0.12500000       0.50000000 </v>
    <v>       0.00000000       0.37500000       0.50000000 </v>
    <v>       0.50000000       0.25000000       0.00000000 </v>
    <v>       0.00000000       0.50000000       0.00000000 </v>
    <v>       0.00000000       0.25000000       0.00000000 </v>
    <v>       0.25000000       0.25000000       0.50000000 </v>
    <v>       0.75000000       0.25000000       0.50000000 </v>
    <v>       0.50000000       0.62500000       0.50000000 </v>
    <v>       0.00000000       0.87500000       0.50000000 </v>
    <v>       0.00000000       0.62500000       0.50000000 </v>
    <v>       0.50000000       0.87500000       0.50000000 </v>
    <v>       0.00000000       0.75000000       0.00000000 </v>
    <v>       0.50000000       0.00000000       0.00000000 </v>
    <v>       0.50000000       0.75000000       0.00000000 </v>
    <v>       0.75000000       0.75000000       0.50000000 </v>
    <v>       0.25000000       0.75000000       0.50000000 </v>
   </varray>
  </structure>
  <varray name="forces" >
   <v>      -0.64245648       1.92152899       0.00000000 </v>
   <v>      -0.64245648      -1.92152899       0.00000000 </v>
   <v>       0.64245648       1.92152899       0.00000000 </v>
   <v>       0.64245648      -1.92152899       0.00000000 </v>
   <v>      -0.64245648       1.92152899       0.00000000 </v>
   <v>      -0.64245648      -1.92152899       0.00000000 </v>
   <v>       0.64245648       1.92152899       0.00000000 </v>
   <v>       0.64245648      -1.92152899       0.00000000 </v>
   <v>       0.00000000       0.00000000       0.00000000 </v>
   <v>       0.00000000      -0.46818459       0.00000000 </v>
   <v>       0.00000000       0.00000000       0.00000000 </v>
   <v>       0.00000000       0.46818459       0.00000000 </v>
   <v>       0.00000000       0.00000000       0.00000000 </v>
   <v>       0.00000000      -0.46818459       0.00000000 </v>
   <v>       0.00000000       0.00000000       0.00000000 </v>
   <v>       0.00000000       0.46818459       0.00000000 </v>
   <v>       0.00000000      -2.99875714       0.00000000 </v>
   <v>       0.00000000       2.99875714       0.00000000 </v>
   <v>       0.00000000      -1.06547627       0.00000000 </v>
   <v>       0.00000000       1.06547627       0.00000000 </v>
   <v>       0.00000000      -0.01718592       0.00000000 </v>
   <v>       0.00000000       0.00000000       0.00000000 </v>
   <v>       0.00000000       0.01718592       0.00000000 </v>
   <v>       0.00000000       0.00000000       0.00000000 </v>
   <v>       0.00000000       0.00000000       0.00000000 </v>
   <v>       0.00000000      -2.99875714       0.00000000 </v>
   <v>       0.00000000       2.99875714       0.00000000 </v>
   <v>       0.00000000      -1.06547627       0.00000000 </v>
   <v>       0.00000000       1.06547627       0.00000000 </v>
   <v>       0.00000000      -0.01718592       0.00000000 </v>
   <v>       0.00000000       0.00000000       0.00000000 </v>
   <v>       0.00000000       0.01718592       0.00000000 </v>
   <v>       0.00000000       0.00000000       0.00000000 </v>
   <v>       0.00000000       0.00000000       0.00000000 </v>
  </varray>
  <varray name="stress" >
   <v>    -106.77770553       0.00000000       0.00000000 </v>
   <v>       0.00000000     -97.78487951       0.00000000 </v>
   <v>       0.00000000       0.00000000     -90.93271737 </v>
  </varray>
  <energy>
   <i name="e_fr_energy">   -168.93636453 </i>
   <i name="e_wo_entrp">   -168.92702861 </i>
   <i name="e_0_energy">     -0.01867184 </i>
  </energy>
  <time name="totalsc">  383.85  384.52</time>
  <eigenvalues>
   <array>
    <dimension dim="1">band</dimension>
    <dimension dim="2">kpoint</dimension>
    <dimension dim="3">spin</dimension>
    <field>eigene</field>
    <field>occ</field>
    <set>
     <set comment="spin 1">
      <set comment="kpoint 1">
       <r>  -31.0638    1.0000 </r>
       <r>  -31.0570    1.0000 </r>
       <r>  -31.0566    1.0000 </r>
       <r>  -31.0497    1.0000 </r>
       <r>  -31.0496    1.0000 </r>
       <r>  -31.0434    1.0000 </r>
       <r>  -31.0429    1.0000 </r>
       <r>  -31.0367    1.0000 </r>
       <r>  -15.0111    1.0000 </r>
       <r>  -14.9478    1.0000 </r>
       <r>  -14.9065    1.0000 </r>
       <r>  -14.8225    1.0000 </r>
       <r>  -14.7834    1.0000 </r>
       <r>  -14.4710    1.0000 </r>
       <r>  -14.3628    1.0000 </r>
       <r>  -14.3054    1.0000 </r>
       <r>  -14.0980    1.0000 </r>
       <r>  -14.0700    1.0000 </r>
       <r>  -13.9464    1.0000 </r>
       <r>  -13.9211    1.0000 </r>
       <r>  -13.8372    1.0000 </r>
       <r>  -13.6594    1.0000 </r>
       <r>  -13.6530    1.0000 </r>
       <r>  -13.6397    1.0000 </r>
       <r>  -13.4936    1.0000 </r>
       <r>  -13.4925    1.0000 </r>
       <r>  -13.1736    1.0000 </r>
       <r>  -13.0741    1.0000 </r>
       <r>  -13.0598    1.0000 </r>
       <r>  -13.0415    1.0000 </r>
       <r>  -12.9859    1.0000 </r>
       <r>  -12.9744    1.0000 </r>
       <r>  -12.9690    1.0000 </r>
       <r>  -12.9574    1.0000 </r>
       <r>  -12.9499    1.0000 </r>
       <r>  -12.9385    1.0000 </r>
       <r>  -12.9368    1.0000 </r>
       <r>  -12.9335    1.0000 </r>
       <r>  -12.9223    1.0000 </r>
       <r>  -12.9220    1.0000 </r>
       <r>  -12.9138    1.0000 </r>
       <r>  -12.8961    1.0000 </r>
       <r>  -12.8420    1.0000 </r>
       <r>  -12.7538    1.0000 </r>
       <r>  -12.7498    1.0000 </r>
       <r>  -12.7078    1.0000 </r>
       <r>  -12.5063    1.0000 </r>
       <r>  -12.4752    1.0000 </r>
       <r>  -12.4671    1.0000 </r>
       <r>  -12.4252    1.0000 </r>
       <r>   -2.9418    1.0000 </r>
       <r>   -2.8230    1.0000 </r>
       <r>   -2.7994    1.0000 </r>
       <r>   -2.6960    1.0000 </r>
       <r>   -2.1978    1.0000 </r>
       <r>   -2.1829    1.0000 </r>
       <r>   -2.1333    1.0000 </r>
       <r>   -2.0817    1.0000 </r>
       <r>   -1.9854    1.0000 </r>
       <r>   -1.9498    1.0000 </r>
       <r>   -1.6232    1.0000 </r>
       <r>   -1.6219    1.0000 </r>
       <r>   -1.5661    1.0000 </r>
       <r>   -1.4743    1.0000 </r>
       <r>   -1.4648    1.0000 </r>
       <r>   -1.4408    1.0000 </r>
       <r>   -1.3904    1.0000 </r>
       <r>   -1.3652    1.0000 </r>
       <r>   -1.2645    1.0000 </r>
       <r>   -1.2219    1.0000 </r>
       <r>   -1.1991    1.0000 </r>
       <r>   -1.1867    1.0000 </r>
       <r>   -1.1866    1.0000 </r>
       <r>   -1.1272    1.0000 </r>
       <r>   -0.9753    1.0000 </r>
       <r>   -0.9393    1.0000 </r>
       <r>   -0.9374    1.0000 </r>
       <r>   -0.9248    1.0000 </r>
       <r>   -0.9145    1.0000 </r>
       <r>   -0.8845    1.0000 </r>
       <r>   -0.8582    1.0000 </r>
       <r>   -0.8297    1.0000 </r>
       <r>   -0.8007    1.0000 </r>
       <r>   -0.8006    1.0000 </r>
       <r>   -0.7670    1.0000 </r>
       <r>   -0.7270    1.0000 </r>
       <r>   -0.6762    1.0000 </r>
       <r>   -0.6603    1.0000 </r>
       <r>   -0.6353    1.0000 </r>
       <r>   -0.6243    1.0000 </r>
       <r>   -0.4890    1.0000 </r>
       <r>   -0.4863    1.0000 </r>
       <r>   -0.4821    1.0000 </r>
       <r>   -0.4478    1.0000 </r>
       <r>   -0.3781    1.0000 </r>
       <r>   -0.3779    1.0000 </r>
       <r>   -0.3369    1.0000 </r>
       <r>   -0.2185    1.0000 </r>
       <r>   -0.0971    1.0000 </r>
       <r>   -0.0971    1.0000 </r>
       <r>   -0.0791    1.0000 </r>
       <r>    0.0123    1.0000 </r>
       <r>    0.3209    1.0000 </r>
       <r>    0.3430    1.0000 </r>
       <r>    0.3892    1.0000 </r>
       <r>    0.4531    1.0000 </r>
       <r>    0.5836    1.0000 </r>
       <r>    0.6981    1.0000 </r>
       <r>    0.7223    1.0000 </r>
       <r>    0.7347    1.0000 </r>
       <r>    0.8140    1.0000 </r>
       <r>    0.8843    1.0000 </r>
       <r>    0.9734    1.0000 </r>
       <r>    0.9834    1.0000 </r>
       <r>    1.1224    1.0000 </r>
       <r>    1.1260    1.0000 </r>
       <r>    1.1450    1.0000 </r>
       <r>    1.3114    1.0000 </r>
       <r>    1.3333    1.0000 </r>
       <r>    1.3414    1.0000 </r>
       <r>    1.4257    1.0000 </r>
       <r>    1.4406    1.0000 </r>
       <r>    1.4738    1.0000 </r>
       <r>    1.5173    1.0000 </r>
       <r>    1.5762    1.0000 </r>
       <r>    1.6109    1.0000 </r>
       <r>    1.6409    1.0000 </r>
       <r>    1.6471    1.0000 </r>
       <r>    1.6625    1.0000 </r>
       <r>    1.6645    1.0000 </r>
       <r>    1.6668    1.0000 </r>
       <r>    1.7052    1.0000 </r>
       <r>    1.8341    1.0000 </r>
       <r>    1.8456    1.0000 </r>
       <r>    1.8554    1.0000 </r>
       <r>    1.8953    1.0000 </r>
       <r>    1.9143    1.0000 </r>
       <r>    1.9471    1.0000 </r>
       <r>    1.9849    1.0000 </r>
       <r>    2.0090    1.0000 </r>
       <r>    2.1722    1.0000 </r>
       <r>    2.3369    1.0000 </r>
       <r>    2.9099    0.0000 </r>
       <r>    3.2815    0.0000 </r>
       <r>    4.0669    0.0000 </r>
       <r>    4.5245    0.0000 </r>
       <r>    4.7717    0.0000 </r>
       <r>    4.8446    0.0000 </r>
       <r>    6.0881    0.0000 </r>
       <r>    6.4344    0.0000 </r>
       <r>    7.0192    0.0000 </r>
       <r>    7.4684    0.0000 </r>
       <r>    7.4837    0.0000 </r>
       <r>    7.8055    0.0000 </r>
       <r>    7.8650    0.0000 </r>
       <r>    8.0687    0.0000 </r>
       <r>    8.0925    0.0000 </r>
       <r>    8.1679    0.0000 </r>
       <r>    8.3305    0.0000 </r>
       <r>    8.3401    0.0000 </r>
       <r>    8.4817    0.0000 </r>
       <r>    8.5272    0.0000 </r>
       <r>    8.7487    0.0000 </r>
       <r>    8.8165    0.0000 </r>
       <r>    8.9416    0.0000 </r>
       <r>    9.1490    0.0000 </r>
       <r>    9.2974    0.0000 </r>
       <r>    9.4434    0.0000 </r>
       <r>    9.8493    0.0000 </r>
       <r>    9.8504    0.0000 </r>
       <r>    9.8709    0.0000 </r>
       <r>    9.8991    0.0000 </r>
       <r>    9.9548    0.0000 </r>
       <r>    9.9579    0.0000 </r>
       <r>    9.9802    0.0000 </r>
       <r>    9.9940    0.0000 </r>
       <r>   10.0051    0.0000 </r>
       <r>   10.0853    0.0000 </r>
       <r>   10.0885    0.0000 </r>
       <r>   10.1379    0.0000 </r>
       <r>   10.3554    0.0000 </r>
       <r>   10.4549    0.0000 </r>
       <r>   10.4599    0.0000 </r>
       <r>   10.5313    0.0000 </r>
      </set>
      <set comment="kpoint 2">
       <r>  -31.0602    1.0000 </r>
       <r>  -31.0536    1.0000 </r>
       <r>  -31.0531    1.0000 </r>
       <r>  -31.0531    1.0000 </r>
       <r>  -31.0468    1.0000 </r>
       <r>  -31.0466    1.0000 </r>
       <r>  -31.0462    1.0000 </r>
       <r>  -31.0400    1.0000 </r>
       <r>  -14.9506    1.0000 </r>
       <r>  -14.8871    1.0000 </r>
       <r>  -14.8615    1.0000 </r>
       <r>  -14.8112    1.0000 </r>
       <r>  -14.7947    1.0000 </r>
       <r>  -14.6232    1.0000 </r>
       <r>  -14.2995    1.0000 </r>
       <r>  -14.2772    1.0000 </r>
       <r>  -14.1937    1.0000 </r>
       <r>  -14.1143    1.0000 </r>
       <r>  -13.9978    1.0000 </r>
       <r>  -13.9235    1.0000 </r>
       <r>  -13.8409    1.0000 </r>
       <r>  -13.7084    1.0000 </r>
       <r>  -13.6214    1.0000 </r>
       <r>  -13.6185    1.0000 </r>
       <r>  -13.5661    1.0000 </r>
       <r>  -13.5600    1.0000 </r>
       <r>  -13.1383    1.0000 </r>
       <r>  -13.0752    1.0000 </r>
       <r>  -13.0670    1.0000 </r>
       <r>  -13.0551    1.0000 </r>
       <r>  -12.9769    1.0000 </r>
       <r>  -12.9655    1.0000 </r>
       <r>  -12.9602    1.0000 </r>
       <r>  -12.9589    1.0000 </r>
       <r>  -12.9489    1.0000 </r>
       <r>  -12.9473    1.0000 </r>
       <r>  -12.9424    1.0000 </r>
       <r>  -12.9310    1.0000 </r>
       <r>  -12.8738    1.0000 </r>
       <r>  -12.8168    1.0000 </r>
       <r>  -12.7936    1.0000 </r>
       <r>  -12.7600    1.0000 </r>
       <r>  -12.7587    1.0000 </r>
       <r>  -12.7555    1.0000 </r>
       <r>  -12.7259    1.0000 </r>
       <r>  -12.7195    1.0000 </r>
       <r>  -12.5787    1.0000 </r>
       <r>  -12.5512    1.0000 </r>
       <r>  -12.5420    1.0000 </r>
       <r>  -12.5094    1.0000 </r>
       <r>   -2.8595    1.0000 </r>
       <r>   -2.8286    1.0000 </r>
       <r>   -2.4840    1.0000 </r>
       <r>   -2.4619    1.0000 </r>
       <r>   -2.1952    1.0000 </r>
       <r>   -2.1878    1.0000 </r>
       <r>   -2.0218    1.0000 </r>
       <r>   -1.9915    1.0000 </r>
       <r>   -1.9884    1.0000 </r>
       <r>   -1.8578    1.0000 </r>
       <r>   -1.6744    1.0000 </r>
       <r>   -1.6650    1.0000 </r>
       <r>   -1.6540    1.0000 </r>
       <r>   -1.5533    1.0000 </r>
       <r>   -1.5533    1.0000 </r>
       <r>   -1.5509    1.0000 </r>
       <r>   -1.5390    1.0000 </r>
       <r>   -1.4883    1.0000 </r>
       <r>   -1.4517    1.0000 </r>
       <r>   -1.4096    1.0000 </r>
       <r>   -1.3706    1.0000 </r>
       <r>   -1.3643    1.0000 </r>
       <r>   -1.2374    1.0000 </r>
       <r>   -1.1902    1.0000 </r>
       <r>   -1.1511    1.0000 </r>
       <r>   -1.0366    1.0000 </r>
       <r>   -0.9138    1.0000 </r>
       <r>   -0.8946    1.0000 </r>
       <r>   -0.8495    1.0000 </r>
       <r>   -0.8458    1.0000 </r>
       <r>   -0.8441    1.0000 </r>
       <r>   -0.8285    1.0000 </r>
       <r>   -0.7991    1.0000 </r>
       <r>   -0.7982    1.0000 </r>
       <r>   -0.7936    1.0000 </r>
       <r>   -0.7799    1.0000 </r>
       <r>   -0.6565    1.0000 </r>
       <r>   -0.6025    1.0000 </r>
       <r>   -0.5797    1.0000 </r>
       <r>   -0.5729    1.0000 </r>
       <r>   -0.5111    1.0000 </r>
       <r>   -0.4971    1.0000 </r>
       <r>   -0.4912    1.0000 </r>
       <r>   -0.4866    1.0000 </r>
       <r>   -0.4063    1.0000 </r>
       <r>   -0.3763    1.0000 </r>
       <r>   -0.3733    1.0000 </r>
       <r>   -0.3554    1.0000 </r>
       <r>    0.0112    1.0000 </r>
       <r>    0.0607    1.0000 </r>
       <r>    0.1673    1.0000 </r>
       <r>    0.2466    1.0000 </r>
       <r>    0.3420    1.0000 </r>
       <r>    0.3682    1.0000 </r>
       <r>    0.4157    1.0000 </r>
       <r>    0.5377    1.0000 </r>
       <r>    0.6422    1.0000 </r>
       <r>    0.7337    1.0000 </r>
       <r>    0.7545    1.0000 </r>
       <r>    0.8027    1.0000 </r>
       <r>    0.9471    1.0000 </r>
       <r>    0.9478    1.0000 </r>
       <r>    1.0056    1.0000 </r>
       <r>    1.0635    1.0000 </r>
       <r>    1.0758    1.0000 </r>
       <r>    1.1437    1.0000 </r>
       <r>    1.1629    1.0000 </r>
       <r>    1.1801    1.0000 </r>
       <r>    1.2246    1.0000 </r>
       <r>    1.2591    1.0000 </r>
       <r>    1.2596    1.0000 </r>
       <r>    1.4919    1.0000 </r>
       <r>    1.4968    1.0000 </r>
       <r>    1.5456    1.0000 </r>
       <r>    1.5525    1.0000 </r>
       <r>    1.5845    1.0000 </r>
       <r>    1.6024    1.0000 </r>
       <r>    1.6489    1.0000 </r>
       <r>    1.6531    1.0000 </r>
       <r>    1.6584    1.0000 </r>
       <r>    1.6764    1.0000 </r>
       <r>    1.7175    1.0000 </r>
       <r>    1.7470    1.0000 </r>
       <r>    1.8331    1.0000 </r>
       <r>    1.8531    1.0000 </r>
       <r>    1.9044    1.0000 </r>
       <r>    1.9514    1.0000 </r>
       <r>    1.9605    1.0000 </r>
       <r>    2.0102    1.0000 </r>
       <r>    2.1601    1.0000 </r>
       <r>    2.2350    1.0000 </r>
       <r>    2.4023    0.9997 </r>
       <r>    2.5818    0.0495 </r>
       <r>    3.0184    0.0000 </r>
       <r>    4.3562    0.0000 </r>
       <r>    4.4637    0.0000 </r>
       <r>    4.6063    0.0000 </r>
       <r>    4.7448    0.0000 </r>
       <r>    6.5722    0.0000 </r>
       <r>    6.7335    0.0000 </r>
       <r>    7.4752    0.0000 </r>
       <r>    7.6647    0.0000 </r>
       <r>    7.7873    0.0000 </r>
       <r>    7.8412    0.0000 </r>
       <r>    8.0985    0.0000 </r>
       <r>    8.0993    0.0000 </r>
       <r>    8.1462    0.0000 </r>
       <r>    8.2110    0.0000 </r>
       <r>    8.2210    0.0000 </r>
       <r>    8.3598    0.0000 </r>
       <r>    8.4530    0.0000 </r>
       <r>    8.4686    0.0000 </r>
       <r>    8.7136    0.0000 </r>
       <r>    8.7720    0.0000 </r>
       <r>    9.0098    0.0000 </r>
       <r>    9.0871    0.0000 </r>
       <r>    9.2522    0.0000 </r>
       <r>    9.3449    0.0000 </r>
       <r>    9.3922    0.0000 </r>
       <r>    9.5654    0.0000 </r>
       <r>    9.8026    0.0000 </r>
       <r>    9.8623    0.0000 </r>
       <r>    9.8965    0.0000 </r>
       <r>    9.9886    0.0000 </r>
       <r>    9.9903    0.0000 </r>
       <r>   10.0548    0.0000 </r>
       <r>   10.1589    0.0000 </r>
       <r>   10.2016    0.0000 </r>
       <r>   10.2249    0.0000 </r>
       <r>   10.3011    0.0000 </r>
       <r>   10.3513    0.0000 </r>
       <r>   10.3518    0.0000 </r>
       <r>   10.4857    0.0000 </r>
       <r>   10.5099    0.0000 </r>
      </set>
      <set comment="kpoint 3">
       <r>  -31.0589    1.0000 </r>
       <r>  -31.0524    1.0000 </r>
       <r>  -31.0518    1.0000 </r>
       <r>  -31.0452    1.0000 </r>
       <r>  -31.0452    1.0000 </r>
       <r>  -31.0393    1.0000 </r>
       <r>  -31.0386    1.0000 </r>
       <r>  -31.0326    1.0000 </r>
       <r>  -14.8787    1.0000 </r>
       <r>  -14.8663    1.0000 </r>
       <r>  -14.8441    1.0000 </r>
       <r>  -14.7194    1.0000 </r>
       <r>  -14.6402    1.0000 </r>
       <r>  -14.4317    1.0000 </r>
       <r>  -14.2758    1.0000 </r>
       <r>  -14.2489    1.0000 </r>
       <r>  -14.0982    1.0000 </r>
       <r>  -14.0740    1.0000 </r>
       <r>  -14.0733    1.0000 </r>
       <r>  -14.0545    1.0000 </r>
       <r>  -13.9701    1.0000 </r>
       <r>  -13.7889    1.0000 </r>
       <r>  -13.6920    1.0000 </r>
       <r>  -13.6684    1.0000 </r>
       <r>  -13.5620    1.0000 </r>
       <r>  -13.5560    1.0000 </r>
       <r>  -13.1629    1.0000 </r>
       <r>  -13.1419    1.0000 </r>
       <r>  -13.0748    1.0000 </r>
       <r>  -13.0654    1.0000 </r>
       <r>  -13.0542    1.0000 </r>
       <r>  -13.0504    1.0000 </r>
       <r>  -13.0189    1.0000 </r>
       <r>  -13.0057    1.0000 </r>
       <r>  -12.9100    1.0000 </r>
       <r>  -12.9014    1.0000 </r>
       <r>  -12.8857    1.0000 </r>
       <r>  -12.8839    1.0000 </r>
       <r>  -12.8316    1.0000 </r>
       <r>  -12.8062    1.0000 </r>
       <r>  -12.7891    1.0000 </r>
       <r>  -12.7751    1.0000 </r>
       <r>  -12.7631    1.0000 </r>
       <r>  -12.7604    1.0000 </r>
       <r>  -12.7391    1.0000 </r>
       <r>  -12.7156    1.0000 </r>
       <r>  -12.6525    1.0000 </r>
       <r>  -12.5759    1.0000 </r>
       <r>  -12.5687    1.0000 </r>
       <r>  -12.4992    1.0000 </r>
       <r>   -2.9626    1.0000 </r>
       <r>   -2.8565    1.0000 </r>
       <r>   -2.8203    1.0000 </r>
       <r>   -2.7048    1.0000 </r>
       <r>   -2.1828    1.0000 </r>
       <r>   -2.1821    1.0000 </r>
       <r>   -2.0824    1.0000 </r>
       <r>   -2.0372    1.0000 </r>
       <r>   -2.0013    1.0000 </r>
       <r>   -1.9908    1.0000 </r>
       <r>   -1.8935    1.0000 </r>
       <r>   -1.8933    1.0000 </r>
       <r>   -1.8784    1.0000 </r>
       <r>   -1.8763    1.0000 </r>
       <r>   -1.8163    1.0000 </r>
       <r>   -1.7809    1.0000 </r>
       <r>   -1.7522    1.0000 </r>
       <r>   -1.7227    1.0000 </r>
       <r>   -1.7106    1.0000 </r>
       <r>   -1.6902    1.0000 </r>
       <r>   -1.5772    1.0000 </r>
       <r>   -1.5340    1.0000 </r>
       <r>   -1.4741    1.0000 </r>
       <r>   -1.4161    1.0000 </r>
       <r>   -1.4149    1.0000 </r>
       <r>   -1.4121    1.0000 </r>
       <r>   -1.3871    1.0000 </r>
       <r>   -1.3306    1.0000 </r>
       <r>   -1.1900    1.0000 </r>
       <r>   -1.1713    1.0000 </r>
       <r>   -1.1517    1.0000 </r>
       <r>   -1.1176    1.0000 </r>
       <r>   -0.8852    1.0000 </r>
       <r>   -0.8207    1.0000 </r>
       <r>   -0.7995    1.0000 </r>
       <r>   -0.7638    1.0000 </r>
       <r>   -0.7461    1.0000 </r>
       <r>   -0.7429    1.0000 </r>
       <r>   -0.5747    1.0000 </r>
       <r>   -0.5560    1.0000 </r>
       <r>   -0.5553    1.0000 </r>
       <r>   -0.5222    1.0000 </r>
       <r>   -0.4078    1.0000 </r>
       <r>   -0.4033    1.0000 </r>
       <r>   -0.4003    1.0000 </r>
       <r>   -0.3752    1.0000 </r>
       <r>    0.0089    1.0000 </r>
       <r>    0.0639    1.0000 </r>
       <r>    0.1383    1.0000 </r>
       <r>    0.1666    1.0000 </r>
       <r>    0.2552    1.0000 </r>
       <r>    0.3461    1.0000 </r>
       <r>    0.6322    1.0000 </r>
       <r>    0.7026    1.0000 </r>
       <r>    0.7071    1.0000 </r>
       <r>    0.7502    1.0000 </r>
       <r>    0.7601    1.0000 </r>
       <r>    0.8237    1.0000 </r>
       <r>    0.8389    1.0000 </r>
       <r>    0.8965    1.0000 </r>
       <r>    0.9798    1.0000 </r>
       <r>    1.0052    1.0000 </r>
       <r>    1.1097    1.0000 </r>
       <r>    1.1238    1.0000 </r>
       <r>    1.2167    1.0000 </r>
       <r>    1.2204    1.0000 </r>
       <r>    1.2581    1.0000 </r>
       <r>    1.2812    1.0000 </r>
       <r>    1.3225    1.0000 </r>
       <r>    1.3351    1.0000 </r>
       <r>    1.3780    1.0000 </r>
       <r>    1.3922    1.0000 </r>
       <r>    1.4812    1.0000 </r>
       <r>    1.4988    1.0000 </r>
       <r>    1.5385    1.0000 </r>
       <r>    1.5561    1.0000 </r>
       <r>    1.6154    1.0000 </r>
       <r>    1.7288    1.0000 </r>
       <r>    1.7903    1.0000 </r>
       <r>    1.8595    1.0000 </r>
       <r>    1.8810    1.0000 </r>
       <r>    1.8878    1.0000 </r>
       <r>    1.9003    1.0000 </r>
       <r>    1.9154    1.0000 </r>
       <r>    1.9278    1.0000 </r>
       <r>    2.0523    1.0000 </r>
       <r>    2.0790    1.0000 </r>
       <r>    2.2972    1.0000 </r>
       <r>    2.4556    0.9726 </r>
       <r>    2.5454    0.2675 </r>
       <r>    2.7069    0.0000 </r>
       <r>    2.8822    0.0000 </r>
       <r>    3.4004    0.0000 </r>
       <r>    3.4211    0.0000 </r>
       <r>    4.3559    0.0000 </r>
       <r>    4.5098    0.0000 </r>
       <r>    4.8756    0.0000 </r>
       <r>    4.8953    0.0000 </r>
       <r>    6.1712    0.0000 </r>
       <r>    6.2224    0.0000 </r>
       <r>    7.1649    0.0000 </r>
       <r>    7.5124    0.0000 </r>
       <r>    7.7359    0.0000 </r>
       <r>    7.7426    0.0000 </r>
       <r>    7.9172    0.0000 </r>
       <r>    7.9960    0.0000 </r>
       <r>    8.1211    0.0000 </r>
       <r>    8.3245    0.0000 </r>
       <r>    8.4049    0.0000 </r>
       <r>    8.4943    0.0000 </r>
       <r>    8.7832    0.0000 </r>
       <r>    9.0320    0.0000 </r>
       <r>    9.1131    0.0000 </r>
       <r>    9.1329    0.0000 </r>
       <r>    9.2324    0.0000 </r>
       <r>    9.2493    0.0000 </r>
       <r>    9.6510    0.0000 </r>
       <r>    9.6670    0.0000 </r>
       <r>    9.6998    0.0000 </r>
       <r>    9.7124    0.0000 </r>
       <r>    9.8270    0.0000 </r>
       <r>    9.9177    0.0000 </r>
       <r>    9.9377    0.0000 </r>
       <r>   10.0032    0.0000 </r>
       <r>   10.0060    0.0000 </r>
       <r>   10.1508    0.0000 </r>
       <r>   10.1533    0.0000 </r>
       <r>   10.2449    0.0000 </r>
       <r>   10.2876    0.0000 </r>
       <r>   10.3005    0.0000 </r>
       <r>   10.3497    0.0000 </r>
       <r>   10.3755    0.0000 </r>
       <r>   10.4439    0.0000 </r>
       <r>   10.4853    0.0000 </r>
      </set>
      <set comment="kpoint 4">
       <r>  -31.0555    1.0000 </r>
       <r>  -31.0491    1.0000 </r>
       <r>  -31.0487    1.0000 </r>
       <r>  -31.0485    1.0000 </r>
       <r>  -31.0425    1.0000 </r>
       <r>  -31.0421    1.0000 </r>
       <r>  -31.0418    1.0000 </r>
       <r>  -31.0357    1.0000 </r>
       <r>  -14.8296    1.0000 </r>
       <r>  -14.8246    1.0000 </r>
       <r>  -14.7922    1.0000 </r>
       <r>  -14.7018    1.0000 </r>
       <r>  -14.6887    1.0000 </r>
       <r>  -14.5557    1.0000 </r>
       <r>  -14.2544    1.0000 </r>
       <r>  -14.2102    1.0000 </r>
       <r>  -14.1973    1.0000 </r>
       <r>  -14.1401    1.0000 </r>
       <r>  -13.9683    1.0000 </r>
       <r>  -13.9262    1.0000 </r>
       <r>  -13.8676    1.0000 </r>
       <r>  -13.8014    1.0000 </r>
       <r>  -13.7542    1.0000 </r>
       <r>  -13.7453    1.0000 </r>
       <r>  -13.6997    1.0000 </r>
       <r>  -13.6679    1.0000 </r>
       <r>  -13.1411    1.0000 </r>
       <r>  -13.0960    1.0000 </r>
       <r>  -13.0586    1.0000 </r>
       <r>  -13.0504    1.0000 </r>
       <r>  -13.0481    1.0000 </r>
       <r>  -13.0306    1.0000 </r>
       <r>  -13.0243    1.0000 </r>
       <r>  -13.0034    1.0000 </r>
       <r>  -12.9569    1.0000 </r>
       <r>  -12.9558    1.0000 </r>
       <r>  -12.8744    1.0000 </r>
       <r>  -12.8432    1.0000 </r>
       <r>  -12.8225    1.0000 </r>
       <r>  -12.8170    1.0000 </r>
       <r>  -12.7684    1.0000 </r>
       <r>  -12.7665    1.0000 </r>
       <r>  -12.7117    1.0000 </r>
       <r>  -12.7091    1.0000 </r>
       <r>  -12.6878    1.0000 </r>
       <r>  -12.6767    1.0000 </r>
       <r>  -12.6481    1.0000 </r>
       <r>  -12.6049    1.0000 </r>
       <r>  -12.5946    1.0000 </r>
       <r>  -12.5606    1.0000 </r>
       <r>   -2.8744    1.0000 </r>
       <r>   -2.8551    1.0000 </r>
       <r>   -2.4935    1.0000 </r>
       <r>   -2.4705    1.0000 </r>
       <r>   -2.1846    1.0000 </r>
       <r>   -2.1846    1.0000 </r>
       <r>   -2.0780    1.0000 </r>
       <r>   -2.0626    1.0000 </r>
       <r>   -1.9462    1.0000 </r>
       <r>   -1.9083    1.0000 </r>
       <r>   -1.8992    1.0000 </r>
       <r>   -1.8910    1.0000 </r>
       <r>   -1.8888    1.0000 </r>
       <r>   -1.8168    1.0000 </r>
       <r>   -1.8043    1.0000 </r>
       <r>   -1.7225    1.0000 </r>
       <r>   -1.7165    1.0000 </r>
       <r>   -1.7094    1.0000 </r>
       <r>   -1.7005    1.0000 </r>
       <r>   -1.6951    1.0000 </r>
       <r>   -1.6569    1.0000 </r>
       <r>   -1.6523    1.0000 </r>
       <r>   -1.6120    1.0000 </r>
       <r>   -1.5817    1.0000 </r>
       <r>   -1.5475    1.0000 </r>
       <r>   -1.5260    1.0000 </r>
       <r>   -1.4319    1.0000 </r>
       <r>   -1.3581    1.0000 </r>
       <r>   -1.3424    1.0000 </r>
       <r>   -1.3140    1.0000 </r>
       <r>   -1.1866    1.0000 </r>
       <r>   -1.1786    1.0000 </r>
       <r>   -1.1138    1.0000 </r>
       <r>   -1.0204    1.0000 </r>
       <r>   -0.8113    1.0000 </r>
       <r>   -0.8054    1.0000 </r>
       <r>   -0.7877    1.0000 </r>
       <r>   -0.7877    1.0000 </r>
       <r>   -0.6577    1.0000 </r>
       <r>   -0.5776    1.0000 </r>
       <r>   -0.5124    1.0000 </r>
       <r>   -0.4938    1.0000 </r>
       <r>   -0.4145    1.0000 </r>
       <r>   -0.4096    1.0000 </r>
       <r>   -0.4061    1.0000 </r>
       <r>   -0.3989    1.0000 </r>
       <r>   -0.1567    1.0000 </r>
       <r>   -0.0634    1.0000 </r>
       <r>    0.3395    1.0000 </r>
       <r>    0.3915    1.0000 </r>
       <r>    0.5581    1.0000 </r>
       <r>    0.6122    1.0000 </r>
       <r>    0.6627    1.0000 </r>
       <r>    0.6882    1.0000 </r>
       <r>    0.8049    1.0000 </r>
       <r>    0.8360    1.0000 </r>
       <r>    0.8969    1.0000 </r>
       <r>    0.9071    1.0000 </r>
       <r>    0.9483    1.0000 </r>
       <r>    0.9522    1.0000 </r>
       <r>    0.9565    1.0000 </r>
       <r>    1.0255    1.0000 </r>
       <r>    1.0470    1.0000 </r>
       <r>    1.0957    1.0000 </r>
       <r>    1.1862    1.0000 </r>
       <r>    1.1958    1.0000 </r>
       <r>    1.2165    1.0000 </r>
       <r>    1.2780    1.0000 </r>
       <r>    1.2797    1.0000 </r>
       <r>    1.3239    1.0000 </r>
       <r>    1.3241    1.0000 </r>
       <r>    1.3279    1.0000 </r>
       <r>    1.4310    1.0000 </r>
       <r>    1.4400    1.0000 </r>
       <r>    1.4482    1.0000 </r>
       <r>    1.5811    1.0000 </r>
       <r>    1.6331    1.0000 </r>
       <r>    1.6831    1.0000 </r>
       <r>    1.6992    1.0000 </r>
       <r>    1.7895    1.0000 </r>
       <r>    1.8752    1.0000 </r>
       <r>    1.9017    1.0000 </r>
       <r>    1.9129    1.0000 </r>
       <r>    1.9770    1.0000 </r>
       <r>    2.0546    1.0000 </r>
       <r>    2.2031    1.0000 </r>
       <r>    2.3775    1.0000 </r>
       <r>    2.4526    0.9776 </r>
       <r>    2.5042    0.7077 </r>
       <r>    2.5586    0.1608 </r>
       <r>    2.7319    0.0000 </r>
       <r>    2.9193    0.0000 </r>
       <r>    3.1099    0.0000 </r>
       <r>    3.1796    0.0000 </r>
       <r>    4.4720    0.0000 </r>
       <r>    4.4950    0.0000 </r>
       <r>    4.7830    0.0000 </r>
       <r>    4.8936    0.0000 </r>
       <r>    6.1799    0.0000 </r>
       <r>    6.2036    0.0000 </r>
       <r>    7.5394    0.0000 </r>
       <r>    7.7393    0.0000 </r>
       <r>    7.7747    0.0000 </r>
       <r>    7.8231    0.0000 </r>
       <r>    8.0643    0.0000 </r>
       <r>    8.2102    0.0000 </r>
       <r>    8.3061    0.0000 </r>
       <r>    8.4356    0.0000 </r>
       <r>    8.4763    0.0000 </r>
       <r>    8.5304    0.0000 </r>
       <r>    8.7964    0.0000 </r>
       <r>    8.8098    0.0000 </r>
       <r>    8.8314    0.0000 </r>
       <r>    9.2009    0.0000 </r>
       <r>    9.2147    0.0000 </r>
       <r>    9.2433    0.0000 </r>
       <r>    9.2831    0.0000 </r>
       <r>    9.3837    0.0000 </r>
       <r>    9.5870    0.0000 </r>
       <r>    9.6732    0.0000 </r>
       <r>    9.7260    0.0000 </r>
       <r>    9.7496    0.0000 </r>
       <r>    9.8208    0.0000 </r>
       <r>    9.8965    0.0000 </r>
       <r>    9.9230    0.0000 </r>
       <r>    9.9618    0.0000 </r>
       <r>   10.0802    0.0000 </r>
       <r>   10.0885    0.0000 </r>
       <r>   10.1540    0.0000 </r>
       <r>   10.1753    0.0000 </r>
       <r>   10.4103    0.0000 </r>
       <r>   10.4132    0.0000 </r>
       <r>   10.4902    0.0000 </r>
       <r>   10.6312    0.0000 </r>
      </set>
      <set comment="kpoint 5">
       <r>  -31.0511    1.0000 </r>
       <r>  -31.0449    1.0000 </r>
       <r>  -31.0441    1.0000 </r>
       <r>  -31.0382    1.0000 </r>
       <r>  -31.0379    1.0000 </r>
       <r>  -31.0325    1.0000 </r>
       <r>  -31.0316    1.0000 </r>
       <r>  -31.0259    1.0000 </r>
       <r>  -14.8323    1.0000 </r>
       <r>  -14.7813    1.0000 </r>
       <r>  -14.5304    1.0000 </r>
       <r>  -14.4994    1.0000 </r>
       <r>  -14.4593    1.0000 </r>
       <r>  -14.3703    1.0000 </r>
       <r>  -14.2258    1.0000 </r>
       <r>  -14.1364    1.0000 </r>
       <r>  -14.1249    1.0000 </r>
       <r>  -14.1185    1.0000 </r>
       <r>  -14.0579    1.0000 </r>
       <r>  -14.0526    1.0000 </r>
       <r>  -13.9450    1.0000 </r>
       <r>  -13.9265    1.0000 </r>
       <r>  -13.8943    1.0000 </r>
       <r>  -13.8339    1.0000 </r>
       <r>  -13.6440    1.0000 </r>
       <r>  -13.6088    1.0000 </r>
       <r>  -13.2482    1.0000 </r>
       <r>  -13.1525    1.0000 </r>
       <r>  -13.1453    1.0000 </r>
       <r>  -13.1428    1.0000 </r>
       <r>  -13.1374    1.0000 </r>
       <r>  -13.0678    1.0000 </r>
       <r>  -13.0519    1.0000 </r>
       <r>  -13.0342    1.0000 </r>
       <r>  -13.0312    1.0000 </r>
       <r>  -13.0183    1.0000 </r>
       <r>  -12.8900    1.0000 </r>
       <r>  -12.8780    1.0000 </r>
       <r>  -12.8640    1.0000 </r>
       <r>  -12.8594    1.0000 </r>
       <r>  -12.7823    1.0000 </r>
       <r>  -12.7727    1.0000 </r>
       <r>  -12.7627    1.0000 </r>
       <r>  -12.7303    1.0000 </r>
       <r>  -12.6608    1.0000 </r>
       <r>  -12.6253    1.0000 </r>
       <r>  -12.5869    1.0000 </r>
       <r>  -12.5793    1.0000 </r>
       <r>  -12.5611    1.0000 </r>
       <r>  -12.5378    1.0000 </r>
       <r>   -3.1850    1.0000 </r>
       <r>   -3.0795    1.0000 </r>
       <r>   -3.0220    1.0000 </r>
       <r>   -2.8729    1.0000 </r>
       <r>   -2.7083    1.0000 </r>
       <r>   -2.6914    1.0000 </r>
       <r>   -2.5878    1.0000 </r>
       <r>   -2.5573    1.0000 </r>
       <r>   -2.5552    1.0000 </r>
       <r>   -2.5446    1.0000 </r>
       <r>   -2.2309    1.0000 </r>
       <r>   -2.2207    1.0000 </r>
       <r>   -2.1908    1.0000 </r>
       <r>   -2.1682    1.0000 </r>
       <r>   -2.1174    1.0000 </r>
       <r>   -2.0036    1.0000 </r>
       <r>   -1.9576    1.0000 </r>
       <r>   -1.9079    1.0000 </r>
       <r>   -1.8858    1.0000 </r>
       <r>   -1.8684    1.0000 </r>
       <r>   -1.8574    1.0000 </r>
       <r>   -1.7389    1.0000 </r>
       <r>   -1.7376    1.0000 </r>
       <r>   -1.6194    1.0000 </r>
       <r>   -1.6038    1.0000 </r>
       <r>   -1.6002    1.0000 </r>
       <r>   -1.5331    1.0000 </r>
       <r>   -1.4919    1.0000 </r>
       <r>   -1.4860    1.0000 </r>
       <r>   -1.4261    1.0000 </r>
       <r>   -1.1757    1.0000 </r>
       <r>   -1.0749    1.0000 </r>
       <r>   -0.9088    1.0000 </r>
       <r>   -0.8810    1.0000 </r>
       <r>   -0.8478    1.0000 </r>
       <r>   -0.7568    1.0000 </r>
       <r>   -0.6956    1.0000 </r>
       <r>   -0.6428    1.0000 </r>
       <r>   -0.5476    1.0000 </r>
       <r>   -0.5468    1.0000 </r>
       <r>   -0.4472    1.0000 </r>
       <r>   -0.4451    1.0000 </r>
       <r>   -0.3298    1.0000 </r>
       <r>   -0.3153    1.0000 </r>
       <r>   -0.2731    1.0000 </r>
       <r>   -0.2561    1.0000 </r>
       <r>    0.1090    1.0000 </r>
       <r>    0.2191    1.0000 </r>
       <r>    0.2536    1.0000 </r>
       <r>    0.4584    1.0000 </r>
       <r>    0.5561    1.0000 </r>
       <r>    0.5918    1.0000 </r>
       <r>    0.7207    1.0000 </r>
       <r>    0.8317    1.0000 </r>
       <r>    0.8362    1.0000 </r>
       <r>    0.8831    1.0000 </r>
       <r>    0.8846    1.0000 </r>
       <r>    0.9392    1.0000 </r>
       <r>    0.9415    1.0000 </r>
       <r>    1.0163    1.0000 </r>
       <r>    1.0260    1.0000 </r>
       <r>    1.0510    1.0000 </r>
       <r>    1.0808    1.0000 </r>
       <r>    1.1818    1.0000 </r>
       <r>    1.2473    1.0000 </r>
       <r>    1.2968    1.0000 </r>
       <r>    1.3066    1.0000 </r>
       <r>    1.3253    1.0000 </r>
       <r>    1.3261    1.0000 </r>
       <r>    1.3275    1.0000 </r>
       <r>    1.3913    1.0000 </r>
       <r>    1.5342    1.0000 </r>
       <r>    1.5562    1.0000 </r>
       <r>    1.5666    1.0000 </r>
       <r>    1.6694    1.0000 </r>
       <r>    1.6695    1.0000 </r>
       <r>    1.7158    1.0000 </r>
       <r>    1.7976    1.0000 </r>
       <r>    1.8058    1.0000 </r>
       <r>    1.8591    1.0000 </r>
       <r>    1.8946    1.0000 </r>
       <r>    2.1386    1.0000 </r>
       <r>    2.1763    1.0000 </r>
       <r>    2.2456    1.0000 </r>
       <r>    2.3469    1.0000 </r>
       <r>    2.3691    1.0000 </r>
       <r>    2.3962    0.9998 </r>
       <r>    2.4018    0.9997 </r>
       <r>    2.8674    0.0000 </r>
       <r>    3.1134    0.0000 </r>
       <r>    3.7690    0.0000 </r>
       <r>    3.8106    0.0000 </r>
       <r>    4.0550    0.0000 </r>
       <r>    4.0598    0.0000 </r>
       <r>    4.3457    0.0000 </r>
       <r>    4.4201    0.0000 </r>
       <r>    4.7992    0.0000 </r>
       <r>    5.0256    0.0000 </r>
       <r>    5.6500    0.0000 </r>
       <r>    5.6795    0.0000 </r>
       <r>    7.2761    0.0000 </r>
       <r>    7.3659    0.0000 </r>
       <r>    7.6257    0.0000 </r>
       <r>    7.7379    0.0000 </r>
       <r>    8.4165    0.0000 </r>
       <r>    8.6431    0.0000 </r>
       <r>    8.7492    0.0000 </r>
       <r>    8.7531    0.0000 </r>
       <r>    8.7654    0.0000 </r>
       <r>    8.7744    0.0000 </r>
       <r>    8.8313    0.0000 </r>
       <r>    9.1730    0.0000 </r>
       <r>    9.3168    0.0000 </r>
       <r>    9.3218    0.0000 </r>
       <r>    9.4190    0.0000 </r>
       <r>    9.4868    0.0000 </r>
       <r>    9.7635    0.0000 </r>
       <r>    9.8472    0.0000 </r>
       <r>    9.9146    0.0000 </r>
       <r>    9.9941    0.0000 </r>
       <r>   10.0298    0.0000 </r>
       <r>   10.0470    0.0000 </r>
       <r>   10.2924    0.0000 </r>
       <r>   10.2939    0.0000 </r>
       <r>   10.4636    0.0000 </r>
       <r>   10.5351    0.0000 </r>
       <r>   10.5446    0.0000 </r>
       <r>   10.5732    0.0000 </r>
       <r>   10.5895    0.0000 </r>
       <r>   10.7226    0.0000 </r>
       <r>   10.7503    0.0000 </r>
       <r>   10.8611    0.0000 </r>
       <r>   11.0769    0.0000 </r>
       <r>   11.1127    0.0000 </r>
      </set>
      <set comment="kpoint 6">
       <r>  -31.0479    1.0000 </r>
       <r>  -31.0418    1.0000 </r>
       <r>  -31.0414    1.0000 </r>
       <r>  -31.0410    1.0000 </r>
       <r>  -31.0356    1.0000 </r>
       <r>  -31.0350    1.0000 </r>
       <r>  -31.0346    1.0000 </r>
       <r>  -31.0289    1.0000 </r>
       <r>  -14.7436    1.0000 </r>
       <r>  -14.6915    1.0000 </r>
       <r>  -14.5556    1.0000 </r>
       <r>  -14.4698    1.0000 </r>
       <r>  -14.4697    1.0000 </r>
       <r>  -14.4535    1.0000 </r>
       <r>  -14.2727    1.0000 </r>
       <r>  -14.2441    1.0000 </r>
       <r>  -14.1767    1.0000 </r>
       <r>  -14.1047    1.0000 </r>
       <r>  -14.0422    1.0000 </r>
       <r>  -14.0275    1.0000 </r>
       <r>  -14.0271    1.0000 </r>
       <r>  -14.0218    1.0000 </r>
       <r>  -13.7984    1.0000 </r>
       <r>  -13.7666    1.0000 </r>
       <r>  -13.6788    1.0000 </r>
       <r>  -13.6522    1.0000 </r>
       <r>  -13.1887    1.0000 </r>
       <r>  -13.1507    1.0000 </r>
       <r>  -13.1049    1.0000 </r>
       <r>  -13.0929    1.0000 </r>
       <r>  -13.0880    1.0000 </r>
       <r>  -13.0620    1.0000 </r>
       <r>  -13.0445    1.0000 </r>
       <r>  -13.0392    1.0000 </r>
       <r>  -12.9649    1.0000 </r>
       <r>  -12.9516    1.0000 </r>
       <r>  -12.9301    1.0000 </r>
       <r>  -12.8809    1.0000 </r>
       <r>  -12.8741    1.0000 </r>
       <r>  -12.7731    1.0000 </r>
       <r>  -12.7690    1.0000 </r>
       <r>  -12.7394    1.0000 </r>
       <r>  -12.7211    1.0000 </r>
       <r>  -12.7174    1.0000 </r>
       <r>  -12.7049    1.0000 </r>
       <r>  -12.6732    1.0000 </r>
       <r>  -12.6671    1.0000 </r>
       <r>  -12.6226    1.0000 </r>
       <r>  -12.6212    1.0000 </r>
       <r>  -12.5976    1.0000 </r>
       <r>   -3.0864    1.0000 </r>
       <r>   -3.0693    1.0000 </r>
       <r>   -2.8146    1.0000 </r>
       <r>   -2.7797    1.0000 </r>
       <r>   -2.7178    1.0000 </r>
       <r>   -2.7045    1.0000 </r>
       <r>   -2.5717    1.0000 </r>
       <r>   -2.5541    1.0000 </r>
       <r>   -2.3970    1.0000 </r>
       <r>   -2.3947    1.0000 </r>
       <r>   -2.1823    1.0000 </r>
       <r>   -2.1636    1.0000 </r>
       <r>   -2.1115    1.0000 </r>
       <r>   -2.0822    1.0000 </r>
       <r>   -2.0534    1.0000 </r>
       <r>   -2.0202    1.0000 </r>
       <r>   -1.9747    1.0000 </r>
       <r>   -1.9256    1.0000 </r>
       <r>   -1.8624    1.0000 </r>
       <r>   -1.8334    1.0000 </r>
       <r>   -1.8168    1.0000 </r>
       <r>   -1.8127    1.0000 </r>
       <r>   -1.7971    1.0000 </r>
       <r>   -1.7009    1.0000 </r>
       <r>   -1.6763    1.0000 </r>
       <r>   -1.6512    1.0000 </r>
       <r>   -1.6225    1.0000 </r>
       <r>   -1.5276    1.0000 </r>
       <r>   -1.5120    1.0000 </r>
       <r>   -1.4989    1.0000 </r>
       <r>   -1.4949    1.0000 </r>
       <r>   -1.4899    1.0000 </r>
       <r>   -1.0758    1.0000 </r>
       <r>   -1.0239    1.0000 </r>
       <r>   -0.8892    1.0000 </r>
       <r>   -0.8598    1.0000 </r>
       <r>   -0.8031    1.0000 </r>
       <r>   -0.7952    1.0000 </r>
       <r>   -0.5465    1.0000 </r>
       <r>   -0.4783    1.0000 </r>
       <r>   -0.4735    1.0000 </r>
       <r>   -0.4497    1.0000 </r>
       <r>   -0.4494    1.0000 </r>
       <r>   -0.3789    1.0000 </r>
       <r>   -0.3210    1.0000 </r>
       <r>   -0.3180    1.0000 </r>
       <r>    0.1533    1.0000 </r>
       <r>    0.1931    1.0000 </r>
       <r>    0.4703    1.0000 </r>
       <r>    0.4825    1.0000 </r>
       <r>    0.6221    1.0000 </r>
       <r>    0.6532    1.0000 </r>
       <r>    0.8245    1.0000 </r>
       <r>    0.8718    1.0000 </r>
       <r>    0.9051    1.0000 </r>
       <r>    0.9149    1.0000 </r>
       <r>    0.9351    1.0000 </r>
       <r>    0.9661    1.0000 </r>
       <r>    0.9879    1.0000 </r>
       <r>    1.0494    1.0000 </r>
       <r>    1.1099    1.0000 </r>
       <r>    1.1171    1.0000 </r>
       <r>    1.1754    1.0000 </r>
       <r>    1.1850    1.0000 </r>
       <r>    1.2210    1.0000 </r>
       <r>    1.2507    1.0000 </r>
       <r>    1.2627    1.0000 </r>
       <r>    1.3551    1.0000 </r>
       <r>    1.3605    1.0000 </r>
       <r>    1.3687    1.0000 </r>
       <r>    1.4124    1.0000 </r>
       <r>    1.4241    1.0000 </r>
       <r>    1.6272    1.0000 </r>
       <r>    1.7044    1.0000 </r>
       <r>    1.7447    1.0000 </r>
       <r>    1.7465    1.0000 </r>
       <r>    1.8081    1.0000 </r>
       <r>    1.8285    1.0000 </r>
       <r>    1.8349    1.0000 </r>
       <r>    1.9837    1.0000 </r>
       <r>    2.0879    1.0000 </r>
       <r>    2.1061    1.0000 </r>
       <r>    2.1727    1.0000 </r>
       <r>    2.1863    1.0000 </r>
       <r>    2.2044    1.0000 </r>
       <r>    2.3617    1.0000 </r>
       <r>    2.3891    0.9999 </r>
       <r>    2.7401    0.0000 </r>
       <r>    2.7792    0.0000 </r>
       <r>    3.2088    0.0000 </r>
       <r>    3.6544    0.0000 </r>
       <r>    3.7011    0.0000 </r>
       <r>    3.7735    0.0000 </r>
       <r>    3.7995    0.0000 </r>
       <r>    4.4127    0.0000 </r>
       <r>    4.4618    0.0000 </r>
       <r>    5.1339    0.0000 </r>
       <r>    5.1346    0.0000 </r>
       <r>    5.5049    0.0000 </r>
       <r>    5.6059    0.0000 </r>
       <r>    6.9925    0.0000 </r>
       <r>    6.9950    0.0000 </r>
       <r>    7.9638    0.0000 </r>
       <r>    8.0534    0.0000 </r>
       <r>    8.6202    0.0000 </r>
       <r>    8.6274    0.0000 </r>
       <r>    8.7421    0.0000 </r>
       <r>    8.7527    0.0000 </r>
       <r>    8.8562    0.0000 </r>
       <r>    8.8908    0.0000 </r>
       <r>    8.9246    0.0000 </r>
       <r>    9.0431    0.0000 </r>
       <r>    9.1400    0.0000 </r>
       <r>    9.1852    0.0000 </r>
       <r>    9.6484    0.0000 </r>
       <r>    9.6987    0.0000 </r>
       <r>    9.7221    0.0000 </r>
       <r>    9.7423    0.0000 </r>
       <r>    9.7688    0.0000 </r>
       <r>    9.8545    0.0000 </r>
       <r>    9.9159    0.0000 </r>
       <r>    9.9950    0.0000 </r>
       <r>   10.1117    0.0000 </r>
       <r>   10.1755    0.0000 </r>
       <r>   10.2431    0.0000 </r>
       <r>   10.3716    0.0000 </r>
       <r>   10.4710    0.0000 </r>
       <r>   10.5248    0.0000 </r>
       <r>   10.5288    0.0000 </r>
       <r>   10.7289    0.0000 </r>
       <r>   10.7418    0.0000 </r>
       <r>   10.7830    0.0000 </r>
       <r>   10.8798    0.0000 </r>
       <r>   10.8888    0.0000 </r>
      </set>
     </set>
     <set comment="spin 2">
      <set comment="kpoint 1">
       <r>  -31.0654    1.0000 </r>
       <r>  -31.0586    1.0000 </r>
       <r>  -31.0582    1.0000 </r>
       <r>  -31.0514    1.0000 </r>
       <r>  -31.0512    1.0000 </r>
       <r>  -31.0451    1.0000 </r>
       <r>  -31.0445    1.0000 </r>
       <r>  -31.0383    1.0000 </r>
       <r>  -14.9624    1.0000 </r>
       <r>  -14.8601    1.0000 </r>
       <r>  -14.7431    1.0000 </r>
       <r>  -14.7352    1.0000 </r>
       <r>  -14.6938    1.0000 </r>
       <r>  -14.4311    1.0000 </r>
       <r>  -14.3295    1.0000 </r>
       <r>  -14.2798    1.0000 </r>
       <r>  -13.9445    1.0000 </r>
       <r>  -13.9065    1.0000 </r>
       <r>  -13.8695    1.0000 </r>
       <r>  -13.8630    1.0000 </r>
       <r>  -13.7627    1.0000 </r>
       <r>  -13.5897    1.0000 </r>
       <r>  -13.4755    1.0000 </r>
       <r>  -13.4584    1.0000 </r>
       <r>  -13.2321    1.0000 </r>
       <r>  -13.2317    1.0000 </r>
       <r>  -13.1767    1.0000 </r>
       <r>  -13.0768    1.0000 </r>
       <r>  -13.0626    1.0000 </r>
       <r>  -13.0411    1.0000 </r>
       <r>  -12.9872    1.0000 </r>
       <r>  -12.9758    1.0000 </r>
       <r>  -12.9706    1.0000 </r>
       <r>  -12.9591    1.0000 </r>
       <r>  -12.9514    1.0000 </r>
       <r>  -12.9400    1.0000 </r>
       <r>  -12.9353    1.0000 </r>
       <r>  -12.9254    1.0000 </r>
       <r>  -12.9238    1.0000 </r>
       <r>  -12.9236    1.0000 </r>
       <r>  -12.9091    1.0000 </r>
       <r>  -12.8975    1.0000 </r>
       <r>  -12.7719    1.0000 </r>
       <r>  -12.7021    1.0000 </r>
       <r>  -12.6869    1.0000 </r>
       <r>  -12.6525    1.0000 </r>
       <r>  -12.4854    1.0000 </r>
       <r>  -12.4575    1.0000 </r>
       <r>  -12.4409    1.0000 </r>
       <r>  -12.4017    1.0000 </r>
       <r>   -2.8317    1.0000 </r>
       <r>   -2.6676    1.0000 </r>
       <r>   -2.5527    1.0000 </r>
       <r>   -2.3764    1.0000 </r>
       <r>   -2.0733    1.0000 </r>
       <r>   -2.0292    1.0000 </r>
       <r>   -2.0118    1.0000 </r>
       <r>   -2.0005    1.0000 </r>
       <r>   -1.8790    1.0000 </r>
       <r>   -1.8752    1.0000 </r>
       <r>   -1.5213    1.0000 </r>
       <r>   -1.5003    1.0000 </r>
       <r>   -1.4988    1.0000 </r>
       <r>   -1.4221    1.0000 </r>
       <r>   -1.3992    1.0000 </r>
       <r>   -1.3813    1.0000 </r>
       <r>   -1.3082    1.0000 </r>
       <r>   -1.2786    1.0000 </r>
       <r>   -1.2566    1.0000 </r>
       <r>   -1.2345    1.0000 </r>
       <r>   -1.1898    1.0000 </r>
       <r>   -1.1141    1.0000 </r>
       <r>   -1.0847    1.0000 </r>
       <r>   -1.0846    1.0000 </r>
       <r>   -0.9139    1.0000 </r>
       <r>   -0.8667    1.0000 </r>
       <r>   -0.8665    1.0000 </r>
       <r>   -0.8652    1.0000 </r>
       <r>   -0.8517    1.0000 </r>
       <r>   -0.8210    1.0000 </r>
       <r>   -0.8197    1.0000 </r>
       <r>   -0.8013    1.0000 </r>
       <r>   -0.7970    1.0000 </r>
       <r>   -0.7573    1.0000 </r>
       <r>   -0.7455    1.0000 </r>
       <r>   -0.6930    1.0000 </r>
       <r>   -0.6885    1.0000 </r>
       <r>   -0.6770    1.0000 </r>
       <r>   -0.5738    1.0000 </r>
       <r>   -0.5645    1.0000 </r>
       <r>   -0.4896    1.0000 </r>
       <r>   -0.4894    1.0000 </r>
       <r>   -0.4648    1.0000 </r>
       <r>   -0.3792    1.0000 </r>
       <r>   -0.3791    1.0000 </r>
       <r>   -0.3370    1.0000 </r>
       <r>   -0.2016    1.0000 </r>
       <r>   -0.2009    1.0000 </r>
       <r>   -0.0169    1.0000 </r>
       <r>   -0.0159    1.0000 </r>
       <r>    0.2338    1.0000 </r>
       <r>    0.2338    1.0000 </r>
       <r>    0.3989    1.0000 </r>
       <r>    0.4584    1.0000 </r>
       <r>    0.4667    1.0000 </r>
       <r>    0.5381    1.0000 </r>
       <r>    0.6268    1.0000 </r>
       <r>    0.8137    1.0000 </r>
       <r>    0.8483    1.0000 </r>
       <r>    0.8740    1.0000 </r>
[...]
       <r>     5.9557     0.0003   148.8000 </r>
       <r>     6.1104     0.4040   148.8625 </r>
       <r>     6.2650     5.0133   149.6379 </r>
       <r>     6.4197     0.3320   149.6892 </r>
       <r>     6.5744     0.7367   149.8032 </r>
       <r>     6.7290     0.7977   149.9266 </r>
       <r>     6.8837     0.4780   150.0005 </r>
       <r>     7.0384     3.3918   150.5251 </r>
       <r>     7.1930     1.1708   150.7062 </r>
       <r>     7.3477     1.2812   150.9043 </r>
       <r>     7.5024     2.5396   151.2971 </r>
       <r>     7.6570     3.4908   151.8370 </r>
       <r>     7.8117     8.0601   153.0836 </r>
       <r>     7.9663     4.7994   153.8259 </r>
       <r>     8.1210     7.5628   154.9956 </r>
       <r>     8.2757     5.9503   155.9159 </r>
       <r>     8.4303     6.5279   156.9256 </r>
       <r>     8.5850     8.1920   158.1926 </r>
       <r>     8.7397     7.5740   159.3640 </r>
       <r>     8.8943    15.3992   161.7457 </r>
       <r>     9.0490     5.4177   162.5837 </r>
       <r>     9.2037     9.6535   164.0767 </r>
       <r>     9.3583    11.1493   165.8011 </r>
       <r>     9.5130     4.6128   166.5146 </r>
       <r>     9.6677     6.5034   167.5204 </r>
       <r>     9.8223    16.9057   170.1351 </r>
       <r>     9.9770    18.3242   172.9692 </r>
       <r>    10.1317    15.6475   175.3894 </r>
       <r>    10.2863    13.2214   177.4342 </r>
       <r>    10.4410    12.6763   179.3948 </r>
       <r>    10.5956    14.5771   181.6494 </r>
       <r>    10.7503     5.9612   182.5714 </r>
       <r>    10.9050     6.4511   183.5691 </r>
       <r>    11.0596     1.3892   183.7840 </r>
       <r>    11.2143     1.3949   183.9997 </r>
       <r>    11.3690     0.0018   184.0000 </r>
       <r>    11.5236     0.0000   184.0000 </r>
       <r>    11.6783     0.0000   184.0000 </r>
       <r>    11.8330     0.0000   184.0000 </r>
       <r>    11.9876     0.0000   184.0000 </r>
       <r>    12.1423     0.0000   184.0000 </r>
       <r>    12.2970     0.0000   184.0000 </r>
       <r>    12.4516     0.0000   184.0000 </r>
       <r>    12.6063     0.0000   184.0000 </r>
       <r>    12.7610     0.0000   184.0000 </r>
       <r>    12.9156     0.0000   184.0000 </r>
       <r>    13.0703     0.0000   184.0000 </r>
       <r>    13.2249     0.0000   184.0000 </r>
      </set>
      <set comment="spin 2">
       <r>   -33.1744     0.0000     0.0000 </r>
       <r>   -33.0198     0.0000     0.0000 </r>
       <r>   -32.8651     0.0000     0.0000 </r>
       <r>   -32.7104     0.0000     0.0000 </r>
       <r>   -32.5558     0.0000     0.0000 </r>
       <r>   -32.4011     0.0000     0.0000 </r>
       <r>   -32.2464     0.0000     0.0000 </r>
       <r>   -32.0918     0.0000     0.0000 </r>
       <r>   -31.9371     0.0000     0.0000 </r>
       <r>   -31.7825     0.0000     0.0000 </r>
       <r>   -31.6278     0.0000     0.0000 </r>
       <r>   -31.4731     0.0000     0.0000 </r>
       <r>   -31.3185     0.0000     0.0000 </r>
       <r>   -31.1638     0.0274     0.0042 </r>
       <r>   -31.0091    43.4062     6.7176 </r>
       <r>   -30.8545     8.2912     8.0000 </r>
       <r>   -30.6998     0.0000     8.0000 </r>
       <r>   -30.5451     0.0000     8.0000 </r>
       <r>   -30.3905     0.0000     8.0000 </r>
       <r>   -30.2358     0.0000     8.0000 </r>
       <r>   -30.0811     0.0000     8.0000 </r>
       <r>   -29.9265     0.0000     8.0000 </r>
       <r>   -29.7718     0.0000     8.0000 </r>
       <r>   -29.6171     0.0000     8.0000 </r>
       <r>   -29.4625     0.0000     8.0000 </r>
       <r>   -29.3078     0.0000     8.0000 </r>
       <r>   -29.1532     0.0000     8.0000 </r>
       <r>   -28.9985     0.0000     8.0000 </r>
       <r>   -28.8438     0.0000     8.0000 </r>
       <r>   -28.6892     0.0000     8.0000 </r>
       <r>   -28.5345     0.0000     8.0000 </r>
       <r>   -28.3798     0.0000     8.0000 </r>
       <r>   -28.2252     0.0000     8.0000 </r>
       <r>   -28.0705     0.0000     8.0000 </r>
       <r>   -27.9158     0.0000     8.0000 </r>
       <r>   -27.7612     0.0000     8.0000 </r>
       <r>   -27.6065     0.0000     8.0000 </r>
       <r>   -27.4518     0.0000     8.0000 </r>
       <r>   -27.2972     0.0000     8.0000 </r>
       <r>   -27.1425     0.0000     8.0000 </r>
       <r>   -26.9878     0.0000     8.0000 </r>
       <r>   -26.8332     0.0000     8.0000 </r>
       <r>   -26.6785     0.0000     8.0000 </r>
       <r>   -26.5239     0.0000     8.0000 </r>
       <r>   -26.3692     0.0000     8.0000 </r>
       <r>   -26.2145     0.0000     8.0000 </r>
       <r>   -26.0599     0.0000     8.0000 </r>
       <r>   -25.9052     0.0000     8.0000 </r>
       <r>   -25.7505     0.0000     8.0000 </r>
       <r>   -25.5959     0.0000     8.0000 </r>
       <r>   -25.4412     0.0000     8.0000 </r>
       <r>   -25.2865     0.0000     8.0000 </r>
       <r>   -25.1319     0.0000     8.0000 </r>
       <r>   -24.9772     0.0000     8.0000 </r>
       <r>   -24.8225     0.0000     8.0000 </r>
       <r>   -24.6679     0.0000     8.0000 </r>
       <r>   -24.5132     0.0000     8.0000 </r>
       <r>   -24.3586     0.0000     8.0000 </r>
       <r>   -24.2039     0.0000     8.0000 </r>
       <r>   -24.0492     0.0000     8.0000 </r>
       <r>   -23.8946     0.0000     8.0000 </r>
       <r>   -23.7399     0.0000     8.0000 </r>
       <r>   -23.5852     0.0000     8.0000 </r>
       <r>   -23.4306     0.0000     8.0000 </r>
       <r>   -23.2759     0.0000     8.0000 </r>
       <r>   -23.1212     0.0000     8.0000 </r>
       <r>   -22.9666     0.0000     8.0000 </r>
       <r>   -22.8119     0.0000     8.0000 </r>
       <r>   -22.6572     0.0000     8.0000 </r>
       <r>   -22.5026     0.0000     8.0000 </r>
       <r>   -22.3479     0.0000     8.0000 </r>
       <r>   -22.1932     0.0000     8.0000 </r>
       <r>   -22.0386     0.0000     8.0000 </r>
       <r>   -21.8839     0.0000     8.0000 </r>
       <r>   -21.7293     0.0000     8.0000 </r>
       <r>   -21.5746     0.0000     8.0000 </r>
       <r>   -21.4199     0.0000     8.0000 </r>
       <r>   -21.2653     0.0000     8.0000 </r>
       <r>   -21.1106     0.0000     8.0000 </r>
       <r>   -20.9559     0.0000     8.0000 </r>
       <r>   -20.8013     0.0000     8.0000 </r>
       <r>   -20.6466     0.0000     8.0000 </r>
       <r>   -20.4919     0.0000     8.0000 </r>
       <r>   -20.3373     0.0000     8.0000 </r>
       <r>   -20.1826     0.0000     8.0000 </r>
       <r>   -20.0279     0.0000     8.0000 </r>
       <r>   -19.8733     0.0000     8.0000 </r>
       <r>   -19.7186     0.0000     8.0000 </r>
       <r>   -19.5639     0.0000     8.0000 </r>
       <r>   -19.4093     0.0000     8.0000 </r>
       <r>   -19.2546     0.0000     8.0000 </r>
       <r>   -19.1000     0.0000     8.0000 </r>
       <r>   -18.9453     0.0000     8.0000 </r>
       <r>   -18.7906     0.0000     8.0000 </r>
       <r>   -18.6360     0.0000     8.0000 </r>
       <r>   -18.4813     0.0000     8.0000 </r>
       <r>   -18.3266     0.0000     8.0000 </r>
       <r>   -18.1720     0.0000     8.0000 </r>
       <r>   -18.0173     0.0000     8.0000 </r>
       <r>   -17.8626     0.0000     8.0000 </r>
       <r>   -17.7080     0.0000     8.0000 </r>
       <r>   -17.5533     0.0000     8.0000 </r>
       <r>   -17.3986     0.0000     8.0000 </r>
       <r>   -17.2440     0.0000     8.0000 </r>
       <r>   -17.0893     0.0000     8.0000 </r>
       <r>   -16.9347     0.0000     8.0000 </r>
       <r>   -16.7800     0.0000     8.0000 </r>
       <r>   -16.6253     0.0000     8.0000 </r>
       <r>   -16.4707     0.0000     8.0000 </r>
       <r>   -16.3160     0.0000     8.0000 </r>
       <r>   -16.1613     0.0000     8.0000 </r>
       <r>   -16.0067     0.0000     8.0000 </r>
       <r>   -15.8520     0.0000     8.0000 </r>
       <r>   -15.6973     0.0000     8.0000 </r>
       <r>   -15.5427     0.0000     8.0000 </r>
       <r>   -15.3880     0.0000     8.0000 </r>
       <r>   -15.2333     0.0000     8.0000 </r>
       <r>   -15.0787     0.0002     8.0000 </r>
       <r>   -14.9240     0.5591     8.0865 </r>
       <r>   -14.7693     4.7344     8.8188 </r>
       <r>   -14.6147    15.4518    11.2086 </r>
       <r>   -14.4600    10.6604    12.8574 </r>
       <r>   -14.3054     7.7834    14.0612 </r>
       <r>   -14.1507    10.7335    15.7213 </r>
       <r>   -13.9960    12.4258    17.6431 </r>
       <r>   -13.8414    15.6282    20.0603 </r>
       <r>   -13.6867    12.3199    21.9657 </r>
       <r>   -13.5320    10.0168    23.5150 </r>
       <r>   -13.3774    11.7494    25.3322 </r>
       <r>   -13.2227     5.0599    26.1148 </r>
       <r>   -13.0680    24.0484    29.8342 </r>
       <r>   -12.9134    41.8678    36.3097 </r>
       <r>   -12.7587    25.2061    40.2081 </r>
       <r>   -12.6040    41.3232    46.5994 </r>
       <r>   -12.4494    20.5843    49.7830 </r>
       <r>   -12.2947     1.4022    49.9999 </r>
       <r>   -12.1400     0.0005    50.0000 </r>
       <r>   -11.9854     0.0000    50.0000 </r>
       <r>   -11.8307     0.0000    50.0000 </r>
       <r>   -11.6761     0.0000    50.0000 </r>
       <r>   -11.5214     0.0000    50.0000 </r>
       <r>   -11.3667     0.0000    50.0000 </r>
       <r>   -11.2121     0.0000    50.0000 </r>
       <r>   -11.0574     0.0000    50.0000 </r>
       <r>   -10.9027     0.0000    50.0000 </r>
       <r>   -10.7481     0.0000    50.0000 </r>
       <r>   -10.5934     0.0000    50.0000 </r>
       <r>   -10.4387     0.0000    50.0000 </r>
       <r>   -10.2841     0.0000    50.0000 </r>
       <r>   -10.1294     0.0000    50.0000 </r>
       <r>    -9.9747     0.0000    50.0000 </r>
       <r>    -9.8201     0.0000    50.0000 </r>
       <r>    -9.6654     0.0000    50.0000 </r>
       <r>    -9.5108     0.0000    50.0000 </r>
       <r>    -9.3561     0.0000    50.0000 </r>
       <r>    -9.2014     0.0000    50.0000 </r>
       <r>    -9.0468     0.0000    50.0000 </r>
       <r>    -8.8921     0.0000    50.0000 </r>
       <r>    -8.7374     0.0000    50.0000 </r>
       <r>    -8.5828     0.0000    50.0000 </r>
       <r>    -8.4281     0.0000    50.0000 </r>
       <r>    -8.2734     0.0000    50.0000 </r>
       <r>    -8.1188     0.0000    50.0000 </r>
       <r>    -7.9641     0.0000    50.0000 </r>
       <r>    -7.8094     0.0000    50.0000 </r>
       <r>    -7.6548     0.0000    50.0000 </r>
       <r>    -7.5001     0.0000    50.0000 </r>
       <r>    -7.3454     0.0000    50.0000 </r>
       <r>    -7.1908     0.0000    50.0000 </r>
       <r>    -7.0361     0.0000    50.0000 </r>
       <r>    -6.8815     0.0000    50.0000 </r>
       <r>    -6.7268     0.0000    50.0000 </r>
       <r>    -6.5721     0.0000    50.0000 </r>
       <r>    -6.4175     0.0000    50.0000 </r>
       <r>    -6.2628     0.0000    50.0000 </r>
       <r>    -6.1081     0.0000    50.0000 </r>
       <r>    -5.9535     0.0000    50.0000 </r>
       <r>    -5.7988     0.0000    50.0000 </r>
       <r>    -5.6441     0.0000    50.0000 </r>
       <r>    -5.4895     0.0000    50.0000 </r>
       <r>    -5.3348     0.0000    50.0000 </r>
       <r>    -5.1801     0.0000    50.0000 </r>
       <r>    -5.0255     0.0000    50.0000 </r>
       <r>    -4.8708     0.0000    50.0000 </r>
       <r>    -4.7161     0.0000    50.0000 </r>
       <r>    -4.5615     0.0000    50.0000 </r>
       <r>    -4.4068     0.0000    50.0000 </r>
       <r>    -4.2522     0.0000    50.0000 </r>
       <r>    -4.0975     0.0000    50.0000 </r>
       <r>    -3.9428     0.0000    50.0000 </r>
       <r>    -3.7882     0.0000    50.0000 </r>
       <r>    -3.6335     0.0000    50.0000 </r>
       <r>    -3.4788     0.0000    50.0000 </r>
       <r>    -3.3242     0.0000    50.0000 </r>
       <r>    -3.1695     0.0318    50.0049 </r>
       <r>    -3.0148     3.5679    50.5567 </r>
       <r>    -2.8602     2.7056    50.9752 </r>
       <r>    -2.7055     9.1860    52.3960 </r>
       <r>    -2.5508     5.9683    53.3191 </r>
       <r>    -2.3962     3.7952    53.9060 </r>
       <r>    -2.2415     9.1228    55.3170 </r>
       <r>    -2.0869     9.8285    56.8371 </r>
       <r>    -1.9322    23.1284    60.4143 </r>
       <r>    -1.7775    26.8936    64.5738 </r>
       <r>    -1.6229    25.7211    68.5519 </r>
       <r>    -1.4682    28.6627    72.9850 </r>
       <r>    -1.3135    23.3622    76.5983 </r>
       <r>    -1.1589    21.4140    79.9103 </r>
       <r>    -1.0042    10.2726    81.4991 </r>
       <r>    -0.8495    10.1557    83.0699 </r>
       <r>    -0.6949    26.0765    87.1030 </r>
       <r>    -0.5402    14.5873    89.3591 </r>
       <r>    -0.3855    29.0840    93.8574 </r>
       <r>    -0.2309    14.4603    96.0939 </r>
       <r>    -0.0762     4.2219    96.7468 </r>
       <r>     0.0785     3.5968    97.3031 </r>
       <r>     0.2331     6.8621    98.3645 </r>
       <r>     0.3878     5.3603    99.1935 </r>
       <r>     0.5424    11.4671   100.9671 </r>
       <r>     0.6971    11.8062   102.7931 </r>
       <r>     0.8518    11.9848   104.6467 </r>
       <r>     1.0064    17.5675   107.3638 </r>
       <r>     1.1611    26.5832   111.4752 </r>
       <r>     1.3158    26.7909   115.6188 </r>
       <r>     1.4704    31.3560   120.4685 </r>
       <r>     1.6251    18.4668   123.3247 </r>
       <r>     1.7798    16.5242   125.8804 </r>
       <r>     1.9344    17.3791   128.5683 </r>
       <r>     2.0891    23.4776   132.1995 </r>
       <r>     2.2438    15.9304   134.6633 </r>
       <r>     2.3984     8.6040   135.9941 </r>
       <r>     2.5531     8.5249   137.3126 </r>
       <r>     2.7078     4.1247   137.9505 </r>
       <r>     2.8624    13.0893   139.9750 </r>
       <r>     3.0171     3.5965   140.5312 </r>
       <r>     3.1717     1.9653   140.8352 </r>
       <r>     3.3264     2.2699   141.1863 </r>
       <r>     3.4811     3.8156   141.7764 </r>
       <r>     3.6357     3.1458   142.2630 </r>
       <r>     3.7904     5.8496   143.1677 </r>
       <r>     3.9451     0.6327   143.2655 </r>
       <r>     4.0997     3.1911   143.7591 </r>
       <r>     4.2544     0.2767   143.8019 </r>
       <r>     4.4091     3.1390   144.2874 </r>
       <r>     4.5637     9.8126   145.8050 </r>
       <r>     4.7184     2.1886   146.1435 </r>
       <r>     4.8731     4.6900   146.8689 </r>
       <r>     5.0277     3.3406   147.3856 </r>
       <r>     5.1824     3.1320   147.8700 </r>
       <r>     5.3370     0.8405   148.0000 </r>
       <r>     5.4917     0.5755   148.0890 </r>
       <r>     5.6464     2.5008   148.4758 </r>
       <r>     5.8010     2.0851   148.7983 </r>
       <r>     5.9557     0.0112   148.8000 </r>
       <r>     6.1104     0.3706   148.8573 </r>
       <r>     6.2650     4.9530   149.6234 </r>
       <r>     6.4197     0.3249   149.6736 </r>
       <r>     6.5744     0.8030   149.7978 </r>
       <r>     6.7290     0.7248   149.9099 </r>
       <r>     6.8837     0.5854   150.0004 </r>
       <r>     7.0384     3.3343   150.5161 </r>
       <r>     7.1930     1.2291   150.7062 </r>
       <r>     7.3477     1.3096   150.9088 </r>
       <r>     7.5024     2.3013   151.2647 </r>
       <r>     7.6570     3.6424   151.8281 </r>
       <r>     7.8117     7.7469   153.0262 </r>
       <r>     7.9663     4.9740   153.7955 </r>
       <r>     8.1210     7.3057   154.9255 </r>
       <r>     8.2757     6.2199   155.8875 </r>
       <r>     8.4303     6.2973   156.8614 </r>
       <r>     8.5850     8.3633   158.1549 </r>
       <r>     8.7397     7.1150   159.2554 </r>
       <r>     8.8943    15.8047   161.6998 </r>
       <r>     9.0490     5.4257   162.5390 </r>
       <r>     9.2037     9.0896   163.9448 </r>
       <r>     9.3583    11.5245   165.7272 </r>
       <r>     9.5130     4.8772   166.4816 </r>
       <r>     9.6677     5.5029   167.3327 </r>
       <r>     9.8223    16.8238   169.9347 </r>
       <r>     9.9770    17.9402   172.7094 </r>
       <r>    10.1317    16.0482   175.1915 </r>
       <r>    10.2863    13.6889   177.3087 </r>
       <r>    10.4410    12.3284   179.2155 </r>
       <r>    10.5956    14.8942   181.5191 </r>
       <r>    10.7503     6.0537   182.4554 </r>
       <r>    10.9050     6.9034   183.5231 </r>
       <r>    11.0596     1.5435   183.7618 </r>
       <r>    11.2143     1.5373   183.9996 </r>
       <r>    11.3690     0.0026   184.0000 </r>
       <r>    11.5236     0.0000   184.0000 </r>
       <r>    11.6783     0.0000   184.0000 </r>
       <r>    11.8330     0.0000   184.0000 </r>
       <r>    11.9876     0.0000   184.0000 </r>
       <r>    12.1423     0.0000   184.0000 </r>
       <r>    12.2970     0.0000   184.0000 </r>
       <r>    12.4516     0.0000   184.0000 </r>
       <r>    12.6063     0.0000   184.0000 </r>
       <r>    12.7610     0.0000   184.0000 </r>
       <r>    12.9156     0.0000   184.0000 </r>
       <r>    13.0703     0.0000   184.0000 </r>
       <r>    13.2249     0.0000   184.0000 </r>
      </set>
     </set>
    </array>
   </total>
  </dos>
 </calculation>
 <structure name="finalpos" >
  <crystal>
   <varray name="basis" >
    <v>       8.00000000       0.00000000       0.00000000 </v>
    <v>       0.00000000      16.00000000       0.00000000 </v>
    <v>       0.00000000       0.00000000       4.00000000 </v>
   </varray>
   <i name="volume">    512.00000000 </i>
   <varray name="rec_basis" >
    <v>       0.12500000       0.00000000       0.00000000 </v>
    <v>       0.00000000       0.06250000       0.00000000 </v>
    <v>       0.00000000       0.00000000       0.25000000 </v>
   </varray>
  </crystal>
  <varray name="positions" >
   <v>       0.75000000       0.12500000       0.00000000 </v>
   <v>       0.25000000       0.37500000       0.00000000 </v>
   <v>       0.25000000       0.12500000       0.00000000 </v>
   <v>       0.75000000       0.37500000       0.00000000 </v>
   <v>       0.25000000       0.62500000       0.00000000 </v>
   <v>       0.75000000       0.87500000       0.00000000 </v>
   <v>       0.75000000       0.62500000       0.00000000 </v>
   <v>       0.25000000       0.87500000       0.00000000 </v>
   <v>       0.50000000       0.50000000       0.50000000 </v>
   <v>       0.50000000       0.25000000       0.50000000 </v>
   <v>       0.00000000       0.50000000       0.50000000 </v>
   <v>       0.00000000       0.25000000       0.50000000 </v>
   <v>       0.00000000       0.00000000       0.50000000 </v>
   <v>       0.00000000       0.75000000       0.50000000 </v>
   <v>       0.50000000       0.00000000       0.50000000 </v>
   <v>       0.50000000       0.75000000       0.50000000 </v>
   <v>       0.00000000       0.12500000       0.50000000 </v>
   <v>       0.50000000       0.37500000       0.50000000 </v>
   <v>       0.50000000       0.12500000       0.50000000 </v>
   <v>       0.00000000       0.37500000       0.50000000 </v>
   <v>       0.50000000       0.25000000       0.00000000 </v>
   <v>       0.00000000       0.50000000       0.00000000 </v>
   <v>       0.00000000       0.25000000       0.00000000 </v>
   <v>       0.25000000       0.25000000       0.50000000 </v>
   <v>       0.75000000       0.25000000       0.50000000 </v>
   <v>       0.50000000       0.62500000       0.50000000 </v>
   <v>       0.00000000       0.87500000       0.50000000 </v>
   <v>       0.00000000       0.62500000       0.50000000 </v>
   <v>       0.50000000       0.87500000       0.50000000 </v>
   <v>       0.00000000       0.75000000       0.00000000 </v>
   <v>       0.50000000       0.00000000       0.00000000 </v>
   <v>       0.50000000       0.75000000       0.00000000 </v>
   <v>       0.75000000       0.75000000       0.50000000 </v>
   <v>       0.25000000       0.75000000       0.50000000 </v>
  </varray>
 </structure>
</modeling>
