<?xml version="1.0" encoding="ISO-8859-1"?>
<modeling>
 <generator>
  <i name="program" type="string">vasp </i>
  <i name="version" type="string">5.3.5  </i>
  <i name="subversion" type="string">31Mar14 (build Jun 20 2014 13:15:13) complex                          parallel </i>
  <i name="platform" type="string">LinuxIFC </i>
  <i name="date" type="string">2025 11 29 </i>
  <i name="time" type="string">09:37:15 </i>
 </generator>
 <incar>
  <i type="string" name="PREC">accurate</i>
  <i type="int" name="IALGO">    68</i>
  <i type="logical" name="ADDGRID"> T  </i>
  <i type="int" name="NELM">   200</i>
  <i type="int" name="NELMIN">     4</i>
  <i type="int" name="IBRION">     2</i>
  <i name="EDIFF">      0.00000100</i>
  <i name="EDIFFG">     -0.02000000</i>
  <i type="int" name="NSW">    30</i>
  <i type="int" name="ISIF">     3</i>
  <i name="ENCUT">    500.00000000</i>
  <i type="logical" name="LREAL"> F  </i>
  <i type="int" name="ISMEAR">     1</i>
  <i name="SIGMA">      0.30000000</i>
  <i type="logical" name="LWAVE"> F  </i>
  <i type="logical" name="LCHARG"> F  </i>
  <i type="int" name="NELM">   200</i>
 </incar>
 <kpoints>
  <generation param="Auto">
   <i name="subdivisionlength">     70.00000000 </i>
   <v type="int" name="divisions">      17       18       12 </v>
   <v name="usershift">      0.00000000       0.00000000       0.00000000 </v>
   <v name="genvec1">      0.05882353       0.00000000       0.00000000 </v>
   <v name="genvec2">      0.00000000       0.05555556       0.00000000 </v>
   <v name="genvec3">      0.00000000       0.00000000       0.08333333 </v>
   <v name="shift">      0.00000000       0.00000000       0.00000000 </v>
  </generation>
  <varray name="kpointlist" >
   <v>       0.00000000       0.00000000       0.00000000 </v>
   <v>       0.05882353       0.00000000       0.00000000 </v>
   <v>       0.11764706       0.00000000       0.00000000 </v>
   <v>       0.17647059       0.00000000       0.00000000 </v>
   <v>       0.23529412       0.00000000       0.00000000 </v>
   <v>       0.29411765       0.00000000       0.00000000 </v>
   <v>       0.35294118       0.00000000       0.00000000 </v>
   <v>       0.41176471       0.00000000       0.00000000 </v>
   <v>       0.47058824       0.00000000       0.00000000 </v>
   <v>       0.00000000       0.05555556       0.00000000 </v>
   <v>       0.05882353       0.05555556       0.00000000 </v>
   <v>       0.11764706       0.05555556       0.00000000 </v>
   <v>       0.17647059       0.05555556       0.00000000 </v>
   <v>       0.23529412       0.05555556       0.00000000 </v>
   <v>       0.29411765       0.05555556       0.00000000 </v>
   <v>       0.35294118       0.05555556       0.00000000 </v>
   <v>       0.41176471       0.05555556       0.00000000 </v>
   <v>       0.47058824       0.05555556       0.00000000 </v>
   <v>       0.00000000       0.11111111       0.00000000 </v>
   <v>       0.05882353       0.11111111       0.00000000 </v>
   <v>       0.11764706       0.11111111       0.00000000 </v>
   <v>       0.17647059       0.11111111       0.00000000 </v>
   <v>       0.23529412       0.11111111       0.00000000 </v>
   <v>       0.29411765       0.11111111       0.00000000 </v>
   <v>       0.35294118       0.11111111       0.00000000 </v>
   <v>       0.41176471       0.11111111       0.00000000 </v>
   <v>       0.47058824       0.11111111       0.00000000 </v>
   <v>       0.00000000       0.16666667       0.00000000 </v>
   <v>       0.05882353       0.16666667       0.00000000 </v>
   <v>       0.11764706       0.16666667       0.00000000 </v>
   <v>       0.17647059       0.16666667       0.00000000 </v>
   <v>       0.23529412       0.16666667       0.00000000 </v>
   <v>       0.29411765       0.16666667       0.00000000 </v>
   <v>       0.35294118       0.16666667       0.00000000 </v>
   <v>       0.41176471       0.16666667       0.00000000 </v>
   <v>       0.47058824       0.16666667       0.00000000 </v>
   <v>       0.00000000       0.22222222       0.00000000 </v>
   <v>       0.05882353       0.22222222       0.00000000 </v>
   <v>       0.11764706       0.22222222       0.00000000 </v>
   <v>       0.17647059       0.22222222       0.00000000 </v>
   <v>       0.23529412       0.22222222       0.00000000 </v>
   <v>       0.29411765       0.22222222       0.00000000 </v>
   <v>       0.35294118       0.22222222       0.00000000 </v>
   <v>       0.41176471       0.22222222       0.00000000 </v>
   <v>       0.47058824       0.22222222       0.00000000 </v>
   <v>       0.00000000       0.27777778       0.00000000 </v>
   <v>       0.05882353       0.27777778       0.00000000 </v>
   <v>       0.11764706       0.27777778       0.00000000 </v>
   <v>       0.17647059       0.27777778       0.00000000 </v>
   <v>       0.23529412       0.27777778       0.00000000 </v>
   <v>       0.29411765       0.27777778       0.00000000 </v>
   <v>       0.35294118       0.27777778       0.00000000 </v>
   <v>       0.41176471       0.27777778       0.00000000 </v>
   <v>       0.47058824       0.27777778       0.00000000 </v>
   <v>       0.00000000       0.33333333       0.00000000 </v>
   <v>       0.05882353       0.33333333       0.00000000 </v>
   <v>       0.11764706       0.33333333       0.00000000 </v>
   <v>       0.17647059       0.33333333       0.00000000 </v>
   <v>       0.23529412       0.33333333       0.00000000 </v>
   <v>       0.29411765       0.33333333       0.00000000 </v>
   <v>       0.35294118       0.33333333       0.00000000 </v>
   <v>       0.41176471       0.33333333       0.00000000 </v>
   <v>       0.47058824       0.33333333       0.00000000 </v>
   <v>       0.00000000       0.38888889       0.00000000 </v>
   <v>       0.05882353       0.38888889       0.00000000 </v>
   <v>       0.11764706       0.38888889       0.00000000 </v>
   <v>       0.17647059       0.38888889       0.00000000 </v>
   <v>       0.23529412       0.38888889       0.00000000 </v>
   <v>       0.29411765       0.38888889       0.00000000 </v>
   <v>       0.35294118       0.38888889       0.00000000 </v>
   <v>       0.41176471       0.38888889       0.00000000 </v>
   <v>       0.47058824       0.38888889       0.00000000 </v>
   <v>       0.00000000       0.44444444       0.00000000 </v>
   <v>       0.05882353       0.44444444       0.00000000 </v>
   <v>       0.11764706       0.44444444       0.00000000 </v>
   <v>       0.17647059       0.44444444       0.00000000 </v>
   <v>       0.23529412       0.44444444       0.00000000 </v>
   <v>       0.29411765       0.44444444       0.00000000 </v>
   <v>       0.35294118       0.44444444       0.00000000 </v>
   <v>       0.41176471       0.44444444       0.00000000 </v>
   <v>       0.47058824       0.44444444       0.00000000 </v>
   <v>       0.00000000       0.50000000       0.00000000 </v>
   <v>       0.05882353       0.50000000       0.00000000 </v>
   <v>       0.11764706       0.50000000       0.00000000 </v>
   <v>       0.17647059       0.50000000       0.00000000 </v>
   <v>       0.23529412       0.50000000       0.00000000 </v>
   <v>       0.29411765       0.50000000       0.00000000 </v>
   <v>       0.35294118       0.50000000       0.00000000 </v>
   <v>       0.41176471       0.50000000       0.00000000 </v>
   <v>       0.47058824       0.50000000       0.00000000 </v>
   <v>       0.00000000       0.00000000       0.08333333 </v>
   <v>       0.05882353       0.00000000       0.08333333 </v>
   <v>       0.11764706       0.00000000       0.08333333 </v>
   <v>       0.17647059       0.00000000       0.08333333 </v>
   <v>       0.23529412       0.00000000       0.08333333 </v>
   <v>       0.29411765       0.00000000       0.08333333 </v>
   <v>       0.35294118       0.00000000       0.08333333 </v>
   <v>       0.41176471       0.00000000       0.08333333 </v>
   <v>       0.47058824       0.00000000       0.08333333 </v>
   <v>       0.00000000       0.05555556       0.08333333 </v>
   <v>       0.05882353       0.05555556       0.08333333 </v>
   <v>       0.11764706       0.05555556       0.08333333 </v>
   <v>       0.17647059       0.05555556       0.08333333 </v>
   <v>       0.23529412       0.05555556       0.08333333 </v>
   <v>       0.29411765       0.05555556       0.08333333 </v>
   <v>       0.35294118       0.05555556       0.08333333 </v>
   <v>       0.41176471       0.05555556       0.08333333 </v>
   <v>       0.47058824       0.05555556       0.08333333 </v>
   <v>       0.00000000       0.11111111       0.08333333 </v>
   <v>       0.05882353       0.11111111       0.08333333 </v>
   <v>       0.11764706       0.11111111       0.08333333 </v>
   <v>       0.17647059       0.11111111       0.08333333 </v>
   <v>       0.23529412       0.11111111       0.08333333 </v>
   <v>       0.29411765       0.11111111       0.08333333 </v>
   <v>       0.35294118       0.11111111       0.08333333 </v>
   <v>       0.41176471       0.11111111       0.08333333 </v>
   <v>       0.47058824       0.11111111       0.08333333 </v>
   <v>       0.00000000       0.16666667       0.08333333 </v>
   <v>       0.05882353       0.16666667       0.08333333 </v>
   <v>       0.11764706       0.16666667       0.08333333 </v>
   <v>       0.17647059       0.16666667       0.08333333 </v>
   <v>       0.23529412       0.16666667       0.08333333 </v>
   <v>       0.29411765       0.16666667       0.08333333 </v>
   <v>       0.35294118       0.16666667       0.08333333 </v>
   <v>       0.41176471       0.16666667       0.08333333 </v>
   <v>       0.47058824       0.16666667       0.08333333 </v>
   <v>       0.00000000       0.22222222       0.08333333 </v>
   <v>       0.05882353       0.22222222       0.08333333 </v>
   <v>       0.11764706       0.22222222       0.08333333 </v>
   <v>       0.17647059       0.22222222       0.08333333 </v>
   <v>       0.23529412       0.22222222       0.08333333 </v>
   <v>       0.29411765       0.22222222       0.08333333 </v>
   <v>       0.35294118       0.22222222       0.08333333 </v>
   <v>       0.41176471       0.22222222       0.08333333 </v>
   <v>       0.47058824       0.22222222       0.08333333 </v>
   <v>       0.00000000       0.27777778       0.08333333 </v>
   <v>       0.05882353       0.27777778       0.08333333 </v>
   <v>       0.11764706       0.27777778       0.08333333 </v>
   <v>       0.17647059       0.27777778       0.08333333 </v>
   <v>       0.23529412       0.27777778       0.08333333 </v>
   <v>       0.29411765       0.27777778       0.08333333 </v>
   <v>       0.35294118       0.27777778       0.08333333 </v>
   <v>       0.41176471       0.27777778       0.08333333 </v>
   <v>       0.47058824       0.27777778       0.08333333 </v>
   <v>       0.00000000       0.33333333       0.08333333 </v>
   <v>       0.05882353       0.33333333       0.08333333 </v>
   <v>       0.11764706       0.33333333       0.08333333 </v>
   <v>       0.17647059       0.33333333       0.08333333 </v>
   <v>       0.23529412       0.33333333       0.08333333 </v>
   <v>       0.29411765       0.33333333       0.08333333 </v>
   <v>       0.35294118       0.33333333       0.08333333 </v>
   <v>       0.41176471       0.33333333       0.08333333 </v>
   <v>       0.47058824       0.33333333       0.08333333 </v>
   <v>       0.00000000       0.38888889       0.08333333 </v>
   <v>       0.05882353       0.38888889       0.08333333 </v>
   <v>       0.11764706       0.38888889       0.08333333 </v>
   <v>       0.17647059       0.38888889       0.08333333 </v>
   <v>       0.23529412       0.38888889       0.08333333 </v>
   <v>       0.29411765       0.38888889       0.08333333 </v>
   <v>       0.35294118       0.38888889       0.08333333 </v>
   <v>       0.41176471       0.38888889       0.08333333 </v>
   <v>       0.47058824       0.38888889       0.08333333 </v>
   <v>       0.00000000       0.44444444       0.08333333 </v>
   <v>       0.05882353       0.44444444       0.08333333 </v>
   <v>       0.11764706       0.44444444       0.08333333 </v>
   <v>       0.17647059       0.44444444       0.08333333 </v>
   <v>       0.23529412       0.44444444       0.08333333 </v>
   <v>       0.29411765       0.44444444       0.08333333 </v>
   <v>       0.35294118       0.44444444       0.08333333 </v>
   <v>       0.41176471       0.44444444       0.08333333 </v>
   <v>       0.47058824       0.44444444       0.08333333 </v>
   <v>       0.00000000       0.50000000       0.08333333 </v>
   <v>       0.05882353       0.50000000       0.08333333 </v>
   <v>       0.11764706       0.50000000       0.08333333 </v>
   <v>       0.17647059       0.50000000       0.08333333 </v>
   <v>       0.23529412       0.50000000       0.08333333 </v>
   <v>       0.29411765       0.50000000       0.08333333 </v>
   <v>       0.35294118       0.50000000       0.08333333 </v>
   <v>       0.41176471       0.50000000       0.08333333 </v>
   <v>       0.47058824       0.50000000       0.08333333 </v>
   <v>       0.00000000      -0.44444444       0.08333333 </v>
   <v>       0.05882353      -0.44444444       0.08333333 </v>
   <v>       0.11764706      -0.44444444       0.08333333 </v>
   <v>       0.17647059      -0.44444444       0.08333333 </v>
   <v>       0.23529412      -0.44444444       0.08333333 </v>
   <v>       0.29411765      -0.44444444       0.08333333 </v>
   <v>       0.35294118      -0.44444444       0.08333333 </v>
   <v>       0.41176471      -0.44444444       0.08333333 </v>
   <v>       0.47058824      -0.44444444       0.08333333 </v>
   <v>       0.00000000      -0.38888889       0.08333333 </v>
   <v>       0.05882353      -0.38888889       0.08333333 </v>
   <v>       0.11764706      -0.38888889       0.08333333 </v>
   <v>       0.17647059      -0.38888889       0.08333333 </v>
   <v>       0.23529412      -0.38888889       0.08333333 </v>
   <v>       0.29411765      -0.38888889       0.08333333 </v>
   <v>       0.35294118      -0.38888889       0.08333333 </v>
   <v>       0.41176471      -0.38888889       0.08333333 </v>
   <v>       0.47058824      -0.38888889       0.08333333 </v>
   <v>       0.00000000      -0.33333333       0.08333333 </v>
   <v>       0.05882353      -0.33333333       0.08333333 </v>
   <v>       0.11764706      -0.33333333       0.08333333 </v>
   <v>       0.17647059      -0.33333333       0.08333333 </v>
   <v>       0.23529412      -0.33333333       0.08333333 </v>
   <v>       0.29411765      -0.33333333       0.08333333 </v>
   <v>       0.35294118      -0.33333333       0.08333333 </v>
   <v>       0.41176471      -0.33333333       0.08333333 </v>
   <v>       0.47058824      -0.33333333       0.08333333 </v>
   <v>       0.00000000      -0.27777778       0.08333333 </v>
   <v>       0.05882353      -0.27777778       0.08333333 </v>
   <v>       0.11764706      -0.27777778       0.08333333 </v>
   <v>       0.17647059      -0.27777778       0.08333333 </v>
   <v>       0.23529412      -0.27777778       0.08333333 </v>
   <v>       0.29411765      -0.27777778       0.08333333 </v>
   <v>       0.35294118      -0.27777778       0.08333333 </v>
   <v>       0.41176471      -0.27777778       0.08333333 </v>
   <v>       0.47058824      -0.27777778       0.08333333 </v>
   <v>       0.00000000      -0.22222222       0.08333333 </v>
   <v>       0.05882353      -0.22222222       0.08333333 </v>
   <v>       0.11764706      -0.22222222       0.08333333 </v>
   <v>       0.17647059      -0.22222222       0.08333333 </v>
   <v>       0.23529412      -0.22222222       0.08333333 </v>
   <v>       0.29411765      -0.22222222       0.08333333 </v>
   <v>       0.35294118      -0.22222222       0.08333333 </v>
   <v>       0.41176471      -0.22222222       0.08333333 </v>
   <v>       0.47058824      -0.22222222       0.08333333 </v>
   <v>       0.00000000      -0.16666667       0.08333333 </v>
   <v>       0.05882353      -0.16666667       0.08333333 </v>
   <v>       0.11764706      -0.16666667       0.08333333 </v>
   <v>       0.17647059      -0.16666667       0.08333333 </v>
   <v>       0.23529412      -0.16666667       0.08333333 </v>
   <v>       0.29411765      -0.16666667       0.08333333 </v>
   <v>       0.35294118      -0.16666667       0.08333333 </v>
   <v>       0.41176471      -0.16666667       0.08333333 </v>
   <v>       0.47058824      -0.16666667       0.08333333 </v>
   <v>       0.00000000      -0.11111111       0.08333333 </v>
   <v>       0.05882353      -0.11111111       0.08333333 </v>
   <v>       0.11764706      -0.11111111       0.08333333 </v>
   <v>       0.17647059      -0.11111111       0.08333333 </v>
   <v>       0.23529412      -0.11111111       0.08333333 </v>
   <v>       0.29411765      -0.11111111       0.08333333 </v>
   <v>       0.35294118      -0.11111111       0.08333333 </v>
   <v>       0.41176471      -0.11111111       0.08333333 </v>
   <v>       0.47058824      -0.11111111       0.08333333 </v>
   <v>       0.00000000      -0.05555556       0.08333333 </v>
   <v>       0.05882353      -0.05555556       0.08333333 </v>
   <v>       0.11764706      -0.05555556       0.08333333 </v>
   <v>       0.17647059      -0.05555556       0.08333333 </v>
   <v>       0.23529412      -0.05555556       0.08333333 </v>
   <v>       0.29411765      -0.05555556       0.08333333 </v>
   <v>       0.35294118      -0.05555556       0.08333333 </v>
   <v>       0.41176471      -0.05555556       0.08333333 </v>
   <v>       0.47058824      -0.05555556       0.08333333 </v>
   <v>       0.00000000       0.00000000       0.16666667 </v>
   <v>       0.05882353       0.00000000       0.16666667 </v>
   <v>       0.11764706       0.00000000       0.16666667 </v>
   <v>       0.17647059       0.00000000       0.16666667 </v>
   <v>       0.23529412       0.00000000       0.16666667 </v>
   <v>       0.29411765       0.00000000       0.16666667 </v>
   <v>       0.35294118       0.00000000       0.16666667 </v>
   <v>       0.41176471       0.00000000       0.16666667 </v>
   <v>       0.47058824       0.00000000       0.16666667 </v>
   <v>       0.00000000       0.05555556       0.16666667 </v>
   <v>       0.05882353       0.05555556       0.16666667 </v>
   <v>       0.11764706       0.05555556       0.16666667 </v>
   <v>       0.17647059       0.05555556       0.16666667 </v>
   <v>       0.23529412       0.05555556       0.16666667 </v>
   <v>       0.29411765       0.05555556       0.16666667 </v>
   <v>       0.35294118       0.05555556       0.16666667 </v>
   <v>       0.41176471       0.05555556       0.16666667 </v>
   <v>       0.47058824       0.05555556       0.16666667 </v>
   <v>       0.00000000       0.11111111       0.16666667 </v>
   <v>       0.05882353       0.11111111       0.16666667 </v>
   <v>       0.11764706       0.11111111       0.16666667 </v>
   <v>       0.17647059       0.11111111       0.16666667 </v>
   <v>       0.23529412       0.11111111       0.16666667 </v>
   <v>       0.29411765       0.11111111       0.16666667 </v>
   <v>       0.35294118       0.11111111       0.16666667 </v>
   <v>       0.41176471       0.11111111       0.16666667 </v>
   <v>       0.47058824       0.11111111       0.16666667 </v>
   <v>       0.00000000       0.16666667       0.16666667 </v>
   <v>       0.05882353       0.16666667       0.16666667 </v>
   <v>       0.11764706       0.16666667       0.16666667 </v>
   <v>       0.17647059       0.16666667       0.16666667 </v>
   <v>       0.23529412       0.16666667       0.16666667 </v>
   <v>       0.29411765       0.16666667       0.16666667 </v>
   <v>       0.35294118       0.16666667       0.16666667 </v>
   <v>       0.41176471       0.16666667       0.16666667 </v>
   <v>       0.47058824       0.16666667       0.16666667 </v>
   <v>       0.00000000       0.22222222       0.16666667 </v>
   <v>       0.05882353       0.22222222       0.16666667 </v>
   <v>       0.11764706       0.22222222       0.16666667 </v>
   <v>       0.17647059       0.22222222       0.16666667 </v>
   <v>       0.23529412       0.22222222       0.16666667 </v>
   <v>       0.29411765       0.22222222       0.16666667 </v>
   <v>       0.35294118       0.22222222       0.16666667 </v>
   <v>       0.41176471       0.22222222       0.16666667 </v>
   <v>       0.47058824       0.22222222       0.16666667 </v>
   <v>       0.00000000       0.27777778       0.16666667 </v>
   <v>       0.05882353       0.27777778       0.16666667 </v>
   <v>       0.11764706       0.27777778       0.16666667 </v>
   <v>       0.17647059       0.27777778       0.16666667 </v>
   <v>       0.23529412       0.27777778       0.16666667 </v>
   <v>       0.29411765       0.27777778       0.16666667 </v>
   <v>       0.35294118       0.27777778       0.16666667 </v>
   <v>       0.41176471       0.27777778       0.16666667 </v>
   <v>       0.47058824       0.27777778       0.16666667 </v>
   <v>       0.00000000       0.33333333       0.16666667 </v>
   <v>       0.05882353       0.33333333       0.16666667 </v>
   <v>       0.11764706       0.33333333       0.16666667 </v>
   <v>       0.17647059       0.33333333       0.16666667 </v>
   <v>       0.23529412       0.33333333       0.16666667 </v>
   <v>       0.29411765       0.33333333       0.16666667 </v>
   <v>       0.35294118       0.33333333       0.16666667 </v>
   <v>       0.41176471       0.33333333       0.16666667 </v>
   <v>       0.47058824       0.33333333       0.16666667 </v>
   <v>       0.00000000       0.38888889       0.16666667 </v>
   <v>       0.05882353       0.38888889       0.16666667 </v>
   <v>       0.11764706       0.38888889       0.16666667 </v>
   <v>       0.17647059       0.38888889       0.16666667 </v>
   <v>       0.23529412       0.38888889       0.16666667 </v>
   <v>       0.29411765       0.38888889       0.16666667 </v>
   <v>       0.35294118       0.38888889       0.16666667 </v>
   <v>       0.41176471       0.38888889       0.16666667 </v>
   <v>       0.47058824       0.38888889       0.16666667 </v>
   <v>       0.00000000       0.44444444       0.16666667 </v>
   <v>       0.05882353       0.44444444       0.16666667 </v>
   <v>       0.11764706       0.44444444       0.16666667 </v>
   <v>       0.17647059       0.44444444       0.16666667 </v>
   <v>       0.23529412       0.44444444       0.16666667 </v>
   <v>       0.29411765       0.44444444       0.16666667 </v>
   <v>       0.35294118       0.44444444       0.16666667 </v>
   <v>       0.41176471       0.44444444       0.16666667 </v>
   <v>       0.47058824       0.44444444       0.16666667 </v>
   <v>       0.00000000       0.50000000       0.16666667 </v>
   <v>       0.05882353       0.50000000       0.16666667 </v>
   <v>       0.11764706       0.50000000       0.16666667 </v>
   <v>       0.17647059       0.50000000       0.16666667 </v>
   <v>       0.23529412       0.50000000       0.16666667 </v>
   <v>       0.29411765       0.50000000       0.16666667 </v>
   <v>       0.35294118       0.50000000       0.16666667 </v>
   <v>       0.41176471       0.50000000       0.16666667 </v>
   <v>       0.47058824       0.50000000       0.16666667 </v>
   <v>       0.00000000      -0.44444444       0.16666667 </v>
   <v>       0.05882353      -0.44444444       0.16666667 </v>
   <v>       0.11764706      -0.44444444       0.16666667 </v>
   <v>       0.17647059      -0.44444444       0.16666667 </v>
   <v>       0.23529412      -0.44444444       0.16666667 </v>
   <v>       0.29411765      -0.44444444       0.16666667 </v>
   <v>       0.35294118      -0.44444444       0.16666667 </v>
   <v>       0.41176471      -0.44444444       0.16666667 </v>
   <v>       0.47058824      -0.44444444       0.16666667 </v>
   <v>       0.00000000      -0.38888889       0.16666667 </v>
   <v>       0.05882353      -0.38888889       0.16666667 </v>
   <v>       0.11764706      -0.38888889       0.16666667 </v>
   <v>       0.17647059      -0.38888889       0.16666667 </v>
   <v>       0.23529412      -0.38888889       0.16666667 </v>
   <v>       0.29411765      -0.38888889       0.16666667 </v>
   <v>       0.35294118      -0.38888889       0.16666667 </v>
   <v>       0.41176471      -0.38888889       0.16666667 </v>
   <v>       0.47058824      -0.38888889       0.16666667 </v>
   <v>       0.00000000      -0.33333333       0.16666667 </v>
   <v>       0.05882353      -0.33333333       0.16666667 </v>
   <v>       0.11764706      -0.33333333       0.16666667 </v>
   <v>       0.17647059      -0.33333333       0.16666667 </v>
   <v>       0.23529412      -0.33333333       0.16666667 </v>
   <v>       0.29411765      -0.33333333       0.16666667 </v>
   <v>       0.35294118      -0.33333333       0.16666667 </v>
   <v>       0.41176471      -0.33333333       0.16666667 </v>
   <v>       0.47058824      -0.33333333       0.16666667 </v>
   <v>       0.00000000      -0.27777778       0.16666667 </v>
   <v>       0.05882353      -0.27777778       0.16666667 </v>
   <v>       0.11764706      -0.27777778       0.16666667 </v>
   <v>       0.17647059      -0.27777778       0.16666667 </v>
   <v>       0.23529412      -0.27777778       0.16666667 </v>
   <v>       0.29411765      -0.27777778       0.16666667 </v>
   <v>       0.35294118      -0.27777778       0.16666667 </v>
   <v>       0.41176471      -0.27777778       0.16666667 </v>
   <v>       0.47058824      -0.27777778       0.16666667 </v>
   <v>       0.00000000      -0.22222222       0.16666667 </v>
   <v>       0.05882353      -0.22222222       0.16666667 </v>
   <v>       0.11764706      -0.22222222       0.16666667 </v>
   <v>       0.17647059      -0.22222222       0.16666667 </v>
   <v>       0.23529412      -0.22222222       0.16666667 </v>
   <v>       0.29411765      -0.22222222       0.16666667 </v>
   <v>       0.35294118      -0.22222222       0.16666667 </v>
   <v>       0.41176471      -0.22222222       0.16666667 </v>
   <v>       0.47058824      -0.22222222       0.16666667 </v>
   <v>       0.00000000      -0.11111111       0.16666667 </v>
   <v>       0.05882353      -0.11111111       0.16666667 </v>
   <v>       0.11764706      -0.11111111       0.16666667 </v>
   <v>       0.17647059      -0.11111111       0.16666667 </v>
   <v>       0.23529412      -0.11111111       0.16666667 </v>
   <v>       0.29411765      -0.11111111       0.16666667 </v>
   <v>       0.35294118      -0.11111111       0.16666667 </v>
   <v>       0.41176471      -0.11111111       0.16666667 </v>
   <v>       0.47058824      -0.11111111       0.16666667 </v>
   <v>       0.00000000      -0.05555556       0.16666667 </v>
   <v>       0.05882353      -0.05555556       0.16666667 </v>
   <v>       0.11764706      -0.05555556       0.16666667 </v>
   <v>       0.17647059      -0.05555556       0.16666667 </v>
   <v>       0.23529412      -0.05555556       0.16666667 </v>
   <v>       0.29411765      -0.05555556       0.16666667 </v>
   <v>       0.35294118      -0.05555556       0.16666667 </v>
   <v>       0.41176471      -0.05555556       0.16666667 </v>
   <v>       0.47058824      -0.05555556       0.16666667 </v>
   <v>       0.00000000       0.00000000       0.25000000 </v>
   <v>       0.05882353       0.00000000       0.25000000 </v>
   <v>       0.11764706       0.00000000       0.25000000 </v>
   <v>       0.17647059       0.00000000       0.25000000 </v>
   <v>       0.23529412       0.00000000       0.25000000 </v>
   <v>       0.29411765       0.00000000       0.25000000 </v>
   <v>       0.35294118       0.00000000       0.25000000 </v>
   <v>       0.41176471       0.00000000       0.25000000 </v>
   <v>       0.47058824       0.00000000       0.25000000 </v>
   <v>       0.00000000       0.05555556       0.25000000 </v>
   <v>       0.05882353       0.05555556       0.25000000 </v>
   <v>       0.11764706       0.05555556       0.25000000 </v>
   <v>       0.17647059       0.05555556       0.25000000 </v>
   <v>       0.23529412       0.05555556       0.25000000 </v>
   <v>       0.29411765       0.05555556       0.25000000 </v>
   <v>       0.35294118       0.05555556       0.25000000 </v>
   <v>       0.41176471       0.05555556       0.25000000 </v>
   <v>       0.47058824       0.05555556       0.25000000 </v>
   <v>       0.00000000       0.11111111       0.25000000 </v>
   <v>       0.05882353       0.11111111       0.25000000 </v>
   <v>       0.11764706       0.11111111       0.25000000 </v>
   <v>       0.17647059       0.11111111       0.25000000 </v>
   <v>       0.23529412       0.11111111       0.25000000 </v>
   <v>       0.29411765       0.11111111       0.25000000 </v>
   <v>       0.35294118       0.11111111       0.25000000 </v>
   <v>       0.41176471       0.11111111       0.25000000 </v>
   <v>       0.47058824       0.11111111       0.25000000 </v>
   <v>       0.00000000       0.16666667       0.25000000 </v>
   <v>       0.05882353       0.16666667       0.25000000 </v>
   <v>       0.11764706       0.16666667       0.25000000 </v>
   <v>       0.17647059       0.16666667       0.25000000 </v>
   <v>       0.23529412       0.16666667       0.25000000 </v>
   <v>       0.29411765       0.16666667       0.25000000 </v>
   <v>       0.35294118       0.16666667       0.25000000 </v>
   <v>       0.41176471       0.16666667       0.25000000 </v>
   <v>       0.47058824       0.16666667       0.25000000 </v>
   <v>       0.00000000       0.22222222       0.25000000 </v>
   <v>       0.05882353       0.22222222       0.25000000 </v>
   <v>       0.11764706       0.22222222       0.25000000 </v>
   <v>       0.17647059       0.22222222       0.25000000 </v>
   <v>       0.23529412       0.22222222       0.25000000 </v>
   <v>       0.29411765       0.22222222       0.25000000 </v>
   <v>       0.35294118       0.22222222       0.25000000 </v>
   <v>       0.41176471       0.22222222       0.25000000 </v>
   <v>       0.47058824       0.22222222       0.25000000 </v>
   <v>       0.00000000       0.27777778       0.25000000 </v>
   <v>       0.05882353       0.27777778       0.25000000 </v>
   <v>       0.11764706       0.27777778       0.25000000 </v>
   <v>       0.17647059       0.27777778       0.25000000 </v>
   <v>       0.23529412       0.27777778       0.25000000 </v>
   <v>       0.29411765       0.27777778       0.25000000 </v>
   <v>       0.35294118       0.27777778       0.25000000 </v>
   <v>       0.41176471       0.27777778       0.25000000 </v>
   <v>       0.47058824       0.27777778       0.25000000 </v>
   <v>       0.00000000       0.33333333       0.25000000 </v>
   <v>       0.05882353       0.33333333       0.25000000 </v>
   <v>       0.11764706       0.33333333       0.25000000 </v>
   <v>       0.17647059       0.33333333       0.25000000 </v>
   <v>       0.23529412       0.33333333       0.25000000 </v>
   <v>       0.29411765       0.33333333       0.25000000 </v>
   <v>       0.35294118       0.33333333       0.25000000 </v>
   <v>       0.41176471       0.33333333       0.25000000 </v>
   <v>       0.47058824       0.33333333       0.25000000 </v>
   <v>       0.00000000       0.38888889       0.25000000 </v>
   <v>       0.05882353       0.38888889       0.25000000 </v>
   <v>       0.11764706       0.38888889       0.25000000 </v>
   <v>       0.17647059       0.38888889       0.25000000 </v>
   <v>       0.23529412       0.38888889       0.25000000 </v>
   <v>       0.29411765       0.38888889       0.25000000 </v>
   <v>       0.35294118       0.38888889       0.25000000 </v>
   <v>       0.41176471       0.38888889       0.25000000 </v>
   <v>       0.47058824       0.38888889       0.25000000 </v>
   <v>       0.00000000       0.44444444       0.25000000 </v>
   <v>       0.05882353       0.44444444       0.25000000 </v>
   <v>       0.11764706       0.44444444       0.25000000 </v>
   <v>       0.17647059       0.44444444       0.25000000 </v>
   <v>       0.23529412       0.44444444       0.25000000 </v>
   <v>       0.29411765       0.44444444       0.25000000 </v>
   <v>       0.35294118       0.44444444       0.25000000 </v>
   <v>       0.41176471       0.44444444       0.25000000 </v>
   <v>       0.47058824       0.44444444       0.25000000 </v>
   <v>       0.00000000       0.50000000       0.25000000 </v>
   <v>       0.05882353       0.50000000       0.25000000 </v>
   <v>       0.11764706       0.50000000       0.25000000 </v>
   <v>       0.17647059       0.50000000       0.25000000 </v>
   <v>       0.23529412       0.50000000       0.25000000 </v>
   <v>       0.29411765       0.50000000       0.25000000 </v>
   <v>       0.35294118       0.50000000       0.25000000 </v>
   <v>       0.41176471       0.50000000       0.25000000 </v>
   <v>       0.47058824       0.50000000       0.25000000 </v>
   <v>       0.00000000      -0.44444444       0.25000000 </v>
   <v>       0.05882353      -0.44444444       0.25000000 </v>
   <v>       0.11764706      -0.44444444       0.25000000 </v>
   <v>       0.17647059      -0.44444444       0.25000000 </v>
   <v>       0.23529412      -0.44444444       0.25000000 </v>
   <v>       0.29411765      -0.44444444       0.25000000 </v>
   <v>       0.35294118      -0.44444444       0.25000000 </v>
   <v>       0.41176471      -0.44444444       0.25000000 </v>
   <v>       0.47058824      -0.44444444       0.25000000 </v>
   <v>       0.00000000      -0.38888889       0.25000000 </v>
   <v>       0.05882353      -0.38888889       0.25000000 </v>
   <v>       0.11764706      -0.38888889       0.25000000 </v>
   <v>       0.17647059      -0.38888889       0.25000000 </v>
   <v>       0.23529412      -0.38888889       0.25000000 </v>
   <v>       0.29411765      -0.38888889       0.25000000 </v>
   <v>       0.35294118      -0.38888889       0.25000000 </v>
   <v>       0.41176471      -0.38888889       0.25000000 </v>
   <v>       0.47058824      -0.38888889       0.25000000 </v>
   <v>       0.00000000      -0.27777778       0.25000000 </v>
   <v>       0.05882353      -0.27777778       0.25000000 </v>
   <v>       0.11764706      -0.27777778       0.25000000 </v>
   <v>       0.17647059      -0.27777778       0.25000000 </v>
   <v>       0.23529412      -0.27777778       0.25000000 </v>
   <v>       0.29411765      -0.27777778       0.25000000 </v>
   <v>       0.35294118      -0.27777778       0.25000000 </v>
   <v>       0.41176471      -0.27777778       0.25000000 </v>
   <v>       0.47058824      -0.27777778       0.25000000 </v>
   <v>       0.00000000      -0.22222222       0.25000000 </v>
   <v>       0.05882353      -0.22222222       0.25000000 </v>
   <v>       0.11764706      -0.22222222       0.25000000 </v>
   <v>       0.17647059      -0.22222222       0.25000000 </v>
   <v>       0.23529412      -0.22222222       0.25000000 </v>
   <v>       0.29411765      -0.22222222       0.25000000 </v>
   <v>       0.35294118      -0.22222222       0.25000000 </v>
   <v>       0.41176471      -0.22222222       0.25000000 </v>
   <v>       0.47058824      -0.22222222       0.25000000 </v>
   <v>       0.00000000      -0.11111111       0.25000000 </v>
   <v>       0.05882353      -0.11111111       0.25000000 </v>
   <v>       0.11764706      -0.11111111       0.25000000 </v>
   <v>       0.17647059      -0.11111111       0.25000000 </v>
   <v>       0.23529412      -0.11111111       0.25000000 </v>
   <v>       0.29411765      -0.11111111       0.25000000 </v>
   <v>       0.35294118      -0.11111111       0.25000000 </v>
   <v>       0.41176471      -0.11111111       0.25000000 </v>
   <v>       0.47058824      -0.11111111       0.25000000 </v>
   <v>       0.00000000      -0.05555556       0.25000000 </v>
   <v>       0.05882353      -0.05555556       0.25000000 </v>
   <v>       0.11764706      -0.05555556       0.25000000 </v>
   <v>       0.17647059      -0.05555556       0.25000000 </v>
   <v>       0.23529412      -0.05555556       0.25000000 </v>
   <v>       0.29411765      -0.05555556       0.25000000 </v>
   <v>       0.35294118      -0.05555556       0.25000000 </v>
   <v>       0.41176471      -0.05555556       0.25000000 </v>
   <v>       0.47058824      -0.05555556       0.25000000 </v>
   <v>       0.00000000       0.00000000       0.33333333 </v>
   <v>       0.05882353       0.00000000       0.33333333 </v>
   <v>       0.11764706       0.00000000       0.33333333 </v>
   <v>       0.17647059       0.00000000       0.33333333 </v>
   <v>       0.23529412       0.00000000       0.33333333 </v>
   <v>       0.29411765       0.00000000       0.33333333 </v>
   <v>       0.35294118       0.00000000       0.33333333 </v>
   <v>       0.41176471       0.00000000       0.33333333 </v>
   <v>       0.47058824       0.00000000       0.33333333 </v>
   <v>       0.00000000       0.05555556       0.33333333 </v>
   <v>       0.05882353       0.05555556       0.33333333 </v>
   <v>       0.11764706       0.05555556       0.33333333 </v>
   <v>       0.17647059       0.05555556       0.33333333 </v>
   <v>       0.23529412       0.05555556       0.33333333 </v>
   <v>       0.29411765       0.05555556       0.33333333 </v>
   <v>       0.35294118       0.05555556       0.33333333 </v>
   <v>       0.41176471       0.05555556       0.33333333 </v>
   <v>       0.47058824       0.05555556       0.33333333 </v>
   <v>       0.00000000       0.11111111       0.33333333 </v>
   <v>       0.05882353       0.11111111       0.33333333 </v>
   <v>       0.11764706       0.11111111       0.33333333 </v>
   <v>       0.17647059       0.11111111       0.33333333 </v>
   <v>       0.23529412       0.11111111       0.33333333 </v>
   <v>       0.29411765       0.11111111       0.33333333 </v>
   <v>       0.35294118       0.11111111       0.33333333 </v>
   <v>       0.41176471       0.11111111       0.33333333 </v>
   <v>       0.47058824       0.11111111       0.33333333 </v>
   <v>       0.00000000       0.16666667       0.33333333 </v>
   <v>       0.05882353       0.16666667       0.33333333 </v>
   <v>       0.11764706       0.16666667       0.33333333 </v>
   <v>       0.17647059       0.16666667       0.33333333 </v>
   <v>       0.23529412       0.16666667       0.33333333 </v>
   <v>       0.29411765       0.16666667       0.33333333 </v>
   <v>       0.35294118       0.16666667       0.33333333 </v>
   <v>       0.41176471       0.16666667       0.33333333 </v>
   <v>       0.47058824       0.16666667       0.33333333 </v>
   <v>       0.00000000       0.22222222       0.33333333 </v>
   <v>       0.05882353       0.22222222       0.33333333 </v>
   <v>       0.11764706       0.22222222       0.33333333 </v>
   <v>       0.17647059       0.22222222       0.33333333 </v>
   <v>       0.23529412       0.22222222       0.33333333 </v>
   <v>       0.29411765       0.22222222       0.33333333 </v>
   <v>       0.35294118       0.22222222       0.33333333 </v>
   <v>       0.41176471       0.22222222       0.33333333 </v>
   <v>       0.47058824       0.22222222       0.33333333 </v>
   <v>       0.00000000       0.27777778       0.33333333 </v>
   <v>       0.05882353       0.27777778       0.33333333 </v>
   <v>       0.11764706       0.27777778       0.33333333 </v>
   <v>       0.17647059       0.27777778       0.33333333 </v>
   <v>       0.23529412       0.27777778       0.33333333 </v>
   <v>       0.29411765       0.27777778       0.33333333 </v>
   <v>       0.35294118       0.27777778       0.33333333 </v>
   <v>       0.41176471       0.27777778       0.33333333 </v>
   <v>       0.47058824       0.27777778       0.33333333 </v>
   <v>       0.00000000       0.33333333       0.33333333 </v>
   <v>       0.05882353       0.33333333       0.33333333 </v>
   <v>       0.11764706       0.33333333       0.33333333 </v>
   <v>       0.17647059       0.33333333       0.33333333 </v>
   <v>       0.23529412       0.33333333       0.33333333 </v>
   <v>       0.29411765       0.33333333       0.33333333 </v>
   <v>       0.35294118       0.33333333       0.33333333 </v>
   <v>       0.41176471       0.33333333       0.33333333 </v>
   <v>       0.47058824       0.33333333       0.33333333 </v>
   <v>       0.00000000       0.38888889       0.33333333 </v>
   <v>       0.05882353       0.38888889       0.33333333 </v>
   <v>       0.11764706       0.38888889       0.33333333 </v>
   <v>       0.17647059       0.38888889       0.33333333 </v>
   <v>       0.23529412       0.38888889       0.33333333 </v>
   <v>       0.29411765       0.38888889       0.33333333 </v>
   <v>       0.35294118       0.38888889       0.33333333 </v>
   <v>       0.41176471       0.38888889       0.33333333 </v>
   <v>       0.47058824       0.38888889       0.33333333 </v>
   <v>       0.00000000       0.44444444       0.33333333 </v>
   <v>       0.05882353       0.44444444       0.33333333 </v>
   <v>       0.11764706       0.44444444       0.33333333 </v>
   <v>       0.17647059       0.44444444       0.33333333 </v>
   <v>       0.23529412       0.44444444       0.33333333 </v>
   <v>       0.29411765       0.44444444       0.33333333 </v>
   <v>       0.35294118       0.44444444       0.33333333 </v>
   <v>       0.41176471       0.44444444       0.33333333 </v>
   <v>       0.47058824       0.44444444       0.33333333 </v>
   <v>       0.00000000      -0.44444444       0.33333333 </v>
   <v>       0.05882353      -0.44444444       0.33333333 </v>
   <v>       0.11764706      -0.44444444       0.33333333 </v>
   <v>       0.17647059      -0.44444444       0.33333333 </v>
   <v>       0.23529412      -0.44444444       0.33333333 </v>
   <v>       0.29411765      -0.44444444       0.33333333 </v>
   <v>       0.35294118      -0.44444444       0.33333333 </v>
   <v>       0.41176471      -0.44444444       0.33333333 </v>
   <v>       0.47058824      -0.44444444       0.33333333 </v>
   <v>       0.00000000      -0.38888889       0.33333333 </v>
   <v>       0.05882353      -0.38888889       0.33333333 </v>
   <v>       0.11764706      -0.38888889       0.33333333 </v>
   <v>       0.17647059      -0.38888889       0.33333333 </v>
   <v>       0.23529412      -0.38888889       0.33333333 </v>
   <v>       0.29411765      -0.38888889       0.33333333 </v>
   <v>       0.35294118      -0.38888889       0.33333333 </v>
   <v>       0.41176471      -0.38888889       0.33333333 </v>
   <v>       0.47058824      -0.38888889       0.33333333 </v>
   <v>       0.00000000      -0.27777778       0.33333333 </v>
   <v>       0.05882353      -0.27777778       0.33333333 </v>
   <v>       0.11764706      -0.27777778       0.33333333 </v>
   <v>       0.17647059      -0.27777778       0.33333333 </v>
   <v>       0.23529412      -0.27777778       0.33333333 </v>
   <v>       0.29411765      -0.27777778       0.33333333 </v>
   <v>       0.35294118      -0.27777778       0.33333333 </v>
   <v>       0.41176471      -0.27777778       0.33333333 </v>
   <v>       0.47058824      -0.27777778       0.33333333 </v>
   <v>       0.00000000      -0.22222222       0.33333333 </v>
   <v>       0.05882353      -0.22222222       0.33333333 </v>
   <v>       0.11764706      -0.22222222       0.33333333 </v>
   <v>       0.17647059      -0.22222222       0.33333333 </v>
   <v>       0.23529412      -0.22222222       0.33333333 </v>
   <v>       0.29411765      -0.22222222       0.33333333 </v>
   <v>       0.35294118      -0.22222222       0.33333333 </v>
   <v>       0.41176471      -0.22222222       0.33333333 </v>
   <v>       0.47058824      -0.22222222       0.33333333 </v>
   <v>       0.00000000      -0.11111111       0.33333333 </v>
   <v>       0.05882353      -0.11111111       0.33333333 </v>
   <v>       0.11764706      -0.11111111       0.33333333 </v>
   <v>       0.17647059      -0.11111111       0.33333333 </v>
   <v>       0.23529412      -0.11111111       0.33333333 </v>
   <v>       0.29411765      -0.11111111       0.33333333 </v>
   <v>       0.35294118      -0.11111111       0.33333333 </v>
   <v>       0.41176471      -0.11111111       0.33333333 </v>
   <v>       0.47058824      -0.11111111       0.33333333 </v>
   <v>       0.00000000      -0.05555556       0.33333333 </v>
   <v>       0.05882353      -0.05555556       0.33333333 </v>
   <v>       0.11764706      -0.05555556       0.33333333 </v>
   <v>       0.17647059      -0.05555556       0.33333333 </v>
   <v>       0.23529412      -0.05555556       0.33333333 </v>
   <v>       0.29411765      -0.05555556       0.33333333 </v>
   <v>       0.35294118      -0.05555556       0.33333333 </v>
   <v>       0.41176471      -0.05555556       0.33333333 </v>
   <v>       0.47058824      -0.05555556       0.33333333 </v>
   <v>       0.00000000       0.00000000       0.41666667 </v>
   <v>       0.05882353       0.00000000       0.41666667 </v>
   <v>       0.11764706       0.00000000       0.41666667 </v>
   <v>       0.17647059       0.00000000       0.41666667 </v>
   <v>       0.23529412       0.00000000       0.41666667 </v>
   <v>       0.29411765       0.00000000       0.41666667 </v>
   <v>       0.35294118       0.00000000       0.41666667 </v>
   <v>       0.41176471       0.00000000       0.41666667 </v>
   <v>       0.47058824       0.00000000       0.41666667 </v>
   <v>       0.00000000       0.05555556       0.41666667 </v>
   <v>       0.05882353       0.05555556       0.41666667 </v>
   <v>       0.11764706       0.05555556       0.41666667 </v>
   <v>       0.17647059       0.05555556       0.41666667 </v>
   <v>       0.23529412       0.05555556       0.41666667 </v>
   <v>       0.29411765       0.05555556       0.41666667 </v>
   <v>       0.35294118       0.05555556       0.41666667 </v>
   <v>       0.41176471       0.05555556       0.41666667 </v>
   <v>       0.47058824       0.05555556       0.41666667 </v>
   <v>       0.00000000       0.11111111       0.41666667 </v>
   <v>       0.05882353       0.11111111       0.41666667 </v>
   <v>       0.11764706       0.11111111       0.41666667 </v>
   <v>       0.17647059       0.11111111       0.41666667 </v>
   <v>       0.23529412       0.11111111       0.41666667 </v>
   <v>       0.29411765       0.11111111       0.41666667 </v>
   <v>       0.35294118       0.11111111       0.41666667 </v>
   <v>       0.41176471       0.11111111       0.41666667 </v>
   <v>       0.47058824       0.11111111       0.41666667 </v>
   <v>       0.00000000       0.16666667       0.41666667 </v>
   <v>       0.05882353       0.16666667       0.41666667 </v>
   <v>       0.11764706       0.16666667       0.41666667 </v>
   <v>       0.17647059       0.16666667       0.41666667 </v>
   <v>       0.23529412       0.16666667       0.41666667 </v>
   <v>       0.29411765       0.16666667       0.41666667 </v>
   <v>       0.35294118       0.16666667       0.41666667 </v>
   <v>       0.41176471       0.16666667       0.41666667 </v>
   <v>       0.47058824       0.16666667       0.41666667 </v>
   <v>       0.00000000       0.22222222       0.41666667 </v>
   <v>       0.05882353       0.22222222       0.41666667 </v>
   <v>       0.11764706       0.22222222       0.41666667 </v>
   <v>       0.17647059       0.22222222       0.41666667 </v>
   <v>       0.23529412       0.22222222       0.41666667 </v>
   <v>       0.29411765       0.22222222       0.41666667 </v>
   <v>       0.35294118       0.22222222       0.41666667 </v>
   <v>       0.41176471       0.22222222       0.41666667 </v>
   <v>       0.47058824       0.22222222       0.41666667 </v>
   <v>       0.00000000       0.27777778       0.41666667 </v>
   <v>       0.05882353       0.27777778       0.41666667 </v>
   <v>       0.11764706       0.27777778       0.41666667 </v>
   <v>       0.17647059       0.27777778       0.41666667 </v>
   <v>       0.23529412       0.27777778       0.41666667 </v>
   <v>       0.29411765       0.27777778       0.41666667 </v>
   <v>       0.35294118       0.27777778       0.41666667 </v>
   <v>       0.41176471       0.27777778       0.41666667 </v>
   <v>       0.47058824       0.27777778       0.41666667 </v>
   <v>       0.00000000       0.38888889       0.41666667 </v>
   <v>       0.05882353       0.38888889       0.41666667 </v>
   <v>       0.11764706       0.38888889       0.41666667 </v>
   <v>       0.17647059       0.38888889       0.41666667 </v>
   <v>       0.23529412       0.38888889       0.41666667 </v>
   <v>       0.29411765       0.38888889       0.41666667 </v>
   <v>       0.35294118       0.38888889       0.41666667 </v>
   <v>       0.41176471       0.38888889       0.41666667 </v>
   <v>       0.47058824       0.38888889       0.41666667 </v>
   <v>       0.00000000       0.44444444       0.41666667 </v>
   <v>       0.05882353       0.44444444       0.41666667 </v>
   <v>       0.11764706       0.44444444       0.41666667 </v>
   <v>       0.17647059       0.44444444       0.41666667 </v>
   <v>       0.23529412       0.44444444       0.41666667 </v>
   <v>       0.29411765       0.44444444       0.41666667 </v>
   <v>       0.35294118       0.44444444       0.41666667 </v>
   <v>       0.41176471       0.44444444       0.41666667 </v>
   <v>       0.47058824       0.44444444       0.41666667 </v>
   <v>       0.00000000      -0.44444444       0.41666667 </v>
   <v>       0.05882353      -0.44444444       0.41666667 </v>
   <v>       0.11764706      -0.44444444       0.41666667 </v>
   <v>       0.17647059      -0.44444444       0.41666667 </v>
   <v>       0.23529412      -0.44444444       0.41666667 </v>
   <v>       0.29411765      -0.44444444       0.41666667 </v>
   <v>       0.35294118      -0.44444444       0.41666667 </v>
   <v>       0.41176471      -0.44444444       0.41666667 </v>
   <v>       0.47058824      -0.44444444       0.41666667 </v>
   <v>       0.00000000      -0.38888889       0.41666667 </v>
   <v>       0.05882353      -0.38888889       0.41666667 </v>
   <v>       0.11764706      -0.38888889       0.41666667 </v>
   <v>       0.17647059      -0.38888889       0.41666667 </v>
   <v>       0.23529412      -0.38888889       0.41666667 </v>
   <v>       0.29411765      -0.38888889       0.41666667 </v>
   <v>       0.35294118      -0.38888889       0.41666667 </v>
   <v>       0.41176471      -0.38888889       0.41666667 </v>
   <v>       0.47058824      -0.38888889       0.41666667 </v>
   <v>       0.00000000      -0.27777778       0.41666667 </v>
   <v>       0.05882353      -0.27777778       0.41666667 </v>
   <v>       0.11764706      -0.27777778       0.41666667 </v>
   <v>       0.17647059      -0.27777778       0.41666667 </v>
   <v>       0.23529412      -0.27777778       0.41666667 </v>
   <v>       0.29411765      -0.27777778       0.41666667 </v>
   <v>       0.35294118      -0.27777778       0.41666667 </v>
   <v>       0.41176471      -0.27777778       0.41666667 </v>
   <v>       0.47058824      -0.27777778       0.41666667 </v>
   <v>       0.00000000      -0.22222222       0.41666667 </v>
   <v>       0.05882353      -0.22222222       0.41666667 </v>
   <v>       0.11764706      -0.22222222       0.41666667 </v>
   <v>       0.17647059      -0.22222222       0.41666667 </v>
   <v>       0.23529412      -0.22222222       0.41666667 </v>
   <v>       0.29411765      -0.22222222       0.41666667 </v>
   <v>       0.35294118      -0.22222222       0.41666667 </v>
   <v>       0.41176471      -0.22222222       0.41666667 </v>
   <v>       0.47058824      -0.22222222       0.41666667 </v>
   <v>       0.00000000      -0.11111111       0.41666667 </v>
   <v>       0.05882353      -0.11111111       0.41666667 </v>
   <v>       0.11764706      -0.11111111       0.41666667 </v>
   <v>       0.17647059      -0.11111111       0.41666667 </v>
   <v>       0.23529412      -0.11111111       0.41666667 </v>
   <v>       0.29411765      -0.11111111       0.41666667 </v>
   <v>       0.35294118      -0.11111111       0.41666667 </v>
   <v>       0.41176471      -0.11111111       0.41666667 </v>
   <v>       0.47058824      -0.11111111       0.41666667 </v>
   <v>       0.00000000      -0.05555556       0.41666667 </v>
   <v>       0.05882353      -0.05555556       0.41666667 </v>
   <v>       0.11764706      -0.05555556       0.41666667 </v>
   <v>       0.17647059      -0.05555556       0.41666667 </v>
   <v>       0.23529412      -0.05555556       0.41666667 </v>
   <v>       0.29411765      -0.05555556       0.41666667 </v>
   <v>       0.35294118      -0.05555556       0.41666667 </v>
   <v>       0.41176471      -0.05555556       0.41666667 </v>
   <v>       0.47058824      -0.05555556       0.41666667 </v>
   <v>       0.00000000       0.00000000       0.50000000 </v>
   <v>       0.05882353       0.00000000       0.50000000 </v>
   <v>       0.11764706       0.00000000       0.50000000 </v>
   <v>       0.17647059       0.00000000       0.50000000 </v>
   <v>       0.23529412       0.00000000       0.50000000 </v>
   <v>       0.29411765       0.00000000       0.50000000 </v>
   <v>       0.35294118       0.00000000       0.50000000 </v>
   <v>       0.41176471       0.00000000       0.50000000 </v>
   <v>       0.47058824       0.00000000       0.50000000 </v>
   <v>       0.00000000       0.05555556       0.50000000 </v>
   <v>       0.05882353       0.05555556       0.50000000 </v>
   <v>       0.11764706       0.05555556       0.50000000 </v>
   <v>       0.17647059       0.05555556       0.50000000 </v>
   <v>       0.23529412       0.05555556       0.50000000 </v>
   <v>       0.29411765       0.05555556       0.50000000 </v>
   <v>       0.35294118       0.05555556       0.50000000 </v>
   <v>       0.41176471       0.05555556       0.50000000 </v>
   <v>       0.47058824       0.05555556       0.50000000 </v>
   <v>       0.00000000       0.11111111       0.50000000 </v>
   <v>       0.05882353       0.11111111       0.50000000 </v>
   <v>       0.11764706       0.11111111       0.50000000 </v>
   <v>       0.17647059       0.11111111       0.50000000 </v>
   <v>       0.23529412       0.11111111       0.50000000 </v>
   <v>       0.29411765       0.11111111       0.50000000 </v>
   <v>       0.35294118       0.11111111       0.50000000 </v>
   <v>       0.41176471       0.11111111       0.50000000 </v>
   <v>       0.47058824       0.11111111       0.50000000 </v>
   <v>       0.00000000       0.22222222       0.50000000 </v>
   <v>       0.05882353       0.22222222       0.50000000 </v>
   <v>       0.11764706       0.22222222       0.50000000 </v>
   <v>       0.17647059       0.22222222       0.50000000 </v>
   <v>       0.23529412       0.22222222       0.50000000 </v>
   <v>       0.29411765       0.22222222       0.50000000 </v>
   <v>       0.35294118       0.22222222       0.50000000 </v>
   <v>       0.41176471       0.22222222       0.50000000 </v>
   <v>       0.47058824       0.22222222       0.50000000 </v>
   <v>       0.00000000       0.27777778       0.50000000 </v>
   <v>       0.05882353       0.27777778       0.50000000 </v>
   <v>       0.11764706       0.27777778       0.50000000 </v>
   <v>       0.17647059       0.27777778       0.50000000 </v>
   <v>       0.23529412       0.27777778       0.50000000 </v>
   <v>       0.29411765       0.27777778       0.50000000 </v>
   <v>       0.35294118       0.27777778       0.50000000 </v>
   <v>       0.41176471       0.27777778       0.50000000 </v>
   <v>       0.47058824       0.27777778       0.50000000 </v>
   <v>       0.00000000       0.38888889       0.50000000 </v>
   <v>       0.05882353       0.38888889       0.50000000 </v>
   <v>       0.11764706       0.38888889       0.50000000 </v>
   <v>       0.17647059       0.38888889       0.50000000 </v>
   <v>       0.23529412       0.38888889       0.50000000 </v>
   <v>       0.29411765       0.38888889       0.50000000 </v>
   <v>       0.35294118       0.38888889       0.50000000 </v>
   <v>       0.41176471       0.38888889       0.50000000 </v>
   <v>       0.47058824       0.38888889       0.50000000 </v>
   <v>       0.00000000       0.44444444       0.50000000 </v>
   <v>       0.05882353       0.44444444       0.50000000 </v>
   <v>       0.11764706       0.44444444       0.50000000 </v>
   <v>       0.17647059       0.44444444       0.50000000 </v>
   <v>       0.23529412       0.44444444       0.50000000 </v>
   <v>       0.29411765       0.44444444       0.50000000 </v>
   <v>       0.35294118       0.44444444       0.50000000 </v>
   <v>       0.41176471       0.44444444       0.50000000 </v>
   <v>       0.47058824       0.44444444       0.50000000 </v>
  </varray>
  <varray name="weights" >
   <v>       0.00027233 </v>
   <v>       0.00054466 </v>
   <v>       0.00054466 </v>
   <v>       0.00054466 </v>
   <v>       0.00054466 </v>
   <v>       0.00054466 </v>
   <v>       0.00054466 </v>
   <v>       0.00054466 </v>
   <v>       0.00054466 </v>
   <v>       0.00054466 </v>
   <v>       0.00108932 </v>
   <v>       0.00108932 </v>
   <v>       0.00108932 </v>
   <v>       0.00108932 </v>
   <v>       0.00108932 </v>
   <v>       0.00108932 </v>
   <v>       0.00108932 </v>
   <v>       0.00108932 </v>
   <v>       0.00054466 </v>
   <v>       0.00108932 </v>
   <v>       0.00108932 </v>
   <v>       0.00108932 </v>
   <v>       0.00108932 </v>
   <v>       0.00108932 </v>
   <v>       0.00108932 </v>
   <v>       0.00108932 </v>
   <v>       0.00108932 </v>
   <v>       0.00108932 </v>
   <v>       0.00217865 </v>
   <v>       0.00217865 </v>
   <v>       0.00217865 </v>
   <v>       0.00217865 </v>
   <v>       0.00217865 </v>
   <v>       0.00217865 </v>
   <v>       0.00217865 </v>
   <v>       0.00217865 </v>
   <v>       0.00054466 </v>
   <v>       0.00108932 </v>
   <v>       0.00108932 </v>
   <v>       0.00108932 </v>
   <v>       0.00108932 </v>
   <v>       0.00108932 </v>
   <v>       0.00108932 </v>
   <v>       0.00108932 </v>
   <v>       0.00108932 </v>
   <v>       0.00054466 </v>
   <v>       0.00108932 </v>
   <v>       0.00108932 </v>
   <v>       0.00108932 </v>
   <v>       0.00108932 </v>
   <v>       0.00108932 </v>
   <v>       0.00108932 </v>
   <v>       0.00108932 </v>
   <v>       0.00108932 </v>
   <v>       0.00108932 </v>
   <v>       0.00217865 </v>
   <v>       0.00217865 </v>
   <v>       0.00217865 </v>
   <v>       0.00217865 </v>
   <v>       0.00217865 </v>
   <v>       0.00217865 </v>
   <v>       0.00217865 </v>
   <v>       0.00217865 </v>
   <v>       0.00054466 </v>
   <v>       0.00108932 </v>
   <v>       0.00108932 </v>
   <v>       0.00108932 </v>
   <v>       0.00108932 </v>
   <v>       0.00108932 </v>
   <v>       0.00108932 </v>
   <v>       0.00108932 </v>
   <v>       0.00108932 </v>
   <v>       0.00054466 </v>
   <v>       0.00108932 </v>
   <v>       0.00108932 </v>
   <v>       0.00108932 </v>
   <v>       0.00108932 </v>
   <v>       0.00108932 </v>
   <v>       0.00108932 </v>
   <v>       0.00108932 </v>
   <v>       0.00108932 </v>
   <v>       0.00054466 </v>
   <v>       0.00108932 </v>
   <v>       0.00108932 </v>
   <v>       0.00108932 </v>
   <v>       0.00108932 </v>
   <v>       0.00108932 </v>
   <v>       0.00108932 </v>
   <v>       0.00108932 </v>
   <v>       0.00108932 </v>
   <v>       0.00054466 </v>
   <v>       0.00108932 </v>
   <v>       0.00108932 </v>
   <v>       0.00108932 </v>
   <v>       0.00108932 </v>
   <v>       0.00108932 </v>
   <v>       0.00108932 </v>
   <v>       0.00108932 </v>
   <v>       0.00108932 </v>
   <v>       0.00054466 </v>
   <v>       0.00108932 </v>
   <v>       0.00108932 </v>
   <v>       0.00108932 </v>
   <v>       0.00108932 </v>
   <v>       0.00108932 </v>
   <v>       0.00108932 </v>
   <v>       0.00108932 </v>
   <v>       0.00108932 </v>
   <v>       0.00054466 </v>
   <v>       0.00108932 </v>
   <v>       0.00108932 </v>
   <v>       0.00108932 </v>
   <v>       0.00108932 </v>
   <v>       0.00108932 </v>
   <v>       0.00108932 </v>
   <v>       0.00108932 </v>
   <v>       0.00108932 </v>
   <v>       0.00108932 </v>
   <v>       0.00217865 </v>
   <v>       0.00217865 </v>
   <v>       0.00217865 </v>
   <v>       0.00217865 </v>
   <v>       0.00217865 </v>
   <v>       0.00217865 </v>
   <v>       0.00217865 </v>
   <v>       0.00217865 </v>
   <v>       0.00054466 </v>
   <v>       0.00108932 </v>
   <v>       0.00108932 </v>
   <v>       0.00108932 </v>
   <v>       0.00108932 </v>
   <v>       0.00108932 </v>
   <v>       0.00108932 </v>
   <v>       0.00108932 </v>
   <v>       0.00108932 </v>
   <v>       0.00054466 </v>
   <v>       0.00108932 </v>
   <v>       0.00108932 </v>
   <v>       0.00108932 </v>
   <v>       0.00108932 </v>
   <v>       0.00108932 </v>
   <v>       0.00108932 </v>
   <v>       0.00108932 </v>
   <v>       0.00108932 </v>
   <v>       0.00108932 </v>
   <v>       0.00217865 </v>
   <v>       0.00217865 </v>
   <v>       0.00217865 </v>
   <v>       0.00217865 </v>
   <v>       0.00217865 </v>
   <v>       0.00217865 </v>
   <v>       0.00217865 </v>
   <v>       0.00217865 </v>
   <v>       0.00054466 </v>
   <v>       0.00108932 </v>
   <v>       0.00108932 </v>
   <v>       0.00108932 </v>
   <v>       0.00108932 </v>
   <v>       0.00108932 </v>
   <v>       0.00108932 </v>
   <v>       0.00108932 </v>
   <v>       0.00108932 </v>
   <v>       0.00054466 </v>
   <v>       0.00108932 </v>
   <v>       0.00108932 </v>
   <v>       0.00108932 </v>
   <v>       0.00108932 </v>
   <v>       0.00108932 </v>
   <v>       0.00108932 </v>
   <v>       0.00108932 </v>
   <v>       0.00108932 </v>
   <v>       0.00108932 </v>
   <v>       0.00217865 </v>
   <v>       0.00217865 </v>
   <v>       0.00217865 </v>
   <v>       0.00217865 </v>
   <v>       0.00217865 </v>
   <v>       0.00217865 </v>
   <v>       0.00217865 </v>
   <v>       0.00217865 </v>
   <v>       0.00054466 </v>
   <v>       0.00108932 </v>
   <v>       0.00108932 </v>
   <v>       0.00108932 </v>
   <v>       0.00108932 </v>
   <v>       0.00108932 </v>
   <v>       0.00108932 </v>
   <v>       0.00108932 </v>
   <v>       0.00108932 </v>
   <v>       0.00054466 </v>
   <v>       0.00108932 </v>
   <v>       0.00108932 </v>
   <v>       0.00108932 </v>
   <v>       0.00108932 </v>
   <v>       0.00108932 </v>
   <v>       0.00108932 </v>
   <v>       0.00108932 </v>
   <v>       0.00108932 </v>
   <v>       0.00108932 </v>
   <v>       0.00217865 </v>
   <v>       0.00217865 </v>
   <v>       0.00217865 </v>
   <v>       0.00217865 </v>
   <v>       0.00217865 </v>
   <v>       0.00217865 </v>
   <v>       0.00217865 </v>
   <v>       0.00217865 </v>
   <v>       0.00054466 </v>
   <v>       0.00108932 </v>
   <v>       0.00108932 </v>
   <v>       0.00108932 </v>
   <v>       0.00108932 </v>
   <v>       0.00108932 </v>
   <v>       0.00108932 </v>
   <v>       0.00108932 </v>
   <v>       0.00108932 </v>
   <v>       0.00054466 </v>
   <v>       0.00108932 </v>
   <v>       0.00108932 </v>
   <v>       0.00108932 </v>
   <v>       0.00108932 </v>
   <v>       0.00108932 </v>
   <v>       0.00108932 </v>
   <v>       0.00108932 </v>
   <v>       0.00108932 </v>
   <v>       0.00054466 </v>
   <v>       0.00108932 </v>
   <v>       0.00108932 </v>
   <v>       0.00108932 </v>
   <v>       0.00108932 </v>
   <v>       0.00108932 </v>
   <v>       0.00108932 </v>
   <v>       0.00108932 </v>
   <v>       0.00108932 </v>
   <v>       0.00054466 </v>
   <v>       0.00108932 </v>
   <v>       0.00108932 </v>
   <v>       0.00108932 </v>
   <v>       0.00108932 </v>
   <v>       0.00108932 </v>
   <v>       0.00108932 </v>
   <v>       0.00108932 </v>
   <v>       0.00108932 </v>
   <v>       0.00054466 </v>
   <v>       0.00108932 </v>
   <v>       0.00108932 </v>
   <v>       0.00108932 </v>
   <v>       0.00108932 </v>
   <v>       0.00108932 </v>
   <v>       0.00108932 </v>
   <v>       0.00108932 </v>
   <v>       0.00108932 </v>
   <v>       0.00054466 </v>
   <v>       0.00108932 </v>
   <v>       0.00108932 </v>
   <v>       0.00108932 </v>
   <v>       0.00108932 </v>
   <v>       0.00108932 </v>
   <v>       0.00108932 </v>
   <v>       0.00108932 </v>
   <v>       0.00108932 </v>
   <v>       0.00054466 </v>
   <v>       0.00108932 </v>
   <v>       0.00108932 </v>
   <v>       0.00108932 </v>
   <v>       0.00108932 </v>
   <v>       0.00108932 </v>
   <v>       0.00108932 </v>
   <v>       0.00108932 </v>
   <v>       0.00108932 </v>
   <v>       0.00054466 </v>
   <v>       0.00108932 </v>
   <v>       0.00108932 </v>
   <v>       0.00108932 </v>
   <v>       0.00108932 </v>
   <v>       0.00108932 </v>
   <v>       0.00108932 </v>
   <v>       0.00108932 </v>
   <v>       0.00108932 </v>
   <v>       0.00108932 </v>
   <v>       0.00217865 </v>
   <v>       0.00217865 </v>
   <v>       0.00217865 </v>
   <v>       0.00217865 </v>
   <v>       0.00217865 </v>
   <v>       0.00217865 </v>
   <v>       0.00217865 </v>
   <v>       0.00217865 </v>
   <v>       0.00054466 </v>
   <v>       0.00108932 </v>
   <v>       0.00108932 </v>
   <v>       0.00108932 </v>
   <v>       0.00108932 </v>
   <v>       0.00108932 </v>
   <v>       0.00108932 </v>
   <v>       0.00108932 </v>
   <v>       0.00108932 </v>
   <v>       0.00054466 </v>
   <v>       0.00108932 </v>
   <v>       0.00108932 </v>
   <v>       0.00108932 </v>
   <v>       0.00108932 </v>
   <v>       0.00108932 </v>
   <v>       0.00108932 </v>
   <v>       0.00108932 </v>
   <v>       0.00108932 </v>
   <v>       0.00108932 </v>
   <v>       0.00217865 </v>
   <v>       0.00217865 </v>
   <v>       0.00217865 </v>
   <v>       0.00217865 </v>
   <v>       0.00217865 </v>
   <v>       0.00217865 </v>
   <v>       0.00217865 </v>
   <v>       0.00217865 </v>
   <v>       0.00054466 </v>
   <v>       0.00108932 </v>
   <v>       0.00108932 </v>
   <v>       0.00108932 </v>
   <v>       0.00108932 </v>
   <v>       0.00108932 </v>
   <v>       0.00108932 </v>
   <v>       0.00108932 </v>
   <v>       0.00108932 </v>
   <v>       0.00054466 </v>
   <v>       0.00108932 </v>
   <v>       0.00108932 </v>
   <v>       0.00108932 </v>
   <v>       0.00108932 </v>
   <v>       0.00108932 </v>
   <v>       0.00108932 </v>
   <v>       0.00108932 </v>
   <v>       0.00108932 </v>
   <v>       0.00108932 </v>
   <v>       0.00217865 </v>
   <v>       0.00217865 </v>
   <v>       0.00217865 </v>
   <v>       0.00217865 </v>
   <v>       0.00217865 </v>
   <v>       0.00217865 </v>
   <v>       0.00217865 </v>
   <v>       0.00217865 </v>
   <v>       0.00054466 </v>
   <v>       0.00108932 </v>
   <v>       0.00108932 </v>
   <v>       0.00108932 </v>
   <v>       0.00108932 </v>
   <v>       0.00108932 </v>
   <v>       0.00108932 </v>
   <v>       0.00108932 </v>
   <v>       0.00108932 </v>
   <v>       0.00054466 </v>
   <v>       0.00108932 </v>
   <v>       0.00108932 </v>
   <v>       0.00108932 </v>
   <v>       0.00108932 </v>
   <v>       0.00108932 </v>
   <v>       0.00108932 </v>
   <v>       0.00108932 </v>
   <v>       0.00108932 </v>
   <v>       0.00054466 </v>
   <v>       0.00108932 </v>
   <v>       0.00108932 </v>
   <v>       0.00108932 </v>
   <v>       0.00108932 </v>
   <v>       0.00108932 </v>
   <v>       0.00108932 </v>
   <v>       0.00108932 </v>
   <v>       0.00108932 </v>
   <v>       0.00054466 </v>
   <v>       0.00108932 </v>
   <v>       0.00108932 </v>
   <v>       0.00108932 </v>
   <v>       0.00108932 </v>
   <v>       0.00108932 </v>
   <v>       0.00108932 </v>
   <v>       0.00108932 </v>
   <v>       0.00108932 </v>
   <v>       0.00054466 </v>
   <v>       0.00108932 </v>
   <v>       0.00108932 </v>
   <v>       0.00108932 </v>
   <v>       0.00108932 </v>
   <v>       0.00108932 </v>
   <v>       0.00108932 </v>
   <v>       0.00108932 </v>
   <v>       0.00108932 </v>
   <v>       0.00054466 </v>
   <v>       0.00108932 </v>
   <v>       0.00108932 </v>
   <v>       0.00108932 </v>
   <v>       0.00108932 </v>
   <v>       0.00108932 </v>
   <v>       0.00108932 </v>
   <v>       0.00108932 </v>
   <v>       0.00108932 </v>
   <v>       0.00054466 </v>
   <v>       0.00108932 </v>
   <v>       0.00108932 </v>
   <v>       0.00108932 </v>
   <v>       0.00108932 </v>
   <v>       0.00108932 </v>
   <v>       0.00108932 </v>
   <v>       0.00108932 </v>
   <v>       0.00108932 </v>
   <v>       0.00054466 </v>
   <v>       0.00108932 </v>
   <v>       0.00108932 </v>
   <v>       0.00108932 </v>
   <v>       0.00108932 </v>
   <v>       0.00108932 </v>
   <v>       0.00108932 </v>
   <v>       0.00108932 </v>
   <v>       0.00108932 </v>
   <v>       0.00054466 </v>
   <v>       0.00108932 </v>
   <v>       0.00108932 </v>
   <v>       0.00108932 </v>
   <v>       0.00108932 </v>
   <v>       0.00108932 </v>
   <v>       0.00108932 </v>
   <v>       0.00108932 </v>
   <v>       0.00108932 </v>
   <v>       0.00054466 </v>
   <v>       0.00108932 </v>
   <v>       0.00108932 </v>
   <v>       0.00108932 </v>
   <v>       0.00108932 </v>
   <v>       0.00108932 </v>
   <v>       0.00108932 </v>
   <v>       0.00108932 </v>
   <v>       0.00108932 </v>
   <v>       0.00108932 </v>
   <v>       0.00217865 </v>
   <v>       0.00217865 </v>
   <v>       0.00217865 </v>
   <v>       0.00217865 </v>
   <v>       0.00217865 </v>
   <v>       0.00217865 </v>
   <v>       0.00217865 </v>
   <v>       0.00217865 </v>
   <v>       0.00054466 </v>
   <v>       0.00108932 </v>
   <v>       0.00108932 </v>
   <v>       0.00108932 </v>
   <v>       0.00108932 </v>
   <v>       0.00108932 </v>
   <v>       0.00108932 </v>
   <v>       0.00108932 </v>
   <v>       0.00108932 </v>
   <v>       0.00054466 </v>
   <v>       0.00108932 </v>
   <v>       0.00108932 </v>
   <v>       0.00108932 </v>
   <v>       0.00108932 </v>
   <v>       0.00108932 </v>
   <v>       0.00108932 </v>
   <v>       0.00108932 </v>
   <v>       0.00108932 </v>
   <v>       0.00108932 </v>
   <v>       0.00217865 </v>
   <v>       0.00217865 </v>
   <v>       0.00217865 </v>
   <v>       0.00217865 </v>
   <v>       0.00217865 </v>
   <v>       0.00217865 </v>
   <v>       0.00217865 </v>
   <v>       0.00217865 </v>
   <v>       0.00054466 </v>
   <v>       0.00108932 </v>
   <v>       0.00108932 </v>
   <v>       0.00108932 </v>
   <v>       0.00108932 </v>
   <v>       0.00108932 </v>
   <v>       0.00108932 </v>
   <v>       0.00108932 </v>
   <v>       0.00108932 </v>
   <v>       0.00054466 </v>
   <v>       0.00108932 </v>
   <v>       0.00108932 </v>
   <v>       0.00108932 </v>
   <v>       0.00108932 </v>
   <v>       0.00108932 </v>
   <v>       0.00108932 </v>
   <v>       0.00108932 </v>
   <v>       0.00108932 </v>
   <v>       0.00054466 </v>
   <v>       0.00108932 </v>
   <v>       0.00108932 </v>
   <v>       0.00108932 </v>
   <v>       0.00108932 </v>
   <v>       0.00108932 </v>
   <v>       0.00108932 </v>
   <v>       0.00108932 </v>
   <v>       0.00108932 </v>
   <v>       0.00054466 </v>
   <v>       0.00108932 </v>
   <v>       0.00108932 </v>
   <v>       0.00108932 </v>
   <v>       0.00108932 </v>
   <v>       0.00108932 </v>
   <v>       0.00108932 </v>
   <v>       0.00108932 </v>
   <v>       0.00108932 </v>
   <v>       0.00054466 </v>
   <v>       0.00108932 </v>
   <v>       0.00108932 </v>
   <v>       0.00108932 </v>
   <v>       0.00108932 </v>
   <v>       0.00108932 </v>
   <v>       0.00108932 </v>
   <v>       0.00108932 </v>
   <v>       0.00108932 </v>
   <v>       0.00054466 </v>
   <v>       0.00108932 </v>
   <v>       0.00108932 </v>
   <v>       0.00108932 </v>
   <v>       0.00108932 </v>
   <v>       0.00108932 </v>
   <v>       0.00108932 </v>
   <v>       0.00108932 </v>
   <v>       0.00108932 </v>
   <v>       0.00054466 </v>
   <v>       0.00108932 </v>
   <v>       0.00108932 </v>
   <v>       0.00108932 </v>
   <v>       0.00108932 </v>
   <v>       0.00108932 </v>
   <v>       0.00108932 </v>
   <v>       0.00108932 </v>
   <v>       0.00108932 </v>
   <v>       0.00054466 </v>
   <v>       0.00108932 </v>
   <v>       0.00108932 </v>
   <v>       0.00108932 </v>
   <v>       0.00108932 </v>
   <v>       0.00108932 </v>
   <v>       0.00108932 </v>
   <v>       0.00108932 </v>
   <v>       0.00108932 </v>
   <v>       0.00054466 </v>
   <v>       0.00108932 </v>
   <v>       0.00108932 </v>
   <v>       0.00108932 </v>
   <v>       0.00108932 </v>
   <v>       0.00108932 </v>
   <v>       0.00108932 </v>
   <v>       0.00108932 </v>
   <v>       0.00108932 </v>
   <v>       0.00054466 </v>
   <v>       0.00108932 </v>
   <v>       0.00108932 </v>
   <v>       0.00108932 </v>
   <v>       0.00108932 </v>
   <v>       0.00108932 </v>
   <v>       0.00108932 </v>
   <v>       0.00108932 </v>
   <v>       0.00108932 </v>
   <v>       0.00054466 </v>
   <v>       0.00108932 </v>
   <v>       0.00108932 </v>
   <v>       0.00108932 </v>
   <v>       0.00108932 </v>
   <v>       0.00108932 </v>
   <v>       0.00108932 </v>
   <v>       0.00108932 </v>
   <v>       0.00108932 </v>
   <v>       0.00054466 </v>
   <v>       0.00108932 </v>
   <v>       0.00108932 </v>
   <v>       0.00108932 </v>
   <v>       0.00108932 </v>
   <v>       0.00108932 </v>
   <v>       0.00108932 </v>
   <v>       0.00108932 </v>
   <v>       0.00108932 </v>
   <v>       0.00108932 </v>
   <v>       0.00217865 </v>
   <v>       0.00217865 </v>
   <v>       0.00217865 </v>
   <v>       0.00217865 </v>
   <v>       0.00217865 </v>
   <v>       0.00217865 </v>
   <v>       0.00217865 </v>
   <v>       0.00217865 </v>
   <v>       0.00054466 </v>
   <v>       0.00108932 </v>
   <v>       0.00108932 </v>
   <v>       0.00108932 </v>
   <v>       0.00108932 </v>
   <v>       0.00108932 </v>
   <v>       0.00108932 </v>
   <v>       0.00108932 </v>
   <v>       0.00108932 </v>
   <v>       0.00054466 </v>
   <v>       0.00108932 </v>
   <v>       0.00108932 </v>
   <v>       0.00108932 </v>
   <v>       0.00108932 </v>
   <v>       0.00108932 </v>
   <v>       0.00108932 </v>
   <v>       0.00108932 </v>
   <v>       0.00108932 </v>
   <v>       0.00054466 </v>
   <v>       0.00108932 </v>
   <v>       0.00108932 </v>
   <v>       0.00108932 </v>
   <v>       0.00108932 </v>
   <v>       0.00108932 </v>
   <v>       0.00108932 </v>
   <v>       0.00108932 </v>
   <v>       0.00108932 </v>
   <v>       0.00054466 </v>
   <v>       0.00108932 </v>
   <v>       0.00108932 </v>
   <v>       0.00108932 </v>
   <v>       0.00108932 </v>
   <v>       0.00108932 </v>
   <v>       0.00108932 </v>
   <v>       0.00108932 </v>
   <v>       0.00108932 </v>
   <v>       0.00054466 </v>
   <v>       0.00108932 </v>
   <v>       0.00108932 </v>
   <v>       0.00108932 </v>
   <v>       0.00108932 </v>
   <v>       0.00108932 </v>
   <v>       0.00108932 </v>
   <v>       0.00108932 </v>
   <v>       0.00108932 </v>
   <v>       0.00054466 </v>
   <v>       0.00108932 </v>
   <v>       0.00108932 </v>
   <v>       0.00108932 </v>
   <v>       0.00108932 </v>
   <v>       0.00108932 </v>
   <v>       0.00108932 </v>
   <v>       0.00108932 </v>
   <v>       0.00108932 </v>
   <v>       0.00054466 </v>
   <v>       0.00108932 </v>
   <v>       0.00108932 </v>
   <v>       0.00108932 </v>
   <v>       0.00108932 </v>
   <v>       0.00108932 </v>
   <v>       0.00108932 </v>
   <v>       0.00108932 </v>
   <v>       0.00108932 </v>
   <v>       0.00054466 </v>
   <v>       0.00108932 </v>
   <v>       0.00108932 </v>
   <v>       0.00108932 </v>
   <v>       0.00108932 </v>
   <v>       0.00108932 </v>
   <v>       0.00108932 </v>
   <v>       0.00108932 </v>
   <v>       0.00108932 </v>
   <v>       0.00054466 </v>
   <v>       0.00108932 </v>
   <v>       0.00108932 </v>
   <v>       0.00108932 </v>
   <v>       0.00108932 </v>
   <v>       0.00108932 </v>
   <v>       0.00108932 </v>
   <v>       0.00108932 </v>
   <v>       0.00108932 </v>
   <v>       0.00054466 </v>
   <v>       0.00108932 </v>
   <v>       0.00108932 </v>
   <v>       0.00108932 </v>
   <v>       0.00108932 </v>
   <v>       0.00108932 </v>
   <v>       0.00108932 </v>
   <v>       0.00108932 </v>
   <v>       0.00108932 </v>
   <v>       0.00054466 </v>
   <v>       0.00108932 </v>
   <v>       0.00108932 </v>
   <v>       0.00108932 </v>
   <v>       0.00108932 </v>
   <v>       0.00108932 </v>
   <v>       0.00108932 </v>
   <v>       0.00108932 </v>
   <v>       0.00108932 </v>
   <v>       0.00054466 </v>
   <v>       0.00108932 </v>
   <v>       0.00108932 </v>
   <v>       0.00108932 </v>
   <v>       0.00108932 </v>
   <v>       0.00108932 </v>
   <v>       0.00108932 </v>
   <v>       0.00108932 </v>
   <v>       0.00108932 </v>
   <v>       0.00054466 </v>
   <v>       0.00108932 </v>
   <v>       0.00108932 </v>
   <v>       0.00108932 </v>
   <v>       0.00108932 </v>
   <v>       0.00108932 </v>
   <v>       0.00108932 </v>
   <v>       0.00108932 </v>
   <v>       0.00108932 </v>
   <v>       0.00054466 </v>
   <v>       0.00108932 </v>
   <v>       0.00108932 </v>
   <v>       0.00108932 </v>
   <v>       0.00108932 </v>
   <v>       0.00108932 </v>
   <v>       0.00108932 </v>
   <v>       0.00108932 </v>
   <v>       0.00108932 </v>
   <v>       0.00054466 </v>
   <v>       0.00108932 </v>
   <v>       0.00108932 </v>
   <v>       0.00108932 </v>
   <v>       0.00108932 </v>
   <v>       0.00108932 </v>
   <v>       0.00108932 </v>
   <v>       0.00108932 </v>
   <v>       0.00108932 </v>
   <v>       0.00054466 </v>
   <v>       0.00108932 </v>
   <v>       0.00108932 </v>
   <v>       0.00108932 </v>
   <v>       0.00108932 </v>
   <v>       0.00108932 </v>
   <v>       0.00108932 </v>
   <v>       0.00108932 </v>
   <v>       0.00108932 </v>
   <v>       0.00054466 </v>
   <v>       0.00108932 </v>
   <v>       0.00108932 </v>
   <v>       0.00108932 </v>
   <v>       0.00108932 </v>
   <v>       0.00108932 </v>
   <v>       0.00108932 </v>
   <v>       0.00108932 </v>
   <v>       0.00108932 </v>
   <v>       0.00054466 </v>
   <v>       0.00108932 </v>
   <v>       0.00108932 </v>
   <v>       0.00108932 </v>
   <v>       0.00108932 </v>
   <v>       0.00108932 </v>
   <v>       0.00108932 </v>
   <v>       0.00108932 </v>
   <v>       0.00108932 </v>
   <v>       0.00054466 </v>
   <v>       0.00108932 </v>
   <v>       0.00108932 </v>
   <v>       0.00108932 </v>
   <v>       0.00108932 </v>
   <v>       0.00108932 </v>
   <v>       0.00108932 </v>
   <v>       0.00108932 </v>
   <v>       0.00108932 </v>
   <v>       0.00054466 </v>
   <v>       0.00108932 </v>
   <v>       0.00108932 </v>
   <v>       0.00108932 </v>
   <v>       0.00108932 </v>
   <v>       0.00108932 </v>
   <v>       0.00108932 </v>
   <v>       0.00108932 </v>
   <v>       0.00108932 </v>
   <v>       0.00054466 </v>
   <v>       0.00108932 </v>
   <v>       0.00108932 </v>
   <v>       0.00108932 </v>
   <v>       0.00108932 </v>
   <v>       0.00108932 </v>
   <v>       0.00108932 </v>
   <v>       0.00108932 </v>
   <v>       0.00108932 </v>
   <v>       0.00054466 </v>
   <v>       0.00108932 </v>
   <v>       0.00108932 </v>
   <v>       0.00108932 </v>
   <v>       0.00108932 </v>
   <v>       0.00108932 </v>
   <v>       0.00108932 </v>
   <v>       0.00108932 </v>
   <v>       0.00108932 </v>
   <v>       0.00054466 </v>
   <v>       0.00108932 </v>
   <v>       0.00108932 </v>
   <v>       0.00108932 </v>
   <v>       0.00108932 </v>
   <v>       0.00108932 </v>
   <v>       0.00108932 </v>
   <v>       0.00108932 </v>
   <v>       0.00108932 </v>
   <v>       0.00054466 </v>
   <v>       0.00108932 </v>
   <v>       0.00108932 </v>
   <v>       0.00108932 </v>
   <v>       0.00108932 </v>
   <v>       0.00108932 </v>
   <v>       0.00108932 </v>
   <v>       0.00108932 </v>
   <v>       0.00108932 </v>
[...]
       <r>    4.4858    1.0000 </r>
       <r>    4.7079    1.0000 </r>
       <r>    4.9339    1.0000 </r>
       <r>    5.0042    1.0000 </r>
       <r>    5.3272    1.0000 </r>
       <r>    5.6695    1.0000 </r>
       <r>    5.7351    1.0000 </r>
       <r>    5.9439    1.0000 </r>
       <r>    5.9782    1.0000 </r>
       <r>    6.1140    1.0000 </r>
       <r>    6.7262    1.0000 </r>
       <r>    6.9592    1.0000 </r>
       <r>    8.0649    0.1867 </r>
       <r>    8.5384   -0.0084 </r>
       <r>    9.5269    0.0000 </r>
       <r>   11.3858    0.0000 </r>
       <r>   12.5144    0.0000 </r>
       <r>   12.9666    0.0000 </r>
       <r>   13.4049    0.0000 </r>
      </set>
      <set comment="kpoint 872">
       <r>    1.6140    1.0000 </r>
       <r>    1.6737    1.0000 </r>
       <r>    2.0062    1.0000 </r>
       <r>    2.1855    1.0000 </r>
       <r>    2.3360    1.0000 </r>
       <r>    2.5456    1.0000 </r>
       <r>    2.9252    1.0000 </r>
       <r>    2.9991    1.0000 </r>
       <r>    3.1639    1.0000 </r>
       <r>    3.1801    1.0000 </r>
       <r>    3.2843    1.0000 </r>
       <r>    3.3830    1.0000 </r>
       <r>    3.4218    1.0000 </r>
       <r>    3.5505    1.0000 </r>
       <r>    3.6645    1.0000 </r>
       <r>    3.7639    1.0000 </r>
       <r>    3.8167    1.0000 </r>
       <r>    3.9277    1.0000 </r>
       <r>    4.1121    1.0000 </r>
       <r>    4.2966    1.0000 </r>
       <r>    4.4063    1.0000 </r>
       <r>    4.5103    1.0000 </r>
       <r>    4.7078    1.0000 </r>
       <r>    4.9248    1.0000 </r>
       <r>    5.0483    1.0000 </r>
       <r>    5.4958    1.0000 </r>
       <r>    5.7059    1.0000 </r>
       <r>    5.8284    1.0000 </r>
       <r>    5.9443    1.0000 </r>
       <r>    6.0011    1.0000 </r>
       <r>    6.3339    1.0000 </r>
       <r>    6.9538    1.0000 </r>
       <r>    7.2572    1.0028 </r>
       <r>    7.8117    0.8349 </r>
       <r>    7.8953    0.6340 </r>
       <r>    8.8515   -0.0001 </r>
       <r>   11.1580    0.0000 </r>
       <r>   12.0686    0.0000 </r>
       <r>   13.3350    0.0000 </r>
       <r>   13.8531    0.0000 </r>
      </set>
      <set comment="kpoint 873">
       <r>    1.6074    1.0000 </r>
       <r>    1.6286    1.0000 </r>
       <r>    2.0239    1.0000 </r>
       <r>    2.1518    1.0000 </r>
       <r>    2.3188    1.0000 </r>
       <r>    2.5404    1.0000 </r>
       <r>    2.9637    1.0000 </r>
       <r>    2.9741    1.0000 </r>
       <r>    3.1703    1.0000 </r>
       <r>    3.1968    1.0000 </r>
       <r>    3.2741    1.0000 </r>
       <r>    3.4300    1.0000 </r>
       <r>    3.4486    1.0000 </r>
       <r>    3.6341    1.0000 </r>
       <r>    3.6718    1.0000 </r>
       <r>    3.7638    1.0000 </r>
       <r>    3.8136    1.0000 </r>
       <r>    3.9215    1.0000 </r>
       <r>    4.0313    1.0000 </r>
       <r>    4.3503    1.0000 </r>
       <r>    4.4119    1.0000 </r>
       <r>    4.5814    1.0000 </r>
       <r>    4.7600    1.0000 </r>
       <r>    4.8567    1.0000 </r>
       <r>    5.0617    1.0000 </r>
       <r>    5.6073    1.0000 </r>
       <r>    5.6946    1.0000 </r>
       <r>    5.9008    1.0000 </r>
       <r>    5.9345    1.0000 </r>
       <r>    6.0098    1.0000 </r>
       <r>    6.6884    1.0000 </r>
       <r>    7.1892    1.0011 </r>
       <r>    7.2534    1.0027 </r>
       <r>    7.5727    1.0354 </r>
       <r>    7.6926    0.9987 </r>
       <r>    8.2784   -0.0334 </r>
       <r>   11.1196    0.0000 </r>
       <r>   11.7337    0.0000 </r>
       <r>   13.8197    0.0000 </r>
       <r>   14.3137    0.0000 </r>
      </set>
     </set>
    </set>
   </array>
  </eigenvalues>
  <separator name="orbital magnetization" >
   <v name="MAGDIPOLOUT">      0.00000000      0.00000000      0.00000000</v>
  </separator>
  <dos>
   <i name="efermi">      7.94348584 </i>
   <total>
    <array>
     <dimension dim="1">gridpoints</dimension>
     <dimension dim="2">spin</dimension>
     <field>energy</field>
     <field>total</field>
     <field>integrated</field>
     <set>
      <set comment="spin 1">
       <r>    -3.1633     0.0000     0.0000 </r>
       <r>    -3.0878     0.0000     0.0000 </r>
       <r>    -3.0123     0.0000     0.0000 </r>
       <r>    -2.9368     0.0000     0.0000 </r>
       <r>    -2.8613     0.0000     0.0000 </r>
       <r>    -2.7858     0.0000     0.0000 </r>
       <r>    -2.7102     0.0000     0.0000 </r>
       <r>    -2.6347     0.0000     0.0000 </r>
       <r>    -2.5592     0.0000     0.0000 </r>
       <r>    -2.4837     0.0000     0.0000 </r>
       <r>    -2.4082     0.0000     0.0000 </r>
       <r>    -2.3327     0.0000     0.0000 </r>
       <r>    -2.2572     0.0000     0.0000 </r>
       <r>    -2.1816     0.0000     0.0000 </r>
       <r>    -2.1061     0.0000     0.0000 </r>
       <r>    -2.0306     0.0000     0.0000 </r>
       <r>    -1.9551     0.0000     0.0000 </r>
       <r>    -1.8796     0.0000     0.0000 </r>
       <r>    -1.8041     0.0000     0.0000 </r>
       <r>    -1.7286     0.0000     0.0000 </r>
       <r>    -1.6531     0.0000     0.0000 </r>
       <r>    -1.5775     0.0000     0.0000 </r>
       <r>    -1.5020     0.0000     0.0000 </r>
       <r>    -1.4265     0.0000     0.0000 </r>
       <r>    -1.3510     0.0000     0.0000 </r>
       <r>    -1.2755     0.0000     0.0000 </r>
       <r>    -1.2000     0.0000     0.0000 </r>
       <r>    -1.1245     0.0000     0.0000 </r>
       <r>    -1.0490     0.0000     0.0000 </r>
       <r>    -0.9734     0.0000     0.0000 </r>
       <r>    -0.8979    -0.0001     0.0000 </r>
       <r>    -0.8224    -0.0003     0.0000 </r>
       <r>    -0.7469    -0.0009    -0.0001 </r>
       <r>    -0.6714    -0.0022    -0.0003 </r>
       <r>    -0.5959    -0.0043    -0.0006 </r>
       <r>    -0.5204    -0.0070    -0.0011 </r>
       <r>    -0.4449    -0.0089    -0.0018 </r>
       <r>    -0.3693    -0.0066    -0.0023 </r>
       <r>    -0.2938     0.0045    -0.0020 </r>
       <r>    -0.2183     0.0292     0.0002 </r>
       <r>    -0.1428     0.0695     0.0055 </r>
       <r>    -0.0673     0.1232     0.0148 </r>
       <r>     0.0082     0.1848     0.0288 </r>
       <r>     0.0837     0.2475     0.0474 </r>
       <r>     0.1593     0.3065     0.0706 </r>
       <r>     0.2348     0.3603     0.0978 </r>
       <r>     0.3103     0.4104     0.1288 </r>
       <r>     0.3858     0.4596     0.1635 </r>
       <r>     0.4613     0.5099     0.2020 </r>
       <r>     0.5368     0.5617     0.2444 </r>
       <r>     0.6123     0.6129     0.2907 </r>
       <r>     0.6878     0.6603     0.3406 </r>
       <r>     0.7634     0.7004     0.3935 </r>
       <r>     0.8389     0.7310     0.4487 </r>
       <r>     0.9144     0.7518     0.5054 </r>
       <r>     0.9899     0.7635     0.5631 </r>
       <r>     1.0654     0.7696     0.6212 </r>
       <r>     1.1409     0.7820     0.6802 </r>
       <r>     1.2164     0.8315     0.7430 </r>
       <r>     1.2919     0.9734     0.8165 </r>
       <r>     1.3675     1.2775     0.9130 </r>
       <r>     1.4430     1.7958     1.0486 </r>
       <r>     1.5185     2.5249     1.2393 </r>
       <r>     1.5940     3.4015     1.4961 </r>
       <r>     1.6695     4.3544     1.8249 </r>
       <r>     1.7450     5.3820     2.2314 </r>
       <r>     1.8205     6.5777     2.7281 </r>
       <r>     1.8960     8.0564     3.3364 </r>
       <r>     1.9716     9.8324     4.0789 </r>
       <r>     2.0471    11.7559     4.9666 </r>
       <r>     2.1226    13.5651     5.9910 </r>
       <r>     2.1981    15.0035     7.1239 </r>
       <r>     2.2736    15.9116     8.3255 </r>
       <r>     2.3491    16.2568     9.5531 </r>
       <r>     2.4246    16.1239    10.7706 </r>
       <r>     2.5002    15.6904    11.9554 </r>
       <r>     2.5757    15.1750    13.1013 </r>
       <r>     2.6512    14.7573    14.2157 </r>
       <r>     2.7267    14.5076    15.3112 </r>
       <r>     2.8022    14.3792    16.3970 </r>
       <r>     2.8777    14.2738    17.4749 </r>
       <r>     2.9532    14.1289    18.5418 </r>
       <r>     3.0287    13.9630    19.5962 </r>
       <r>     3.1043    13.8559    20.6425 </r>
       <r>     3.1798    13.8948    21.6917 </r>
       <r>     3.2553    14.1310    22.7588 </r>
       <r>     3.3308    14.5689    23.8589 </r>
       <r>     3.4063    15.1719    25.0046 </r>
       <r>     3.4818    15.8671    26.2028 </r>
       <r>     3.5573    16.5481    27.4524 </r>
       <r>     3.6328    17.0814    28.7422 </r>
       <r>     3.7084    17.3351    30.0513 </r>
       <r>     3.7839    17.2343    31.3527 </r>
       <r>     3.8594    16.8206    32.6229 </r>
       <r>     3.9349    16.2593    33.8507 </r>
       <r>     4.0104    15.7656    35.0412 </r>
       <r>     4.0859    15.4959    36.2113 </r>
       <r>     4.1614    15.4879    37.3808 </r>
       <r>     4.2369    15.6819    38.5650 </r>
       <r>     4.3125    15.9675    39.7708 </r>
       <r>     4.3880    16.2047    40.9944 </r>
       <r>     4.4635    16.2278    42.2198 </r>
       <r>     4.5390    15.8883    43.4196 </r>
       <r>     4.6145    15.1432    44.5631 </r>
       <r>     4.6900    14.1242    45.6297 </r>
       <r>     4.7655    13.1029    46.6191 </r>
       <r>     4.8411    12.3410    47.5510 </r>
       <r>     4.9166    11.9131    48.4506 </r>
       <r>     4.9921    11.6367    49.3293 </r>
       <r>     5.0676    11.1776    50.1734 </r>
       <r>     5.1431    10.2684    50.9488 </r>
       <r>     5.2186     8.8871    51.6199 </r>
       <r>     5.2941     7.2786    52.1695 </r>
       <r>     5.3696     5.8353    52.6101 </r>
       <r>     5.4452     4.9527    52.9841 </r>
       <r>     5.5207     4.9567    53.3584 </r>
       <r>     5.5962     6.0809    53.8176 </r>
       <r>     5.6717     8.4036    54.4522 </r>
       <r>     5.7472    11.7013    55.3358 </r>
       <r>     5.8227    15.3168    56.4924 </r>
       <r>     5.8982    18.2233    57.8685 </r>
       <r>     5.9737    19.3794    59.3319 </r>
       <r>     6.0493    18.2360    60.7089 </r>
       <r>     6.1248    15.0657    61.8466 </r>
       <r>     6.2003    10.8514    62.6660 </r>
       <r>     6.2758     6.7893    63.1787 </r>
       <r>     6.3513     3.7421    63.4613 </r>
       <r>     6.4268     1.9772    63.6106 </r>
       <r>     6.5023     1.2667    63.7062 </r>
       <r>     6.5778     1.1772    63.7951 </r>
       <r>     6.6534     1.3258    63.8952 </r>
       <r>     6.7289     1.4891    64.0077 </r>
       <r>     6.8044     1.5877    64.1276 </r>
       <r>     6.8799     1.6212    64.2500 </r>
       <r>     6.9554     1.6169    64.3721 </r>
       <r>     7.0309     1.6046    64.4933 </r>
       <r>     7.1064     1.6060    64.6145 </r>
       <r>     7.1820     1.6278    64.7375 </r>
       <r>     7.2575     1.6588    64.8627 </r>
       <r>     7.3330     1.6782    64.9894 </r>
       <r>     7.4085     1.6717    65.1157 </r>
       <r>     7.4840     1.6433    65.2398 </r>
       <r>     7.5595     1.6135    65.3616 </r>
       <r>     7.6350     1.6045    65.4828 </r>
       <r>     7.7105     1.6241    65.6054 </r>
       <r>     7.7861     1.6621    65.7309 </r>
       <r>     7.8616     1.6987    65.8592 </r>
       <r>     7.9371     1.7185    65.9890 </r>
       <r>     8.0126     1.7175    66.1187 </r>
       <r>     8.0881     1.6999    66.2470 </r>
       <r>     8.1636     1.6724    66.3733 </r>
       <r>     8.2391     1.6413    66.4973 </r>
       <r>     8.3146     1.6140    66.6191 </r>
       <r>     8.3902     1.5984    66.7398 </r>
       <r>     8.4657     1.6002    66.8607 </r>
       <r>     8.5412     1.6190    66.9829 </r>
       <r>     8.6167     1.6478    67.1074 </r>
       <r>     8.6922     1.6743    67.2338 </r>
       <r>     8.7677     1.6836    67.3609 </r>
       <r>     8.8432     1.6646    67.4866 </r>
       <r>     8.9187     1.6182    67.6088 </r>
       <r>     8.9943     1.5614    67.7267 </r>
       <r>     9.0698     1.5215    67.8416 </r>
       <r>     9.1453     1.5202    67.9564 </r>
       <r>     9.2208     1.5598    68.0742 </r>
       <r>     9.2963     1.6202    68.1965 </r>
       <r>     9.3718     1.6693    68.3226 </r>
       <r>     9.4473     1.6803    68.4495 </r>
       <r>     9.5229     1.6454    68.5737 </r>
       <r>     9.5984     1.5803    68.6931 </r>
       <r>     9.6739     1.5138    68.8074 </r>
       <r>     9.7494     1.4737    68.9187 </r>
       <r>     9.8249     1.4729    69.0299 </r>
       <r>     9.9004     1.5053    69.1435 </r>
       <r>     9.9759     1.5480    69.2604 </r>
       <r>    10.0514     1.5722    69.3792 </r>
       <r>    10.1270     1.5561    69.4967 </r>
       <r>    10.2025     1.4969    69.6097 </r>
       <r>    10.2780     1.4130    69.7164 </r>
       <r>    10.3535     1.3346    69.8172 </r>
       <r>    10.4290     1.2877    69.9144 </r>
       <r>    10.5045     1.2821    70.0112 </r>
       <r>    10.5800     1.3092    70.1101 </r>
       <r>    10.6555     1.3499    70.2120 </r>
       <r>    10.7311     1.3860    70.3167 </r>
       <r>    10.8066     1.4090    70.4231 </r>
       <r>    10.8821     1.4217    70.5305 </r>
       <r>    10.9576     1.4333    70.6387 </r>
       <r>    11.0331     1.4529    70.7484 </r>
       <r>    11.1086     1.4844    70.8605 </r>
       <r>    11.1841     1.5257    70.9757 </r>
       <r>    11.2596     1.5717    71.0944 </r>
       <r>    11.3352     1.6171    71.2165 </r>
       <r>    11.4107     1.6586    71.3417 </r>
       <r>    11.4862     1.6956    71.4698 </r>
       <r>    11.5617     1.7290    71.6003 </r>
       <r>    11.6372     1.7596    71.7332 </r>
       <r>    11.7127     1.7878    71.8682 </r>
       <r>    11.7882     1.8132    72.0051 </r>
       <r>    11.8638     1.8357    72.1438 </r>
       <r>    11.9393     1.8563    72.2839 </r>
       <r>    12.0148     1.8775    72.4257 </r>
       <r>    12.0903     1.9009    72.5692 </r>
       <r>    12.1658     1.9256    72.7147 </r>
       <r>    12.2413     1.9468    72.8617 </r>
       <r>    12.3168     1.9579    73.0095 </r>
       <r>    12.3923     1.9538    73.1570 </r>
       <r>    12.4679     1.9328    73.3030 </r>
       <r>    12.5434     1.8968    73.4462 </r>
       <r>    12.6189     1.8503    73.5860 </r>
       <r>    12.6944     1.8002    73.7219 </r>
       <r>    12.7699     1.7561    73.8545 </r>
       <r>    12.8454     1.7298    73.9851 </r>
       <r>    12.9209     1.7296    74.1157 </r>
       <r>    12.9964     1.7538    74.2482 </r>
       <r>    13.0720     1.7880    74.3832 </r>
       <r>    13.1475     1.8121    74.5200 </r>
       <r>    13.2230     1.8128    74.6569 </r>
       <r>    13.2985     1.7912    74.7922 </r>
       <r>    13.3740     1.7596    74.9250 </r>
       <r>    13.4495     1.7306    75.0557 </r>
       <r>    13.5250     1.7101    75.1849 </r>
       <r>    13.6005     1.6999    75.3132 </r>
       <r>    13.6761     1.7040    75.4419 </r>
       <r>    13.7516     1.7303    75.5726 </r>
       <r>    13.8271     1.7842    75.7073 </r>
       <r>    13.9026     1.8602    75.8478 </r>
       <r>    13.9781     1.9422    75.9944 </r>
       <r>    14.0536     2.0122    76.1464 </r>
       <r>    14.1291     2.0608    76.3020 </r>
       <r>    14.2047     2.0883    76.4597 </r>
       <r>    14.2802     2.0979    76.6181 </r>
       <r>    14.3557     2.0895    76.7759 </r>
       <r>    14.4312     2.0610    76.9315 </r>
       <r>    14.5067     2.0150    77.0837 </r>
       <r>    14.5822     1.9614    77.2318 </r>
       <r>    14.6577     1.9160    77.3765 </r>
       <r>    14.7332     1.8931    77.5194 </r>
       <r>    14.8088     1.8999    77.6629 </r>
       <r>    14.8843     1.9334    77.8089 </r>
       <r>    14.9598     1.9807    77.9584 </r>
       <r>    15.0353     2.0230    78.1112 </r>
       <r>    15.1108     2.0427    78.2655 </r>
       <r>    15.1863     2.0324    78.4189 </r>
       <r>    15.2618     1.9996    78.5699 </r>
       <r>    15.3373     1.9602    78.7179 </r>
       <r>    15.4129     1.9237    78.8632 </r>
       <r>    15.4884     1.8831    79.0054 </r>
       <r>    15.5639     1.8205    79.1429 </r>
       <r>    15.6394     1.7223    79.2729 </r>
       <r>    15.7149     1.5902    79.3930 </r>
       <r>    15.7904     1.4377    79.5016 </r>
       <r>    15.8659     1.2797    79.5982 </r>
       <r>    15.9414     1.1253    79.6832 </r>
       <r>    16.0170     0.9775    79.7570 </r>
       <r>    16.0925     0.8365    79.8202 </r>
       <r>    16.1680     0.7021    79.8732 </r>
       <r>    16.2435     0.5732    79.9165 </r>
       <r>    16.3190     0.4483    79.9503 </r>
       <r>    16.3945     0.3275    79.9751 </r>
       <r>    16.4700     0.2151    79.9913 </r>
       <r>    16.5456     0.1193    80.0003 </r>
       <r>    16.6211     0.0482    80.0039 </r>
       <r>    16.6966     0.0051    80.0043 </r>
       <r>    16.7721    -0.0138    80.0033 </r>
       <r>    16.8476    -0.0169    80.0020 </r>
       <r>    16.9231    -0.0129    80.0010 </r>
       <r>    16.9986    -0.0077    80.0005 </r>
       <r>    17.0741    -0.0038    80.0002 </r>
       <r>    17.1497    -0.0016    80.0001 </r>
       <r>    17.2252    -0.0006    80.0000 </r>
       <r>    17.3007    -0.0002    80.0000 </r>
       <r>    17.3762     0.0000    80.0000 </r>
       <r>    17.4517     0.0000    80.0000 </r>
       <r>    17.5272     0.0000    80.0000 </r>
       <r>    17.6027     0.0000    80.0000 </r>
       <r>    17.6782     0.0000    80.0000 </r>
       <r>    17.7538     0.0000    80.0000 </r>
       <r>    17.8293     0.0000    80.0000 </r>
       <r>    17.9048     0.0000    80.0000 </r>
       <r>    17.9803     0.0000    80.0000 </r>
       <r>    18.0558     0.0000    80.0000 </r>
       <r>    18.1313     0.0000    80.0000 </r>
       <r>    18.2068     0.0000    80.0000 </r>
       <r>    18.2823     0.0000    80.0000 </r>
       <r>    18.3579     0.0000    80.0000 </r>
       <r>    18.4334     0.0000    80.0000 </r>
       <r>    18.5089     0.0000    80.0000 </r>
       <r>    18.5844     0.0000    80.0000 </r>
       <r>    18.6599     0.0000    80.0000 </r>
       <r>    18.7354     0.0000    80.0000 </r>
       <r>    18.8109     0.0000    80.0000 </r>
       <r>    18.8865     0.0000    80.0000 </r>
       <r>    18.9620     0.0000    80.0000 </r>
       <r>    19.0375     0.0000    80.0000 </r>
       <r>    19.1130     0.0000    80.0000 </r>
       <r>    19.1885     0.0000    80.0000 </r>
       <r>    19.2640     0.0000    80.0000 </r>
       <r>    19.3395     0.0000    80.0000 </r>
       <r>    19.4150     0.0000    80.0000 </r>
       <r>    19.4906     0.0000    80.0000 </r>
      </set>
     </set>
    </array>
   </total>
  </dos>
 </calculation>
 <structure name="finalpos" >
  <crystal>
   <varray name="basis" >
    <v>       4.04940372       0.00000000       0.00000000 </v>
    <v>       0.00000000       0.00000000      -4.11484503 </v>
    <v>       0.00000000       6.08366764       2.05742251 </v>
   </varray>
   <i name="volume">    101.37013863 </i>
   <varray name="rec_basis" >
    <v>       0.24694994       0.00000000       0.00000000 </v>
    <v>       0.00000000       0.08218726      -0.24302252 </v>
    <v>       0.00000000       0.16437453       0.00000000 </v>
   </varray>
  </crystal>
  <varray name="positions" >
   <v>       0.50000000       0.83563636       0.67127272 </v>
   <v>       0.50000000       0.17013923       0.34027845 </v>
   <v>       0.00000000       0.33236874       0.66473748 </v>
   <v>       0.50000000       0.49672533       0.99345067 </v>
   <v>       0.00000000       0.67059367       0.34118735 </v>
   <v>       0.00000000       0.99453666       0.98907333 </v>
  </varray>
 </structure>
</modeling>
