<?xml version="1.0" encoding="ISO-8859-1"?>
<modeling>
 <generator>
  <i name="program" type="string">vasp </i>
  <i name="version" type="string">5.3.5  </i>
  <i name="subversion" type="string">31Mar14 (build Jun 20 2014 13:15:13) complex                          parallel </i>
  <i name="platform" type="string">LinuxIFC </i>
  <i name="date" type="string">2025 12 12 </i>
  <i name="time" type="string">11:34:09 </i>
 </generator>
 <incar>
  <i type="string" name="PREC">accurate</i>
  <i type="int" name="IALGO">    38</i>
  <i type="logical" name="ADDGRID"> T  </i>
  <i type="int" name="ISPIN">     2</i>
  <i type="int" name="NELM">   100</i>
  <i type="int" name="NELMIN">     4</i>
  <i name="EDIFF">      0.00000100</i>
  <i name="ENCUT">    500.00000000</i>
  <i type="logical" name="LREAL"> F  </i>
  <i type="int" name="ISMEAR">     0</i>
  <i name="SIGMA">      0.05000000</i>
  <i type="logical" name="LWAVE"> F  </i>
  <i type="logical" name="LCHARG"> F  </i>
  <i type="int" name="NELM">   100</i>
  <i type="logical" name="LDAU"> T  </i>
  <v name="LDAUU">      0.00000000      4.00000000      0.00000000</v>
  <v name="LDAUJ">      0.00000000      0.00000000      0.00000000</v>
 </incar>
 <kpoints>
  <generation param="Auto">
   <i name="subdivisionlength">     20.00000000 </i>
   <v type="int" name="divisions">       5        5        1 </v>
   <v name="usershift">      0.00000000       0.00000000       0.00000000 </v>
   <v name="genvec1">      0.20000000       0.00000000       0.00000000 </v>
   <v name="genvec2">      0.00000000       0.20000000       0.00000000 </v>
   <v name="genvec3">      0.00000000       0.00000000       1.00000000 </v>
   <v name="shift">      0.00000000       0.00000000       0.00000000 </v>
  </generation>
  <varray name="kpointlist" >
   <v>       0.00000000       0.00000000       0.00000000 </v>
   <v>       0.20000000       0.00000000       0.00000000 </v>
   <v>       0.40000000       0.00000000       0.00000000 </v>
   <v>       0.00000000       0.20000000       0.00000000 </v>
   <v>       0.20000000       0.20000000       0.00000000 </v>
   <v>       0.40000000       0.20000000       0.00000000 </v>
   <v>       0.00000000       0.40000000       0.00000000 </v>
   <v>       0.20000000       0.40000000       0.00000000 </v>
   <v>       0.40000000       0.40000000       0.00000000 </v>
  </varray>
  <varray name="weights" >
   <v>       0.04000000 </v>
   <v>       0.08000000 </v>
   <v>       0.08000000 </v>
   <v>       0.08000000 </v>
   <v>       0.16000000 </v>
   <v>       0.16000000 </v>
   <v>       0.08000000 </v>
   <v>       0.16000000 </v>
   <v>       0.16000000 </v>
  </varray>
 </kpoints>
 <parameters>
  <separator name="general" >
   <i type="string" name="SYSTEM">unknown system</i>
   <i type="logical" name="LCOMPAT"> F  </i>
  </separator>
  <separator name="electronic" >
   <i type="string" name="PREC">accura</i>
   <i name="ENMAX">    500.00000000</i>
   <i name="ENAUG">    586.98000000</i>
   <i name="EDIFF">      0.00000100</i>
   <i type="int" name="IALGO">    38</i>
   <i type="int" name="IWAVPR">    10</i>
   <i type="int" name="NBANDS">    92</i>
   <i name="NELECT">    138.00000000</i>
   <i type="int" name="TURBO">     0</i>
   <i type="int" name="IRESTART">     0</i>
   <i type="int" name="NREBOOT">     0</i>
   <i type="int" name="NMIN">     0</i>
   <i name="EREF">      0.00000000</i>
   <separator name="electronic smearing" >
    <i type="int" name="ISMEAR">     0</i>
    <i name="SIGMA">      0.05000000</i>
    <i name="KSPACING">      0.50000000</i>
    <i type="logical" name="KGAMMA"> T  </i>
   </separator>
   <separator name="electronic projectors" >
    <i type="logical" name="LREAL"> F  </i>
    <v name="ROPT">      0.00000000      0.00000000      0.00000000</v>
    <i type="int" name="LMAXPAW">  -100</i>
    <i type="int" name="LMAXMIX">     2</i>
    <i type="logical" name="NLSPLINE"> F  </i>
   </separator>
   <separator name="electronic startup" >
    <i type="int" name="ISTART">     0</i>
    <i type="int" name="ICHARG">     2</i>
    <i type="int" name="INIWAV">     1</i>
   </separator>
   <separator name="electronic spin" >
    <i type="int" name="ISPIN">     2</i>
    <i type="logical" name="LNONCOLLINEAR"> F  </i>
    <v name="MAGMOM">      1.00000000      1.00000000      1.00000000      1.00000000      1.00000000      1.00000000      1.00000000      1.00000000      1.00000000      1.00000000      1.00000000      1.00000000      1.00000000      1.00000000      1.00000000      1.00000000      1.00000000</v>
    <i name="NUPDOWN">     -1.00000000</i>
    <i type="logical" name="LSORBIT"> F  </i>
    <v name="SAXIS">      0.00000000      0.00000000      1.00000000</v>
    <i type="logical" name="LSPIRAL"> F  </i>
    <v name="QSPIRAL">      0.00000000      0.00000000      0.00000000</v>
    <i type="logical" name="LZEROZ"> F  </i>
   </separator>
   <separator name="electronic exchange-correlation" >
    <i type="logical" name="LASPH"> F  </i>
    <i type="logical" name="LMETAGGA"> F  </i>
   </separator>
   <separator name="electronic convergence" >
    <i type="int" name="NELM">   100</i>
    <i type="int" name="NELMDL">    -5</i>
    <i type="int" name="NELMIN">     4</i>
    <i name="ENINI">    500.00000000</i>
    <separator name="electronic convergence detail" >
     <i type="logical" name="LDIAG"> T  </i>
     <i type="logical" name="LSUBROT"> F  </i>
     <i name="WEIMIN">      0.00000000</i>
     <i name="EBREAK">      0.00000000</i>
     <i name="DEPER">      0.30000000</i>
     <i type="int" name="NRMM">     4</i>
     <i name="TIME">      0.40000000</i>
    </separator>
   </separator>
   <separator name="electronic mixer" >
    <i name="AMIX">      0.40000000</i>
    <i name="BMIX">      1.00000000</i>
    <i name="AMIN">      0.10000000</i>
    <i name="AMIX_MAG">      1.60000000</i>
    <i name="BMIX_MAG">      1.00000000</i>
    <separator name="electronic mixer details" >
     <i type="int" name="IMIX">     4</i>
     <i type="int" name="MAXMIX">   -45</i>
     <i name="WC">    100.00000000</i>
     <i type="int" name="INIMIX">     1</i>
     <i type="int" name="MIXPRE">     1</i>
     <i type="int" name="MREMOVE">     5</i>
    </separator>
   </separator>
   <separator name="electronic dipolcorrection" >
    <i type="logical" name="LDIPOL"> F  </i>
    <i type="logical" name="LMONO"> F  </i>
    <i type="int" name="IDIPOL">     0</i>
    <i name="EPSILON">      1.00000000</i>
    <v name="DIPOL">   -100.00000000   -100.00000000   -100.00000000</v>
    <i name="EFIELD">      0.00000000</i>
   </separator>
  </separator>
  <separator name="grids" >
   <i type="int" name="NGX">    30</i>
   <i type="int" name="NGY">    30</i>
   <i type="int" name="NGZ">   120</i>
   <i type="int" name="NGXF">    60</i>
   <i type="int" name="NGYF">    60</i>
   <i type="int" name="NGZF">   240</i>
   <i type="logical" name="ADDGRID"> T  </i>
  </separator>
  <separator name="ionic" >
   <i type="int" name="NSW">     0</i>
   <i type="int" name="IBRION">    -1</i>
   <i type="int" name="ISIF">     2</i>
   <i name="PSTRESS">      0.00000000</i>
   <i name="EDIFFG">      0.00001000</i>
   <i type="int" name="NFREE">     0</i>
   <i name="POTIM">      0.50000000</i>
   <i name="SMASS">     -3.00000000</i>
   <i name="SCALEE">      1.00000000</i>
  </separator>
  <separator name="ionic md" >
   <i name="TEBEG">      0.00010000</i>
   <i name="TEEND">      0.00010000</i>
   <i type="int" name="NBLOCK">     1</i>
   <i type="int" name="KBLOCK">     1</i>
   <i type="int" name="NPACO">   256</i>
   <i name="APACO">     16.00000000</i>
  </separator>
  <separator name="symmetry" >
   <i type="int" name="ISYM">     2</i>
   <i name="SYMPREC">      0.00001000</i>
  </separator>
  <separator name="dos" >
   <i type="logical" name="LORBIT"> F  </i>
   <v name="RWIGS">     -1.00000000     -1.00000000     -1.00000000</v>
   <i type="int" name="NEDOS">   301</i>
   <i name="EMIN">     10.00000000</i>
   <i name="EMAX">    -10.00000000</i>
   <i name="EFERMI">      0.00000000</i>
  </separator>
  <separator name="writing" >
   <i type="int" name="NWRITE">     2</i>
   <i type="logical" name="LWAVE"> F  </i>
   <i type="logical" name="LCHARG"> F  </i>
   <i type="logical" name="LPARD"> F  </i>
   <i type="logical" name="LVTOT"> F  </i>
   <i type="logical" name="LVHAR"> F  </i>
   <i type="logical" name="LELF"> F  </i>
   <i type="logical" name="LOPTICS"> F  </i>
   <v name="STM">      0.00000000      0.00000000      0.00000000      0.00000000      0.00000000      0.00000000      0.00000000</v>
  </separator>
  <separator name="performance" >
   <i type="int" name="NPAR">     4</i>
   <i type="int" name="NSIM">     4</i>
   <i type="int" name="NBLK">    -1</i>
   <i type="logical" name="LPLANE"> T  </i>
   <i type="logical" name="LSCALAPACK"> T  </i>
   <i type="logical" name="LSCAAWARE"> F  </i>
   <i type="logical" name="LSCALU"> F  </i>
   <i type="logical" name="LASYNC"> F  </i>
   <i type="logical" name="LORBITALREAL"> F  </i>
  </separator>
  <separator name="miscellaneous" >
   <i type="int" name="IDIOT">     3</i>
   <i type="logical" name="LMUSIC"> F  </i>
   <v name="POMASS">     87.62000000     63.54600000     16.00000000</v>
   <v name="DARWINR">      0.00000000      0.00000000      0.00000000</v>
   <v name="DARWINV">      1.00000000      1.00000000      1.00000000</v>
   <i type="logical" name="LCORR"> T  </i>
  </separator>
  <i type="logical" name="GGA_COMPAT"> T  </i>
  <i type="logical" name="LBERRY"> F  </i>
  <i type="int" name="ICORELEVEL">     0</i>
  <i type="logical" name="LDAU"> T  </i>
  <v type="int" name="LDAUTYPE">     2</v>
  <v type="int" name="LDAUL">     2</v>
  <v name="LDAUU">      0.00000000</v>
  <v name="LDAUJ">      0.00000000</v>
  <i type="int" name="LDAUPRINT">     0</i>
  <i type="int" name="I_CONSTRAINED_M">     0</i>
  <separator name="electronic exchange-correlation" >
   <i type="string" name="GGA">--</i>
   <i type="int" name="VOSKOWN">     0</i>
   <i type="logical" name="LHFCALC"> F  </i>
   <i type="string" name="PRECFOCK"></i>
   <i type="logical" name="LSYMGRAD"> F  </i>
   <i type="logical" name="LHFONE"> F  </i>
   <i type="logical" name="LRHFCALC"> F  </i>
   <i type="logical" name="LTHOMAS"> F  </i>
   <i type="logical" name="LMODELHF"> F  </i>
   <i name="ENCUT4O">     -1.00000000</i>
   <i type="int" name="EXXOEP">     0</i>
   <i type="int" name="FOURORBIT">     0</i>
   <i name="AEXX">      0.00000000</i>
   <i name="HFALPHA">      0.00000000</i>
   <i name="MCALPHA">      0.00000000</i>
   <i name="ALDAX">      1.00000000</i>
   <i name="AGGAX">      1.00000000</i>
   <i name="ALDAC">      1.00000000</i>
   <i name="AGGAC">      1.00000000</i>
   <i type="int" name="NKREDX">     1</i>
   <i type="int" name="NKREDY">     1</i>
   <i type="int" name="NKREDZ">     1</i>
   <i type="logical" name="SHIFTRED"> F  </i>
   <i type="logical" name="ODDONLY"> F  </i>
   <i type="logical" name="EVENONLY"> F  </i>
   <i type="int" name="LMAXFOCK">     0</i>
   <i type="int" name="NMAXFOCKAE">     0</i>
   <i type="logical" name="LFOCKAEDFT"> F  </i>
   <i name="HFSCREEN">      0.00000000</i>
   <i name="HFSCREENC">      0.00000000</i>
   <i type="int" name="NBANDSGWLOW">     0</i>
  </separator>
  <separator name="vdW DFT" >
   <i type="logical" name="LUSE_VDW"> F  </i>
   <i name="Zab_VDW">     -0.84910000</i>
   <i name="PARAM1">      0.12340000</i>
   <i name="PARAM2">      1.00000000</i>
   <i name="PARAM3">      0.00000000</i>
  </separator>
  <separator name="model GW" >
   <i type="int" name="MODEL_GW">     0</i>
   <i name="MODEL_EPS0">      9.03529412</i>
   <i name="MODEL_ALPHA">      1.00000000</i>
  </separator>
  <separator name="linear response parameters" >
   <i type="logical" name="LEPSILON"> F  </i>
   <i type="logical" name="LRPA"> F  </i>
   <i type="logical" name="LNABLA"> F  </i>
   <i type="logical" name="LVEL"> F  </i>
   <i type="int" name="KINTER">     0</i>
   <i name="CSHIFT">      0.10000000</i>
   <i name="OMEGAMAX">     -1.00000000</i>
   <i name="DEG_THRESHOLD">      0.00200000</i>
  </separator>
  <separator name="orbital magnetization" >
   <i type="logical" name="NUCIND"> F  </i>
   <v name="MAGPOS">      0.00000000      0.00000000      0.00000000</v>
   <i type="logical" name="LNICSALL"> T  </i>
   <i type="logical" name="ORBITALMAG"> F  </i>
   <i type="logical" name="LMAGBLOCH"> F  </i>
   <i type="logical" name="LCHIMAG"> F  </i>
   <i type="logical" name="LGAUGE"> T  </i>
   <i type="int" name="MAGATOM">     0</i>
   <v name="MAGDIPOL">      0.00000000      0.00000000      0.00000000</v>
   <v name="AVECCONST">      0.00000000      0.00000000      0.00000000</v>
  </separator>
  <separator name="response functions" >
   <i type="logical" name="LADDER"> F  </i>
   <i type="logical" name="LFXC"> F  </i>
   <i type="logical" name="LHARTREE"> T  </i>
   <i type="int" name="IBSE">     0</i>
   <i type="logical" name="LTCTE"> F  </i>
   <i type="logical" name="LTETE"> F  </i>
   <i type="logical" name="LTRIPLET"> F  </i>
   <i type="logical" name="LFXCEPS"> F  </i>
   <i type="logical" name="LFXHEG"> F  </i>
   <i type="logical" name="L2ORDER"> F  </i>
   <i type="logical" name="LUSEW"> F  </i>
   <i name="ENCUTGW">     -2.00000000</i>
   <i name="ENCUTGWSOFT">     -2.00000000</i>
   <i name="ENCUTLF">     -1.00000000</i>
   <i type="int" name="LMAXMP2">    -1</i>
   <i name="SCISSOR">      0.00000000</i>
   <i type="int" name="NOMEGA">     0</i>
   <i type="int" name="NOMEGAR">     0</i>
   <i type="int" name="NBANDSGW">    -1</i>
   <i type="int" name="NBANDSO">    -1</i>
   <i type="int" name="NBANDSV">    -1</i>
   <i type="int" name="NELM">   100</i>
   <i type="int" name="DIM">     3</i>
   <i type="int" name="ANTIRES">     0</i>
   <i name="OMEGAMAX">    -30.00000000</i>
   <i name="OMEGAMIN">    -30.00000000</i>
   <i name="OMEGATL">   -200.00000000</i>
   <i type="int" name="OMEGAGRID">     0</i>
   <i name="CSHIFT">     -0.10000000</i>
   <i type="logical" name="SELFENERGY"> F  </i>
   <i type="logical" name="LSPECTRAL"> F  </i>
   <i type="logical" name="ODDONLYGW"> F  </i>
   <i type="logical" name="EVENONLYGW"> F  </i>
   <i type="int" name="NKREDLFX">     1</i>
   <i type="int" name="NKREDLFY">     1</i>
   <i type="int" name="NKREDLFZ">     1</i>
   <i type="int" name="MAXMEM">  1800</i>
   <i type="int" name="TELESCOPE">     0</i>
   <i type="int" name="TAUPAR">     1</i>
  </separator>
  <separator name="External order field" >
   <i name="OFIELD_KAPPA">      0.00000000</i>
   <v name="OFIELD_K">      0.00000000      0.00000000      0.00000000</v>
   <i name="OFIELD_Q6_NEAR">      0.00000000</i>
   <i name="OFIELD_Q6_FAR">      0.00000000</i>
   <i name="OFIELD_A">      0.00000000</i>
  </separator>
 </parameters>
 <atominfo>
  <atoms>      17 </atoms>
  <types>       3 </types>
  <array name="atoms" >
   <dimension dim="1">ion</dimension>
   <field type="string">element</field>
   <field type="int">atomtype</field>
   <set>
    <rc><c>Sr</c><c>   1</c></rc>
    <rc><c>Sr</c><c>   1</c></rc>
    <rc><c>Sr</c><c>   1</c></rc>
    <rc><c>Sr</c><c>   1</c></rc>
    <rc><c>Cu</c><c>   2</c></rc>
    <rc><c>Cu</c><c>   2</c></rc>
    <rc><c>Cu</c><c>   2</c></rc>
    <rc><c>Cu</c><c>   2</c></rc>
    <rc><c>O </c><c>   3</c></rc>
    <rc><c>O </c><c>   3</c></rc>
    <rc><c>O </c><c>   3</c></rc>
    <rc><c>O </c><c>   3</c></rc>
    <rc><c>O </c><c>   3</c></rc>
    <rc><c>O </c><c>   3</c></rc>
    <rc><c>O </c><c>   3</c></rc>
    <rc><c>O </c><c>   3</c></rc>
    <rc><c>O </c><c>   3</c></rc>
   </set>
  </array>
  <array name="atomtypes" >
   <dimension dim="1">type</dimension>
   <field type="int">atomspertype</field>
   <field type="string">element</field>
   <field>mass</field>
   <field>valence</field>
   <field type="string">pseudopotential</field>
   <set>
    <rc><c>   4</c><c>Sr</c><c>     87.62000000</c><c>     10.00000000</c><c>  PAW_PBE Sr_sv 07Sep2000               </c></rc>
    <rc><c>   4</c><c>Cu</c><c>     63.54600000</c><c>     11.00000000</c><c>  PAW_PBE Cu 22Jun2005                  </c></rc>
    <rc><c>   9</c><c>O </c><c>     16.00000000</c><c>      6.00000000</c><c>  PAW_PBE O_s 07Sep2000                 </c></rc>
   </set>
  </array>
 </atominfo>
 <structure name="initialpos" >
  <crystal>
   <varray name="basis" >
    <v>       4.00000000       0.00000000       0.00000000 </v>
    <v>       0.00000000       4.00000000       0.00000000 </v>
    <v>       0.00000000       0.00000000      16.00000000 </v>
   </varray>
   <i name="volume">    256.00000000 </i>
   <varray name="rec_basis" >
    <v>       0.25000000       0.00000000       0.00000000 </v>
    <v>       0.00000000       0.25000000       0.00000000 </v>
    <v>       0.00000000       0.00000000       0.06250000 </v>
   </varray>
  </crystal>
  <varray name="positions" >
   <v>       0.00000000       0.00000000       0.00000000 </v>
   <v>       0.00000000       0.00000000       0.25000000 </v>
   <v>       0.00000000       0.00000000       0.50000000 </v>
   <v>       0.00000000       0.00000000       0.75000000 </v>
   <v>       0.50000000       0.50000000       0.12500000 </v>
   <v>       0.50000000       0.50000000       0.37500000 </v>
   <v>       0.50000000       0.50000000       0.62500000 </v>
   <v>       0.50000000       0.50000000       0.87500000 </v>
   <v>       0.50000000       0.50000000       0.25000000 </v>
   <v>       0.50000000       0.50000000       0.50000000 </v>
   <v>       0.50000000       0.50000000       0.75000000 </v>
   <v>       0.00000000       0.50000000       0.37500000 </v>
   <v>       0.00000000       0.50000000       0.87500000 </v>
   <v>       0.50000000       0.00000000       0.12500000 </v>
   <v>       0.50000000       0.00000000       0.37500000 </v>
   <v>       0.50000000       0.00000000       0.62500000 </v>
   <v>       0.50000000       0.00000000       0.87500000 </v>
  </varray>
 </structure>
 <calculation>
  <scstep>
   <time name="dav">    1.61    1.61</time>
   <time name="total">    1.76    1.77</time>
   <energy>
    <i name="alphaZ">    635.64916683 </i>
    <i name="ewald">  -8931.60451678 </i>
    <i name="hartreedc">  -4004.59107759 </i>
    <i name="XCdc">    571.21636038 </i>
    <i name="pawpsdc">  10532.98817047 </i>
    <i name="pawaedc"> -10865.93268589 </i>
    <i name="eentropy">     -0.00530166 </i>
    <i name="bandstr">    971.92035156 </i>
    <i name="atom">  12827.37956309 </i>
    <i name="e_fr_energy">   1737.02003041 </i>
    <i name="e_wo_entrp">   1737.02533207 </i>
    <i name="e_0_energy">   1737.02268124 </i>
   </energy>
  </scstep>
  <scstep>
   <time name="dav">    1.65    1.65</time>
   <time name="total">    1.65    1.67</time>
   <energy>
    <i name="e_fr_energy">    156.32678862 </i>
    <i name="e_wo_entrp">    156.33533060 </i>
    <i name="e_0_energy">    156.33105961 </i>
   </energy>
  </scstep>
  <scstep>
   <time name="dav">    1.71    1.71</time>
   <time name="total">    1.71    1.73</time>
   <energy>
    <i name="e_fr_energy">    -87.65151911 </i>
    <i name="e_wo_entrp">    -87.64058243 </i>
    <i name="e_0_energy">    -87.64605077 </i>
   </energy>
  </scstep>
  <scstep>
   <time name="dav">    2.19    2.19</time>
   <time name="total">    2.19    2.21</time>
   <energy>
    <i name="e_fr_energy">   -105.93747697 </i>
    <i name="e_wo_entrp">   -105.92069933 </i>
    <i name="e_0_energy">   -105.92908815 </i>
   </energy>
  </scstep>
  <scstep>
   <time name="dav">    2.75    2.75</time>
   <time name="total">    2.96    2.98</time>
   <energy>
    <i name="e_fr_energy">   -107.03286500 </i>
    <i name="e_wo_entrp">   -107.01547869 </i>
    <i name="e_0_energy">   -107.02417184 </i>
   </energy>
  </scstep>
  <scstep>
   <time name="dav">    2.17    2.17</time>
   <time name="total">    2.53    2.54</time>
   <energy>
    <i name="e_fr_energy">    -97.91009548 </i>
    <i name="e_wo_entrp">    -97.89755245 </i>
    <i name="e_0_energy">    -97.90382396 </i>
   </energy>
  </scstep>
  <scstep>
   <time name="dav">    2.20    2.20</time>
   <time name="total">    2.56    2.57</time>
   <energy>
    <i name="e_fr_energy">    -90.34416054 </i>
    <i name="e_wo_entrp">    -90.33401963 </i>
    <i name="e_0_energy">    -90.33909008 </i>
   </energy>
  </scstep>
  <scstep>
   <time name="dav">    2.49    2.49</time>
   <time name="total">    2.85    2.86</time>
   <energy>
    <i name="e_fr_energy">    -90.77254774 </i>
    <i name="e_wo_entrp">    -90.76533709 </i>
    <i name="e_0_energy">    -90.76894241 </i>
   </energy>
  </scstep>
  <scstep>
   <time name="dav">    2.34    2.34</time>
   <time name="total">    2.70    2.71</time>
   <energy>
    <i name="e_fr_energy">    -97.97776360 </i>
    <i name="e_wo_entrp">    -97.96779151 </i>
    <i name="e_0_energy">    -97.97277756 </i>
   </energy>
  </scstep>
  <scstep>
   <time name="dav">    2.20    2.20</time>
   <time name="total">    2.56    2.58</time>
   <energy>
    <i name="e_fr_energy">    -94.71921614 </i>
    <i name="e_wo_entrp">    -94.70814409 </i>
    <i name="e_0_energy">    -94.71368012 </i>
   </energy>
  </scstep>
  <scstep>
   <time name="dav">    2.22    2.22</time>
   <time name="total">    2.58    2.60</time>
   <energy>
    <i name="e_fr_energy">    -87.20810583 </i>
    <i name="e_wo_entrp">    -87.18986148 </i>
    <i name="e_0_energy">    -87.19898365 </i>
   </energy>
  </scstep>
  <scstep>
   <time name="dav">    2.19    2.19</time>
   <time name="total">    2.55    2.57</time>
   <energy>
    <i name="e_fr_energy">    -86.48723294 </i>
    <i name="e_wo_entrp">    -86.47453488 </i>
    <i name="e_0_energy">    -86.48088391 </i>
   </energy>
  </scstep>
  <scstep>
   <time name="dav">    2.28    2.28</time>
   <time name="total">    2.64    2.66</time>
   <energy>
    <i name="e_fr_energy">    -85.21405811 </i>
    <i name="e_wo_entrp">    -85.19937821 </i>
    <i name="e_0_energy">    -85.20671816 </i>
   </energy>
  </scstep>
  <scstep>
   <time name="dav">    2.23    2.23</time>
   <time name="total">    2.59    2.61</time>
   <energy>
    <i name="e_fr_energy">    -85.00602249 </i>
    <i name="e_wo_entrp">    -85.00063922 </i>
    <i name="e_0_energy">    -85.00333085 </i>
   </energy>
  </scstep>
  <scstep>
   <time name="dav">    2.31    2.31</time>
   <time name="total">    2.67    2.68</time>
   <energy>
    <i name="e_fr_energy">    -84.74127306 </i>
    <i name="e_wo_entrp">    -84.73466998 </i>
    <i name="e_0_energy">    -84.73797152 </i>
   </energy>
  </scstep>
  <scstep>
   <time name="dav">    2.22    2.22</time>
   <time name="total">    2.58    2.59</time>
   <energy>
    <i name="e_fr_energy">    -84.38137972 </i>
    <i name="e_wo_entrp">    -84.37406670 </i>
    <i name="e_0_energy">    -84.37772321 </i>
   </energy>
  </scstep>
  <scstep>
   <time name="dav">    2.29    2.29</time>
   <time name="total">    2.65    2.66</time>
   <energy>
    <i name="e_fr_energy">    -84.46626722 </i>
    <i name="e_wo_entrp">    -84.45325627 </i>
    <i name="e_0_energy">    -84.45976175 </i>
   </energy>
  </scstep>
  <scstep>
   <time name="dav">    2.16    2.16</time>
   <time name="total">    2.52    2.54</time>
   <energy>
    <i name="e_fr_energy">    -84.54213233 </i>
    <i name="e_wo_entrp">    -84.52935296 </i>
    <i name="e_0_energy">    -84.53574264 </i>
   </energy>
  </scstep>
  <scstep>
   <time name="dav">    2.29    2.29</time>
   <time name="total">    2.65    2.66</time>
   <energy>
    <i name="e_fr_energy">    -84.57756486 </i>
    <i name="e_wo_entrp">    -84.56422051 </i>
    <i name="e_0_energy">    -84.57089269 </i>
   </energy>
  </scstep>
  <scstep>
   <time name="dav">    2.20    2.20</time>
   <time name="total">    2.56    2.58</time>
   <energy>
    <i name="e_fr_energy">    -84.60719314 </i>
    <i name="e_wo_entrp">    -84.59539412 </i>
    <i name="e_0_energy">    -84.60129363 </i>
   </energy>
  </scstep>
  <scstep>
   <time name="dav">    2.15    2.15</time>
   <time name="total">    2.51    2.53</time>
   <energy>
    <i name="e_fr_energy">    -84.62728333 </i>
    <i name="e_wo_entrp">    -84.61924492 </i>
    <i name="e_0_energy">    -84.62326413 </i>
   </energy>
  </scstep>
  <scstep>
   <time name="dav">    2.22    2.22</time>
   <time name="total">    2.58    2.60</time>
   <energy>
    <i name="e_fr_energy">    -84.63094509 </i>
    <i name="e_wo_entrp">    -84.62486361 </i>
    <i name="e_0_energy">    -84.62790435 </i>
   </energy>
  </scstep>
  <scstep>
   <time name="dav">    2.26    2.26</time>
   <time name="total">    2.62    2.63</time>
   <energy>
    <i name="e_fr_energy">    -84.63423403 </i>
    <i name="e_wo_entrp">    -84.62782367 </i>
    <i name="e_0_energy">    -84.63102885 </i>
   </energy>
  </scstep>
  <scstep>
   <time name="dav">    2.20    2.20</time>
   <time name="total">    2.57    2.58</time>
   <energy>
    <i name="e_fr_energy">    -84.63325911 </i>
    <i name="e_wo_entrp">    -84.62673431 </i>
    <i name="e_0_energy">    -84.62999671 </i>
   </energy>
  </scstep>
  <scstep>
   <time name="dav">    2.34    2.34</time>
   <time name="total">    2.70    2.72</time>
   <energy>
    <i name="e_fr_energy">    -84.63368075 </i>
    <i name="e_wo_entrp">    -84.62718591 </i>
    <i name="e_0_energy">    -84.63043333 </i>
   </energy>
  </scstep>
  <scstep>
   <time name="dav">    2.22    2.22</time>
   <time name="total">    2.58    2.59</time>
   <energy>
    <i name="e_fr_energy">    -84.63442976 </i>
    <i name="e_wo_entrp">    -84.62779731 </i>
    <i name="e_0_energy">    -84.63111354 </i>
   </energy>
  </scstep>
  <scstep>
   <time name="dav">    2.18    2.18</time>
   <time name="total">    2.54    2.56</time>
   <energy>
    <i name="e_fr_energy">    -84.63500113 </i>
    <i name="e_wo_entrp">    -84.62836913 </i>
    <i name="e_0_energy">    -84.63168513 </i>
   </energy>
  </scstep>
  <scstep>
   <time name="dav">    2.18    2.19</time>
   <time name="total">    2.55    2.56</time>
   <energy>
    <i name="e_fr_energy">    -84.63510471 </i>
    <i name="e_wo_entrp">    -84.62825579 </i>
    <i name="e_0_energy">    -84.63168025 </i>
   </energy>
  </scstep>
  <scstep>
   <time name="dav">    2.18    2.18</time>
   <time name="total">    2.54    2.55</time>
   <energy>
    <i name="e_fr_energy">    -84.63515469 </i>
    <i name="e_wo_entrp">    -84.62833336 </i>
    <i name="e_0_energy">    -84.63174402 </i>
   </energy>
  </scstep>
  <scstep>
   <time name="dav">    2.29    2.29</time>
   <time name="total">    2.65    2.66</time>
   <energy>
    <i name="e_fr_energy">    -84.63515243 </i>
    <i name="e_wo_entrp">    -84.62831808 </i>
    <i name="e_0_energy">    -84.63173526 </i>
   </energy>
  </scstep>
  <scstep>
   <time name="dav">    2.30    2.31</time>
   <time name="total">    2.67    2.68</time>
   <energy>
    <i name="e_fr_energy">    -84.63515710 </i>
    <i name="e_wo_entrp">    -84.62837435 </i>
    <i name="e_0_energy">    -84.63176572 </i>
   </energy>
  </scstep>
  <scstep>
   <time name="dav">    2.06    2.06</time>
   <time name="total">    2.42    2.44</time>
   <energy>
    <i name="e_fr_energy">    -84.63516022 </i>
    <i name="e_wo_entrp">    -84.62836821 </i>
    <i name="e_0_energy">    -84.63176422 </i>
   </energy>
  </scstep>
  <scstep>
   <time name="dav">    1.61    1.61</time>
   <time name="total">    1.76    1.77</time>
   <energy>
    <i name="alphaZ">    635.64916683 </i>
    <i name="ewald">  -8931.60451678 </i>
    <i name="hartreedc">  -3993.88556328 </i>
    <i name="XCdc">    571.19845605 </i>
    <i name="pawpsdc">  16293.64170718 </i>
    <i name="pawaedc"> -16664.50330498 </i>
    <i name="eentropy">     -0.00683413 </i>
    <i name="bandstr">   -822.50383429 </i>
    <i name="atom">  12827.37956309 </i>
    <i name="e_fr_energy">    -84.63516030 </i>
    <i name="e_wo_entrp">    -84.62832618 </i>
    <i name="e_0_energy">    -84.63174324 </i>
   </energy>
  </scstep>
  <structure>
   <crystal>
    <varray name="basis" >
     <v>       4.00000000       0.00000000       0.00000000 </v>
     <v>       0.00000000       4.00000000       0.00000000 </v>
     <v>       0.00000000       0.00000000      16.00000000 </v>
    </varray>
    <i name="volume">    256.00000000 </i>
    <varray name="rec_basis" >
     <v>       0.25000000       0.00000000       0.00000000 </v>
     <v>       0.00000000       0.25000000       0.00000000 </v>
     <v>       0.00000000       0.00000000       0.06250000 </v>
    </varray>
   </crystal>
   <varray name="positions" >
    <v>       0.00000000       0.00000000       0.00000000 </v>
    <v>       0.00000000       0.00000000       0.25000000 </v>
    <v>       0.00000000       0.00000000       0.50000000 </v>
    <v>       0.00000000       0.00000000       0.75000000 </v>
    <v>       0.50000000       0.50000000       0.12500000 </v>
    <v>       0.50000000       0.50000000       0.37500000 </v>
    <v>       0.50000000       0.50000000       0.62500000 </v>
    <v>       0.50000000       0.50000000       0.87500000 </v>
    <v>       0.50000000       0.50000000       0.25000000 </v>
    <v>       0.50000000       0.50000000       0.50000000 </v>
    <v>       0.50000000       0.50000000       0.75000000 </v>
    <v>       0.00000000       0.50000000       0.37500000 </v>
    <v>       0.00000000       0.50000000       0.87500000 </v>
    <v>       0.50000000       0.00000000       0.12500000 </v>
    <v>       0.50000000       0.00000000       0.37500000 </v>
    <v>       0.50000000       0.00000000       0.62500000 </v>
    <v>       0.50000000       0.00000000       0.87500000 </v>
   </varray>
  </structure>
  <varray name="forces" >
   <v>       0.00000000       0.00000000      -1.68681900 </v>
   <v>       0.00000000       0.00000000       1.51453172 </v>
   <v>       0.00000000       0.00000000      -1.25941989 </v>
   <v>       0.00000000       0.00000000       1.13295751 </v>
   <v>       0.00000000       0.00000000       0.69228146 </v>
   <v>       0.00000000       0.00000000      -0.40172591 </v>
   <v>       0.00000000       0.00000000       0.32050915 </v>
   <v>       0.00000000       0.00000000      -0.41175618 </v>
   <v>       0.00000000       0.00000000      -0.07983181 </v>
   <v>       0.00000000       0.00000000       1.14902496 </v>
   <v>       0.00000000       0.00000000      -2.19163596 </v>
   <v>       0.00000000       0.00000000      -0.06167647 </v>
   <v>       0.00000000       0.00000000       1.43949074 </v>
   <v>       0.00000000       0.00000000      -1.45245235 </v>
   <v>       0.00000000       0.00000000       0.04840747 </v>
   <v>       0.00000000       0.00000000      -0.07516361 </v>
   <v>       0.00000000       0.00000000       1.32327816 </v>
  </varray>
  <varray name="stress" >
   <v>    -109.66531146       0.00000000       0.00000000 </v>
   <v>       0.00000000     -94.82164323       0.00000000 </v>
   <v>       0.00000000       0.00000000     -89.20519961 </v>
  </varray>
  <energy>
   <i name="e_fr_energy">    -84.63516030 </i>
   <i name="e_wo_entrp">    -84.63174324 </i>
   <i name="e_0_energy">     -0.00683413 </i>
  </energy>
  <time name="totalsc">   86.23   86.75</time>
  <eigenvalues>
   <array>
    <dimension dim="1">band</dimension>
    <dimension dim="2">kpoint</dimension>
    <dimension dim="3">spin</dimension>
    <field>eigene</field>
    <field>occ</field>
    <set>
     <set comment="spin 1">
      <set comment="kpoint 1">
       <r>  -32.2756    1.0000 </r>
       <r>  -30.6920    1.0000 </r>
       <r>  -30.6659    1.0000 </r>
       <r>  -30.5387    1.0000 </r>
       <r>  -15.2262    1.0000 </r>
       <r>  -14.8687    1.0000 </r>
       <r>  -14.7991    1.0000 </r>
       <r>  -14.4793    1.0000 </r>
       <r>  -14.3214    1.0000 </r>
       <r>  -14.1750    1.0000 </r>
       <r>  -13.8235    1.0000 </r>
       <r>  -13.6392    1.0000 </r>
       <r>  -13.6270    1.0000 </r>
       <r>  -13.5131    1.0000 </r>
       <r>  -13.4692    1.0000 </r>
       <r>  -13.4364    1.0000 </r>
       <r>  -12.6390    1.0000 </r>
       <r>  -12.6302    1.0000 </r>
       <r>  -12.5891    1.0000 </r>
       <r>  -12.5451    1.0000 </r>
       <r>  -12.5083    1.0000 </r>
       <r>  -12.5009    1.0000 </r>
       <r>  -12.4552    1.0000 </r>
       <r>  -12.3888    1.0000 </r>
       <r>  -12.2524    1.0000 </r>
       <r>   -2.4869    1.0000 </r>
       <r>   -1.9801    1.0000 </r>
       <r>   -1.4935    1.0000 </r>
       <r>   -1.4360    1.0000 </r>
       <r>   -1.2471    1.0000 </r>
       <r>   -1.2260    1.0000 </r>
       <r>   -1.2180    1.0000 </r>
       <r>   -1.1127    1.0000 </r>
       <r>   -1.0291    1.0000 </r>
       <r>   -0.9700    1.0000 </r>
       <r>   -0.9700    1.0000 </r>
       <r>   -0.9596    1.0000 </r>
       <r>   -0.9537    1.0000 </r>
       <r>   -0.8863    1.0000 </r>
       <r>   -0.8733    1.0000 </r>
       <r>   -0.8206    1.0000 </r>
       <r>   -0.7699    1.0000 </r>
       <r>   -0.7484    1.0000 </r>
       <r>   -0.6456    1.0000 </r>
       <r>   -0.5768    1.0000 </r>
       <r>   -0.5654    1.0000 </r>
       <r>   -0.5398    1.0000 </r>
       <r>   -0.5021    1.0000 </r>
       <r>   -0.5010    1.0000 </r>
       <r>   -0.1978    1.0000 </r>
       <r>   -0.0918    1.0000 </r>
       <r>    0.0055    1.0000 </r>
       <r>    0.2320    1.0000 </r>
       <r>    0.3327    1.0000 </r>
       <r>    0.4924    1.0000 </r>
       <r>    0.5553    1.0000 </r>
       <r>    0.6366    1.0000 </r>
       <r>    0.9648    1.0000 </r>
       <r>    1.4228    1.0000 </r>
       <r>    1.6409    1.0000 </r>
       <r>    1.6410    1.0000 </r>
       <r>    1.6759    1.0000 </r>
       <r>    1.6803    1.0000 </r>
       <r>    1.7161    1.0000 </r>
       <r>    1.8012    1.0000 </r>
       <r>    1.8372    1.0000 </r>
       <r>    1.9578    1.0000 </r>
       <r>    1.9941    1.0000 </r>
       <r>    2.0772    1.0000 </r>
       <r>    2.1095    1.0000 </r>
       <r>    2.1464    1.0000 </r>
       <r>    2.1661    1.0000 </r>
       <r>    2.8161    0.0000 </r>
       <r>    5.1818    0.0000 </r>
       <r>    5.3017    0.0000 </r>
       <r>    6.6654    0.0000 </r>
       <r>    7.4837    0.0000 </r>
       <r>    7.8619    0.0000 </r>
       <r>    8.0674    0.0000 </r>
       <r>    8.3719    0.0000 </r>
       <r>    8.4826    0.0000 </r>
       <r>    8.5532    0.0000 </r>
       <r>    8.7539    0.0000 </r>
       <r>    8.8478    0.0000 </r>
       <r>    9.1827    0.0000 </r>
       <r>    9.3604    0.0000 </r>
       <r>    9.5432    0.0000 </r>
       <r>    9.6901    0.0000 </r>
       <r>    9.9924    0.0000 </r>
       <r>   10.1135    0.0000 </r>
       <r>   10.3004    0.0000 </r>
       <r>   10.3421    0.0000 </r>
      </set>
      <set comment="kpoint 2">
       <r>  -32.2713    1.0000 </r>
       <r>  -30.6872    1.0000 </r>
       <r>  -30.6611    1.0000 </r>
       <r>  -30.5338    1.0000 </r>
       <r>  -15.1411    1.0000 </r>
       <r>  -14.9160    1.0000 </r>
       <r>  -14.7252    1.0000 </r>
       <r>  -14.5280    1.0000 </r>
       <r>  -14.3147    1.0000 </r>
       <r>  -14.1945    1.0000 </r>
       <r>  -13.9134    1.0000 </r>
       <r>  -13.7759    1.0000 </r>
       <r>  -13.6389    1.0000 </r>
       <r>  -13.6197    1.0000 </r>
       <r>  -13.5057    1.0000 </r>
       <r>  -13.4531    1.0000 </r>
       <r>  -12.6265    1.0000 </r>
       <r>  -12.6180    1.0000 </r>
       <r>  -12.6179    1.0000 </r>
       <r>  -12.5136    1.0000 </r>
       <r>  -12.4884    1.0000 </r>
       <r>  -12.3751    1.0000 </r>
       <r>  -12.3589    1.0000 </r>
       <r>  -12.2996    1.0000 </r>
       <r>  -12.2170    1.0000 </r>
       <r>   -2.4890    1.0000 </r>
       <r>   -1.9955    1.0000 </r>
       <r>   -1.8865    1.0000 </r>
       <r>   -1.7981    1.0000 </r>
       <r>   -1.6884    1.0000 </r>
       <r>   -1.5187    1.0000 </r>
       <r>   -1.4307    1.0000 </r>
       <r>   -1.3859    1.0000 </r>
       <r>   -1.2869    1.0000 </r>
       <r>   -1.2197    1.0000 </r>
       <r>   -1.2154    1.0000 </r>
       <r>   -1.0267    1.0000 </r>
       <r>   -0.9567    1.0000 </r>
       <r>   -0.8925    1.0000 </r>
       <r>   -0.7671    1.0000 </r>
       <r>   -0.7236    1.0000 </r>
       <r>   -0.6620    1.0000 </r>
       <r>   -0.6566    1.0000 </r>
       <r>   -0.6309    1.0000 </r>
       <r>   -0.5835    1.0000 </r>
       <r>   -0.5442    1.0000 </r>
       <r>   -0.5201    1.0000 </r>
       <r>   -0.4838    1.0000 </r>
       <r>   -0.4564    1.0000 </r>
       <r>   -0.1538    1.0000 </r>
       <r>    0.0559    1.0000 </r>
       <r>    0.1771    1.0000 </r>
       <r>    0.2869    1.0000 </r>
       <r>    0.4605    1.0000 </r>
       <r>    0.6006    1.0000 </r>
       <r>    0.7457    1.0000 </r>
       <r>    0.8614    1.0000 </r>
       <r>    1.0412    1.0000 </r>
       <r>    1.2448    1.0000 </r>
       <r>    1.3820    1.0000 </r>
       <r>    1.4433    1.0000 </r>
       <r>    1.5512    1.0000 </r>
       <r>    1.6240    1.0000 </r>
       <r>    1.6833    1.0000 </r>
       <r>    1.7060    1.0000 </r>
       <r>    1.7866    1.0000 </r>
       <r>    1.9590    1.0000 </r>
       <r>    2.0483    1.0000 </r>
       <r>    2.0628    1.0000 </r>
       <r>    2.1592    1.0000 </r>
       <r>    2.2595    1.0000 </r>
       <r>    2.5046    0.9846 </r>
       <r>    3.2067    0.0000 </r>
       <r>    5.6442    0.0000 </r>
       <r>    5.6836    0.0000 </r>
       <r>    6.6502    0.0000 </r>
       <r>    7.9647    0.0000 </r>
       <r>    8.0503    0.0000 </r>
       <r>    8.2711    0.0000 </r>
       <r>    8.3670    0.0000 </r>
       <r>    8.5391    0.0000 </r>
       <r>    8.7883    0.0000 </r>
       <r>    8.8982    0.0000 </r>
       <r>    9.0600    0.0000 </r>
       <r>    9.3718    0.0000 </r>
       <r>    9.6535    0.0000 </r>
       <r>    9.6875    0.0000 </r>
       <r>    9.9425    0.0000 </r>
       <r>   10.0311    0.0000 </r>
       <r>   10.0959    0.0000 </r>
       <r>   10.3185    0.0000 </r>
       <r>   10.7371    0.0000 </r>
      </set>
      <set comment="kpoint 3">
       <r>  -32.2644    1.0000 </r>
       <r>  -30.6794    1.0000 </r>
       <r>  -30.6533    1.0000 </r>
       <r>  -30.5260    1.0000 </r>
       <r>  -15.1730    1.0000 </r>
       <r>  -14.7837    1.0000 </r>
       <r>  -14.6886    1.0000 </r>
       <r>  -14.5055    1.0000 </r>
       <r>  -14.3037    1.0000 </r>
       <r>  -14.2567    1.0000 </r>
       <r>  -14.0793    1.0000 </r>
       <r>  -13.9044    1.0000 </r>
       <r>  -13.7826    1.0000 </r>
       <r>  -13.6467    1.0000 </r>
       <r>  -13.5432    1.0000 </r>
       <r>  -13.4297    1.0000 </r>
       <r>  -12.6688    1.0000 </r>
       <r>  -12.6062    1.0000 </r>
       <r>  -12.5999    1.0000 </r>
       <r>  -12.5977    1.0000 </r>
       <r>  -12.4679    1.0000 </r>
       <r>  -12.4059    1.0000 </r>
       <r>  -12.1758    1.0000 </r>
       <r>  -12.1279    1.0000 </r>
       <r>  -12.0116    1.0000 </r>
       <r>   -2.7499    1.0000 </r>
       <r>   -2.6401    1.0000 </r>
       <r>   -2.4760    1.0000 </r>
       <r>   -2.0348    1.0000 </r>
       <r>   -1.9572    1.0000 </r>
       <r>   -1.7427    1.0000 </r>
       <r>   -1.6178    1.0000 </r>
       <r>   -1.5633    1.0000 </r>
       <r>   -1.4640    1.0000 </r>
       <r>   -1.2785    1.0000 </r>
       <r>   -1.2350    1.0000 </r>
       <r>   -1.0552    1.0000 </r>
       <r>   -1.0426    1.0000 </r>
       <r>   -0.9156    1.0000 </r>
       <r>   -0.7905    1.0000 </r>
       <r>   -0.7743    1.0000 </r>
       <r>   -0.6817    1.0000 </r>
       <r>   -0.6708    1.0000 </r>
       <r>   -0.6259    1.0000 </r>
       <r>   -0.5529    1.0000 </r>
       <r>   -0.4299    1.0000 </r>
       <r>   -0.3861    1.0000 </r>
       <r>   -0.3152    1.0000 </r>
       <r>   -0.3004    1.0000 </r>
       <r>   -0.1545    1.0000 </r>
       <r>   -0.0866    1.0000 </r>
       <r>    0.0419    1.0000 </r>
       <r>    0.2895    1.0000 </r>
       <r>    0.6780    1.0000 </r>
       <r>    0.8193    1.0000 </r>
       <r>    0.8513    1.0000 </r>
       <r>    0.9513    1.0000 </r>
       <r>    0.9950    1.0000 </r>
       <r>    1.0765    1.0000 </r>
       <r>    1.1782    1.0000 </r>
       <r>    1.2443    1.0000 </r>
       <r>    1.4387    1.0000 </r>
       <r>    1.6167    1.0000 </r>
       <r>    1.6291    1.0000 </r>
       <r>    1.6783    1.0000 </r>
       <r>    1.7862    1.0000 </r>
       <r>    1.8785    1.0000 </r>
       <r>    1.8792    1.0000 </r>
       <r>    1.8918    1.0000 </r>
       <r>    2.3524    1.0000 </r>
       <r>    2.6427    0.0407 </r>
       <r>    3.1567    0.0000 </r>
       <r>    4.0114    0.0000 </r>
       <r>    5.3281    0.0000 </r>
       <r>    6.3099    0.0000 </r>
       <r>    6.6756    0.0000 </r>
       <r>    7.6452    0.0000 </r>
       <r>    7.8811    0.0000 </r>
       <r>    8.5115    0.0000 </r>
       <r>    8.6352    0.0000 </r>
       <r>    8.9338    0.0000 </r>
       <r>    9.2069    0.0000 </r>
       <r>    9.5926    0.0000 </r>
       <r>    9.6009    0.0000 </r>
       <r>    9.7103    0.0000 </r>
       <r>   10.1102    0.0000 </r>
       <r>   10.1158    0.0000 </r>
       <r>   10.2801    0.0000 </r>
       <r>   10.4501    0.0000 </r>
       <r>   10.7705    0.0000 </r>
       <r>   10.8083    0.0000 </r>
       <r>   11.0422    0.0000 </r>
      </set>
      <set comment="kpoint 4">
       <r>  -32.2713    1.0000 </r>
       <r>  -30.6873    1.0000 </r>
       <r>  -30.6612    1.0000 </r>
       <r>  -30.5339    1.0000 </r>
       <r>  -15.1429    1.0000 </r>
       <r>  -14.8181    1.0000 </r>
       <r>  -14.7228    1.0000 </r>
       <r>  -14.4094    1.0000 </r>
       <r>  -14.3879    1.0000 </r>
       <r>  -14.1681    1.0000 </r>
       <r>  -13.9302    1.0000 </r>
       <r>  -13.8108    1.0000 </r>
       <r>  -13.7018    1.0000 </r>
       <r>  -13.6276    1.0000 </r>
       <r>  -13.5315    1.0000 </r>
       <r>  -13.4814    1.0000 </r>
       <r>  -12.5855    1.0000 </r>
       <r>  -12.5325    1.0000 </r>
       <r>  -12.4956    1.0000 </r>
       <r>  -12.4849    1.0000 </r>
       <r>  -12.4650    1.0000 </r>
       <r>  -12.4412    1.0000 </r>
       <r>  -12.3760    1.0000 </r>
       <r>  -12.3477    1.0000 </r>
       <r>  -12.2585    1.0000 </r>
       <r>   -2.5356    1.0000 </r>
       <r>   -2.1092    1.0000 </r>
       <r>   -1.9286    1.0000 </r>
       <r>   -1.8493    1.0000 </r>
       <r>   -1.7750    1.0000 </r>
       <r>   -1.7499    1.0000 </r>
       <r>   -1.6740    1.0000 </r>
       <r>   -1.4682    1.0000 </r>
       <r>   -1.4585    1.0000 </r>
       <r>   -1.4357    1.0000 </r>
       <r>   -1.2927    1.0000 </r>
       <r>   -1.2805    1.0000 </r>
       <r>   -1.1872    1.0000 </r>
       <r>   -1.0996    1.0000 </r>
       <r>   -1.0187    1.0000 </r>
       <r>   -1.0042    1.0000 </r>
       <r>   -1.0038    1.0000 </r>
       <r>   -0.8444    1.0000 </r>
       <r>   -0.7101    1.0000 </r>
       <r>   -0.6655    1.0000 </r>
       <r>   -0.5872    1.0000 </r>
       <r>   -0.5123    1.0000 </r>
       <r>   -0.4859    1.0000 </r>
       <r>   -0.2966    1.0000 </r>
       <r>    0.1724    1.0000 </r>
       <r>    0.4115    1.0000 </r>
       <r>    0.5278    1.0000 </r>
       <r>    0.5576    1.0000 </r>
       <r>    0.6686    1.0000 </r>
       <r>    0.8097    1.0000 </r>
       <r>    0.8527    1.0000 </r>
       <r>    0.9295    1.0000 </r>
       <r>    1.1229    1.0000 </r>
       <r>    1.3758    1.0000 </r>
       <r>    1.4733    1.0000 </r>
       <r>    1.5486    1.0000 </r>
       <r>    1.6051    1.0000 </r>
       <r>    1.6379    1.0000 </r>
       <r>    1.7262    1.0000 </r>
       <r>    1.7418    1.0000 </r>
       <r>    1.7636    1.0000 </r>
       <r>    1.8590    1.0000 </r>
       <r>    2.0049    1.0000 </r>
       <r>    2.0960    1.0000 </r>
       <r>    2.3524    1.0000 </r>
       <r>    2.6823    0.0021 </r>
       <r>    2.9791    0.0000 </r>
       <r>    3.5135    0.0000 </r>
       <r>    5.5781    0.0000 </r>
       <r>    5.7099    0.0000 </r>
       <r>    6.9798    0.0000 </r>
       <r>    7.6005    0.0000 </r>
       <r>    7.9117    0.0000 </r>
       <r>    8.0853    0.0000 </r>
       <r>    8.3348    0.0000 </r>
       <r>    8.4548    0.0000 </r>
       <r>    8.8769    0.0000 </r>
       <r>    9.1013    0.0000 </r>
       <r>    9.1267    0.0000 </r>
       <r>    9.3339    0.0000 </r>
       <r>    9.6515    0.0000 </r>
       <r>    9.8446    0.0000 </r>
       <r>    9.9680    0.0000 </r>
       <r>   10.1164    0.0000 </r>
       <r>   10.2382    0.0000 </r>
       <r>   10.3468    0.0000 </r>
       <r>   10.3986    0.0000 </r>
      </set>
      <set comment="kpoint 5">
       <r>  -32.2671    1.0000 </r>
       <r>  -30.6826    1.0000 </r>
       <r>  -30.6565    1.0000 </r>
       <r>  -30.5292    1.0000 </r>
       <r>  -15.0645    1.0000 </r>
       <r>  -14.8539    1.0000 </r>
       <r>  -14.6394    1.0000 </r>
       <r>  -14.4363    1.0000 </r>
       <r>  -14.4201    1.0000 </r>
       <r>  -14.1532    1.0000 </r>
       <r>  -13.9173    1.0000 </r>
       <r>  -13.8067    1.0000 </r>
       <r>  -13.6765    1.0000 </r>
       <r>  -13.6726    1.0000 </r>
       <r>  -13.5950    1.0000 </r>
       <r>  -13.5277    1.0000 </r>
       <r>  -12.6449    1.0000 </r>
       <r>  -12.5988    1.0000 </r>
       <r>  -12.5830    1.0000 </r>
       <r>  -12.5144    1.0000 </r>
       <r>  -12.4622    1.0000 </r>
       <r>  -12.3745    1.0000 </r>
       <r>  -12.3358    1.0000 </r>
       <r>  -12.2899    1.0000 </r>
       <r>  -12.2051    1.0000 </r>
       <r>   -2.5268    1.0000 </r>
       <r>   -2.1043    1.0000 </r>
       <r>   -1.9419    1.0000 </r>
       <r>   -1.9100    1.0000 </r>
       <r>   -1.8741    1.0000 </r>
       <r>   -1.8461    1.0000 </r>
       <r>   -1.7645    1.0000 </r>
       <r>   -1.6944    1.0000 </r>
       <r>   -1.6657    1.0000 </r>
       <r>   -1.6349    1.0000 </r>
       <r>   -1.4863    1.0000 </r>
       <r>   -1.4435    1.0000 </r>
       <r>   -1.3545    1.0000 </r>
       <r>   -1.2942    1.0000 </r>
       <r>   -1.1770    1.0000 </r>
       <r>   -1.1456    1.0000 </r>
       <r>   -1.0966    1.0000 </r>
       <r>   -1.0648    1.0000 </r>
       <r>   -0.9921    1.0000 </r>
       <r>   -0.9144    1.0000 </r>
       <r>   -0.6188    1.0000 </r>
       <r>   -0.4697    1.0000 </r>
       <r>   -0.3518    1.0000 </r>
       <r>   -0.0213    1.0000 </r>
       <r>    0.4188    1.0000 </r>
       <r>    0.4916    1.0000 </r>
       <r>    0.6313    1.0000 </r>
       <r>    0.7018    1.0000 </r>
       <r>    0.9748    1.0000 </r>
       <r>    1.0106    1.0000 </r>
       <r>    1.0252    1.0000 </r>
       <r>    1.1352    1.0000 </r>
       <r>    1.1605    1.0000 </r>
       <r>    1.1982    1.0000 </r>
       <r>    1.2449    1.0000 </r>
       <r>    1.3573    1.0000 </r>
       <r>    1.4132    1.0000 </r>
       <r>    1.4830    1.0000 </r>
       <r>    1.7178    1.0000 </r>
       <r>    1.7565    1.0000 </r>
       <r>    1.9395    1.0000 </r>
       <r>    2.1622    1.0000 </r>
       <r>    2.2536    1.0000 </r>
       <r>    2.5752    0.5659 </r>
       <r>    2.6339    0.0676 </r>
       <r>    2.6658    0.0082 </r>
       <r>    3.0404    0.0000 </r>
       <r>    3.6961    0.0000 </r>
       <r>    5.7897    0.0000 </r>
       <r>    5.9102    0.0000 </r>
       <r>    6.9112    0.0000 </r>
       <r>    7.4958    0.0000 </r>
       <r>    7.8732    0.0000 </r>
       <r>    8.2880    0.0000 </r>
       <r>    8.4992    0.0000 </r>
       <r>    8.6824    0.0000 </r>
       <r>    8.7694    0.0000 </r>
       <r>    9.1505    0.0000 </r>
       <r>    9.3447    0.0000 </r>
       <r>    9.5137    0.0000 </r>
       <r>    9.7641    0.0000 </r>
       <r>    9.9038    0.0000 </r>
       <r>   10.0990    0.0000 </r>
       <r>   10.1644    0.0000 </r>
       <r>   10.4315    0.0000 </r>
       <r>   10.4841    0.0000 </r>
       <r>   10.6783    0.0000 </r>
      </set>
      <set comment="kpoint 6">
       <r>  -32.2602    1.0000 </r>
       <r>  -30.6750    1.0000 </r>
       <r>  -30.6490    1.0000 </r>
       <r>  -30.5216    1.0000 </r>
       <r>  -15.0992    1.0000 </r>
       <r>  -14.7016    1.0000 </r>
       <r>  -14.5796    1.0000 </r>
       <r>  -14.4930    1.0000 </r>
       <r>  -14.3247    1.0000 </r>
       <r>  -14.1751    1.0000 </r>
       <r>  -13.9916    1.0000 </r>
       <r>  -13.8796    1.0000 </r>
       <r>  -13.7773    1.0000 </r>
       <r>  -13.6506    1.0000 </r>
       <r>  -13.5577    1.0000 </r>
       <r>  -13.4757    1.0000 </r>
       <r>  -12.7128    1.0000 </r>
       <r>  -12.6999    1.0000 </r>
       <r>  -12.6321    1.0000 </r>
       <r>  -12.5810    1.0000 </r>
       <r>  -12.5386    1.0000 </r>
       <r>  -12.3776    1.0000 </r>
       <r>  -12.2797    1.0000 </r>
       <r>  -12.2301    1.0000 </r>
       <r>  -12.0933    1.0000 </r>
       <r>   -2.7618    1.0000 </r>
       <r>   -2.6926    1.0000 </r>
       <r>   -2.4951    1.0000 </r>
       <r>   -2.0626    1.0000 </r>
       <r>   -1.9504    1.0000 </r>
       <r>   -1.9129    1.0000 </r>
       <r>   -1.8753    1.0000 </r>
       <r>   -1.7850    1.0000 </r>
       <r>   -1.7502    1.0000 </r>
       <r>   -1.6844    1.0000 </r>
       <r>   -1.6779    1.0000 </r>
       <r>   -1.6443    1.0000 </r>
       <r>   -1.5567    1.0000 </r>
       <r>   -1.4399    1.0000 </r>
       <r>   -1.2299    1.0000 </r>
       <r>   -1.1740    1.0000 </r>
       <r>   -1.1392    1.0000 </r>
       <r>   -1.1074    1.0000 </r>
       <r>   -1.0312    1.0000 </r>
       <r>   -0.9528    1.0000 </r>
       <r>   -0.6883    1.0000 </r>
       <r>   -0.2599    1.0000 </r>
       <r>   -0.0757    1.0000 </r>
       <r>    0.1446    1.0000 </r>
       <r>    0.2946    1.0000 </r>
       <r>    0.3325    1.0000 </r>
       <r>    0.5665    1.0000 </r>
       <r>    0.8614    1.0000 </r>
       <r>    0.9292    1.0000 </r>
       <r>    1.0463    1.0000 </r>
       <r>    1.1147    1.0000 </r>
       <r>    1.1390    1.0000 </r>
       <r>    1.1758    1.0000 </r>
       <r>    1.2651    1.0000 </r>
       <r>    1.3055    1.0000 </r>
       <r>    1.5133    1.0000 </r>
       <r>    1.5313    1.0000 </r>
       <r>    1.6834    1.0000 </r>
       <r>    1.7738    1.0000 </r>
       <r>    1.8699    1.0000 </r>
       <r>    1.9389    1.0000 </r>
       <r>    2.1712    1.0000 </r>
       <r>    2.3065    1.0000 </r>
       <r>    2.5914    0.3853 </r>
       <r>    2.7588    0.0000 </r>
       <r>    3.1292    0.0000 </r>
       <r>    3.4717    0.0000 </r>
       <r>    4.2339    0.0000 </r>
       <r>    5.1623    0.0000 </r>
       <r>    6.0750    0.0000 </r>
       <r>    6.9955    0.0000 </r>
       <r>    7.5980    0.0000 </r>
       <r>    8.2559    0.0000 </r>
       <r>    8.3891    0.0000 </r>
       <r>    8.7505    0.0000 </r>
       <r>    9.0815    0.0000 </r>
       <r>    9.3910    0.0000 </r>
       <r>    9.4332    0.0000 </r>
       <r>    9.8445    0.0000 </r>
       <r>    9.8688    0.0000 </r>
       <r>   10.0280    0.0000 </r>
       <r>   10.1699    0.0000 </r>
       <r>   10.4565    0.0000 </r>
       <r>   10.5104    0.0000 </r>
       <r>   10.5968    0.0000 </r>
       <r>   10.6444    0.0000 </r>
       <r>   10.7471    0.0000 </r>
      </set>
      <set comment="kpoint 7">
       <r>  -32.2643    1.0000 </r>
       <r>  -30.6796    1.0000 </r>
       <r>  -30.6534    1.0000 </r>
       <r>  -30.5261    1.0000 </r>
       <r>  -14.9771    1.0000 </r>
       <r>  -14.8335    1.0000 </r>
       <r>  -14.6041    1.0000 </r>
       <r>  -14.3659    1.0000 </r>
       <r>  -14.2792    1.0000 </r>
       <r>  -14.1569    1.0000 </r>
       <r>  -14.1473    1.0000 </r>
       <r>  -14.0495    1.0000 </r>
       <r>  -13.9136    1.0000 </r>
       <r>  -13.6562    1.0000 </r>
       <r>  -13.5592    1.0000 </r>
       <r>  -13.5144    1.0000 </r>
       <r>  -12.5729    1.0000 </r>
       <r>  -12.5118    1.0000 </r>
       <r>  -12.4849    1.0000 </r>
       <r>  -12.4750    1.0000 </r>
       <r>  -12.3551    1.0000 </r>
       <r>  -12.3041    1.0000 </r>
       <r>  -12.2772    1.0000 </r>
       <r>  -12.2528    1.0000 </r>
       <r>  -12.1427    1.0000 </r>
       <r>   -3.0816    1.0000 </r>
       <r>   -2.8635    1.0000 </r>
       <r>   -2.6747    1.0000 </r>
       <r>   -2.5639    1.0000 </r>
       <r>   -2.3468    1.0000 </r>
       <r>   -2.1760    1.0000 </r>
       <r>   -1.9293    1.0000 </r>
       <r>   -1.8376    1.0000 </r>
       <r>   -1.6303    1.0000 </r>
       <r>   -1.6238    1.0000 </r>
       <r>   -1.4986    1.0000 </r>
       <r>   -1.4686    1.0000 </r>
       <r>   -1.3549    1.0000 </r>
       <r>   -1.3300    1.0000 </r>
       <r>   -1.3015    1.0000 </r>
       <r>   -1.1588    1.0000 </r>
       <r>   -1.1227    1.0000 </r>
       <r>   -0.8582    1.0000 </r>
       <r>   -0.6757    1.0000 </r>
       <r>   -0.5675    1.0000 </r>
       <r>   -0.5387    1.0000 </r>
       <r>   -0.4652    1.0000 </r>
       <r>   -0.3483    1.0000 </r>
       <r>   -0.0679    1.0000 </r>
       <r>    0.3008    1.0000 </r>
       <r>    0.6476    1.0000 </r>
       <r>    0.7260    1.0000 </r>
       <r>    0.8885    1.0000 </r>
       <r>    0.9105    1.0000 </r>
       <r>    1.0426    1.0000 </r>
       <r>    1.1037    1.0000 </r>
       <r>    1.1310    1.0000 </r>
       <r>    1.2070    1.0000 </r>
       <r>    1.2564    1.0000 </r>
       <r>    1.3549    1.0000 </r>
       <r>    1.5174    1.0000 </r>
       <r>    1.5779    1.0000 </r>
       <r>    1.6302    1.0000 </r>
       <r>    1.6713    1.0000 </r>
       <r>    1.7330    1.0000 </r>
       <r>    1.7703    1.0000 </r>
       <r>    1.8196    1.0000 </r>
       <r>    2.1062    1.0000 </r>
       <r>    2.3874    1.0000 </r>
       <r>    2.4461    0.9999 </r>
       <r>    3.0330    0.0000 </r>
       <r>    3.9625    0.0000 </r>
       <r>    4.8954    0.0000 </r>
       <r>    6.3585    0.0000 </r>
       <r>    6.6679    0.0000 </r>
       <r>    7.0171    0.0000 </r>
       <r>    7.0773    0.0000 </r>
       <r>    7.2829    0.0000 </r>
       <r>    7.9166    0.0000 </r>
       <r>    8.3648    0.0000 </r>
       <r>    9.2145    0.0000 </r>
       <r>    9.4668    0.0000 </r>
       <r>    9.5044    0.0000 </r>
       <r>    9.7449    0.0000 </r>
       <r>    9.9085    0.0000 </r>
       <r>   10.3042    0.0000 </r>
       <r>   10.3346    0.0000 </r>
       <r>   10.3660    0.0000 </r>
       <r>   10.5190    0.0000 </r>
       <r>   10.5244    0.0000 </r>
       <r>   10.7380    0.0000 </r>
       <r>   10.9768    0.0000 </r>
      </set>
      <set comment="kpoint 8">
       <r>  -32.2602    1.0000 </r>
       <r>  -30.6751    1.0000 </r>
       <r>  -30.6490    1.0000 </r>
       <r>  -30.5217    1.0000 </r>
       <r>  -14.9249    1.0000 </r>
       <r>  -14.8054    1.0000 </r>
       <r>  -14.4885    1.0000 </r>
       <r>  -14.4766    1.0000 </r>
       <r>  -14.2381    1.0000 </r>
       <r>  -14.1409    1.0000 </r>
       <r>  -13.9952    1.0000 </r>
       <r>  -13.9272    1.0000 </r>
       <r>  -13.9185    1.0000 </r>
       <r>  -13.6636    1.0000 </r>
       <r>  -13.6115    1.0000 </r>
       <r>  -13.5357    1.0000 </r>
       <r>  -12.6290    1.0000 </r>
       <r>  -12.5761    1.0000 </r>
       <r>  -12.5562    1.0000 </r>
       <r>  -12.5136    1.0000 </r>
       <r>  -12.4066    1.0000 </r>
       <r>  -12.3557    1.0000 </r>
       <r>  -12.3496    1.0000 </r>
       <r>  -12.3102    1.0000 </r>
       <r>  -12.2229    1.0000 </r>
       <r>   -3.0517    1.0000 </r>
       <r>   -2.8442    1.0000 </r>
       <r>   -2.6828    1.0000 </r>
       <r>   -2.6111    1.0000 </r>
       <r>   -2.3441    1.0000 </r>
       <r>   -2.0781    1.0000 </r>
       <r>   -1.9304    1.0000 </r>
       <r>   -1.9125    1.0000 </r>
       <r>   -1.8122    1.0000 </r>
       <r>   -1.7410    1.0000 </r>
       <r>   -1.7193    1.0000 </r>
       <r>   -1.6546    1.0000 </r>
       <r>   -1.6257    1.0000 </r>
       <r>   -1.5501    1.0000 </r>
       <r>   -1.4482    1.0000 </r>
       <r>   -1.3794    1.0000 </r>
       <r>   -1.3330    1.0000 </r>
       <r>   -1.2675    1.0000 </r>
       <r>   -1.0560    1.0000 </r>
       <r>   -0.9087    1.0000 </r>
       <r>   -0.6203    1.0000 </r>
       <r>   -0.4419    1.0000 </r>
       <r>   -0.3081    1.0000 </r>
       <r>    0.3168    1.0000 </r>
       <r>    0.8134    1.0000 </r>
       <r>    0.8330    1.0000 </r>
       <r>    0.9384    1.0000 </r>
       <r>    0.9873    1.0000 </r>
       <r>    1.0613    1.0000 </r>
       <r>    1.1037    1.0000 </r>
       <r>    1.1817    1.0000 </r>
       <r>    1.2159    1.0000 </r>
       <r>    1.2334    1.0000 </r>
       <r>    1.3731    1.0000 </r>
       <r>    1.4322    1.0000 </r>
       <r>    1.4887    1.0000 </r>
       <r>    1.6050    1.0000 </r>
       <r>    1.7727    1.0000 </r>
       <r>    1.8256    1.0000 </r>
       <r>    1.8784    1.0000 </r>
       <r>    1.9874    1.0000 </r>
       <r>    2.1888    1.0000 </r>
       <r>    2.4306    1.0000 </r>
       <r>    2.5114    0.9755 </r>
       <r>    2.9945    0.0000 </r>
       <r>    3.1733    0.0000 </r>
       <r>    3.9546    0.0000 </r>
       <r>    4.8182    0.0000 </r>
       <r>    5.6424    0.0000 </r>
       <r>    6.3026    0.0000 </r>
       <r>    7.1025    0.0000 </r>
       <r>    7.4678    0.0000 </r>
       <r>    8.0563    0.0000 </r>
       <r>    8.2377    0.0000 </r>
       <r>    8.3807    0.0000 </r>
       <r>    9.1638    0.0000 </r>
       <r>    9.2536    0.0000 </r>
       <r>    9.6668    0.0000 </r>
       <r>    9.8359    0.0000 </r>
       <r>    9.8959    0.0000 </r>
       <r>   10.1681    0.0000 </r>
       <r>   10.3142    0.0000 </r>
       <r>   10.4003    0.0000 </r>
       <r>   10.4508    0.0000 </r>
       <r>   10.5744    0.0000 </r>
       <r>   10.6800    0.0000 </r>
       <r>   10.9047    0.0000 </r>
      </set>
      <set comment="kpoint 9">
       <r>  -32.2534    1.0000 </r>
       <r>  -30.6680    1.0000 </r>
       <r>  -30.6419    1.0000 </r>
       <r>  -30.5145    1.0000 </r>
       <r>  -14.9797    1.0000 </r>
       <r>  -14.7224    1.0000 </r>
       <r>  -14.4237    1.0000 </r>
       <r>  -14.2717    1.0000 </r>
       <r>  -14.1445    1.0000 </r>
       <r>  -14.0615    1.0000 </r>
       <r>  -13.9240    1.0000 </r>
       <r>  -13.8840    1.0000 </r>
       <r>  -13.7541    1.0000 </r>
       <r>  -13.6839    1.0000 </r>
       <r>  -13.6378    1.0000 </r>
       <r>  -13.5715    1.0000 </r>
       <r>  -12.7543    1.0000 </r>
       <r>  -12.7255    1.0000 </r>
       <r>  -12.6979    1.0000 </r>
       <r>  -12.6232    1.0000 </r>
       <r>  -12.5680    1.0000 </r>
       <r>  -12.5062    1.0000 </r>
       <r>  -12.4397    1.0000 </r>
       <r>  -12.3865    1.0000 </r>
       <r>  -12.2131    1.0000 </r>
       <r>   -3.0428    1.0000 </r>
       <r>   -3.0208    1.0000 </r>
       <r>   -2.8908    1.0000 </r>
       <r>   -2.7204    1.0000 </r>
       <r>   -2.5759    1.0000 </r>
       <r>   -2.3356    1.0000 </r>
       <r>   -2.3120    1.0000 </r>
       <r>   -2.1618    1.0000 </r>
       <r>   -2.0909    1.0000 </r>
       <r>   -1.9478    1.0000 </r>
       <r>   -1.8769    1.0000 </r>
       <r>   -1.8454    1.0000 </r>
       <r>   -1.7112    1.0000 </r>
       <r>   -1.5758    1.0000 </r>
       <r>   -1.5344    1.0000 </r>
       <r>   -1.4768    1.0000 </r>
       <r>   -1.4404    1.0000 </r>
       <r>   -1.3932    1.0000 </r>
       <r>   -1.0176    1.0000 </r>
       <r>   -0.9544    1.0000 </r>
       <r>   -0.6561    1.0000 </r>
       <r>   -0.2331    1.0000 </r>
       <r>    0.0175    1.0000 </r>
       <r>    0.6062    1.0000 </r>
       <r>    0.7912    1.0000 </r>
       <r>    0.9743    1.0000 </r>
       <r>    0.9836    1.0000 </r>
       <r>    1.1193    1.0000 </r>
       <r>    1.1815    1.0000 </r>
       <r>    1.2773    1.0000 </r>
       <r>    1.3090    1.0000 </r>
       <r>    1.3495    1.0000 </r>
       <r>    1.3671    1.0000 </r>
       <r>    1.4221    1.0000 </r>
       <r>    1.4333    1.0000 </r>
       <r>    1.5474    1.0000 </r>
       <r>    1.6970    1.0000 </r>
       <r>    1.8424    1.0000 </r>
       <r>    2.0974    1.0000 </r>
       <r>    2.1759    1.0000 </r>
       <r>    2.2932    1.0000 </r>
       <r>    2.3544    1.0000 </r>
       <r>    2.4599    0.9997 </r>
       <r>    2.6927    0.0008 </r>
       <r>    3.8732    0.0000 </r>
       <r>    3.9343    0.0000 </r>
       <r>    4.0498    0.0000 </r>
       <r>    4.3587    0.0000 </r>
       <r>    4.9861    0.0000 </r>
       <r>    5.5700    0.0000 </r>
       <r>    8.1745    0.0000 </r>
       <r>    8.2578    0.0000 </r>
       <r>    8.5275    0.0000 </r>
       <r>    8.5926    0.0000 </r>
       <r>    8.9384    0.0000 </r>
       <r>    9.1089    0.0000 </r>
       <r>    9.3552    0.0000 </r>
       <r>    9.4075    0.0000 </r>
       <r>    9.5260    0.0000 </r>
       <r>    9.8560    0.0000 </r>
       <r>    9.8966    0.0000 </r>
       <r>   10.1601    0.0000 </r>
       <r>   10.3814    0.0000 </r>
       <r>   10.5531    0.0000 </r>
       <r>   10.9116    0.0000 </r>
       <r>   11.1239    0.0000 </r>
       <r>   11.2236    0.0000 </r>
      </set>
     </set>
     <set comment="spin 2">
      <set comment="kpoint 1">
       <r>  -32.2746    1.0000 </r>
       <r>  -30.6936    1.0000 </r>
       <r>  -30.6661    1.0000 </r>
       <r>  -30.5399    1.0000 </r>
       <r>  -15.2210    1.0000 </r>
       <r>  -14.8588    1.0000 </r>
       <r>  -14.6230    1.0000 </r>
       <r>  -14.4734    1.0000 </r>
       <r>  -14.3195    1.0000 </r>
       <r>  -14.1739    1.0000 </r>
       <r>  -13.8092    1.0000 </r>
       <r>  -13.6280    1.0000 </r>
       <r>  -13.5833    1.0000 </r>
       <r>  -13.4585    1.0000 </r>
       <r>  -13.4196    1.0000 </r>
       <r>  -13.1952    1.0000 </r>
       <r>  -12.6406    1.0000 </r>
       <r>  -12.6305    1.0000 </r>
       <r>  -12.5882    1.0000 </r>
       <r>  -12.5465    1.0000 </r>
       <r>  -12.5084    1.0000 </r>
       <r>  -12.5019    1.0000 </r>
       <r>  -12.4498    1.0000 </r>
       <r>  -12.3897    1.0000 </r>
       <r>  -12.2184    1.0000 </r>
       <r>   -2.3296    1.0000 </r>
       <r>   -1.8918    1.0000 </r>
       <r>   -1.4250    1.0000 </r>
       <r>   -1.3630    1.0000 </r>
       <r>   -1.2044    1.0000 </r>
       <r>   -1.1933    1.0000 </r>
       <r>   -1.1366    1.0000 </r>
       <r>   -1.0960    1.0000 </r>
       <r>   -1.0146    1.0000 </r>
       <r>   -0.9618    1.0000 </r>
       <r>   -0.9499    1.0000 </r>
       <r>   -0.9308    1.0000 </r>
       <r>   -0.9292    1.0000 </r>
       <r>   -0.8445    1.0000 </r>
       <r>   -0.8130    1.0000 </r>
       <r>   -0.7446    1.0000 </r>
       <r>   -0.7417    1.0000 </r>
       <r>   -0.6605    1.0000 </r>
       <r>   -0.6383    1.0000 </r>
       <r>   -0.5670    1.0000 </r>
       <r>   -0.5322    1.0000 </r>
       <r>   -0.4940    1.0000 </r>
       <r>   -0.4882    1.0000 </r>
       <r>   -0.4801    1.0000 </r>
       <r>   -0.0872    1.0000 </r>
       <r>    0.0241    1.0000 </r>
       <r>    0.1465    1.0000 </r>
       <r>    0.3879    1.0000 </r>
       <r>    0.3936    1.0000 </r>
       <r>    0.4966    1.0000 </r>
       <r>    0.6221    1.0000 </r>
       <r>    0.6888    1.0000 </r>
       <r>    0.9756    1.0000 </r>
       <r>    1.5480    1.0000 </r>
       <r>    1.6482    1.0000 </r>
       <r>    1.6848    1.0000 </r>
       <r>    1.7437    1.0000 </r>
       <r>    1.7857    1.0000 </r>
       <r>    1.8691    1.0000 </r>
       <r>    1.9333    1.0000 </r>
       <r>    1.9492    1.0000 </r>
       <r>    2.0572    1.0000 </r>
       <r>    2.0579    1.0000 </r>
       <r>    2.1036    1.0000 </r>
       <r>    2.1643    1.0000 </r>
       <r>    2.2712    1.0000 </r>
       <r>    2.2805    1.0000 </r>
       <r>    2.8728    0.0000 </r>
       <r>    5.1976    0.0000 </r>
       <r>    5.3167    0.0000 </r>
       <r>    6.6721    0.0000 </r>
       <r>    7.4860    0.0000 </r>
       <r>    7.8718    0.0000 </r>
       <r>    8.0727    0.0000 </r>
       <r>    8.3747    0.0000 </r>
       <r>    8.4905    0.0000 </r>
       <r>    8.5574    0.0000 </r>
       <r>    8.7547    0.0000 </r>
       <r>    8.8533    0.0000 </r>
       <r>    9.1877    0.0000 </r>
       <r>    9.3837    0.0000 </r>
       <r>    9.5505    0.0000 </r>
       <r>    9.6935    0.0000 </r>
       <r>    9.9973    0.0000 </r>
       <r>   10.1183    0.0000 </r>
       <r>   10.3042    0.0000 </r>
       <r>   10.3650    0.0000 </r>
      </set>
      <set comment="kpoint 2">
       <r>  -32.2703    1.0000 </r>
       <r>  -30.6888    1.0000 </r>
       <r>  -30.6612    1.0000 </r>
       <r>  -30.5351    1.0000 </r>
       <r>  -15.1360    1.0000 </r>
       <r>  -14.9088    1.0000 </r>
       <r>  -14.5813    1.0000 </r>
       <r>  -14.5014    1.0000 </r>
       <r>  -14.3128    1.0000 </r>
       <r>  -14.1884    1.0000 </r>
       <r>  -13.8976    1.0000 </r>
       <r>  -13.7426    1.0000 </r>
       <r>  -13.6094    1.0000 </r>
       <r>  -13.5383    1.0000 </r>
       <r>  -13.4358    1.0000 </r>
       <r>  -13.2889    1.0000 </r>
       <r>  -12.6282    1.0000 </r>
       <r>  -12.6181    1.0000 </r>
       <r>  -12.6156    1.0000 </r>
       <r>  -12.5121    1.0000 </r>
       <r>  -12.4894    1.0000 </r>
       <r>  -12.3633    1.0000 </r>
       <r>  -12.3414    1.0000 </r>
       <r>  -12.2762    1.0000 </r>
       <r>  -12.2077    1.0000 </r>
       <r>   -2.3463    1.0000 </r>
       <r>   -1.9102    1.0000 </r>
       <r>   -1.7765    1.0000 </r>
       <r>   -1.6175    1.0000 </r>
       <r>   -1.5247    1.0000 </r>
       <r>   -1.4526    1.0000 </r>
       <r>   -1.3747    1.0000 </r>
       <r>   -1.3220    1.0000 </r>
       <r>   -1.2782    1.0000 </r>
       <r>   -1.2035    1.0000 </r>
       <r>   -1.1699    1.0000 </r>
       <r>   -1.0129    1.0000 </r>
       <r>   -0.9399    1.0000 </r>
       <r>   -0.8779    1.0000 </r>
       <r>   -0.7630    1.0000 </r>
       <r>   -0.6830    1.0000 </r>
       <r>   -0.6463    1.0000 </r>
       <r>   -0.6410    1.0000 </r>
       <r>   -0.6136    1.0000 </r>
       <r>   -0.5735    1.0000 </r>
       <r>   -0.5296    1.0000 </r>
       <r>   -0.5104    1.0000 </r>
       <r>   -0.4418    1.0000 </r>
       <r>   -0.4171    1.0000 </r>
       <r>   -0.1426    1.0000 </r>
       <r>    0.0879    1.0000 </r>
       <r>    0.2327    1.0000 </r>
       <r>    0.3726    1.0000 </r>
       <r>    0.5594    1.0000 </r>
       <r>    0.7099    1.0000 </r>
       <r>    0.8123    1.0000 </r>
       <r>    0.9332    1.0000 </r>
       <r>    1.0516    1.0000 </r>
       <r>    1.3177    1.0000 </r>
       <r>    1.4746    1.0000 </r>
       <r>    1.5377    1.0000 </r>
       <r>    1.6310    1.0000 </r>
       <r>    1.6644    1.0000 </r>
       <r>    1.7392    1.0000 </r>
       <r>    1.8607    1.0000 </r>
       <r>    1.8972    1.0000 </r>
       <r>    1.9854    1.0000 </r>
       <r>    2.0566    1.0000 </r>
       <r>    2.2059    1.0000 </r>
       <r>    2.2384    1.0000 </r>
       <r>    2.3066    1.0000 </r>
       <r>    2.7342    0.0000 </r>
       <r>    3.3096    0.0000 </r>
       <r>    5.6576    0.0000 </r>
       <r>    5.7046    0.0000 </r>
       <r>    6.6634    0.0000 </r>
       <r>    7.9741    0.0000 </r>
       <r>    8.0559    0.0000 </r>
       <r>    8.2791    0.0000 </r>
       <r>    8.3745    0.0000 </r>
       <r>    8.5431    0.0000 </r>
       <r>    8.7952    0.0000 </r>
       <r>    8.9008    0.0000 </r>
       <r>    9.0648    0.0000 </r>
       <r>    9.3791    0.0000 </r>
       <r>    9.6575    0.0000 </r>
       <r>    9.7125    0.0000 </r>
       <r>    9.9487    0.0000 </r>
       <r>   10.0354    0.0000 </r>
       <r>   10.1005    0.0000 </r>
       <r>   10.3267    0.0000 </r>
       <r>   10.7382    0.0000 </r>
      </set>
      <set comment="kpoint 3">
       <r>  -32.2634    1.0000 </r>
       <r>  -30.6810    1.0000 </r>
       <r>  -30.6535    1.0000 </r>
       <r>  -30.5273    1.0000 </r>
       <r>  -15.1648    1.0000 </r>
       <r>  -14.7757    1.0000 </r>
       <r>  -14.6510    1.0000 </r>
       <r>  -14.4607    1.0000 </r>
       <r>  -14.3018    1.0000 </r>
       <r>  -14.2020    1.0000 </r>
       <r>  -14.0604    1.0000 </r>
       <r>  -13.7730    1.0000 </r>
       <r>  -13.7014    1.0000 </r>
       <r>  -13.6293    1.0000 </r>
       <r>  -13.4754    1.0000 </r>
       <r>  -13.3448    1.0000 </r>
       <r>  -12.6662    1.0000 </r>
       <r>  -12.6079    1.0000 </r>
       <r>  -12.5979    1.0000 </r>
       <r>  -12.5937    1.0000 </r>
       <r>  -12.4689    1.0000 </r>
       <r>  -12.3546    1.0000 </r>
       <r>  -12.1588    1.0000 </r>
       <r>  -12.1236    1.0000 </r>
       <r>  -12.0024    1.0000 </r>
       <r>   -2.6151    1.0000 </r>
       <r>   -2.4941    1.0000 </r>
       <r>   -2.1962    1.0000 </r>
       <r>   -1.9626    1.0000 </r>
       <r>   -1.8714    1.0000 </r>
       <r>   -1.7339    1.0000 </r>
       <r>   -1.5017    1.0000 </r>
       <r>   -1.4998    1.0000 </r>
       <r>   -1.4567    1.0000 </r>
       <r>   -1.2659    1.0000 </r>
       <r>   -1.1874    1.0000 </r>
       <r>   -1.0434    1.0000 </r>
       <r>   -1.0267    1.0000 </r>
       <r>   -0.9025    1.0000 </r>
       <r>   -0.7866    1.0000 </r>
       <r>   -0.7582    1.0000 </r>
       <r>   -0.6610    1.0000 </r>
       <r>   -0.6598    1.0000 </r>
       <r>   -0.6142    1.0000 </r>
       <r>   -0.5458    1.0000 </r>
       <r>   -0.4164    1.0000 </r>
       <r>   -0.3672    1.0000 </r>
       <r>   -0.2790    1.0000 </r>
       <r>   -0.2384    1.0000 </r>
       <r>   -0.1436    1.0000 </r>
       <r>   -0.0686    1.0000 </r>
       <r>    0.0797    1.0000 </r>
       <r>    0.4079    1.0000 </r>
       <r>    0.7163    1.0000 </r>
       <r>    0.8508    1.0000 </r>
       <r>    0.9518    1.0000 </r>
       <r>    1.0022    1.0000 </r>
       <r>    1.0356    1.0000 </r>
       <r>    1.1691    1.0000 </r>
       <r>    1.2810    1.0000 </r>
       <r>    1.3802    1.0000 </r>
       <r>    1.4760    1.0000 </r>
       <r>    1.6230    1.0000 </r>
       <r>    1.6437    1.0000 </r>
       <r>    1.8113    1.0000 </r>
       <r>    1.8694    1.0000 </r>
       <r>    1.8921    1.0000 </r>
       <r>    1.9584    1.0000 </r>
       <r>    2.0556    1.0000 </r>
       <r>    2.4659    0.9994 </r>
       <r>    2.6702    0.0058 </r>
       <r>    3.4835    0.0000 </r>
       <r>    4.0757    0.0000 </r>
       <r>    5.3536    0.0000 </r>
       <r>    6.3193    0.0000 </r>
       <r>    6.6878    0.0000 </r>
       <r>    7.6548    0.0000 </r>
       <r>    7.8916    0.0000 </r>
       <r>    8.5154    0.0000 </r>
       <r>    8.6465    0.0000 </r>
       <r>    8.9418    0.0000 </r>
       <r>    9.2130    0.0000 </r>
       <r>    9.5989    0.0000 </r>
       <r>    9.6056    0.0000 </r>
       <r>    9.7175    0.0000 </r>
       <r>   10.1142    0.0000 </r>
       <r>   10.1323    0.0000 </r>
       <r>   10.2927    0.0000 </r>
       <r>   10.4720    0.0000 </r>
       <r>   10.7934    0.0000 </r>
       <r>   10.8251    0.0000 </r>
       <r>   11.0477    0.0000 </r>
      </set>
      <set comment="kpoint 4">
       <r>  -32.2703    1.0000 </r>
       <r>  -30.6889    1.0000 </r>
       <r>  -30.6613    1.0000 </r>
       <r>  -30.5351    1.0000 </r>
       <r>  -15.1381    1.0000 </r>
       <r>  -14.8109    1.0000 </r>
       <r>  -14.5540    1.0000 </r>
       <r>  -14.4047    1.0000 </r>
       <r>  -14.3840    1.0000 </r>
       <r>  -14.1670    1.0000 </r>
       <r>  -13.9127    1.0000 </r>
       <r>  -13.7724    1.0000 </r>
       <r>  -13.6289    1.0000 </r>
       <r>  -13.6016    1.0000 </r>
       <r>  -13.5226    1.0000 </r>
       <r>  -13.2462    1.0000 </r>
       <r>  -12.5845    1.0000 </r>
       <r>  -12.5338    1.0000 </r>
       <r>  -12.4957    1.0000 </r>
       <r>  -12.4802    1.0000 </r>
       <r>  -12.4525    1.0000 </r>
       <r>  -12.4339    1.0000 </r>
       <r>  -12.3769    1.0000 </r>
       <r>  -12.3377    1.0000 </r>
       <r>  -12.2313    1.0000 </r>
       <r>   -2.3875    1.0000 </r>
       <r>   -2.0769    1.0000 </r>
       <r>   -1.8590    1.0000 </r>
       <r>   -1.7488    1.0000 </r>
       <r>   -1.7146    1.0000 </r>
       <r>   -1.6898    1.0000 </r>
       <r>   -1.6536    1.0000 </r>
       <r>   -1.4368    1.0000 </r>
       <r>   -1.3876    1.0000 </r>
       <r>   -1.3256    1.0000 </r>
       <r>   -1.2749    1.0000 </r>
       <r>   -1.2719    1.0000 </r>
       <r>   -1.1413    1.0000 </r>
       <r>   -1.0829    1.0000 </r>
       <r>   -1.0149    1.0000 </r>
       <r>   -0.9976    1.0000 </r>
       <r>   -0.9801    1.0000 </r>
       <r>   -0.8143    1.0000 </r>
       <r>   -0.6700    1.0000 </r>
       <r>   -0.6196    1.0000 </r>
       <r>   -0.5695    1.0000 </r>
       <r>   -0.5008    1.0000 </r>
       <r>   -0.3449    1.0000 </r>
       <r>   -0.2584    1.0000 </r>
       <r>    0.4223    1.0000 </r>
       <r>    0.5344    1.0000 </r>
       <r>    0.5580    1.0000 </r>
       <r>    0.6189    1.0000 </r>
       <r>    0.7579    1.0000 </r>
       <r>    0.8608    1.0000 </r>
       <r>    0.8733    1.0000 </r>
       <r>    0.9841    1.0000 </r>
       <r>    1.1472    1.0000 </r>
       <r>    1.4477    1.0000 </r>
       <r>    1.5980    1.0000 </r>
       <r>    1.6508    1.0000 </r>
       <r>    1.6755    1.0000 </r>
       <r>    1.7259    1.0000 </r>
       <r>    1.7645    1.0000 </r>
       <r>    1.8027    1.0000 </r>
       <r>    1.8429    1.0000 </r>
       <r>    1.9542    1.0000 </r>
       <r>    2.1397    1.0000 </r>
       <r>    2.1861    1.0000 </r>
       <r>    2.4036    1.0000 </r>
       <r>    2.7842    0.0000 </r>
       <r>    3.0631    0.0000 </r>
       <r>    3.5416    0.0000 </r>
       <r>    5.5914    0.0000 </r>
       <r>    5.7255    0.0000 </r>
       <r>    6.9878    0.0000 </r>
       <r>    7.6040    0.0000 </r>
       <r>    7.9229    0.0000 </r>
       <r>    8.0904    0.0000 </r>
       <r>    8.3390    0.0000 </r>
       <r>    8.4575    0.0000 </r>
       <r>    8.8790    0.0000 </r>
       <r>    9.1059    0.0000 </r>
       <r>    9.1373    0.0000 </r>
       <r>    9.3364    0.0000 </r>
       <r>    9.6620    0.0000 </r>
       <r>    9.8535    0.0000 </r>
       <r>    9.9858    0.0000 </r>
       <r>   10.1381    0.0000 </r>
       <r>   10.2401    0.0000 </r>
       <r>   10.3513    0.0000 </r>
       <r>   10.4175    0.0000 </r>
      </set>
      <set comment="kpoint 5">
       <r>  -32.2660    1.0000 </r>
       <r>  -30.6842    1.0000 </r>
       <r>  -30.6566    1.0000 </r>
       <r>  -30.5305    1.0000 </r>
       <r>  -15.0600    1.0000 </r>
       <r>  -14.8473    1.0000 </r>
       <r>  -14.4979    1.0000 </r>
       <r>  -14.4260    1.0000 </r>
       <r>  -14.4051    1.0000 </r>
       <r>  -14.1477    1.0000 </r>
       <r>  -13.8999    1.0000 </r>
       <r>  -13.7741    1.0000 </r>
       <r>  -13.6638    1.0000 </r>
       <r>  -13.5613    1.0000 </r>
       <r>  -13.5192    1.0000 </r>
       <r>  -13.3964    1.0000 </r>
       <r>  -12.6422    1.0000 </r>
       <r>  -12.5969    1.0000 </r>
       <r>  -12.5797    1.0000 </r>
       <r>  -12.5057    1.0000 </r>
       <r>  -12.4469    1.0000 </r>
       <r>  -12.3565    1.0000 </r>
       <r>  -12.3257    1.0000 </r>
       <r>  -12.2713    1.0000 </r>
       <r>  -12.2003    1.0000 </r>
       <r>   -2.3921    1.0000 </r>
       <r>   -2.0682    1.0000 </r>
       <r>   -1.9078    1.0000 </r>
       <r>   -1.8428    1.0000 </r>
       <r>   -1.7256    1.0000 </r>
       <r>   -1.7056    1.0000 </r>
       <r>   -1.6729    1.0000 </r>
       <r>   -1.6315    1.0000 </r>
       <r>   -1.5726    1.0000 </r>
       <r>   -1.5654    1.0000 </r>
       <r>   -1.4471    1.0000 </r>
       <r>   -1.3416    1.0000 </r>
       <r>   -1.3024    1.0000 </r>
       <r>   -1.2826    1.0000 </r>
       <r>   -1.1571    1.0000 </r>
       <r>   -1.1203    1.0000 </r>
       <r>   -1.0864    1.0000 </r>
       <r>   -1.0596    1.0000 </r>
       <r>   -0.9684    1.0000 </r>
       <r>   -0.8940    1.0000 </r>
       <r>   -0.6002    1.0000 </r>
       <r>   -0.4556    1.0000 </r>
       <r>   -0.3395    1.0000 </r>
       <r>    0.0079    1.0000 </r>
       <r>    0.4295    1.0000 </r>
       <r>    0.5027    1.0000 </r>
       <r>    0.6486    1.0000 </r>
       <r>    0.8124    1.0000 </r>
       <r>    1.0111    1.0000 </r>
       <r>    1.0546    1.0000 </r>
       <r>    1.1539    1.0000 </r>
       <r>    1.1931    1.0000 </r>
       <r>    1.2461    1.0000 </r>
       <r>    1.2569    1.0000 </r>
       <r>    1.3999    1.0000 </r>
       <r>    1.4318    1.0000 </r>
       <r>    1.4742    1.0000 </r>
       <r>    1.5375    1.0000 </r>
       <r>    1.7629    1.0000 </r>
       <r>    1.8556    1.0000 </r>
       <r>    2.0014    1.0000 </r>
       <r>    2.2233    1.0000 </r>
       <r>    2.3154    1.0000 </r>
       <r>    2.6554    0.0178 </r>
       <r>    2.7700    0.0000 </r>
       <r>    2.8793    0.0000 </r>
       <r>    3.1650    0.0000 </r>
       <r>    3.7241    0.0000 </r>
       <r>    5.8067    0.0000 </r>
       <r>    5.9238    0.0000 </r>
       <r>    6.9248    0.0000 </r>
       <r>    7.5036    0.0000 </r>
       <r>    7.8782    0.0000 </r>
       <r>    8.2952    0.0000 </r>
       <r>    8.5034    0.0000 </r>
       <r>    8.6872    0.0000 </r>
       <r>    8.7754    0.0000 </r>
       <r>    9.1554    0.0000 </r>
       <r>    9.3482    0.0000 </r>
       <r>    9.5204    0.0000 </r>
       <r>    9.7757    0.0000 </r>
       <r>    9.9188    0.0000 </r>
       <r>   10.1043    0.0000 </r>
       <r>   10.1751    0.0000 </r>
       <r>   10.4418    0.0000 </r>
       <r>   10.4940    0.0000 </r>
       <r>   10.6826    0.0000 </r>
      </set>
      <set comment="kpoint 6">
       <r>  -32.2592    1.0000 </r>
       <r>  -30.6766    1.0000 </r>
       <r>  -30.6491    1.0000 </r>
       <r>  -30.5229    1.0000 </r>
       <r>  -15.0929    1.0000 </r>
       <r>  -14.6957    1.0000 </r>
       <r>  -14.5511    1.0000 </r>
       <r>  -14.4644    1.0000 </r>
       <r>  -14.2871    1.0000 </r>
       <r>  -14.1262    1.0000 </r>
       <r>  -13.9732    1.0000 </r>
       <r>  -13.7657    1.0000 </r>
       <r>  -13.6646    1.0000 </r>
       <r>  -13.6257    1.0000 </r>
       <r>  -13.4909    1.0000 </r>
       <r>  -13.4143    1.0000 </r>
       <r>  -12.7094    1.0000 </r>
       <r>  -12.6996    1.0000 </r>
       <r>  -12.6287    1.0000 </r>
       <r>  -12.5795    1.0000 </r>
       <r>  -12.5382    1.0000 </r>
       <r>  -12.3252    1.0000 </r>
       <r>  -12.2665    1.0000 </r>
       <r>  -12.2241    1.0000 </r>
       <r>  -12.0827    1.0000 </r>
       <r>   -2.6732    1.0000 </r>
       <r>   -2.5211    1.0000 </r>
       <r>   -2.2109    1.0000 </r>
       <r>   -2.0265    1.0000 </r>
       <r>   -1.8859    1.0000 </r>
       <r>   -1.8299    1.0000 </r>
       <r>   -1.7759    1.0000 </r>
       <r>   -1.7483    1.0000 </r>
       <r>   -1.7053    1.0000 </r>
       <r>   -1.6642    1.0000 </r>
       <r>   -1.6193    1.0000 </r>
       <r>   -1.5653    1.0000 </r>
       <r>   -1.5221    1.0000 </r>
[...]
       <r>     2.3979     5.4887    68.4571 </r>
       <r>     2.5574     4.5204    69.1782 </r>
       <r>     2.7170     5.3513    70.0318 </r>
       <r>     2.8765     1.5460    70.2784 </r>
       <r>     3.0360     2.0915    70.6120 </r>
       <r>     3.1955     3.2596    71.1320 </r>
       <r>     3.3550     0.6776    71.2401 </r>
       <r>     3.5146     1.1464    71.4230 </r>
       <r>     3.6741     0.6252    71.5227 </r>
       <r>     3.8336     0.8696    71.6614 </r>
       <r>     3.9931     3.2991    72.1877 </r>
       <r>     4.1526     1.5909    72.4414 </r>
       <r>     4.3121     1.0750    72.6129 </r>
       <r>     4.4717     0.9214    72.7599 </r>
       <r>     4.6312     0.0007    72.7600 </r>
       <r>     4.7907     0.2195    72.7950 </r>
       <r>     4.9502     1.4105    73.0200 </r>
       <r>     5.1097     0.9516    73.1718 </r>
       <r>     5.2693     1.2460    73.3706 </r>
       <r>     5.4288     0.6850    73.4798 </r>
       <r>     5.5883     1.1021    73.6556 </r>
       <r>     5.7478     2.9388    74.1244 </r>
       <r>     5.9073     1.4438    74.3547 </r>
       <r>     6.0669     0.9442    74.5054 </r>
       <r>     6.2264     0.6135    74.6032 </r>
       <r>     6.3859     1.8588    74.8997 </r>
       <r>     6.5454     0.1280    74.9202 </r>
       <r>     6.7049     1.5145    75.1618 </r>
       <r>     6.8644     0.3335    75.2150 </r>
       <r>     7.0240     2.4844    75.6113 </r>
       <r>     7.1835     1.9249    75.9183 </r>
       <r>     7.3430     0.4898    75.9965 </r>
       <r>     7.5025     1.6196    76.2548 </r>
       <r>     7.6620     2.4509    76.6458 </r>
       <r>     7.8216     0.3462    76.7010 </r>
       <r>     7.9811     2.9666    77.1742 </r>
       <r>     8.1406     2.5461    77.5804 </r>
       <r>     8.3001     4.7934    78.3450 </r>
       <r>     8.4596     4.8598    79.1202 </r>
       <r>     8.6191     4.4660    79.8327 </r>
       <r>     8.7787     3.3370    80.3650 </r>
       <r>     8.9382     2.9143    80.8299 </r>
       <r>     9.0977     2.7360    81.2663 </r>
       <r>     9.2572     5.3049    82.1125 </r>
       <r>     9.4167     5.4196    82.9771 </r>
       <r>     9.5763     4.7908    83.7413 </r>
       <r>     9.7358     4.3246    84.4311 </r>
       <r>     9.8953     6.9231    85.5355 </r>
       <r>    10.0548     5.0585    86.3424 </r>
       <r>    10.2143     7.1840    87.4884 </r>
       <r>    10.3738     5.5384    88.3719 </r>
       <r>    10.5334     8.4079    89.7131 </r>
       <r>    10.6929     5.6970    90.6218 </r>
       <r>    10.8524     3.6812    91.2091 </r>
       <r>    11.0119     2.4657    91.6024 </r>
       <r>    11.1714     1.4702    91.8369 </r>
       <r>    11.3310     1.0212    91.9998 </r>
       <r>    11.4905     0.0012    92.0000 </r>
       <r>    11.6500     0.0000    92.0000 </r>
       <r>    11.8095     0.0000    92.0000 </r>
       <r>    11.9690     0.0000    92.0000 </r>
       <r>    12.1286     0.0000    92.0000 </r>
       <r>    12.2881     0.0000    92.0000 </r>
       <r>    12.4476     0.0000    92.0000 </r>
       <r>    12.6071     0.0000    92.0000 </r>
       <r>    12.7666     0.0000    92.0000 </r>
       <r>    12.9261     0.0000    92.0000 </r>
       <r>    13.0857     0.0000    92.0000 </r>
       <r>    13.2452     0.0000    92.0000 </r>
       <r>    13.4047     0.0000    92.0000 </r>
      </set>
      <set comment="spin 2">
       <r>   -34.4508     0.0000     0.0000 </r>
       <r>   -34.2913     0.0000     0.0000 </r>
       <r>   -34.1318     0.0000     0.0000 </r>
       <r>   -33.9723     0.0000     0.0000 </r>
       <r>   -33.8127     0.0000     0.0000 </r>
       <r>   -33.6532     0.0000     0.0000 </r>
       <r>   -33.4937     0.0000     0.0000 </r>
       <r>   -33.3342     0.0000     0.0000 </r>
       <r>   -33.1747     0.0000     0.0000 </r>
       <r>   -33.0152     0.0000     0.0000 </r>
       <r>   -32.8556     0.0000     0.0000 </r>
       <r>   -32.6961     0.0000     0.0000 </r>
       <r>   -32.5366     0.0000     0.0000 </r>
       <r>   -32.3771     0.0043     0.0007 </r>
       <r>   -32.2176     5.5968     0.8935 </r>
       <r>   -32.0580     0.6678     1.0000 </r>
       <r>   -31.8985     0.0000     1.0000 </r>
       <r>   -31.7390     0.0000     1.0000 </r>
       <r>   -31.5795     0.0000     1.0000 </r>
       <r>   -31.4200     0.0000     1.0000 </r>
       <r>   -31.2605     0.0000     1.0000 </r>
       <r>   -31.1009     0.0000     1.0000 </r>
       <r>   -30.9414     0.0000     1.0000 </r>
       <r>   -30.7819     0.0156     1.0025 </r>
       <r>   -30.6224    10.9431     2.7481 </r>
       <r>   -30.4629     7.6045     3.9612 </r>
       <r>   -30.3033     0.2434     4.0000 </r>
       <r>   -30.1438     0.0000     4.0000 </r>
       <r>   -29.9843     0.0000     4.0000 </r>
       <r>   -29.8248     0.0000     4.0000 </r>
       <r>   -29.6653     0.0000     4.0000 </r>
       <r>   -29.5058     0.0000     4.0000 </r>
       <r>   -29.3462     0.0000     4.0000 </r>
       <r>   -29.1867     0.0000     4.0000 </r>
       <r>   -29.0272     0.0000     4.0000 </r>
       <r>   -28.8677     0.0000     4.0000 </r>
       <r>   -28.7082     0.0000     4.0000 </r>
       <r>   -28.5486     0.0000     4.0000 </r>
       <r>   -28.3891     0.0000     4.0000 </r>
       <r>   -28.2296     0.0000     4.0000 </r>
       <r>   -28.0701     0.0000     4.0000 </r>
       <r>   -27.9106     0.0000     4.0000 </r>
       <r>   -27.7510     0.0000     4.0000 </r>
       <r>   -27.5915     0.0000     4.0000 </r>
       <r>   -27.4320     0.0000     4.0000 </r>
       <r>   -27.2725     0.0000     4.0000 </r>
       <r>   -27.1130     0.0000     4.0000 </r>
       <r>   -26.9535     0.0000     4.0000 </r>
       <r>   -26.7939     0.0000     4.0000 </r>
       <r>   -26.6344     0.0000     4.0000 </r>
       <r>   -26.4749     0.0000     4.0000 </r>
       <r>   -26.3154     0.0000     4.0000 </r>
       <r>   -26.1559     0.0000     4.0000 </r>
       <r>   -25.9963     0.0000     4.0000 </r>
       <r>   -25.8368     0.0000     4.0000 </r>
       <r>   -25.6773     0.0000     4.0000 </r>
       <r>   -25.5178     0.0000     4.0000 </r>
       <r>   -25.3583     0.0000     4.0000 </r>
       <r>   -25.1988     0.0000     4.0000 </r>
       <r>   -25.0392     0.0000     4.0000 </r>
       <r>   -24.8797     0.0000     4.0000 </r>
       <r>   -24.7202     0.0000     4.0000 </r>
       <r>   -24.5607     0.0000     4.0000 </r>
       <r>   -24.4012     0.0000     4.0000 </r>
       <r>   -24.2416     0.0000     4.0000 </r>
       <r>   -24.0821     0.0000     4.0000 </r>
       <r>   -23.9226     0.0000     4.0000 </r>
       <r>   -23.7631     0.0000     4.0000 </r>
       <r>   -23.6036     0.0000     4.0000 </r>
       <r>   -23.4441     0.0000     4.0000 </r>
       <r>   -23.2845     0.0000     4.0000 </r>
       <r>   -23.1250     0.0000     4.0000 </r>
       <r>   -22.9655     0.0000     4.0000 </r>
       <r>   -22.8060     0.0000     4.0000 </r>
       <r>   -22.6465     0.0000     4.0000 </r>
       <r>   -22.4869     0.0000     4.0000 </r>
       <r>   -22.3274     0.0000     4.0000 </r>
       <r>   -22.1679     0.0000     4.0000 </r>
       <r>   -22.0084     0.0000     4.0000 </r>
       <r>   -21.8489     0.0000     4.0000 </r>
       <r>   -21.6894     0.0000     4.0000 </r>
       <r>   -21.5298     0.0000     4.0000 </r>
       <r>   -21.3703     0.0000     4.0000 </r>
       <r>   -21.2108     0.0000     4.0000 </r>
       <r>   -21.0513     0.0000     4.0000 </r>
       <r>   -20.8918     0.0000     4.0000 </r>
       <r>   -20.7322     0.0000     4.0000 </r>
       <r>   -20.5727     0.0000     4.0000 </r>
       <r>   -20.4132     0.0000     4.0000 </r>
       <r>   -20.2537     0.0000     4.0000 </r>
       <r>   -20.0942     0.0000     4.0000 </r>
       <r>   -19.9346     0.0000     4.0000 </r>
       <r>   -19.7751     0.0000     4.0000 </r>
       <r>   -19.6156     0.0000     4.0000 </r>
       <r>   -19.4561     0.0000     4.0000 </r>
       <r>   -19.2966     0.0000     4.0000 </r>
       <r>   -19.1371     0.0000     4.0000 </r>
       <r>   -18.9775     0.0000     4.0000 </r>
       <r>   -18.8180     0.0000     4.0000 </r>
       <r>   -18.6585     0.0000     4.0000 </r>
       <r>   -18.4990     0.0000     4.0000 </r>
       <r>   -18.3395     0.0000     4.0000 </r>
       <r>   -18.1799     0.0000     4.0000 </r>
       <r>   -18.0204     0.0000     4.0000 </r>
       <r>   -17.8609     0.0000     4.0000 </r>
       <r>   -17.7014     0.0000     4.0000 </r>
       <r>   -17.5419     0.0000     4.0000 </r>
       <r>   -17.3824     0.0000     4.0000 </r>
       <r>   -17.2228     0.0000     4.0000 </r>
       <r>   -17.0633     0.0000     4.0000 </r>
       <r>   -16.9038     0.0000     4.0000 </r>
       <r>   -16.7443     0.0000     4.0000 </r>
       <r>   -16.5848     0.0000     4.0000 </r>
       <r>   -16.4252     0.0000     4.0000 </r>
       <r>   -16.2657     0.0000     4.0000 </r>
       <r>   -16.1062     0.0000     4.0000 </r>
       <r>   -15.9467     0.0000     4.0000 </r>
       <r>   -15.7872     0.0000     4.0000 </r>
       <r>   -15.6277     0.0000     4.0000 </r>
       <r>   -15.4681     0.0000     4.0000 </r>
       <r>   -15.3086     0.0017     4.0003 </r>
       <r>   -15.1491     1.0102     4.1614 </r>
       <r>   -14.9896     3.2743     4.6837 </r>
       <r>   -14.8301     3.9843     5.3193 </r>
       <r>   -14.6705     4.1113     5.9751 </r>
       <r>   -14.5110     3.7572     6.5745 </r>
       <r>   -14.3515     8.6764     7.9585 </r>
       <r>   -14.1920     6.2859     8.9612 </r>
       <r>   -14.0325     6.7012    10.0302 </r>
       <r>   -13.8729     6.4396    11.0574 </r>
       <r>   -13.7134     7.4340    12.2433 </r>
       <r>   -13.5539    12.0105    14.1592 </r>
       <r>   -13.3944     7.4883    15.3537 </r>
       <r>   -13.2349     3.5932    15.9269 </r>
       <r>   -13.0754     0.4582    16.0000 </r>
       <r>   -12.9158     0.0001    16.0000 </r>
       <r>   -12.7563     0.8401    16.1340 </r>
       <r>   -12.5968    12.5444    18.1351 </r>
       <r>   -12.4373    17.5097    20.9282 </r>
       <r>   -12.2778    14.3275    23.2137 </r>
       <r>   -12.1182     9.3373    24.7032 </r>
       <r>   -11.9587     1.8063    24.9913 </r>
       <r>   -11.7992     0.0545    25.0000 </r>
       <r>   -11.6397     0.0000    25.0000 </r>
       <r>   -11.4802     0.0000    25.0000 </r>
       <r>   -11.3207     0.0000    25.0000 </r>
       <r>   -11.1611     0.0000    25.0000 </r>
       <r>   -11.0016     0.0000    25.0000 </r>
       <r>   -10.8421     0.0000    25.0000 </r>
       <r>   -10.6826     0.0000    25.0000 </r>
       <r>   -10.5231     0.0000    25.0000 </r>
       <r>   -10.3635     0.0000    25.0000 </r>
       <r>   -10.2040     0.0000    25.0000 </r>
       <r>   -10.0445     0.0000    25.0000 </r>
       <r>    -9.8850     0.0000    25.0000 </r>
       <r>    -9.7255     0.0000    25.0000 </r>
       <r>    -9.5660     0.0000    25.0000 </r>
       <r>    -9.4064     0.0000    25.0000 </r>
       <r>    -9.2469     0.0000    25.0000 </r>
       <r>    -9.0874     0.0000    25.0000 </r>
       <r>    -8.9279     0.0000    25.0000 </r>
       <r>    -8.7684     0.0000    25.0000 </r>
       <r>    -8.6088     0.0000    25.0000 </r>
       <r>    -8.4493     0.0000    25.0000 </r>
       <r>    -8.2898     0.0000    25.0000 </r>
       <r>    -8.1303     0.0000    25.0000 </r>
       <r>    -7.9708     0.0000    25.0000 </r>
       <r>    -7.8112     0.0000    25.0000 </r>
       <r>    -7.6517     0.0000    25.0000 </r>
       <r>    -7.4922     0.0000    25.0000 </r>
       <r>    -7.3327     0.0000    25.0000 </r>
       <r>    -7.1732     0.0000    25.0000 </r>
       <r>    -7.0137     0.0000    25.0000 </r>
       <r>    -6.8541     0.0000    25.0000 </r>
       <r>    -6.6946     0.0000    25.0000 </r>
       <r>    -6.5351     0.0000    25.0000 </r>
       <r>    -6.3756     0.0000    25.0000 </r>
       <r>    -6.2161     0.0000    25.0000 </r>
       <r>    -6.0565     0.0000    25.0000 </r>
       <r>    -5.8970     0.0000    25.0000 </r>
       <r>    -5.7375     0.0000    25.0000 </r>
       <r>    -5.5780     0.0000    25.0000 </r>
       <r>    -5.4185     0.0000    25.0000 </r>
       <r>    -5.2590     0.0000    25.0000 </r>
       <r>    -5.0994     0.0000    25.0000 </r>
       <r>    -4.9399     0.0000    25.0000 </r>
       <r>    -4.7804     0.0000    25.0000 </r>
       <r>    -4.6209     0.0000    25.0000 </r>
       <r>    -4.4614     0.0000    25.0000 </r>
       <r>    -4.3018     0.0000    25.0000 </r>
       <r>    -4.1423     0.0000    25.0000 </r>
       <r>    -3.9828     0.0000    25.0000 </r>
       <r>    -3.8233     0.0000    25.0000 </r>
       <r>    -3.6638     0.0000    25.0000 </r>
       <r>    -3.5043     0.0000    25.0000 </r>
       <r>    -3.3447     0.0000    25.0000 </r>
       <r>    -3.1852     0.0000    25.0000 </r>
       <r>    -3.0257     1.4815    25.2363 </r>
       <r>    -2.8662     2.1679    25.5822 </r>
       <r>    -2.7067     2.5512    25.9891 </r>
       <r>    -2.5471     4.3799    26.6878 </r>
       <r>    -2.3876     3.3356    27.2199 </r>
       <r>    -2.2281     4.0977    27.8736 </r>
       <r>    -2.0686     5.6880    28.7809 </r>
       <r>    -1.9091     5.6890    29.6884 </r>
       <r>    -1.7495    13.0085    31.7635 </r>
       <r>    -1.5900    14.9357    34.1460 </r>
       <r>    -1.4305    14.4474    36.4506 </r>
       <r>    -1.2710    14.0296    38.6886 </r>
       <r>    -1.1115    10.4217    40.3511 </r>
       <r>    -0.9520    12.1832    42.2945 </r>
       <r>    -0.7924     7.8296    43.5435 </r>
       <r>    -0.6329     7.1143    44.6784 </r>
       <r>    -0.4734     9.6920    46.2244 </r>
       <r>    -0.3139     5.9293    47.1702 </r>
       <r>    -0.1544     5.1239    47.9876 </r>
       <r>     0.0052     3.5826    48.5591 </r>
       <r>     0.1647     3.4621    49.1114 </r>
       <r>     0.3242     2.1084    49.4477 </r>
       <r>     0.4837     5.3167    50.2958 </r>
       <r>     0.6432     5.1941    51.1244 </r>
       <r>     0.8027     4.7185    51.8770 </r>
       <r>     0.9623     8.4544    53.2257 </r>
       <r>     1.1218    11.9531    55.1324 </r>
       <r>     1.2813    13.7457    57.3251 </r>
       <r>     1.4408    13.1608    59.4245 </r>
       <r>     1.6003    12.1290    61.3593 </r>
       <r>     1.7599    10.2118    62.9883 </r>
       <r>     1.9194    10.9073    64.7282 </r>
       <r>     2.0789     6.3864    65.7469 </r>
       <r>     2.2384     7.6571    66.9684 </r>
       <r>     2.3979     6.6495    68.0291 </r>
       <r>     2.5574     4.1643    68.6934 </r>
       <r>     2.7170     3.1129    69.1899 </r>
       <r>     2.8765     5.5565    70.0763 </r>
       <r>     3.0360     1.6464    70.3389 </r>
       <r>     3.1955     2.9503    70.8096 </r>
       <r>     3.3550     1.9785    71.1252 </r>
       <r>     3.5146     0.7360    71.2426 </r>
       <r>     3.6741     0.5646    71.3326 </r>
       <r>     3.8336     1.8070    71.6209 </r>
       <r>     3.9931     0.4005    71.6848 </r>
       <r>     4.1526     3.7754    72.2870 </r>
       <r>     4.3121     1.9096    72.5916 </r>
       <r>     4.4717     1.0483    72.7588 </r>
       <r>     4.6312     0.0073    72.7600 </r>
       <r>     4.7907     0.0689    72.7710 </r>
       <r>     4.9502     1.3553    72.9872 </r>
       <r>     5.1097     1.0966    73.1621 </r>
       <r>     5.2693     1.2530    73.3620 </r>
       <r>     5.4288     0.7311    73.4786 </r>
       <r>     5.5883     0.8865    73.6200 </r>
       <r>     5.7478     2.9822    74.0958 </r>
       <r>     5.9073     1.4741    74.3309 </r>
       <r>     6.0669     1.0042    74.4911 </r>
       <r>     6.2264     0.6939    74.6018 </r>
       <r>     6.3859     1.8127    74.8910 </r>
       <r>     6.5454     0.1824    74.9201 </r>
       <r>     6.7049     1.3896    75.1417 </r>
       <r>     6.8644     0.4094    75.2070 </r>
       <r>     7.0240     2.3250    75.5779 </r>
       <r>     7.1835     2.1258    75.9170 </r>
       <r>     7.3430     0.4790    75.9934 </r>
       <r>     7.5025     1.4837    76.2301 </r>
       <r>     7.6620     2.5105    76.6306 </r>
       <r>     7.8216     0.3985    76.6941 </r>
       <r>     7.9811     2.9294    77.1614 </r>
       <r>     8.1406     2.5583    77.5695 </r>
       <r>     8.3001     4.5771    78.2997 </r>
       <r>     8.4596     5.0392    79.1035 </r>
       <r>     8.6191     4.4299    79.8102 </r>
       <r>     8.7787     3.2900    80.3350 </r>
       <r>     8.9382     3.0128    80.8156 </r>
       <r>     9.0977     2.5909    81.2288 </r>
       <r>     9.2572     5.4620    82.1001 </r>
       <r>     9.4167     5.2879    82.9437 </r>
       <r>     9.5763     4.8492    83.7172 </r>
       <r>     9.7358     4.2175    84.3900 </r>
       <r>     9.8953     6.4605    85.4205 </r>
       <r>    10.0548     5.6039    86.3145 </r>
       <r>    10.2143     7.0304    87.4359 </r>
       <r>    10.3738     5.3078    88.2826 </r>
       <r>    10.5334     8.4832    89.6358 </r>
       <r>    10.6929     6.0068    90.5940 </r>
       <r>    10.8524     3.7416    91.1909 </r>
       <r>    11.0119     2.5356    91.5954 </r>
       <r>    11.1714     1.4582    91.8280 </r>
       <r>    11.3310     1.0763    91.9997 </r>
       <r>    11.4905     0.0021    92.0000 </r>
       <r>    11.6500     0.0000    92.0000 </r>
       <r>    11.8095     0.0000    92.0000 </r>
       <r>    11.9690     0.0000    92.0000 </r>
       <r>    12.1286     0.0000    92.0000 </r>
       <r>    12.2881     0.0000    92.0000 </r>
       <r>    12.4476     0.0000    92.0000 </r>
       <r>    12.6071     0.0000    92.0000 </r>
       <r>    12.7666     0.0000    92.0000 </r>
       <r>    12.9261     0.0000    92.0000 </r>
       <r>    13.0857     0.0000    92.0000 </r>
       <r>    13.2452     0.0000    92.0000 </r>
       <r>    13.4047     0.0000    92.0000 </r>
      </set>
     </set>
    </array>
   </total>
  </dos>
 </calculation>
 <structure name="finalpos" >
  <crystal>
   <varray name="basis" >
    <v>       4.00000000       0.00000000       0.00000000 </v>
    <v>       0.00000000       4.00000000       0.00000000 </v>
    <v>       0.00000000       0.00000000      16.00000000 </v>
   </varray>
   <i name="volume">    256.00000000 </i>
   <varray name="rec_basis" >
    <v>       0.25000000       0.00000000       0.00000000 </v>
    <v>       0.00000000       0.25000000       0.00000000 </v>
    <v>       0.00000000       0.00000000       0.06250000 </v>
   </varray>
  </crystal>
  <varray name="positions" >
   <v>       0.00000000       0.00000000       0.00000000 </v>
   <v>       0.00000000       0.00000000       0.25000000 </v>
   <v>       0.00000000       0.00000000       0.50000000 </v>
   <v>       0.00000000       0.00000000       0.75000000 </v>
   <v>       0.50000000       0.50000000       0.12500000 </v>
   <v>       0.50000000       0.50000000       0.37500000 </v>
   <v>       0.50000000       0.50000000       0.62500000 </v>
   <v>       0.50000000       0.50000000       0.87500000 </v>
   <v>       0.50000000       0.50000000       0.25000000 </v>
   <v>       0.50000000       0.50000000       0.50000000 </v>
   <v>       0.50000000       0.50000000       0.75000000 </v>
   <v>       0.00000000       0.50000000       0.37500000 </v>
   <v>       0.00000000       0.50000000       0.87500000 </v>
   <v>       0.50000000       0.00000000       0.12500000 </v>
   <v>       0.50000000       0.00000000       0.37500000 </v>
   <v>       0.50000000       0.00000000       0.62500000 </v>
   <v>       0.50000000       0.00000000       0.87500000 </v>
  </varray>
 </structure>
</modeling>
