<?xml version="1.0" encoding="ISO-8859-1"?>
<modeling>
 <generator>
  <i name="program" type="string">vasp </i>
  <i name="version" type="string">5.3.5  </i>
  <i name="subversion" type="string">31Mar14 (build Jun 20 2014 13:15:13) complex                          parallel </i>
  <i name="platform" type="string">LinuxIFC </i>
  <i name="date" type="string">2025 11 28 </i>
  <i name="time" type="string">01:43:48 </i>
 </generator>
 <incar>
  <i type="string" name="PREC">accurate</i>
  <i type="int" name="IALGO">    68</i>
  <i type="logical" name="ADDGRID"> T  </i>
  <i type="int" name="NELM">   200</i>
  <i type="int" name="NELMIN">     4</i>
  <i type="int" name="IBRION">     2</i>
  <i name="EDIFF">      0.00000100</i>
  <i name="EDIFFG">     -0.02000000</i>
  <i type="int" name="NSW">    30</i>
  <i type="int" name="ISIF">     3</i>
  <i name="ENCUT">    500.00000000</i>
  <i type="logical" name="LREAL"> F  </i>
  <i type="int" name="ISMEAR">     1</i>
  <i name="SIGMA">      0.30000000</i>
  <i type="logical" name="LWAVE"> F  </i>
  <i type="logical" name="LCHARG"> F  </i>
  <i type="int" name="NELM">   200</i>
 </incar>
 <kpoints>
  <generation param="Auto">
   <i name="subdivisionlength">     70.00000000 </i>
   <v type="int" name="divisions">      24       15       10 </v>
   <v name="usershift">      0.00000000       0.00000000       0.00000000 </v>
   <v name="genvec1">      0.04166667       0.00000000       0.00000000 </v>
   <v name="genvec2">      0.00000000       0.06666667       0.00000000 </v>
   <v name="genvec3">      0.00000000       0.00000000       0.10000000 </v>
   <v name="shift">      0.00000000       0.00000000       0.00000000 </v>
  </generation>
  <varray name="kpointlist" >
   <v>       0.00000000       0.00000000       0.00000000 </v>
   <v>       0.04166667       0.00000000       0.00000000 </v>
   <v>       0.08333333       0.00000000       0.00000000 </v>
   <v>       0.12500000       0.00000000       0.00000000 </v>
   <v>       0.16666667       0.00000000       0.00000000 </v>
   <v>       0.20833333       0.00000000       0.00000000 </v>
   <v>       0.25000000       0.00000000       0.00000000 </v>
   <v>       0.29166667       0.00000000       0.00000000 </v>
   <v>       0.33333333       0.00000000       0.00000000 </v>
   <v>       0.37500000       0.00000000       0.00000000 </v>
   <v>       0.41666667       0.00000000       0.00000000 </v>
   <v>       0.45833333       0.00000000       0.00000000 </v>
   <v>       0.50000000       0.00000000       0.00000000 </v>
   <v>       0.00000000       0.06666667       0.00000000 </v>
   <v>       0.04166667       0.06666667       0.00000000 </v>
   <v>       0.08333333       0.06666667       0.00000000 </v>
   <v>       0.12500000       0.06666667       0.00000000 </v>
   <v>       0.16666667       0.06666667       0.00000000 </v>
   <v>       0.20833333       0.06666667       0.00000000 </v>
   <v>       0.25000000       0.06666667       0.00000000 </v>
   <v>       0.29166667       0.06666667       0.00000000 </v>
   <v>       0.33333333       0.06666667       0.00000000 </v>
   <v>       0.37500000       0.06666667       0.00000000 </v>
   <v>       0.41666667       0.06666667       0.00000000 </v>
   <v>       0.45833333       0.06666667       0.00000000 </v>
   <v>       0.50000000       0.06666667       0.00000000 </v>
   <v>       0.00000000       0.13333333       0.00000000 </v>
   <v>       0.04166667       0.13333333       0.00000000 </v>
   <v>       0.08333333       0.13333333       0.00000000 </v>
   <v>       0.12500000       0.13333333       0.00000000 </v>
   <v>       0.16666667       0.13333333       0.00000000 </v>
   <v>       0.20833333       0.13333333       0.00000000 </v>
   <v>       0.25000000       0.13333333       0.00000000 </v>
   <v>       0.29166667       0.13333333       0.00000000 </v>
   <v>       0.33333333       0.13333333       0.00000000 </v>
   <v>       0.37500000       0.13333333       0.00000000 </v>
   <v>       0.41666667       0.13333333       0.00000000 </v>
   <v>       0.45833333       0.13333333       0.00000000 </v>
   <v>       0.50000000       0.13333333       0.00000000 </v>
   <v>       0.00000000       0.20000000       0.00000000 </v>
   <v>       0.04166667       0.20000000       0.00000000 </v>
   <v>       0.08333333       0.20000000       0.00000000 </v>
   <v>       0.12500000       0.20000000       0.00000000 </v>
   <v>       0.16666667       0.20000000       0.00000000 </v>
   <v>       0.20833333       0.20000000       0.00000000 </v>
   <v>       0.25000000       0.20000000       0.00000000 </v>
   <v>       0.29166667       0.20000000       0.00000000 </v>
   <v>       0.33333333       0.20000000       0.00000000 </v>
   <v>       0.37500000       0.20000000       0.00000000 </v>
   <v>       0.41666667       0.20000000       0.00000000 </v>
   <v>       0.45833333       0.20000000       0.00000000 </v>
   <v>       0.50000000       0.20000000       0.00000000 </v>
   <v>       0.00000000       0.26666667       0.00000000 </v>
   <v>       0.04166667       0.26666667       0.00000000 </v>
   <v>       0.08333333       0.26666667       0.00000000 </v>
   <v>       0.12500000       0.26666667       0.00000000 </v>
   <v>       0.16666667       0.26666667       0.00000000 </v>
   <v>       0.20833333       0.26666667       0.00000000 </v>
   <v>       0.25000000       0.26666667       0.00000000 </v>
   <v>       0.29166667       0.26666667       0.00000000 </v>
   <v>       0.33333333       0.26666667       0.00000000 </v>
   <v>       0.37500000       0.26666667       0.00000000 </v>
   <v>       0.41666667       0.26666667       0.00000000 </v>
   <v>       0.45833333       0.26666667       0.00000000 </v>
   <v>       0.50000000       0.26666667       0.00000000 </v>
   <v>       0.00000000       0.33333333       0.00000000 </v>
   <v>       0.04166667       0.33333333       0.00000000 </v>
   <v>       0.08333333       0.33333333       0.00000000 </v>
   <v>       0.12500000       0.33333333       0.00000000 </v>
   <v>       0.16666667       0.33333333       0.00000000 </v>
   <v>       0.20833333       0.33333333       0.00000000 </v>
   <v>       0.25000000       0.33333333       0.00000000 </v>
   <v>       0.29166667       0.33333333       0.00000000 </v>
   <v>       0.33333333       0.33333333       0.00000000 </v>
   <v>       0.37500000       0.33333333       0.00000000 </v>
   <v>       0.41666667       0.33333333       0.00000000 </v>
   <v>       0.45833333       0.33333333       0.00000000 </v>
   <v>       0.50000000       0.33333333       0.00000000 </v>
   <v>       0.00000000       0.40000000       0.00000000 </v>
   <v>       0.04166667       0.40000000       0.00000000 </v>
   <v>       0.08333333       0.40000000       0.00000000 </v>
   <v>       0.12500000       0.40000000       0.00000000 </v>
   <v>       0.16666667       0.40000000       0.00000000 </v>
   <v>       0.20833333       0.40000000       0.00000000 </v>
   <v>       0.25000000       0.40000000       0.00000000 </v>
   <v>       0.29166667       0.40000000       0.00000000 </v>
   <v>       0.33333333       0.40000000       0.00000000 </v>
   <v>       0.37500000       0.40000000       0.00000000 </v>
   <v>       0.41666667       0.40000000       0.00000000 </v>
   <v>       0.45833333       0.40000000       0.00000000 </v>
   <v>       0.50000000       0.40000000       0.00000000 </v>
   <v>       0.00000000       0.46666667       0.00000000 </v>
   <v>       0.04166667       0.46666667       0.00000000 </v>
   <v>       0.08333333       0.46666667       0.00000000 </v>
   <v>       0.12500000       0.46666667       0.00000000 </v>
   <v>       0.16666667       0.46666667       0.00000000 </v>
   <v>       0.20833333       0.46666667       0.00000000 </v>
   <v>       0.25000000       0.46666667       0.00000000 </v>
   <v>       0.29166667       0.46666667       0.00000000 </v>
   <v>       0.33333333       0.46666667       0.00000000 </v>
   <v>       0.37500000       0.46666667       0.00000000 </v>
   <v>       0.41666667       0.46666667       0.00000000 </v>
   <v>       0.45833333       0.46666667       0.00000000 </v>
   <v>       0.50000000       0.46666667       0.00000000 </v>
   <v>       0.00000000       0.00000000       0.10000000 </v>
   <v>       0.04166667       0.00000000       0.10000000 </v>
   <v>       0.08333333       0.00000000       0.10000000 </v>
   <v>       0.12500000       0.00000000       0.10000000 </v>
   <v>       0.16666667       0.00000000       0.10000000 </v>
   <v>       0.20833333       0.00000000       0.10000000 </v>
   <v>       0.25000000       0.00000000       0.10000000 </v>
   <v>       0.29166667       0.00000000       0.10000000 </v>
   <v>       0.33333333       0.00000000       0.10000000 </v>
   <v>       0.37500000       0.00000000       0.10000000 </v>
   <v>       0.41666667       0.00000000       0.10000000 </v>
   <v>       0.45833333       0.00000000       0.10000000 </v>
   <v>       0.50000000       0.00000000       0.10000000 </v>
   <v>       0.00000000       0.06666667       0.10000000 </v>
   <v>       0.04166667       0.06666667       0.10000000 </v>
   <v>       0.08333333       0.06666667       0.10000000 </v>
   <v>       0.12500000       0.06666667       0.10000000 </v>
   <v>       0.16666667       0.06666667       0.10000000 </v>
   <v>       0.20833333       0.06666667       0.10000000 </v>
   <v>       0.25000000       0.06666667       0.10000000 </v>
   <v>       0.29166667       0.06666667       0.10000000 </v>
   <v>       0.33333333       0.06666667       0.10000000 </v>
   <v>       0.37500000       0.06666667       0.10000000 </v>
   <v>       0.41666667       0.06666667       0.10000000 </v>
   <v>       0.45833333       0.06666667       0.10000000 </v>
   <v>       0.50000000       0.06666667       0.10000000 </v>
   <v>       0.00000000       0.13333333       0.10000000 </v>
   <v>       0.04166667       0.13333333       0.10000000 </v>
   <v>       0.08333333       0.13333333       0.10000000 </v>
   <v>       0.12500000       0.13333333       0.10000000 </v>
   <v>       0.16666667       0.13333333       0.10000000 </v>
   <v>       0.20833333       0.13333333       0.10000000 </v>
   <v>       0.25000000       0.13333333       0.10000000 </v>
   <v>       0.29166667       0.13333333       0.10000000 </v>
   <v>       0.33333333       0.13333333       0.10000000 </v>
   <v>       0.37500000       0.13333333       0.10000000 </v>
   <v>       0.41666667       0.13333333       0.10000000 </v>
   <v>       0.45833333       0.13333333       0.10000000 </v>
   <v>       0.50000000       0.13333333       0.10000000 </v>
   <v>       0.00000000       0.20000000       0.10000000 </v>
   <v>       0.04166667       0.20000000       0.10000000 </v>
   <v>       0.08333333       0.20000000       0.10000000 </v>
   <v>       0.12500000       0.20000000       0.10000000 </v>
   <v>       0.16666667       0.20000000       0.10000000 </v>
   <v>       0.20833333       0.20000000       0.10000000 </v>
   <v>       0.25000000       0.20000000       0.10000000 </v>
   <v>       0.29166667       0.20000000       0.10000000 </v>
   <v>       0.33333333       0.20000000       0.10000000 </v>
   <v>       0.37500000       0.20000000       0.10000000 </v>
   <v>       0.41666667       0.20000000       0.10000000 </v>
   <v>       0.45833333       0.20000000       0.10000000 </v>
   <v>       0.50000000       0.20000000       0.10000000 </v>
   <v>       0.00000000       0.26666667       0.10000000 </v>
   <v>       0.04166667       0.26666667       0.10000000 </v>
   <v>       0.08333333       0.26666667       0.10000000 </v>
   <v>       0.12500000       0.26666667       0.10000000 </v>
   <v>       0.16666667       0.26666667       0.10000000 </v>
   <v>       0.20833333       0.26666667       0.10000000 </v>
   <v>       0.25000000       0.26666667       0.10000000 </v>
   <v>       0.29166667       0.26666667       0.10000000 </v>
   <v>       0.33333333       0.26666667       0.10000000 </v>
   <v>       0.37500000       0.26666667       0.10000000 </v>
   <v>       0.41666667       0.26666667       0.10000000 </v>
   <v>       0.45833333       0.26666667       0.10000000 </v>
   <v>       0.50000000       0.26666667       0.10000000 </v>
   <v>       0.00000000       0.33333333       0.10000000 </v>
   <v>       0.04166667       0.33333333       0.10000000 </v>
   <v>       0.08333333       0.33333333       0.10000000 </v>
   <v>       0.12500000       0.33333333       0.10000000 </v>
   <v>       0.16666667       0.33333333       0.10000000 </v>
   <v>       0.20833333       0.33333333       0.10000000 </v>
   <v>       0.25000000       0.33333333       0.10000000 </v>
   <v>       0.29166667       0.33333333       0.10000000 </v>
   <v>       0.33333333       0.33333333       0.10000000 </v>
   <v>       0.37500000       0.33333333       0.10000000 </v>
   <v>       0.41666667       0.33333333       0.10000000 </v>
   <v>       0.45833333       0.33333333       0.10000000 </v>
   <v>       0.50000000       0.33333333       0.10000000 </v>
   <v>       0.00000000       0.40000000       0.10000000 </v>
   <v>       0.04166667       0.40000000       0.10000000 </v>
   <v>       0.08333333       0.40000000       0.10000000 </v>
   <v>       0.12500000       0.40000000       0.10000000 </v>
   <v>       0.16666667       0.40000000       0.10000000 </v>
   <v>       0.20833333       0.40000000       0.10000000 </v>
   <v>       0.25000000       0.40000000       0.10000000 </v>
   <v>       0.29166667       0.40000000       0.10000000 </v>
   <v>       0.33333333       0.40000000       0.10000000 </v>
   <v>       0.37500000       0.40000000       0.10000000 </v>
   <v>       0.41666667       0.40000000       0.10000000 </v>
   <v>       0.45833333       0.40000000       0.10000000 </v>
   <v>       0.50000000       0.40000000       0.10000000 </v>
   <v>       0.00000000       0.46666667       0.10000000 </v>
   <v>       0.04166667       0.46666667       0.10000000 </v>
   <v>       0.08333333       0.46666667       0.10000000 </v>
   <v>       0.12500000       0.46666667       0.10000000 </v>
   <v>       0.16666667       0.46666667       0.10000000 </v>
   <v>       0.20833333       0.46666667       0.10000000 </v>
   <v>       0.25000000       0.46666667       0.10000000 </v>
   <v>       0.29166667       0.46666667       0.10000000 </v>
   <v>       0.33333333       0.46666667       0.10000000 </v>
   <v>       0.37500000       0.46666667       0.10000000 </v>
   <v>       0.41666667       0.46666667       0.10000000 </v>
   <v>       0.45833333       0.46666667       0.10000000 </v>
   <v>       0.50000000       0.46666667       0.10000000 </v>
   <v>       0.00000000      -0.46666667       0.10000000 </v>
   <v>       0.04166667      -0.46666667       0.10000000 </v>
   <v>       0.08333333      -0.46666667       0.10000000 </v>
   <v>       0.12500000      -0.46666667       0.10000000 </v>
   <v>       0.16666667      -0.46666667       0.10000000 </v>
   <v>       0.20833333      -0.46666667       0.10000000 </v>
   <v>       0.25000000      -0.46666667       0.10000000 </v>
   <v>       0.29166667      -0.46666667       0.10000000 </v>
   <v>       0.33333333      -0.46666667       0.10000000 </v>
   <v>       0.37500000      -0.46666667       0.10000000 </v>
   <v>       0.41666667      -0.46666667       0.10000000 </v>
   <v>       0.45833333      -0.46666667       0.10000000 </v>
   <v>       0.50000000      -0.46666667       0.10000000 </v>
   <v>       0.00000000      -0.40000000       0.10000000 </v>
   <v>       0.04166667      -0.40000000       0.10000000 </v>
   <v>       0.08333333      -0.40000000       0.10000000 </v>
   <v>       0.12500000      -0.40000000       0.10000000 </v>
   <v>       0.16666667      -0.40000000       0.10000000 </v>
   <v>       0.20833333      -0.40000000       0.10000000 </v>
   <v>       0.25000000      -0.40000000       0.10000000 </v>
   <v>       0.29166667      -0.40000000       0.10000000 </v>
   <v>       0.33333333      -0.40000000       0.10000000 </v>
   <v>       0.37500000      -0.40000000       0.10000000 </v>
   <v>       0.41666667      -0.40000000       0.10000000 </v>
   <v>       0.45833333      -0.40000000       0.10000000 </v>
   <v>       0.50000000      -0.40000000       0.10000000 </v>
   <v>       0.00000000      -0.33333333       0.10000000 </v>
   <v>       0.04166667      -0.33333333       0.10000000 </v>
   <v>       0.08333333      -0.33333333       0.10000000 </v>
   <v>       0.12500000      -0.33333333       0.10000000 </v>
   <v>       0.16666667      -0.33333333       0.10000000 </v>
   <v>       0.20833333      -0.33333333       0.10000000 </v>
   <v>       0.25000000      -0.33333333       0.10000000 </v>
   <v>       0.29166667      -0.33333333       0.10000000 </v>
   <v>       0.33333333      -0.33333333       0.10000000 </v>
   <v>       0.37500000      -0.33333333       0.10000000 </v>
   <v>       0.41666667      -0.33333333       0.10000000 </v>
   <v>       0.45833333      -0.33333333       0.10000000 </v>
   <v>       0.50000000      -0.33333333       0.10000000 </v>
   <v>       0.00000000      -0.26666667       0.10000000 </v>
   <v>       0.04166667      -0.26666667       0.10000000 </v>
   <v>       0.08333333      -0.26666667       0.10000000 </v>
   <v>       0.12500000      -0.26666667       0.10000000 </v>
   <v>       0.16666667      -0.26666667       0.10000000 </v>
   <v>       0.20833333      -0.26666667       0.10000000 </v>
   <v>       0.25000000      -0.26666667       0.10000000 </v>
   <v>       0.29166667      -0.26666667       0.10000000 </v>
   <v>       0.33333333      -0.26666667       0.10000000 </v>
   <v>       0.37500000      -0.26666667       0.10000000 </v>
   <v>       0.41666667      -0.26666667       0.10000000 </v>
   <v>       0.45833333      -0.26666667       0.10000000 </v>
   <v>       0.50000000      -0.26666667       0.10000000 </v>
   <v>       0.00000000      -0.20000000       0.10000000 </v>
   <v>       0.04166667      -0.20000000       0.10000000 </v>
   <v>       0.08333333      -0.20000000       0.10000000 </v>
   <v>       0.12500000      -0.20000000       0.10000000 </v>
   <v>       0.16666667      -0.20000000       0.10000000 </v>
   <v>       0.20833333      -0.20000000       0.10000000 </v>
   <v>       0.25000000      -0.20000000       0.10000000 </v>
   <v>       0.29166667      -0.20000000       0.10000000 </v>
   <v>       0.33333333      -0.20000000       0.10000000 </v>
   <v>       0.37500000      -0.20000000       0.10000000 </v>
   <v>       0.41666667      -0.20000000       0.10000000 </v>
   <v>       0.45833333      -0.20000000       0.10000000 </v>
   <v>       0.50000000      -0.20000000       0.10000000 </v>
   <v>       0.00000000      -0.13333333       0.10000000 </v>
   <v>       0.04166667      -0.13333333       0.10000000 </v>
   <v>       0.08333333      -0.13333333       0.10000000 </v>
   <v>       0.12500000      -0.13333333       0.10000000 </v>
   <v>       0.16666667      -0.13333333       0.10000000 </v>
   <v>       0.20833333      -0.13333333       0.10000000 </v>
   <v>       0.25000000      -0.13333333       0.10000000 </v>
   <v>       0.29166667      -0.13333333       0.10000000 </v>
   <v>       0.33333333      -0.13333333       0.10000000 </v>
   <v>       0.37500000      -0.13333333       0.10000000 </v>
   <v>       0.41666667      -0.13333333       0.10000000 </v>
   <v>       0.45833333      -0.13333333       0.10000000 </v>
   <v>       0.50000000      -0.13333333       0.10000000 </v>
   <v>       0.00000000      -0.06666667       0.10000000 </v>
   <v>       0.04166667      -0.06666667       0.10000000 </v>
   <v>       0.08333333      -0.06666667       0.10000000 </v>
   <v>       0.12500000      -0.06666667       0.10000000 </v>
   <v>       0.16666667      -0.06666667       0.10000000 </v>
   <v>       0.20833333      -0.06666667       0.10000000 </v>
   <v>       0.25000000      -0.06666667       0.10000000 </v>
   <v>       0.29166667      -0.06666667       0.10000000 </v>
   <v>       0.33333333      -0.06666667       0.10000000 </v>
   <v>       0.37500000      -0.06666667       0.10000000 </v>
   <v>       0.41666667      -0.06666667       0.10000000 </v>
   <v>       0.45833333      -0.06666667       0.10000000 </v>
   <v>       0.50000000      -0.06666667       0.10000000 </v>
   <v>       0.00000000       0.00000000       0.20000000 </v>
   <v>       0.04166667       0.00000000       0.20000000 </v>
   <v>       0.08333333       0.00000000       0.20000000 </v>
   <v>       0.12500000       0.00000000       0.20000000 </v>
   <v>       0.16666667       0.00000000       0.20000000 </v>
   <v>       0.20833333       0.00000000       0.20000000 </v>
   <v>       0.25000000       0.00000000       0.20000000 </v>
   <v>       0.29166667       0.00000000       0.20000000 </v>
   <v>       0.33333333       0.00000000       0.20000000 </v>
   <v>       0.37500000       0.00000000       0.20000000 </v>
   <v>       0.41666667       0.00000000       0.20000000 </v>
   <v>       0.45833333       0.00000000       0.20000000 </v>
   <v>       0.50000000       0.00000000       0.20000000 </v>
   <v>       0.00000000       0.06666667       0.20000000 </v>
   <v>       0.04166667       0.06666667       0.20000000 </v>
   <v>       0.08333333       0.06666667       0.20000000 </v>
   <v>       0.12500000       0.06666667       0.20000000 </v>
   <v>       0.16666667       0.06666667       0.20000000 </v>
   <v>       0.20833333       0.06666667       0.20000000 </v>
   <v>       0.25000000       0.06666667       0.20000000 </v>
   <v>       0.29166667       0.06666667       0.20000000 </v>
   <v>       0.33333333       0.06666667       0.20000000 </v>
   <v>       0.37500000       0.06666667       0.20000000 </v>
   <v>       0.41666667       0.06666667       0.20000000 </v>
   <v>       0.45833333       0.06666667       0.20000000 </v>
   <v>       0.50000000       0.06666667       0.20000000 </v>
   <v>       0.00000000       0.13333333       0.20000000 </v>
   <v>       0.04166667       0.13333333       0.20000000 </v>
   <v>       0.08333333       0.13333333       0.20000000 </v>
   <v>       0.12500000       0.13333333       0.20000000 </v>
   <v>       0.16666667       0.13333333       0.20000000 </v>
   <v>       0.20833333       0.13333333       0.20000000 </v>
   <v>       0.25000000       0.13333333       0.20000000 </v>
   <v>       0.29166667       0.13333333       0.20000000 </v>
   <v>       0.33333333       0.13333333       0.20000000 </v>
   <v>       0.37500000       0.13333333       0.20000000 </v>
   <v>       0.41666667       0.13333333       0.20000000 </v>
   <v>       0.45833333       0.13333333       0.20000000 </v>
   <v>       0.50000000       0.13333333       0.20000000 </v>
   <v>       0.00000000       0.20000000       0.20000000 </v>
   <v>       0.04166667       0.20000000       0.20000000 </v>
   <v>       0.08333333       0.20000000       0.20000000 </v>
   <v>       0.12500000       0.20000000       0.20000000 </v>
   <v>       0.16666667       0.20000000       0.20000000 </v>
   <v>       0.20833333       0.20000000       0.20000000 </v>
   <v>       0.25000000       0.20000000       0.20000000 </v>
   <v>       0.29166667       0.20000000       0.20000000 </v>
   <v>       0.33333333       0.20000000       0.20000000 </v>
   <v>       0.37500000       0.20000000       0.20000000 </v>
   <v>       0.41666667       0.20000000       0.20000000 </v>
   <v>       0.45833333       0.20000000       0.20000000 </v>
   <v>       0.50000000       0.20000000       0.20000000 </v>
   <v>       0.00000000       0.26666667       0.20000000 </v>
   <v>       0.04166667       0.26666667       0.20000000 </v>
   <v>       0.08333333       0.26666667       0.20000000 </v>
   <v>       0.12500000       0.26666667       0.20000000 </v>
   <v>       0.16666667       0.26666667       0.20000000 </v>
   <v>       0.20833333       0.26666667       0.20000000 </v>
   <v>       0.25000000       0.26666667       0.20000000 </v>
   <v>       0.29166667       0.26666667       0.20000000 </v>
   <v>       0.33333333       0.26666667       0.20000000 </v>
   <v>       0.37500000       0.26666667       0.20000000 </v>
   <v>       0.41666667       0.26666667       0.20000000 </v>
   <v>       0.45833333       0.26666667       0.20000000 </v>
   <v>       0.50000000       0.26666667       0.20000000 </v>
   <v>       0.00000000       0.33333333       0.20000000 </v>
   <v>       0.04166667       0.33333333       0.20000000 </v>
   <v>       0.08333333       0.33333333       0.20000000 </v>
   <v>       0.12500000       0.33333333       0.20000000 </v>
   <v>       0.16666667       0.33333333       0.20000000 </v>
   <v>       0.20833333       0.33333333       0.20000000 </v>
   <v>       0.25000000       0.33333333       0.20000000 </v>
   <v>       0.29166667       0.33333333       0.20000000 </v>
   <v>       0.33333333       0.33333333       0.20000000 </v>
   <v>       0.37500000       0.33333333       0.20000000 </v>
   <v>       0.41666667       0.33333333       0.20000000 </v>
   <v>       0.45833333       0.33333333       0.20000000 </v>
   <v>       0.50000000       0.33333333       0.20000000 </v>
   <v>       0.00000000       0.40000000       0.20000000 </v>
   <v>       0.04166667       0.40000000       0.20000000 </v>
   <v>       0.08333333       0.40000000       0.20000000 </v>
   <v>       0.12500000       0.40000000       0.20000000 </v>
   <v>       0.16666667       0.40000000       0.20000000 </v>
   <v>       0.20833333       0.40000000       0.20000000 </v>
   <v>       0.25000000       0.40000000       0.20000000 </v>
   <v>       0.29166667       0.40000000       0.20000000 </v>
   <v>       0.33333333       0.40000000       0.20000000 </v>
   <v>       0.37500000       0.40000000       0.20000000 </v>
   <v>       0.41666667       0.40000000       0.20000000 </v>
   <v>       0.45833333       0.40000000       0.20000000 </v>
   <v>       0.50000000       0.40000000       0.20000000 </v>
   <v>       0.00000000       0.46666667       0.20000000 </v>
   <v>       0.04166667       0.46666667       0.20000000 </v>
   <v>       0.08333333       0.46666667       0.20000000 </v>
   <v>       0.12500000       0.46666667       0.20000000 </v>
   <v>       0.16666667       0.46666667       0.20000000 </v>
   <v>       0.20833333       0.46666667       0.20000000 </v>
   <v>       0.25000000       0.46666667       0.20000000 </v>
   <v>       0.29166667       0.46666667       0.20000000 </v>
   <v>       0.33333333       0.46666667       0.20000000 </v>
   <v>       0.37500000       0.46666667       0.20000000 </v>
   <v>       0.41666667       0.46666667       0.20000000 </v>
   <v>       0.45833333       0.46666667       0.20000000 </v>
   <v>       0.50000000       0.46666667       0.20000000 </v>
   <v>       0.00000000      -0.46666667       0.20000000 </v>
   <v>       0.04166667      -0.46666667       0.20000000 </v>
   <v>       0.08333333      -0.46666667       0.20000000 </v>
   <v>       0.12500000      -0.46666667       0.20000000 </v>
   <v>       0.16666667      -0.46666667       0.20000000 </v>
   <v>       0.20833333      -0.46666667       0.20000000 </v>
   <v>       0.25000000      -0.46666667       0.20000000 </v>
   <v>       0.29166667      -0.46666667       0.20000000 </v>
   <v>       0.33333333      -0.46666667       0.20000000 </v>
   <v>       0.37500000      -0.46666667       0.20000000 </v>
   <v>       0.41666667      -0.46666667       0.20000000 </v>
   <v>       0.45833333      -0.46666667       0.20000000 </v>
   <v>       0.50000000      -0.46666667       0.20000000 </v>
   <v>       0.00000000      -0.40000000       0.20000000 </v>
   <v>       0.04166667      -0.40000000       0.20000000 </v>
   <v>       0.08333333      -0.40000000       0.20000000 </v>
   <v>       0.12500000      -0.40000000       0.20000000 </v>
   <v>       0.16666667      -0.40000000       0.20000000 </v>
   <v>       0.20833333      -0.40000000       0.20000000 </v>
   <v>       0.25000000      -0.40000000       0.20000000 </v>
   <v>       0.29166667      -0.40000000       0.20000000 </v>
   <v>       0.33333333      -0.40000000       0.20000000 </v>
   <v>       0.37500000      -0.40000000       0.20000000 </v>
   <v>       0.41666667      -0.40000000       0.20000000 </v>
   <v>       0.45833333      -0.40000000       0.20000000 </v>
   <v>       0.50000000      -0.40000000       0.20000000 </v>
   <v>       0.00000000      -0.33333333       0.20000000 </v>
   <v>       0.04166667      -0.33333333       0.20000000 </v>
   <v>       0.08333333      -0.33333333       0.20000000 </v>
   <v>       0.12500000      -0.33333333       0.20000000 </v>
   <v>       0.16666667      -0.33333333       0.20000000 </v>
   <v>       0.20833333      -0.33333333       0.20000000 </v>
   <v>       0.25000000      -0.33333333       0.20000000 </v>
   <v>       0.29166667      -0.33333333       0.20000000 </v>
   <v>       0.33333333      -0.33333333       0.20000000 </v>
   <v>       0.37500000      -0.33333333       0.20000000 </v>
   <v>       0.41666667      -0.33333333       0.20000000 </v>
   <v>       0.45833333      -0.33333333       0.20000000 </v>
   <v>       0.50000000      -0.33333333       0.20000000 </v>
   <v>       0.00000000      -0.26666667       0.20000000 </v>
   <v>       0.04166667      -0.26666667       0.20000000 </v>
   <v>       0.08333333      -0.26666667       0.20000000 </v>
   <v>       0.12500000      -0.26666667       0.20000000 </v>
   <v>       0.16666667      -0.26666667       0.20000000 </v>
   <v>       0.20833333      -0.26666667       0.20000000 </v>
   <v>       0.25000000      -0.26666667       0.20000000 </v>
   <v>       0.29166667      -0.26666667       0.20000000 </v>
   <v>       0.33333333      -0.26666667       0.20000000 </v>
   <v>       0.37500000      -0.26666667       0.20000000 </v>
   <v>       0.41666667      -0.26666667       0.20000000 </v>
   <v>       0.45833333      -0.26666667       0.20000000 </v>
   <v>       0.50000000      -0.26666667       0.20000000 </v>
   <v>       0.00000000      -0.20000000       0.20000000 </v>
   <v>       0.04166667      -0.20000000       0.20000000 </v>
   <v>       0.08333333      -0.20000000       0.20000000 </v>
   <v>       0.12500000      -0.20000000       0.20000000 </v>
   <v>       0.16666667      -0.20000000       0.20000000 </v>
   <v>       0.20833333      -0.20000000       0.20000000 </v>
   <v>       0.25000000      -0.20000000       0.20000000 </v>
   <v>       0.29166667      -0.20000000       0.20000000 </v>
   <v>       0.33333333      -0.20000000       0.20000000 </v>
   <v>       0.37500000      -0.20000000       0.20000000 </v>
   <v>       0.41666667      -0.20000000       0.20000000 </v>
   <v>       0.45833333      -0.20000000       0.20000000 </v>
   <v>       0.50000000      -0.20000000       0.20000000 </v>
   <v>       0.00000000      -0.13333333       0.20000000 </v>
   <v>       0.04166667      -0.13333333       0.20000000 </v>
   <v>       0.08333333      -0.13333333       0.20000000 </v>
   <v>       0.12500000      -0.13333333       0.20000000 </v>
   <v>       0.16666667      -0.13333333       0.20000000 </v>
   <v>       0.20833333      -0.13333333       0.20000000 </v>
   <v>       0.25000000      -0.13333333       0.20000000 </v>
   <v>       0.29166667      -0.13333333       0.20000000 </v>
   <v>       0.33333333      -0.13333333       0.20000000 </v>
   <v>       0.37500000      -0.13333333       0.20000000 </v>
   <v>       0.41666667      -0.13333333       0.20000000 </v>
   <v>       0.45833333      -0.13333333       0.20000000 </v>
   <v>       0.50000000      -0.13333333       0.20000000 </v>
   <v>       0.00000000      -0.06666667       0.20000000 </v>
   <v>       0.04166667      -0.06666667       0.20000000 </v>
   <v>       0.08333333      -0.06666667       0.20000000 </v>
   <v>       0.12500000      -0.06666667       0.20000000 </v>
   <v>       0.16666667      -0.06666667       0.20000000 </v>
   <v>       0.20833333      -0.06666667       0.20000000 </v>
   <v>       0.25000000      -0.06666667       0.20000000 </v>
   <v>       0.29166667      -0.06666667       0.20000000 </v>
   <v>       0.33333333      -0.06666667       0.20000000 </v>
   <v>       0.37500000      -0.06666667       0.20000000 </v>
   <v>       0.41666667      -0.06666667       0.20000000 </v>
   <v>       0.45833333      -0.06666667       0.20000000 </v>
   <v>       0.50000000      -0.06666667       0.20000000 </v>
   <v>       0.00000000       0.00000000       0.30000000 </v>
   <v>       0.04166667       0.00000000       0.30000000 </v>
   <v>       0.08333333       0.00000000       0.30000000 </v>
   <v>       0.12500000       0.00000000       0.30000000 </v>
   <v>       0.16666667       0.00000000       0.30000000 </v>
   <v>       0.20833333       0.00000000       0.30000000 </v>
   <v>       0.25000000       0.00000000       0.30000000 </v>
   <v>       0.29166667       0.00000000       0.30000000 </v>
   <v>       0.33333333       0.00000000       0.30000000 </v>
   <v>       0.37500000       0.00000000       0.30000000 </v>
   <v>       0.41666667       0.00000000       0.30000000 </v>
   <v>       0.45833333       0.00000000       0.30000000 </v>
   <v>       0.50000000       0.00000000       0.30000000 </v>
   <v>       0.00000000       0.06666667       0.30000000 </v>
   <v>       0.04166667       0.06666667       0.30000000 </v>
   <v>       0.08333333       0.06666667       0.30000000 </v>
   <v>       0.12500000       0.06666667       0.30000000 </v>
   <v>       0.16666667       0.06666667       0.30000000 </v>
   <v>       0.20833333       0.06666667       0.30000000 </v>
   <v>       0.25000000       0.06666667       0.30000000 </v>
   <v>       0.29166667       0.06666667       0.30000000 </v>
   <v>       0.33333333       0.06666667       0.30000000 </v>
   <v>       0.37500000       0.06666667       0.30000000 </v>
   <v>       0.41666667       0.06666667       0.30000000 </v>
   <v>       0.45833333       0.06666667       0.30000000 </v>
   <v>       0.50000000       0.06666667       0.30000000 </v>
   <v>       0.00000000       0.13333333       0.30000000 </v>
   <v>       0.04166667       0.13333333       0.30000000 </v>
   <v>       0.08333333       0.13333333       0.30000000 </v>
   <v>       0.12500000       0.13333333       0.30000000 </v>
   <v>       0.16666667       0.13333333       0.30000000 </v>
   <v>       0.20833333       0.13333333       0.30000000 </v>
   <v>       0.25000000       0.13333333       0.30000000 </v>
   <v>       0.29166667       0.13333333       0.30000000 </v>
   <v>       0.33333333       0.13333333       0.30000000 </v>
   <v>       0.37500000       0.13333333       0.30000000 </v>
   <v>       0.41666667       0.13333333       0.30000000 </v>
   <v>       0.45833333       0.13333333       0.30000000 </v>
   <v>       0.50000000       0.13333333       0.30000000 </v>
   <v>       0.00000000       0.20000000       0.30000000 </v>
   <v>       0.04166667       0.20000000       0.30000000 </v>
   <v>       0.08333333       0.20000000       0.30000000 </v>
   <v>       0.12500000       0.20000000       0.30000000 </v>
   <v>       0.16666667       0.20000000       0.30000000 </v>
   <v>       0.20833333       0.20000000       0.30000000 </v>
   <v>       0.25000000       0.20000000       0.30000000 </v>
   <v>       0.29166667       0.20000000       0.30000000 </v>
   <v>       0.33333333       0.20000000       0.30000000 </v>
   <v>       0.37500000       0.20000000       0.30000000 </v>
   <v>       0.41666667       0.20000000       0.30000000 </v>
   <v>       0.45833333       0.20000000       0.30000000 </v>
   <v>       0.50000000       0.20000000       0.30000000 </v>
   <v>       0.00000000       0.26666667       0.30000000 </v>
   <v>       0.04166667       0.26666667       0.30000000 </v>
   <v>       0.08333333       0.26666667       0.30000000 </v>
   <v>       0.12500000       0.26666667       0.30000000 </v>
   <v>       0.16666667       0.26666667       0.30000000 </v>
   <v>       0.20833333       0.26666667       0.30000000 </v>
   <v>       0.25000000       0.26666667       0.30000000 </v>
   <v>       0.29166667       0.26666667       0.30000000 </v>
   <v>       0.33333333       0.26666667       0.30000000 </v>
   <v>       0.37500000       0.26666667       0.30000000 </v>
   <v>       0.41666667       0.26666667       0.30000000 </v>
   <v>       0.45833333       0.26666667       0.30000000 </v>
   <v>       0.50000000       0.26666667       0.30000000 </v>
   <v>       0.00000000       0.33333333       0.30000000 </v>
   <v>       0.04166667       0.33333333       0.30000000 </v>
   <v>       0.08333333       0.33333333       0.30000000 </v>
   <v>       0.12500000       0.33333333       0.30000000 </v>
   <v>       0.16666667       0.33333333       0.30000000 </v>
   <v>       0.20833333       0.33333333       0.30000000 </v>
   <v>       0.25000000       0.33333333       0.30000000 </v>
   <v>       0.29166667       0.33333333       0.30000000 </v>
   <v>       0.33333333       0.33333333       0.30000000 </v>
   <v>       0.37500000       0.33333333       0.30000000 </v>
   <v>       0.41666667       0.33333333       0.30000000 </v>
   <v>       0.45833333       0.33333333       0.30000000 </v>
   <v>       0.50000000       0.33333333       0.30000000 </v>
   <v>       0.00000000       0.40000000       0.30000000 </v>
   <v>       0.04166667       0.40000000       0.30000000 </v>
   <v>       0.08333333       0.40000000       0.30000000 </v>
   <v>       0.12500000       0.40000000       0.30000000 </v>
   <v>       0.16666667       0.40000000       0.30000000 </v>
   <v>       0.20833333       0.40000000       0.30000000 </v>
   <v>       0.25000000       0.40000000       0.30000000 </v>
   <v>       0.29166667       0.40000000       0.30000000 </v>
   <v>       0.33333333       0.40000000       0.30000000 </v>
   <v>       0.37500000       0.40000000       0.30000000 </v>
   <v>       0.41666667       0.40000000       0.30000000 </v>
   <v>       0.45833333       0.40000000       0.30000000 </v>
   <v>       0.50000000       0.40000000       0.30000000 </v>
   <v>       0.00000000       0.46666667       0.30000000 </v>
   <v>       0.04166667       0.46666667       0.30000000 </v>
   <v>       0.08333333       0.46666667       0.30000000 </v>
   <v>       0.12500000       0.46666667       0.30000000 </v>
   <v>       0.16666667       0.46666667       0.30000000 </v>
   <v>       0.20833333       0.46666667       0.30000000 </v>
   <v>       0.25000000       0.46666667       0.30000000 </v>
   <v>       0.29166667       0.46666667       0.30000000 </v>
   <v>       0.33333333       0.46666667       0.30000000 </v>
   <v>       0.37500000       0.46666667       0.30000000 </v>
   <v>       0.41666667       0.46666667       0.30000000 </v>
   <v>       0.45833333       0.46666667       0.30000000 </v>
   <v>       0.50000000       0.46666667       0.30000000 </v>
   <v>       0.00000000      -0.46666667       0.30000000 </v>
   <v>       0.04166667      -0.46666667       0.30000000 </v>
   <v>       0.08333333      -0.46666667       0.30000000 </v>
   <v>       0.12500000      -0.46666667       0.30000000 </v>
   <v>       0.16666667      -0.46666667       0.30000000 </v>
   <v>       0.20833333      -0.46666667       0.30000000 </v>
   <v>       0.25000000      -0.46666667       0.30000000 </v>
   <v>       0.29166667      -0.46666667       0.30000000 </v>
   <v>       0.33333333      -0.46666667       0.30000000 </v>
   <v>       0.37500000      -0.46666667       0.30000000 </v>
   <v>       0.41666667      -0.46666667       0.30000000 </v>
   <v>       0.45833333      -0.46666667       0.30000000 </v>
   <v>       0.50000000      -0.46666667       0.30000000 </v>
   <v>       0.00000000      -0.40000000       0.30000000 </v>
   <v>       0.04166667      -0.40000000       0.30000000 </v>
   <v>       0.08333333      -0.40000000       0.30000000 </v>
   <v>       0.12500000      -0.40000000       0.30000000 </v>
   <v>       0.16666667      -0.40000000       0.30000000 </v>
   <v>       0.20833333      -0.40000000       0.30000000 </v>
   <v>       0.25000000      -0.40000000       0.30000000 </v>
   <v>       0.29166667      -0.40000000       0.30000000 </v>
   <v>       0.33333333      -0.40000000       0.30000000 </v>
   <v>       0.37500000      -0.40000000       0.30000000 </v>
   <v>       0.41666667      -0.40000000       0.30000000 </v>
   <v>       0.45833333      -0.40000000       0.30000000 </v>
   <v>       0.50000000      -0.40000000       0.30000000 </v>
   <v>       0.00000000      -0.33333333       0.30000000 </v>
   <v>       0.04166667      -0.33333333       0.30000000 </v>
   <v>       0.08333333      -0.33333333       0.30000000 </v>
   <v>       0.12500000      -0.33333333       0.30000000 </v>
   <v>       0.16666667      -0.33333333       0.30000000 </v>
   <v>       0.20833333      -0.33333333       0.30000000 </v>
   <v>       0.25000000      -0.33333333       0.30000000 </v>
   <v>       0.29166667      -0.33333333       0.30000000 </v>
   <v>       0.33333333      -0.33333333       0.30000000 </v>
   <v>       0.37500000      -0.33333333       0.30000000 </v>
   <v>       0.41666667      -0.33333333       0.30000000 </v>
   <v>       0.45833333      -0.33333333       0.30000000 </v>
   <v>       0.50000000      -0.33333333       0.30000000 </v>
   <v>       0.00000000      -0.26666667       0.30000000 </v>
   <v>       0.04166667      -0.26666667       0.30000000 </v>
   <v>       0.08333333      -0.26666667       0.30000000 </v>
   <v>       0.12500000      -0.26666667       0.30000000 </v>
   <v>       0.16666667      -0.26666667       0.30000000 </v>
   <v>       0.20833333      -0.26666667       0.30000000 </v>
   <v>       0.25000000      -0.26666667       0.30000000 </v>
   <v>       0.29166667      -0.26666667       0.30000000 </v>
   <v>       0.33333333      -0.26666667       0.30000000 </v>
   <v>       0.37500000      -0.26666667       0.30000000 </v>
   <v>       0.41666667      -0.26666667       0.30000000 </v>
   <v>       0.45833333      -0.26666667       0.30000000 </v>
   <v>       0.50000000      -0.26666667       0.30000000 </v>
   <v>       0.00000000      -0.20000000       0.30000000 </v>
   <v>       0.04166667      -0.20000000       0.30000000 </v>
   <v>       0.08333333      -0.20000000       0.30000000 </v>
   <v>       0.12500000      -0.20000000       0.30000000 </v>
   <v>       0.16666667      -0.20000000       0.30000000 </v>
   <v>       0.20833333      -0.20000000       0.30000000 </v>
   <v>       0.25000000      -0.20000000       0.30000000 </v>
   <v>       0.29166667      -0.20000000       0.30000000 </v>
   <v>       0.33333333      -0.20000000       0.30000000 </v>
   <v>       0.37500000      -0.20000000       0.30000000 </v>
   <v>       0.41666667      -0.20000000       0.30000000 </v>
   <v>       0.45833333      -0.20000000       0.30000000 </v>
   <v>       0.50000000      -0.20000000       0.30000000 </v>
   <v>       0.00000000      -0.13333333       0.30000000 </v>
   <v>       0.04166667      -0.13333333       0.30000000 </v>
   <v>       0.08333333      -0.13333333       0.30000000 </v>
   <v>       0.12500000      -0.13333333       0.30000000 </v>
   <v>       0.16666667      -0.13333333       0.30000000 </v>
   <v>       0.20833333      -0.13333333       0.30000000 </v>
   <v>       0.25000000      -0.13333333       0.30000000 </v>
   <v>       0.29166667      -0.13333333       0.30000000 </v>
   <v>       0.33333333      -0.13333333       0.30000000 </v>
   <v>       0.37500000      -0.13333333       0.30000000 </v>
   <v>       0.41666667      -0.13333333       0.30000000 </v>
   <v>       0.45833333      -0.13333333       0.30000000 </v>
   <v>       0.50000000      -0.13333333       0.30000000 </v>
   <v>       0.00000000      -0.06666667       0.30000000 </v>
   <v>       0.04166667      -0.06666667       0.30000000 </v>
   <v>       0.08333333      -0.06666667       0.30000000 </v>
   <v>       0.12500000      -0.06666667       0.30000000 </v>
   <v>       0.16666667      -0.06666667       0.30000000 </v>
   <v>       0.20833333      -0.06666667       0.30000000 </v>
   <v>       0.25000000      -0.06666667       0.30000000 </v>
   <v>       0.29166667      -0.06666667       0.30000000 </v>
   <v>       0.33333333      -0.06666667       0.30000000 </v>
   <v>       0.37500000      -0.06666667       0.30000000 </v>
   <v>       0.41666667      -0.06666667       0.30000000 </v>
   <v>       0.45833333      -0.06666667       0.30000000 </v>
   <v>       0.50000000      -0.06666667       0.30000000 </v>
   <v>       0.00000000       0.00000000       0.40000000 </v>
   <v>       0.04166667       0.00000000       0.40000000 </v>
   <v>       0.08333333       0.00000000       0.40000000 </v>
   <v>       0.12500000       0.00000000       0.40000000 </v>
   <v>       0.16666667       0.00000000       0.40000000 </v>
   <v>       0.20833333       0.00000000       0.40000000 </v>
   <v>       0.25000000       0.00000000       0.40000000 </v>
   <v>       0.29166667       0.00000000       0.40000000 </v>
   <v>       0.33333333       0.00000000       0.40000000 </v>
   <v>       0.37500000       0.00000000       0.40000000 </v>
   <v>       0.41666667       0.00000000       0.40000000 </v>
   <v>       0.45833333       0.00000000       0.40000000 </v>
   <v>       0.50000000       0.00000000       0.40000000 </v>
   <v>       0.00000000       0.06666667       0.40000000 </v>
   <v>       0.04166667       0.06666667       0.40000000 </v>
   <v>       0.08333333       0.06666667       0.40000000 </v>
   <v>       0.12500000       0.06666667       0.40000000 </v>
   <v>       0.16666667       0.06666667       0.40000000 </v>
   <v>       0.20833333       0.06666667       0.40000000 </v>
   <v>       0.25000000       0.06666667       0.40000000 </v>
   <v>       0.29166667       0.06666667       0.40000000 </v>
   <v>       0.33333333       0.06666667       0.40000000 </v>
   <v>       0.37500000       0.06666667       0.40000000 </v>
   <v>       0.41666667       0.06666667       0.40000000 </v>
   <v>       0.45833333       0.06666667       0.40000000 </v>
   <v>       0.50000000       0.06666667       0.40000000 </v>
   <v>       0.00000000       0.13333333       0.40000000 </v>
   <v>       0.04166667       0.13333333       0.40000000 </v>
   <v>       0.08333333       0.13333333       0.40000000 </v>
   <v>       0.12500000       0.13333333       0.40000000 </v>
   <v>       0.16666667       0.13333333       0.40000000 </v>
   <v>       0.20833333       0.13333333       0.40000000 </v>
   <v>       0.25000000       0.13333333       0.40000000 </v>
   <v>       0.29166667       0.13333333       0.40000000 </v>
   <v>       0.33333333       0.13333333       0.40000000 </v>
   <v>       0.37500000       0.13333333       0.40000000 </v>
   <v>       0.41666667       0.13333333       0.40000000 </v>
   <v>       0.45833333       0.13333333       0.40000000 </v>
   <v>       0.50000000       0.13333333       0.40000000 </v>
   <v>       0.00000000       0.20000000       0.40000000 </v>
   <v>       0.04166667       0.20000000       0.40000000 </v>
   <v>       0.08333333       0.20000000       0.40000000 </v>
   <v>       0.12500000       0.20000000       0.40000000 </v>
   <v>       0.16666667       0.20000000       0.40000000 </v>
   <v>       0.20833333       0.20000000       0.40000000 </v>
   <v>       0.25000000       0.20000000       0.40000000 </v>
   <v>       0.29166667       0.20000000       0.40000000 </v>
   <v>       0.33333333       0.20000000       0.40000000 </v>
   <v>       0.37500000       0.20000000       0.40000000 </v>
   <v>       0.41666667       0.20000000       0.40000000 </v>
   <v>       0.45833333       0.20000000       0.40000000 </v>
   <v>       0.50000000       0.20000000       0.40000000 </v>
   <v>       0.00000000       0.26666667       0.40000000 </v>
   <v>       0.04166667       0.26666667       0.40000000 </v>
   <v>       0.08333333       0.26666667       0.40000000 </v>
   <v>       0.12500000       0.26666667       0.40000000 </v>
   <v>       0.16666667       0.26666667       0.40000000 </v>
   <v>       0.20833333       0.26666667       0.40000000 </v>
   <v>       0.25000000       0.26666667       0.40000000 </v>
   <v>       0.29166667       0.26666667       0.40000000 </v>
   <v>       0.33333333       0.26666667       0.40000000 </v>
   <v>       0.37500000       0.26666667       0.40000000 </v>
   <v>       0.41666667       0.26666667       0.40000000 </v>
   <v>       0.45833333       0.26666667       0.40000000 </v>
   <v>       0.50000000       0.26666667       0.40000000 </v>
   <v>       0.00000000       0.33333333       0.40000000 </v>
   <v>       0.04166667       0.33333333       0.40000000 </v>
   <v>       0.08333333       0.33333333       0.40000000 </v>
   <v>       0.12500000       0.33333333       0.40000000 </v>
   <v>       0.16666667       0.33333333       0.40000000 </v>
   <v>       0.20833333       0.33333333       0.40000000 </v>
   <v>       0.25000000       0.33333333       0.40000000 </v>
   <v>       0.29166667       0.33333333       0.40000000 </v>
   <v>       0.33333333       0.33333333       0.40000000 </v>
   <v>       0.37500000       0.33333333       0.40000000 </v>
   <v>       0.41666667       0.33333333       0.40000000 </v>
   <v>       0.45833333       0.33333333       0.40000000 </v>
   <v>       0.50000000       0.33333333       0.40000000 </v>
   <v>       0.00000000       0.40000000       0.40000000 </v>
   <v>       0.04166667       0.40000000       0.40000000 </v>
   <v>       0.08333333       0.40000000       0.40000000 </v>
   <v>       0.12500000       0.40000000       0.40000000 </v>
   <v>       0.16666667       0.40000000       0.40000000 </v>
   <v>       0.20833333       0.40000000       0.40000000 </v>
   <v>       0.25000000       0.40000000       0.40000000 </v>
   <v>       0.29166667       0.40000000       0.40000000 </v>
   <v>       0.33333333       0.40000000       0.40000000 </v>
   <v>       0.37500000       0.40000000       0.40000000 </v>
   <v>       0.41666667       0.40000000       0.40000000 </v>
   <v>       0.45833333       0.40000000       0.40000000 </v>
   <v>       0.50000000       0.40000000       0.40000000 </v>
   <v>       0.00000000       0.46666667       0.40000000 </v>
   <v>       0.04166667       0.46666667       0.40000000 </v>
   <v>       0.08333333       0.46666667       0.40000000 </v>
   <v>       0.12500000       0.46666667       0.40000000 </v>
   <v>       0.16666667       0.46666667       0.40000000 </v>
   <v>       0.20833333       0.46666667       0.40000000 </v>
   <v>       0.25000000       0.46666667       0.40000000 </v>
   <v>       0.29166667       0.46666667       0.40000000 </v>
   <v>       0.33333333       0.46666667       0.40000000 </v>
   <v>       0.37500000       0.46666667       0.40000000 </v>
   <v>       0.41666667       0.46666667       0.40000000 </v>
   <v>       0.45833333       0.46666667       0.40000000 </v>
   <v>       0.50000000       0.46666667       0.40000000 </v>
   <v>       0.00000000      -0.46666667       0.40000000 </v>
   <v>       0.04166667      -0.46666667       0.40000000 </v>
   <v>       0.08333333      -0.46666667       0.40000000 </v>
   <v>       0.12500000      -0.46666667       0.40000000 </v>
   <v>       0.16666667      -0.46666667       0.40000000 </v>
   <v>       0.20833333      -0.46666667       0.40000000 </v>
   <v>       0.25000000      -0.46666667       0.40000000 </v>
   <v>       0.29166667      -0.46666667       0.40000000 </v>
   <v>       0.33333333      -0.46666667       0.40000000 </v>
   <v>       0.37500000      -0.46666667       0.40000000 </v>
   <v>       0.41666667      -0.46666667       0.40000000 </v>
   <v>       0.45833333      -0.46666667       0.40000000 </v>
   <v>       0.50000000      -0.46666667       0.40000000 </v>
   <v>       0.00000000      -0.40000000       0.40000000 </v>
   <v>       0.04166667      -0.40000000       0.40000000 </v>
   <v>       0.08333333      -0.40000000       0.40000000 </v>
   <v>       0.12500000      -0.40000000       0.40000000 </v>
   <v>       0.16666667      -0.40000000       0.40000000 </v>
   <v>       0.20833333      -0.40000000       0.40000000 </v>
   <v>       0.25000000      -0.40000000       0.40000000 </v>
   <v>       0.29166667      -0.40000000       0.40000000 </v>
   <v>       0.33333333      -0.40000000       0.40000000 </v>
   <v>       0.37500000      -0.40000000       0.40000000 </v>
   <v>       0.41666667      -0.40000000       0.40000000 </v>
   <v>       0.45833333      -0.40000000       0.40000000 </v>
   <v>       0.50000000      -0.40000000       0.40000000 </v>
   <v>       0.00000000      -0.33333333       0.40000000 </v>
   <v>       0.04166667      -0.33333333       0.40000000 </v>
   <v>       0.08333333      -0.33333333       0.40000000 </v>
   <v>       0.12500000      -0.33333333       0.40000000 </v>
   <v>       0.16666667      -0.33333333       0.40000000 </v>
   <v>       0.20833333      -0.33333333       0.40000000 </v>
   <v>       0.25000000      -0.33333333       0.40000000 </v>
   <v>       0.29166667      -0.33333333       0.40000000 </v>
   <v>       0.33333333      -0.33333333       0.40000000 </v>
   <v>       0.37500000      -0.33333333       0.40000000 </v>
   <v>       0.41666667      -0.33333333       0.40000000 </v>
   <v>       0.45833333      -0.33333333       0.40000000 </v>
   <v>       0.50000000      -0.33333333       0.40000000 </v>
   <v>       0.00000000      -0.26666667       0.40000000 </v>
   <v>       0.04166667      -0.26666667       0.40000000 </v>
   <v>       0.08333333      -0.26666667       0.40000000 </v>
   <v>       0.12500000      -0.26666667       0.40000000 </v>
   <v>       0.16666667      -0.26666667       0.40000000 </v>
   <v>       0.20833333      -0.26666667       0.40000000 </v>
   <v>       0.25000000      -0.26666667       0.40000000 </v>
   <v>       0.29166667      -0.26666667       0.40000000 </v>
   <v>       0.33333333      -0.26666667       0.40000000 </v>
   <v>       0.37500000      -0.26666667       0.40000000 </v>
   <v>       0.41666667      -0.26666667       0.40000000 </v>
   <v>       0.45833333      -0.26666667       0.40000000 </v>
   <v>       0.50000000      -0.26666667       0.40000000 </v>
   <v>       0.00000000      -0.20000000       0.40000000 </v>
   <v>       0.04166667      -0.20000000       0.40000000 </v>
   <v>       0.08333333      -0.20000000       0.40000000 </v>
   <v>       0.12500000      -0.20000000       0.40000000 </v>
   <v>       0.16666667      -0.20000000       0.40000000 </v>
   <v>       0.20833333      -0.20000000       0.40000000 </v>
   <v>       0.25000000      -0.20000000       0.40000000 </v>
   <v>       0.29166667      -0.20000000       0.40000000 </v>
   <v>       0.33333333      -0.20000000       0.40000000 </v>
   <v>       0.37500000      -0.20000000       0.40000000 </v>
   <v>       0.41666667      -0.20000000       0.40000000 </v>
   <v>       0.45833333      -0.20000000       0.40000000 </v>
   <v>       0.50000000      -0.20000000       0.40000000 </v>
   <v>       0.00000000      -0.13333333       0.40000000 </v>
   <v>       0.04166667      -0.13333333       0.40000000 </v>
   <v>       0.08333333      -0.13333333       0.40000000 </v>
   <v>       0.12500000      -0.13333333       0.40000000 </v>
   <v>       0.16666667      -0.13333333       0.40000000 </v>
   <v>       0.20833333      -0.13333333       0.40000000 </v>
   <v>       0.25000000      -0.13333333       0.40000000 </v>
   <v>       0.29166667      -0.13333333       0.40000000 </v>
   <v>       0.33333333      -0.13333333       0.40000000 </v>
   <v>       0.37500000      -0.13333333       0.40000000 </v>
   <v>       0.41666667      -0.13333333       0.40000000 </v>
   <v>       0.45833333      -0.13333333       0.40000000 </v>
   <v>       0.50000000      -0.13333333       0.40000000 </v>
   <v>       0.00000000      -0.06666667       0.40000000 </v>
   <v>       0.04166667      -0.06666667       0.40000000 </v>
   <v>       0.08333333      -0.06666667       0.40000000 </v>
   <v>       0.12500000      -0.06666667       0.40000000 </v>
   <v>       0.16666667      -0.06666667       0.40000000 </v>
   <v>       0.20833333      -0.06666667       0.40000000 </v>
   <v>       0.25000000      -0.06666667       0.40000000 </v>
   <v>       0.29166667      -0.06666667       0.40000000 </v>
   <v>       0.33333333      -0.06666667       0.40000000 </v>
   <v>       0.37500000      -0.06666667       0.40000000 </v>
   <v>       0.41666667      -0.06666667       0.40000000 </v>
   <v>       0.45833333      -0.06666667       0.40000000 </v>
   <v>       0.50000000      -0.06666667       0.40000000 </v>
   <v>       0.00000000       0.00000000       0.50000000 </v>
   <v>       0.04166667       0.00000000       0.50000000 </v>
   <v>       0.08333333       0.00000000       0.50000000 </v>
   <v>       0.12500000       0.00000000       0.50000000 </v>
   <v>       0.16666667       0.00000000       0.50000000 </v>
   <v>       0.20833333       0.00000000       0.50000000 </v>
   <v>       0.25000000       0.00000000       0.50000000 </v>
   <v>       0.29166667       0.00000000       0.50000000 </v>
   <v>       0.33333333       0.00000000       0.50000000 </v>
   <v>       0.37500000       0.00000000       0.50000000 </v>
   <v>       0.41666667       0.00000000       0.50000000 </v>
   <v>       0.45833333       0.00000000       0.50000000 </v>
   <v>       0.50000000       0.00000000       0.50000000 </v>
   <v>       0.00000000       0.06666667       0.50000000 </v>
   <v>       0.04166667       0.06666667       0.50000000 </v>
   <v>       0.08333333       0.06666667       0.50000000 </v>
   <v>       0.12500000       0.06666667       0.50000000 </v>
   <v>       0.16666667       0.06666667       0.50000000 </v>
   <v>       0.20833333       0.06666667       0.50000000 </v>
   <v>       0.25000000       0.06666667       0.50000000 </v>
   <v>       0.29166667       0.06666667       0.50000000 </v>
   <v>       0.33333333       0.06666667       0.50000000 </v>
   <v>       0.37500000       0.06666667       0.50000000 </v>
   <v>       0.41666667       0.06666667       0.50000000 </v>
   <v>       0.45833333       0.06666667       0.50000000 </v>
   <v>       0.50000000       0.06666667       0.50000000 </v>
   <v>       0.00000000       0.13333333       0.50000000 </v>
   <v>       0.04166667       0.13333333       0.50000000 </v>
   <v>       0.08333333       0.13333333       0.50000000 </v>
   <v>       0.12500000       0.13333333       0.50000000 </v>
   <v>       0.16666667       0.13333333       0.50000000 </v>
   <v>       0.20833333       0.13333333       0.50000000 </v>
   <v>       0.25000000       0.13333333       0.50000000 </v>
   <v>       0.29166667       0.13333333       0.50000000 </v>
   <v>       0.33333333       0.13333333       0.50000000 </v>
   <v>       0.37500000       0.13333333       0.50000000 </v>
   <v>       0.41666667       0.13333333       0.50000000 </v>
   <v>       0.45833333       0.13333333       0.50000000 </v>
   <v>       0.50000000       0.13333333       0.50000000 </v>
   <v>       0.00000000       0.20000000       0.50000000 </v>
   <v>       0.04166667       0.20000000       0.50000000 </v>
   <v>       0.08333333       0.20000000       0.50000000 </v>
   <v>       0.12500000       0.20000000       0.50000000 </v>
   <v>       0.16666667       0.20000000       0.50000000 </v>
   <v>       0.20833333       0.20000000       0.50000000 </v>
   <v>       0.25000000       0.20000000       0.50000000 </v>
   <v>       0.29166667       0.20000000       0.50000000 </v>
   <v>       0.33333333       0.20000000       0.50000000 </v>
   <v>       0.37500000       0.20000000       0.50000000 </v>
   <v>       0.41666667       0.20000000       0.50000000 </v>
   <v>       0.45833333       0.20000000       0.50000000 </v>
   <v>       0.50000000       0.20000000       0.50000000 </v>
   <v>       0.00000000       0.26666667       0.50000000 </v>
   <v>       0.04166667       0.26666667       0.50000000 </v>
   <v>       0.08333333       0.26666667       0.50000000 </v>
   <v>       0.12500000       0.26666667       0.50000000 </v>
   <v>       0.16666667       0.26666667       0.50000000 </v>
   <v>       0.20833333       0.26666667       0.50000000 </v>
   <v>       0.25000000       0.26666667       0.50000000 </v>
   <v>       0.29166667       0.26666667       0.50000000 </v>
   <v>       0.33333333       0.26666667       0.50000000 </v>
   <v>       0.37500000       0.26666667       0.50000000 </v>
   <v>       0.41666667       0.26666667       0.50000000 </v>
   <v>       0.45833333       0.26666667       0.50000000 </v>
   <v>       0.50000000       0.26666667       0.50000000 </v>
   <v>       0.00000000       0.33333333       0.50000000 </v>
   <v>       0.04166667       0.33333333       0.50000000 </v>
   <v>       0.08333333       0.33333333       0.50000000 </v>
   <v>       0.12500000       0.33333333       0.50000000 </v>
   <v>       0.16666667       0.33333333       0.50000000 </v>
   <v>       0.20833333       0.33333333       0.50000000 </v>
   <v>       0.25000000       0.33333333       0.50000000 </v>
   <v>       0.29166667       0.33333333       0.50000000 </v>
   <v>       0.33333333       0.33333333       0.50000000 </v>
   <v>       0.37500000       0.33333333       0.50000000 </v>
   <v>       0.41666667       0.33333333       0.50000000 </v>
   <v>       0.45833333       0.33333333       0.50000000 </v>
   <v>       0.50000000       0.33333333       0.50000000 </v>
   <v>       0.00000000       0.40000000       0.50000000 </v>
   <v>       0.04166667       0.40000000       0.50000000 </v>
   <v>       0.08333333       0.40000000       0.50000000 </v>
   <v>       0.12500000       0.40000000       0.50000000 </v>
   <v>       0.16666667       0.40000000       0.50000000 </v>
   <v>       0.20833333       0.40000000       0.50000000 </v>
   <v>       0.25000000       0.40000000       0.50000000 </v>
   <v>       0.29166667       0.40000000       0.50000000 </v>
   <v>       0.33333333       0.40000000       0.50000000 </v>
   <v>       0.37500000       0.40000000       0.50000000 </v>
   <v>       0.41666667       0.40000000       0.50000000 </v>
   <v>       0.45833333       0.40000000       0.50000000 </v>
   <v>       0.50000000       0.40000000       0.50000000 </v>
   <v>       0.00000000       0.46666667       0.50000000 </v>
   <v>       0.04166667       0.46666667       0.50000000 </v>
   <v>       0.08333333       0.46666667       0.50000000 </v>
   <v>       0.12500000       0.46666667       0.50000000 </v>
   <v>       0.16666667       0.46666667       0.50000000 </v>
   <v>       0.20833333       0.46666667       0.50000000 </v>
   <v>       0.25000000       0.46666667       0.50000000 </v>
   <v>       0.29166667       0.46666667       0.50000000 </v>
   <v>       0.33333333       0.46666667       0.50000000 </v>
   <v>       0.37500000       0.46666667       0.50000000 </v>
   <v>       0.41666667       0.46666667       0.50000000 </v>
   <v>       0.45833333       0.46666667       0.50000000 </v>
   <v>       0.50000000       0.46666667       0.50000000 </v>
  </varray>
  <varray name="weights" >
   <v>       0.00027778 </v>
   <v>       0.00055556 </v>
   <v>       0.00055556 </v>
   <v>       0.00055556 </v>
   <v>       0.00055556 </v>
   <v>       0.00055556 </v>
   <v>       0.00055556 </v>
   <v>       0.00055556 </v>
   <v>       0.00055556 </v>
   <v>       0.00055556 </v>
   <v>       0.00055556 </v>
   <v>       0.00055556 </v>
   <v>       0.00027778 </v>
   <v>       0.00055556 </v>
   <v>       0.00111111 </v>
   <v>       0.00111111 </v>
   <v>       0.00111111 </v>
   <v>       0.00111111 </v>
   <v>       0.00111111 </v>
   <v>       0.00111111 </v>
   <v>       0.00111111 </v>
   <v>       0.00111111 </v>
   <v>       0.00111111 </v>
   <v>       0.00111111 </v>
   <v>       0.00111111 </v>
   <v>       0.00055556 </v>
   <v>       0.00055556 </v>
   <v>       0.00111111 </v>
   <v>       0.00111111 </v>
   <v>       0.00111111 </v>
   <v>       0.00111111 </v>
   <v>       0.00111111 </v>
   <v>       0.00111111 </v>
   <v>       0.00111111 </v>
   <v>       0.00111111 </v>
   <v>       0.00111111 </v>
   <v>       0.00111111 </v>
   <v>       0.00111111 </v>
   <v>       0.00055556 </v>
   <v>       0.00055556 </v>
   <v>       0.00111111 </v>
   <v>       0.00111111 </v>
   <v>       0.00111111 </v>
   <v>       0.00111111 </v>
   <v>       0.00111111 </v>
   <v>       0.00111111 </v>
   <v>       0.00111111 </v>
   <v>       0.00111111 </v>
   <v>       0.00111111 </v>
   <v>       0.00111111 </v>
   <v>       0.00111111 </v>
   <v>       0.00055556 </v>
   <v>       0.00055556 </v>
   <v>       0.00111111 </v>
   <v>       0.00111111 </v>
   <v>       0.00111111 </v>
   <v>       0.00111111 </v>
   <v>       0.00111111 </v>
   <v>       0.00111111 </v>
   <v>       0.00111111 </v>
   <v>       0.00111111 </v>
   <v>       0.00111111 </v>
   <v>       0.00111111 </v>
   <v>       0.00111111 </v>
   <v>       0.00055556 </v>
   <v>       0.00055556 </v>
   <v>       0.00111111 </v>
   <v>       0.00111111 </v>
   <v>       0.00111111 </v>
   <v>       0.00111111 </v>
   <v>       0.00111111 </v>
   <v>       0.00111111 </v>
   <v>       0.00111111 </v>
   <v>       0.00111111 </v>
   <v>       0.00111111 </v>
   <v>       0.00111111 </v>
   <v>       0.00111111 </v>
   <v>       0.00055556 </v>
   <v>       0.00055556 </v>
   <v>       0.00111111 </v>
   <v>       0.00111111 </v>
   <v>       0.00111111 </v>
   <v>       0.00111111 </v>
   <v>       0.00111111 </v>
   <v>       0.00111111 </v>
   <v>       0.00111111 </v>
   <v>       0.00111111 </v>
   <v>       0.00111111 </v>
   <v>       0.00111111 </v>
   <v>       0.00111111 </v>
   <v>       0.00055556 </v>
   <v>       0.00055556 </v>
   <v>       0.00111111 </v>
   <v>       0.00111111 </v>
   <v>       0.00111111 </v>
   <v>       0.00111111 </v>
   <v>       0.00111111 </v>
   <v>       0.00111111 </v>
   <v>       0.00111111 </v>
   <v>       0.00111111 </v>
   <v>       0.00111111 </v>
   <v>       0.00111111 </v>
   <v>       0.00111111 </v>
   <v>       0.00055556 </v>
   <v>       0.00055556 </v>
   <v>       0.00111111 </v>
   <v>       0.00111111 </v>
   <v>       0.00111111 </v>
   <v>       0.00111111 </v>
   <v>       0.00111111 </v>
   <v>       0.00111111 </v>
   <v>       0.00111111 </v>
   <v>       0.00111111 </v>
   <v>       0.00111111 </v>
   <v>       0.00111111 </v>
   <v>       0.00111111 </v>
   <v>       0.00055556 </v>
   <v>       0.00055556 </v>
   <v>       0.00111111 </v>
   <v>       0.00111111 </v>
   <v>       0.00111111 </v>
   <v>       0.00111111 </v>
   <v>       0.00111111 </v>
   <v>       0.00111111 </v>
   <v>       0.00111111 </v>
   <v>       0.00111111 </v>
   <v>       0.00111111 </v>
   <v>       0.00111111 </v>
   <v>       0.00111111 </v>
   <v>       0.00055556 </v>
   <v>       0.00055556 </v>
   <v>       0.00111111 </v>
   <v>       0.00111111 </v>
   <v>       0.00111111 </v>
   <v>       0.00111111 </v>
   <v>       0.00111111 </v>
   <v>       0.00111111 </v>
   <v>       0.00111111 </v>
   <v>       0.00111111 </v>
   <v>       0.00111111 </v>
   <v>       0.00111111 </v>
   <v>       0.00111111 </v>
   <v>       0.00055556 </v>
   <v>       0.00055556 </v>
   <v>       0.00111111 </v>
   <v>       0.00111111 </v>
   <v>       0.00111111 </v>
   <v>       0.00111111 </v>
   <v>       0.00111111 </v>
   <v>       0.00111111 </v>
   <v>       0.00111111 </v>
   <v>       0.00111111 </v>
   <v>       0.00111111 </v>
   <v>       0.00111111 </v>
   <v>       0.00111111 </v>
   <v>       0.00055556 </v>
   <v>       0.00055556 </v>
   <v>       0.00111111 </v>
   <v>       0.00111111 </v>
   <v>       0.00111111 </v>
   <v>       0.00111111 </v>
   <v>       0.00111111 </v>
   <v>       0.00111111 </v>
   <v>       0.00111111 </v>
   <v>       0.00111111 </v>
   <v>       0.00111111 </v>
   <v>       0.00111111 </v>
   <v>       0.00111111 </v>
   <v>       0.00055556 </v>
   <v>       0.00055556 </v>
   <v>       0.00111111 </v>
   <v>       0.00111111 </v>
   <v>       0.00111111 </v>
   <v>       0.00111111 </v>
   <v>       0.00111111 </v>
   <v>       0.00111111 </v>
   <v>       0.00111111 </v>
   <v>       0.00111111 </v>
   <v>       0.00111111 </v>
   <v>       0.00111111 </v>
   <v>       0.00111111 </v>
   <v>       0.00055556 </v>
   <v>       0.00055556 </v>
   <v>       0.00111111 </v>
   <v>       0.00111111 </v>
   <v>       0.00111111 </v>
   <v>       0.00111111 </v>
   <v>       0.00111111 </v>
   <v>       0.00111111 </v>
   <v>       0.00111111 </v>
   <v>       0.00111111 </v>
   <v>       0.00111111 </v>
   <v>       0.00111111 </v>
   <v>       0.00111111 </v>
   <v>       0.00055556 </v>
   <v>       0.00055556 </v>
   <v>       0.00111111 </v>
   <v>       0.00111111 </v>
   <v>       0.00111111 </v>
   <v>       0.00111111 </v>
   <v>       0.00111111 </v>
   <v>       0.00111111 </v>
   <v>       0.00111111 </v>
   <v>       0.00111111 </v>
   <v>       0.00111111 </v>
   <v>       0.00111111 </v>
   <v>       0.00111111 </v>
   <v>       0.00055556 </v>
   <v>       0.00055556 </v>
   <v>       0.00111111 </v>
   <v>       0.00111111 </v>
   <v>       0.00111111 </v>
   <v>       0.00111111 </v>
   <v>       0.00111111 </v>
   <v>       0.00111111 </v>
   <v>       0.00111111 </v>
   <v>       0.00111111 </v>
   <v>       0.00111111 </v>
   <v>       0.00111111 </v>
   <v>       0.00111111 </v>
   <v>       0.00055556 </v>
   <v>       0.00055556 </v>
   <v>       0.00111111 </v>
   <v>       0.00111111 </v>
   <v>       0.00111111 </v>
   <v>       0.00111111 </v>
   <v>       0.00111111 </v>
   <v>       0.00111111 </v>
   <v>       0.00111111 </v>
   <v>       0.00111111 </v>
   <v>       0.00111111 </v>
   <v>       0.00111111 </v>
   <v>       0.00111111 </v>
   <v>       0.00055556 </v>
   <v>       0.00055556 </v>
   <v>       0.00111111 </v>
   <v>       0.00111111 </v>
   <v>       0.00111111 </v>
   <v>       0.00111111 </v>
   <v>       0.00111111 </v>
   <v>       0.00111111 </v>
   <v>       0.00111111 </v>
   <v>       0.00111111 </v>
   <v>       0.00111111 </v>
   <v>       0.00111111 </v>
   <v>       0.00111111 </v>
   <v>       0.00055556 </v>
   <v>       0.00055556 </v>
   <v>       0.00111111 </v>
   <v>       0.00111111 </v>
   <v>       0.00111111 </v>
   <v>       0.00111111 </v>
   <v>       0.00111111 </v>
   <v>       0.00111111 </v>
   <v>       0.00111111 </v>
   <v>       0.00111111 </v>
   <v>       0.00111111 </v>
   <v>       0.00111111 </v>
   <v>       0.00111111 </v>
   <v>       0.00055556 </v>
   <v>       0.00055556 </v>
   <v>       0.00111111 </v>
   <v>       0.00111111 </v>
   <v>       0.00111111 </v>
   <v>       0.00111111 </v>
   <v>       0.00111111 </v>
   <v>       0.00111111 </v>
   <v>       0.00111111 </v>
   <v>       0.00111111 </v>
   <v>       0.00111111 </v>
   <v>       0.00111111 </v>
   <v>       0.00111111 </v>
   <v>       0.00055556 </v>
   <v>       0.00055556 </v>
   <v>       0.00111111 </v>
   <v>       0.00111111 </v>
   <v>       0.00111111 </v>
   <v>       0.00111111 </v>
   <v>       0.00111111 </v>
   <v>       0.00111111 </v>
   <v>       0.00111111 </v>
   <v>       0.00111111 </v>
   <v>       0.00111111 </v>
   <v>       0.00111111 </v>
   <v>       0.00111111 </v>
   <v>       0.00055556 </v>
   <v>       0.00055556 </v>
   <v>       0.00111111 </v>
   <v>       0.00111111 </v>
   <v>       0.00111111 </v>
   <v>       0.00111111 </v>
   <v>       0.00111111 </v>
   <v>       0.00111111 </v>
   <v>       0.00111111 </v>
   <v>       0.00111111 </v>
   <v>       0.00111111 </v>
   <v>       0.00111111 </v>
   <v>       0.00111111 </v>
   <v>       0.00055556 </v>
   <v>       0.00055556 </v>
   <v>       0.00111111 </v>
   <v>       0.00111111 </v>
   <v>       0.00111111 </v>
   <v>       0.00111111 </v>
   <v>       0.00111111 </v>
   <v>       0.00111111 </v>
   <v>       0.00111111 </v>
   <v>       0.00111111 </v>
   <v>       0.00111111 </v>
   <v>       0.00111111 </v>
   <v>       0.00111111 </v>
   <v>       0.00055556 </v>
   <v>       0.00055556 </v>
   <v>       0.00111111 </v>
   <v>       0.00111111 </v>
   <v>       0.00111111 </v>
   <v>       0.00111111 </v>
   <v>       0.00111111 </v>
   <v>       0.00111111 </v>
   <v>       0.00111111 </v>
   <v>       0.00111111 </v>
   <v>       0.00111111 </v>
   <v>       0.00111111 </v>
   <v>       0.00111111 </v>
   <v>       0.00055556 </v>
   <v>       0.00055556 </v>
   <v>       0.00111111 </v>
   <v>       0.00111111 </v>
   <v>       0.00111111 </v>
   <v>       0.00111111 </v>
   <v>       0.00111111 </v>
   <v>       0.00111111 </v>
   <v>       0.00111111 </v>
   <v>       0.00111111 </v>
   <v>       0.00111111 </v>
   <v>       0.00111111 </v>
   <v>       0.00111111 </v>
   <v>       0.00055556 </v>
   <v>       0.00055556 </v>
   <v>       0.00111111 </v>
   <v>       0.00111111 </v>
   <v>       0.00111111 </v>
   <v>       0.00111111 </v>
   <v>       0.00111111 </v>
   <v>       0.00111111 </v>
   <v>       0.00111111 </v>
   <v>       0.00111111 </v>
   <v>       0.00111111 </v>
   <v>       0.00111111 </v>
   <v>       0.00111111 </v>
   <v>       0.00055556 </v>
   <v>       0.00055556 </v>
   <v>       0.00111111 </v>
   <v>       0.00111111 </v>
   <v>       0.00111111 </v>
   <v>       0.00111111 </v>
   <v>       0.00111111 </v>
   <v>       0.00111111 </v>
   <v>       0.00111111 </v>
   <v>       0.00111111 </v>
   <v>       0.00111111 </v>
   <v>       0.00111111 </v>
   <v>       0.00111111 </v>
   <v>       0.00055556 </v>
   <v>       0.00055556 </v>
   <v>       0.00111111 </v>
   <v>       0.00111111 </v>
   <v>       0.00111111 </v>
   <v>       0.00111111 </v>
   <v>       0.00111111 </v>
   <v>       0.00111111 </v>
   <v>       0.00111111 </v>
   <v>       0.00111111 </v>
   <v>       0.00111111 </v>
   <v>       0.00111111 </v>
   <v>       0.00111111 </v>
   <v>       0.00055556 </v>
   <v>       0.00055556 </v>
   <v>       0.00111111 </v>
   <v>       0.00111111 </v>
   <v>       0.00111111 </v>
   <v>       0.00111111 </v>
   <v>       0.00111111 </v>
   <v>       0.00111111 </v>
   <v>       0.00111111 </v>
   <v>       0.00111111 </v>
   <v>       0.00111111 </v>
   <v>       0.00111111 </v>
   <v>       0.00111111 </v>
   <v>       0.00055556 </v>
   <v>       0.00055556 </v>
   <v>       0.00111111 </v>
   <v>       0.00111111 </v>
   <v>       0.00111111 </v>
   <v>       0.00111111 </v>
   <v>       0.00111111 </v>
   <v>       0.00111111 </v>
   <v>       0.00111111 </v>
   <v>       0.00111111 </v>
   <v>       0.00111111 </v>
   <v>       0.00111111 </v>
   <v>       0.00111111 </v>
   <v>       0.00055556 </v>
   <v>       0.00055556 </v>
   <v>       0.00111111 </v>
   <v>       0.00111111 </v>
   <v>       0.00111111 </v>
   <v>       0.00111111 </v>
   <v>       0.00111111 </v>
   <v>       0.00111111 </v>
   <v>       0.00111111 </v>
   <v>       0.00111111 </v>
   <v>       0.00111111 </v>
   <v>       0.00111111 </v>
   <v>       0.00111111 </v>
   <v>       0.00055556 </v>
   <v>       0.00055556 </v>
   <v>       0.00111111 </v>
   <v>       0.00111111 </v>
   <v>       0.00111111 </v>
   <v>       0.00111111 </v>
   <v>       0.00111111 </v>
   <v>       0.00111111 </v>
   <v>       0.00111111 </v>
   <v>       0.00111111 </v>
   <v>       0.00111111 </v>
   <v>       0.00111111 </v>
   <v>       0.00111111 </v>
   <v>       0.00055556 </v>
   <v>       0.00055556 </v>
   <v>       0.00111111 </v>
   <v>       0.00111111 </v>
   <v>       0.00111111 </v>
   <v>       0.00111111 </v>
   <v>       0.00111111 </v>
   <v>       0.00111111 </v>
   <v>       0.00111111 </v>
   <v>       0.00111111 </v>
   <v>       0.00111111 </v>
   <v>       0.00111111 </v>
   <v>       0.00111111 </v>
   <v>       0.00055556 </v>
   <v>       0.00055556 </v>
   <v>       0.00111111 </v>
   <v>       0.00111111 </v>
   <v>       0.00111111 </v>
   <v>       0.00111111 </v>
   <v>       0.00111111 </v>
   <v>       0.00111111 </v>
   <v>       0.00111111 </v>
   <v>       0.00111111 </v>
   <v>       0.00111111 </v>
   <v>       0.00111111 </v>
   <v>       0.00111111 </v>
   <v>       0.00055556 </v>
   <v>       0.00055556 </v>
   <v>       0.00111111 </v>
   <v>       0.00111111 </v>
   <v>       0.00111111 </v>
   <v>       0.00111111 </v>
   <v>       0.00111111 </v>
   <v>       0.00111111 </v>
   <v>       0.00111111 </v>
   <v>       0.00111111 </v>
   <v>       0.00111111 </v>
   <v>       0.00111111 </v>
   <v>       0.00111111 </v>
   <v>       0.00055556 </v>
   <v>       0.00055556 </v>
   <v>       0.00111111 </v>
   <v>       0.00111111 </v>
   <v>       0.00111111 </v>
   <v>       0.00111111 </v>
   <v>       0.00111111 </v>
   <v>       0.00111111 </v>
   <v>       0.00111111 </v>
   <v>       0.00111111 </v>
   <v>       0.00111111 </v>
   <v>       0.00111111 </v>
   <v>       0.00111111 </v>
   <v>       0.00055556 </v>
   <v>       0.00055556 </v>
   <v>       0.00111111 </v>
   <v>       0.00111111 </v>
   <v>       0.00111111 </v>
   <v>       0.00111111 </v>
   <v>       0.00111111 </v>
   <v>       0.00111111 </v>
   <v>       0.00111111 </v>
   <v>       0.00111111 </v>
   <v>       0.00111111 </v>
   <v>       0.00111111 </v>
   <v>       0.00111111 </v>
   <v>       0.00055556 </v>
   <v>       0.00055556 </v>
   <v>       0.00111111 </v>
   <v>       0.00111111 </v>
   <v>       0.00111111 </v>
   <v>       0.00111111 </v>
   <v>       0.00111111 </v>
   <v>       0.00111111 </v>
   <v>       0.00111111 </v>
   <v>       0.00111111 </v>
   <v>       0.00111111 </v>
   <v>       0.00111111 </v>
   <v>       0.00111111 </v>
   <v>       0.00055556 </v>
   <v>       0.00055556 </v>
   <v>       0.00111111 </v>
   <v>       0.00111111 </v>
   <v>       0.00111111 </v>
   <v>       0.00111111 </v>
   <v>       0.00111111 </v>
   <v>       0.00111111 </v>
   <v>       0.00111111 </v>
   <v>       0.00111111 </v>
   <v>       0.00111111 </v>
   <v>       0.00111111 </v>
   <v>       0.00111111 </v>
   <v>       0.00055556 </v>
   <v>       0.00055556 </v>
   <v>       0.00111111 </v>
   <v>       0.00111111 </v>
   <v>       0.00111111 </v>
   <v>       0.00111111 </v>
   <v>       0.00111111 </v>
   <v>       0.00111111 </v>
   <v>       0.00111111 </v>
   <v>       0.00111111 </v>
   <v>       0.00111111 </v>
   <v>       0.00111111 </v>
   <v>       0.00111111 </v>
   <v>       0.00055556 </v>
   <v>       0.00055556 </v>
   <v>       0.00111111 </v>
   <v>       0.00111111 </v>
   <v>       0.00111111 </v>
   <v>       0.00111111 </v>
   <v>       0.00111111 </v>
   <v>       0.00111111 </v>
   <v>       0.00111111 </v>
   <v>       0.00111111 </v>
   <v>       0.00111111 </v>
   <v>       0.00111111 </v>
   <v>       0.00111111 </v>
   <v>       0.00055556 </v>
   <v>       0.00055556 </v>
   <v>       0.00111111 </v>
   <v>       0.00111111 </v>
   <v>       0.00111111 </v>
   <v>       0.00111111 </v>
[...]
       <r>    5.6838    1.0000 </r>
       <r>    6.0453    1.0000 </r>
       <r>    6.1460    1.0000 </r>
       <r>    6.2747    1.0000 </r>
       <r>    6.3632    1.0000 </r>
       <r>    6.4534    1.0000 </r>
       <r>    6.4707    1.0000 </r>
       <r>    6.5529    1.0000 </r>
       <r>    6.6058    1.0000 </r>
       <r>    7.1947    1.0000 </r>
       <r>    7.5939    1.0099 </r>
       <r>    7.7138    1.0262 </r>
       <r>    8.2174    0.3768 </r>
       <r>   10.3513    0.0000 </r>
       <r>   11.2022    0.0000 </r>
       <r>   12.2227    0.0000 </r>
       <r>   12.5877    0.0000 </r>
       <r>   13.3543    0.0000 </r>
       <r>   14.2830    0.0000 </r>
      </set>
      <set comment="kpoint 987">
       <r>    1.7854    1.0000 </r>
       <r>    1.8180    1.0000 </r>
       <r>    1.9881    1.0000 </r>
       <r>    2.0524    1.0000 </r>
       <r>    2.6117    1.0000 </r>
       <r>    2.6524    1.0000 </r>
       <r>    3.0204    1.0000 </r>
       <r>    3.0853    1.0000 </r>
       <r>    3.2825    1.0000 </r>
       <r>    3.3289    1.0000 </r>
       <r>    3.5938    1.0000 </r>
       <r>    3.6309    1.0000 </r>
       <r>    4.2318    1.0000 </r>
       <r>    4.3685    1.0000 </r>
       <r>    4.5381    1.0000 </r>
       <r>    4.7454    1.0000 </r>
       <r>    5.1118    1.0000 </r>
       <r>    5.2396    1.0000 </r>
       <r>    5.3701    1.0000 </r>
       <r>    5.5886    1.0000 </r>
       <r>    5.5999    1.0000 </r>
       <r>    5.7548    1.0000 </r>
       <r>    6.0946    1.0000 </r>
       <r>    6.2856    1.0000 </r>
       <r>    6.3446    1.0000 </r>
       <r>    6.4294    1.0000 </r>
       <r>    6.5106    1.0000 </r>
       <r>    6.5334    1.0000 </r>
       <r>    6.6103    1.0000 </r>
       <r>    6.6246    1.0000 </r>
       <r>    7.5889    1.0094 </r>
       <r>    7.9510    0.9733 </r>
       <r>    8.2174    0.3768 </r>
       <r>    8.6900   -0.0176 </r>
       <r>    9.7083    0.0000 </r>
       <r>   10.2848    0.0000 </r>
       <r>   11.7443    0.0000 </r>
       <r>   12.2555    0.0000 </r>
       <r>   13.5157    0.0000 </r>
       <r>   14.6452    0.0000 </r>
      </set>
      <set comment="kpoint 988">
       <r>    1.7875    1.0000 </r>
       <r>    1.7905    1.0000 </r>
       <r>    1.9953    1.0000 </r>
       <r>    2.0178    1.0000 </r>
       <r>    2.6155    1.0000 </r>
       <r>    2.6292    1.0000 </r>
       <r>    3.0351    1.0000 </r>
       <r>    3.0532    1.0000 </r>
       <r>    3.2779    1.0000 </r>
       <r>    3.3237    1.0000 </r>
       <r>    3.6023    1.0000 </r>
       <r>    3.6341    1.0000 </r>
       <r>    4.2572    1.0000 </r>
       <r>    4.3642    1.0000 </r>
       <r>    4.5424    1.0000 </r>
       <r>    4.7445    1.0000 </r>
       <r>    5.2030    1.0000 </r>
       <r>    5.2220    1.0000 </r>
       <r>    5.3935    1.0000 </r>
       <r>    5.5917    1.0000 </r>
       <r>    5.6105    1.0000 </r>
       <r>    5.7765    1.0000 </r>
       <r>    6.1148    1.0000 </r>
       <r>    6.2960    1.0000 </r>
       <r>    6.3719    1.0000 </r>
       <r>    6.4805    1.0000 </r>
       <r>    6.5185    1.0000 </r>
       <r>    6.5515    1.0000 </r>
       <r>    6.6325    1.0000 </r>
       <r>    6.6380    1.0000 </r>
       <r>    7.9062    1.0096 </r>
       <r>    7.9131    1.0053 </r>
       <r>    8.8483   -0.0033 </r>
       <r>    8.9220   -0.0012 </r>
       <r>    9.4288    0.0000 </r>
       <r>    9.5437    0.0000 </r>
       <r>   11.5435    0.0000 </r>
       <r>   12.0595    0.0000 </r>
       <r>   13.8220    0.0000 </r>
       <r>   14.5941    0.0000 </r>
      </set>
     </set>
    </set>
   </array>
  </eigenvalues>
  <separator name="orbital magnetization" >
   <v name="MAGDIPOLOUT">      0.00000000      0.00000000      0.00000000</v>
  </separator>
  <dos>
   <i name="efermi">      8.17322222 </i>
   <total>
    <array>
     <dimension dim="1">gridpoints</dimension>
     <dimension dim="2">spin</dimension>
     <field>energy</field>
     <field>total</field>
     <field>integrated</field>
     <set>
      <set comment="spin 1">
       <r>    -3.8473     0.0000     0.0000 </r>
       <r>    -3.7688     0.0000     0.0000 </r>
       <r>    -3.6902     0.0000     0.0000 </r>
       <r>    -3.6116     0.0000     0.0000 </r>
       <r>    -3.5330     0.0000     0.0000 </r>
       <r>    -3.4545     0.0000     0.0000 </r>
       <r>    -3.3759     0.0000     0.0000 </r>
       <r>    -3.2973     0.0000     0.0000 </r>
       <r>    -3.2187     0.0000     0.0000 </r>
       <r>    -3.1401     0.0000     0.0000 </r>
       <r>    -3.0616     0.0000     0.0000 </r>
       <r>    -2.9830     0.0000     0.0000 </r>
       <r>    -2.9044     0.0000     0.0000 </r>
       <r>    -2.8258     0.0000     0.0000 </r>
       <r>    -2.7473     0.0000     0.0000 </r>
       <r>    -2.6687     0.0000     0.0000 </r>
       <r>    -2.5901     0.0000     0.0000 </r>
       <r>    -2.5115     0.0000     0.0000 </r>
       <r>    -2.4329     0.0000     0.0000 </r>
       <r>    -2.3544     0.0000     0.0000 </r>
       <r>    -2.2758     0.0000     0.0000 </r>
       <r>    -2.1972     0.0000     0.0000 </r>
       <r>    -2.1186     0.0000     0.0000 </r>
       <r>    -2.0401     0.0000     0.0000 </r>
       <r>    -1.9615     0.0000     0.0000 </r>
       <r>    -1.8829     0.0000     0.0000 </r>
       <r>    -1.8043     0.0000     0.0000 </r>
       <r>    -1.7257     0.0000     0.0000 </r>
       <r>    -1.6472     0.0000     0.0000 </r>
       <r>    -1.5686    -0.0001     0.0000 </r>
       <r>    -1.4900    -0.0004     0.0000 </r>
       <r>    -1.4114    -0.0010    -0.0001 </r>
       <r>    -1.3329    -0.0024    -0.0003 </r>
       <r>    -1.2543    -0.0046    -0.0007 </r>
       <r>    -1.1757    -0.0070    -0.0012 </r>
       <r>    -1.0971    -0.0077    -0.0018 </r>
       <r>    -1.0185    -0.0025    -0.0020 </r>
       <r>    -0.9400     0.0133    -0.0010 </r>
       <r>    -0.8614     0.0435     0.0025 </r>
       <r>    -0.7828     0.0880     0.0094 </r>
       <r>    -0.7042     0.1425     0.0206 </r>
       <r>    -0.6257     0.2001     0.0363 </r>
       <r>    -0.5471     0.2548     0.0563 </r>
       <r>    -0.4685     0.3039     0.0802 </r>
       <r>    -0.3899     0.3472     0.1075 </r>
       <r>    -0.3113     0.3862     0.1378 </r>
       <r>    -0.2328     0.4218     0.1710 </r>
       <r>    -0.1542     0.4542     0.2066 </r>
       <r>    -0.0756     0.4839     0.2447 </r>
       <r>     0.0030     0.5119     0.2849 </r>
       <r>     0.0816     0.5401     0.3273 </r>
       <r>     0.1601     0.5702     0.3721 </r>
       <r>     0.2387     0.6035     0.4196 </r>
       <r>     0.3173     0.6412     0.4699 </r>
       <r>     0.3959     0.6837     0.5237 </r>
       <r>     0.4744     0.7313     0.5811 </r>
       <r>     0.5530     0.7826     0.6426 </r>
       <r>     0.6316     0.8355     0.7083 </r>
       <r>     0.7102     0.8868     0.7780 </r>
       <r>     0.7888     0.9342     0.8514 </r>
       <r>     0.8673     0.9771     0.9281 </r>
       <r>     0.9459     1.0180     1.0081 </r>
       <r>     1.0245     1.0627     1.0916 </r>
       <r>     1.1031     1.1167     1.1794 </r>
       <r>     1.1816     1.1800     1.2721 </r>
       <r>     1.2602     1.2476     1.3701 </r>
       <r>     1.3388     1.3259     1.4743 </r>
       <r>     1.4174     1.4592     1.5890 </r>
       <r>     1.4960     1.7390     1.7256 </r>
       <r>     1.5745     2.2713     1.9041 </r>
       <r>     1.6531     3.1038     2.1480 </r>
       <r>     1.7317     4.1627     2.4751 </r>
       <r>     1.8103     5.2579     2.8883 </r>
       <r>     1.8888     6.1751     3.3735 </r>
       <r>     1.9674     6.8034     3.9081 </r>
       <r>     2.0460     7.2068     4.4744 </r>
       <r>     2.1246     7.5793     5.0699 </r>
       <r>     2.2032     8.1097     5.7072 </r>
       <r>     2.2817     8.8480     6.4025 </r>
       <r>     2.3603     9.6680     7.1621 </r>
       <r>     2.4389    10.3418     7.9748 </r>
       <r>     2.5175    10.6659     8.8129 </r>
       <r>     2.5960    10.5619     9.6428 </r>
       <r>     2.6746    10.1117    10.4374 </r>
       <r>     2.7532     9.5267    11.1860 </r>
       <r>     2.8318     9.0728    11.8989 </r>
       <r>     2.9104     8.9799    12.6045 </r>
       <r>     2.9889     9.3714    13.3409 </r>
       <r>     3.0675    10.2257    14.1444 </r>
       <r>     3.1461    11.3677    15.0377 </r>
       <r>     3.2247    12.5075    16.0205 </r>
       <r>     3.3032    13.3485    17.0694 </r>
       <r>     3.3818    13.7339    18.1485 </r>
       <r>     3.4604    13.7280    19.2273 </r>
       <r>     3.5390    13.5491    20.2919 </r>
       <r>     3.6176    13.4000    21.3449 </r>
       <r>     3.6961    13.3407    22.3932 </r>
       <r>     3.7747    13.3017    23.4384 </r>
       <r>     3.8533    13.1915    24.4749 </r>
       <r>     3.9319    12.9782    25.4947 </r>
       <r>     4.0105    12.6880    26.4917 </r>
       <r>     4.0890    12.3674    27.4635 </r>
       <r>     4.1676    12.0732    28.4122 </r>
       <r>     4.2462    11.8810    29.3458 </r>
       <r>     4.3248    11.8563    30.2775 </r>
       <r>     4.4033    11.9899    31.2196 </r>
       <r>     4.4819    12.1729    32.1761 </r>
       <r>     4.5605    12.2544    33.1391 </r>
       <r>     4.6391    12.1359    34.0927 </r>
       <r>     4.7177    11.8216    35.0216 </r>
       <r>     4.7962    11.3959    35.9170 </r>
       <r>     4.8748    10.9663    36.7788 </r>
       <r>     4.9534    10.6127    37.6127 </r>
       <r>     5.0320    10.3707    38.4276 </r>
       <r>     5.1105    10.2607    39.2339 </r>
       <r>     5.1891    10.3326    40.0458 </r>
       <r>     5.2677    10.6679    40.8840 </r>
       <r>     5.3463    11.2993    41.7719 </r>
       <r>     5.4249    12.1112    42.7236 </r>
       <r>     5.5034    12.8483    43.7332 </r>
       <r>     5.5820    13.2824    44.7769 </r>
       <r>     5.6606    13.4115    45.8307 </r>
       <r>     5.7392    13.4933    46.8910 </r>
       <r>     5.8177    13.8569    47.9799 </r>
       <r>     5.8963    14.6489    49.1309 </r>
       <r>     5.9749    15.7318    50.3671 </r>
       <r>     6.0535    16.8102    51.6880 </r>
       <r>     6.1321    17.6639    53.0760 </r>
       <r>     6.2106    18.2768    54.5122 </r>
       <r>     6.2892    18.7398    55.9847 </r>
       <r>     6.3678    19.0078    57.4783 </r>
       <r>     6.4464    18.7582    58.9523 </r>
       <r>     6.5249    17.5371    60.3303 </r>
       <r>     6.6035    15.1188    61.5183 </r>
       <r>     6.6821    11.7739    62.4435 </r>
       <r>     6.7607     8.1980    63.0877 </r>
       <r>     6.8393     5.1466    63.4921 </r>
       <r>     6.9178     3.0690    63.7332 </r>
       <r>     6.9964     1.9873    63.8894 </r>
       <r>     7.0750     1.6292    64.0174 </r>
       <r>     7.1536     1.6467    64.1468 </r>
       <r>     7.2321     1.7690    64.2858 </r>
       <r>     7.3107     1.8517    64.4313 </r>
       <r>     7.3893     1.8591    64.5774 </r>
       <r>     7.4679     1.8213    64.7205 </r>
       <r>     7.5465     1.7875    64.8610 </r>
       <r>     7.6250     1.7909    65.0017 </r>
       <r>     7.7036     1.8326    65.1457 </r>
       <r>     7.7822     1.8861    65.2939 </r>
       <r>     7.8608     1.9148    65.4443 </r>
       <r>     7.9394     1.8942    65.5932 </r>
       <r>     8.0179     1.8260    65.7367 </r>
       <r>     8.0965     1.7353    65.8730 </r>
       <r>     8.1751     1.6543    66.0030 </r>
       <r>     8.2537     1.6082    66.1294 </r>
       <r>     8.3322     1.6080    66.2557 </r>
       <r>     8.4108     1.6504    66.3854 </r>
       <r>     8.4894     1.7189    66.5205 </r>
       <r>     8.5680     1.7869    66.6609 </r>
       <r>     8.6466     1.8265    66.8044 </r>
       <r>     8.7251     1.8202    66.9475 </r>
       <r>     8.8037     1.7674    67.0863 </r>
       <r>     8.8823     1.6859    67.2188 </r>
       <r>     8.9609     1.6064    67.3450 </r>
       <r>     9.0394     1.5608    67.4677 </r>
       <r>     9.1180     1.5660    67.5907 </r>
       <r>     9.1966     1.6126    67.7175 </r>
       <r>     9.2752     1.6684    67.8486 </r>
       <r>     9.3538     1.6968    67.9819 </r>
       <r>     9.4323     1.6788    68.1138 </r>
       <r>     9.5109     1.6216    68.2412 </r>
       <r>     9.5895     1.5500    68.3630 </r>
       <r>     9.6681     1.4893    68.4801 </r>
       <r>     9.7466     1.4525    68.5942 </r>
       <r>     9.8252     1.4390    68.7073 </r>
       <r>     9.9038     1.4418    68.8205 </r>
       <r>     9.9824     1.4526    68.9347 </r>
       <r>    10.0610     1.4634    69.0497 </r>
       <r>    10.1395     1.4678    69.1650 </r>
       <r>    10.2181     1.4633    69.2800 </r>
       <r>    10.2967     1.4530    69.3942 </r>
       <r>    10.3753     1.4411    69.5074 </r>
       <r>    10.4538     1.4282    69.6196 </r>
       <r>    10.5324     1.4124    69.7306 </r>
       <r>    10.6110     1.3942    69.8402 </r>
       <r>    10.6896     1.3798    69.9486 </r>
       <r>    10.7682     1.3758    70.0567 </r>
       <r>    10.8467     1.3812    70.1652 </r>
       <r>    10.9253     1.3885    70.2743 </r>
       <r>    11.0039     1.3923    70.3838 </r>
       <r>    11.0825     1.3964    70.4935 </r>
       <r>    11.1610     1.4080    70.6041 </r>
       <r>    11.2396     1.4292    70.7164 </r>
       <r>    11.3182     1.4547    70.8307 </r>
       <r>    11.3968     1.4799    70.9470 </r>
       <r>    11.4754     1.5077    71.0655 </r>
       <r>    11.5539     1.5468    71.1870 </r>
       <r>    11.6325     1.6027    71.3130 </r>
       <r>    11.7111     1.6715    71.4443 </r>
       <r>    11.7897     1.7394    71.5810 </r>
       <r>    11.8683     1.7898    71.7216 </r>
       <r>    11.9468     1.8129    71.8641 </r>
       <r>    12.0254     1.8115    72.0064 </r>
       <r>    12.1040     1.7977    72.1477 </r>
       <r>    12.1826     1.7834    72.2878 </r>
       <r>    12.2611     1.7746    72.4273 </r>
       <r>    12.3397     1.7727    72.5666 </r>
       <r>    12.4183     1.7795    72.7064 </r>
       <r>    12.4969     1.7980    72.8477 </r>
       <r>    12.5755     1.8295    72.9914 </r>
       <r>    12.6540     1.8705    73.1384 </r>
       <r>    12.7326     1.9128    73.2887 </r>
       <r>    12.8112     1.9473    73.4417 </r>
       <r>    12.8898     1.9689    73.5964 </r>
       <r>    12.9683     1.9797    73.7520 </r>
       <r>    13.0469     1.9875    73.9082 </r>
       <r>    13.1255     2.0002    74.0653 </r>
       <r>    13.2041     2.0189    74.2240 </r>
       <r>    13.2827     2.0351    74.3839 </r>
       <r>    13.3612     2.0356    74.5438 </r>
       <r>    13.4398     2.0129    74.7020 </r>
       <r>    13.5184     1.9749    74.8572 </r>
       <r>    13.5970     1.9461    75.0101 </r>
       <r>    13.6755     1.9560    75.1638 </r>
       <r>    13.7541     2.0197    75.3225 </r>
       <r>    13.8327     2.1241    75.4894 </r>
       <r>    13.9113     2.2337    75.6649 </r>
       <r>    13.9899     2.3133    75.8467 </r>
       <r>    14.0684     2.3512    76.0315 </r>
       <r>    14.1470     2.3610    76.2170 </r>
       <r>    14.2256     2.3642    76.4028 </r>
       <r>    14.3042     2.3707    76.5890 </r>
       <r>    14.3827     2.3743    76.7756 </r>
       <r>    14.4613     2.3631    76.9613 </r>
       <r>    14.5399     2.3294    77.1443 </r>
       <r>    14.6185     2.2725    77.3229 </r>
       <r>    14.6971     2.1941    77.4953 </r>
       <r>    14.7756     2.0951    77.6599 </r>
       <r>    14.8542     1.9771    77.8153 </r>
       <r>    14.9328     1.8473    77.9605 </r>
       <r>    15.0114     1.7187    78.0955 </r>
       <r>    15.0899     1.6068    78.2218 </r>
       <r>    15.1685     1.5218    78.3414 </r>
       <r>    15.2471     1.4637    78.4564 </r>
       <r>    15.3257     1.4219    78.5681 </r>
       <r>    15.4043     1.3810    78.6766 </r>
       <r>    15.4828     1.3302    78.7811 </r>
       <r>    15.5614     1.2690    78.8809 </r>
       <r>    15.6400     1.2072    78.9757 </r>
       <r>    15.7186     1.1579    79.0667 </r>
       <r>    15.7972     1.1287    79.1554 </r>
       <r>    15.8757     1.1174    79.2432 </r>
       <r>    15.9543     1.1147    79.3308 </r>
       <r>    16.0329     1.1125    79.4182 </r>
       <r>    16.1115     1.1103    79.5055 </r>
       <r>    16.1900     1.1130    79.5929 </r>
       <r>    16.2686     1.1167    79.6807 </r>
       <r>    16.3472     1.0977    79.7669 </r>
       <r>    16.4258     1.0187    79.8470 </r>
       <r>    16.5044     0.8559    79.9142 </r>
       <r>    16.5829     0.6246    79.9633 </r>
       <r>    16.6615     0.3765    79.9929 </r>
       <r>    16.7401     0.1699    80.0062 </r>
       <r>    16.8187     0.0376    80.0092 </r>
       <r>    16.8972    -0.0229    80.0074 </r>
       <r>    16.9758    -0.0360    80.0046 </r>
       <r>    17.0544    -0.0282    80.0023 </r>
       <r>    17.1330    -0.0166    80.0010 </r>
       <r>    17.2116    -0.0081    80.0004 </r>
       <r>    17.2901    -0.0034    80.0001 </r>
       <r>    17.3687    -0.0012    80.0000 </r>
       <r>    17.4473    -0.0004    80.0000 </r>
       <r>    17.5259    -0.0001    80.0000 </r>
       <r>    17.6044     0.0000    80.0000 </r>
       <r>    17.6830     0.0000    80.0000 </r>
       <r>    17.7616     0.0000    80.0000 </r>
       <r>    17.8402     0.0000    80.0000 </r>
       <r>    17.9188     0.0000    80.0000 </r>
       <r>    17.9973     0.0000    80.0000 </r>
       <r>    18.0759     0.0000    80.0000 </r>
       <r>    18.1545     0.0000    80.0000 </r>
       <r>    18.2331     0.0000    80.0000 </r>
       <r>    18.3116     0.0000    80.0000 </r>
       <r>    18.3902     0.0000    80.0000 </r>
       <r>    18.4688     0.0000    80.0000 </r>
       <r>    18.5474     0.0000    80.0000 </r>
       <r>    18.6260     0.0000    80.0000 </r>
       <r>    18.7045     0.0000    80.0000 </r>
       <r>    18.7831     0.0000    80.0000 </r>
       <r>    18.8617     0.0000    80.0000 </r>
       <r>    18.9403     0.0000    80.0000 </r>
       <r>    19.0188     0.0000    80.0000 </r>
       <r>    19.0974     0.0000    80.0000 </r>
       <r>    19.1760     0.0000    80.0000 </r>
       <r>    19.2546     0.0000    80.0000 </r>
       <r>    19.3332     0.0000    80.0000 </r>
       <r>    19.4117     0.0000    80.0000 </r>
       <r>    19.4903     0.0000    80.0000 </r>
       <r>    19.5689     0.0000    80.0000 </r>
       <r>    19.6475     0.0000    80.0000 </r>
       <r>    19.7261     0.0000    80.0000 </r>
      </set>
     </set>
    </array>
   </total>
  </dos>
 </calculation>
 <structure name="finalpos" >
  <crystal>
   <varray name="basis" >
    <v>       0.00000000      -2.02451022      -2.02451022 </v>
    <v>      -3.50318835       2.18618867      -2.18618867 </v>
    <v>       3.63311298       4.49332751      -4.49332751 </v>
   </varray>
   <i name="volume">     95.89555463 </i>
   <varray name="rec_basis" >
    <v>       0.00000000      -0.24697331      -0.24697331 </v>
    <v>      -0.18972282       0.07670089      -0.07670089 </v>
    <v>       0.09230796       0.07395797      -0.07395797 </v>
   </varray>
  </crystal>
  <varray name="positions" >
   <v>       0.00000000       0.38652607       0.36733276 </v>
   <v>       0.50000000       0.11598345       0.63702799 </v>
   <v>       0.50000000       0.48108296       0.04794371 </v>
   <v>       0.00000000       0.01042279       0.95030858 </v>
   <v>       0.50000000       0.90285456       0.31896836 </v>
   <v>       0.00000000       0.60313016       0.67841860 </v>
  </varray>
 </structure>
</modeling>
