<?xml version="1.0" encoding="ISO-8859-1"?>
<modeling>
 <generator>
  <i name="program" type="string">vasp </i>
  <i name="version" type="string">5.3.5  </i>
  <i name="subversion" type="string">31Mar14 (build Jun 20 2014 13:15:13) complex                          parallel </i>
  <i name="platform" type="string">LinuxIFC </i>
  <i name="date" type="string">2025 11 21 </i>
  <i name="time" type="string">14:18:28 </i>
 </generator>
 <incar>
  <i type="string" name="PREC">accurate</i>
  <i type="int" name="IALGO">    68</i>
  <i type="logical" name="ADDGRID"> T  </i>
  <i type="int" name="NELM">   100</i>
  <i type="int" name="NELMIN">     4</i>
  <i type="int" name="IBRION">     2</i>
  <i name="EDIFF">      0.00000100</i>
  <i name="EDIFFG">     -0.02000000</i>
  <i type="int" name="NSW">    30</i>
  <i type="int" name="ISIF">     3</i>
  <i name="ENCUT">    500.00000000</i>
  <i type="logical" name="LREAL"> F  </i>
  <i type="int" name="ISMEAR">     1</i>
  <i name="SIGMA">      0.30000000</i>
  <i type="logical" name="LWAVE"> F  </i>
  <i type="logical" name="LCHARG"> F  </i>
  <i type="int" name="NELM">   100</i>
 </incar>
 <kpoints>
  <generation param="Auto">
   <i name="subdivisionlength">     70.00000000 </i>
   <v type="int" name="divisions">      17       18       11 </v>
   <v name="usershift">      0.00000000       0.00000000       0.00000000 </v>
   <v name="genvec1">      0.05882353       0.00000000       0.00000000 </v>
   <v name="genvec2">      0.00000000       0.05555556       0.00000000 </v>
   <v name="genvec3">      0.00000000       0.00000000       0.09090909 </v>
   <v name="shift">      0.00000000       0.00000000       0.00000000 </v>
  </generation>
  <varray name="kpointlist" >
   <v>       0.00000000       0.00000000       0.00000000 </v>
   <v>       0.05882353       0.00000000       0.00000000 </v>
   <v>       0.11764706       0.00000000       0.00000000 </v>
   <v>       0.17647059       0.00000000       0.00000000 </v>
   <v>       0.23529412       0.00000000       0.00000000 </v>
   <v>       0.29411765       0.00000000       0.00000000 </v>
   <v>       0.35294118       0.00000000       0.00000000 </v>
   <v>       0.41176471       0.00000000       0.00000000 </v>
   <v>       0.47058824       0.00000000       0.00000000 </v>
   <v>       0.00000000       0.05555556       0.00000000 </v>
   <v>       0.05882353       0.05555556       0.00000000 </v>
   <v>       0.11764706       0.05555556       0.00000000 </v>
   <v>       0.17647059       0.05555556       0.00000000 </v>
   <v>       0.23529412       0.05555556       0.00000000 </v>
   <v>       0.29411765       0.05555556       0.00000000 </v>
   <v>       0.35294118       0.05555556       0.00000000 </v>
   <v>       0.41176471       0.05555556       0.00000000 </v>
   <v>       0.47058824       0.05555556       0.00000000 </v>
   <v>       0.00000000       0.11111111       0.00000000 </v>
   <v>       0.05882353       0.11111111       0.00000000 </v>
   <v>       0.11764706       0.11111111       0.00000000 </v>
   <v>       0.17647059       0.11111111       0.00000000 </v>
   <v>       0.23529412       0.11111111       0.00000000 </v>
   <v>       0.29411765       0.11111111       0.00000000 </v>
   <v>       0.35294118       0.11111111       0.00000000 </v>
   <v>       0.41176471       0.11111111       0.00000000 </v>
   <v>       0.47058824       0.11111111       0.00000000 </v>
   <v>       0.00000000       0.16666667       0.00000000 </v>
   <v>       0.05882353       0.16666667       0.00000000 </v>
   <v>       0.11764706       0.16666667       0.00000000 </v>
   <v>       0.17647059       0.16666667       0.00000000 </v>
   <v>       0.23529412       0.16666667       0.00000000 </v>
   <v>       0.29411765       0.16666667       0.00000000 </v>
   <v>       0.35294118       0.16666667       0.00000000 </v>
   <v>       0.41176471       0.16666667       0.00000000 </v>
   <v>       0.47058824       0.16666667       0.00000000 </v>
   <v>       0.00000000       0.22222222       0.00000000 </v>
   <v>       0.05882353       0.22222222       0.00000000 </v>
   <v>       0.11764706       0.22222222       0.00000000 </v>
   <v>       0.17647059       0.22222222       0.00000000 </v>
   <v>       0.23529412       0.22222222       0.00000000 </v>
   <v>       0.29411765       0.22222222       0.00000000 </v>
   <v>       0.35294118       0.22222222       0.00000000 </v>
   <v>       0.41176471       0.22222222       0.00000000 </v>
   <v>       0.47058824       0.22222222       0.00000000 </v>
   <v>       0.00000000       0.27777778       0.00000000 </v>
   <v>       0.05882353       0.27777778       0.00000000 </v>
   <v>       0.11764706       0.27777778       0.00000000 </v>
   <v>       0.17647059       0.27777778       0.00000000 </v>
   <v>       0.23529412       0.27777778       0.00000000 </v>
   <v>       0.29411765       0.27777778       0.00000000 </v>
   <v>       0.35294118       0.27777778       0.00000000 </v>
   <v>       0.41176471       0.27777778       0.00000000 </v>
   <v>       0.47058824       0.27777778       0.00000000 </v>
   <v>       0.00000000       0.33333333       0.00000000 </v>
   <v>       0.05882353       0.33333333       0.00000000 </v>
   <v>       0.11764706       0.33333333       0.00000000 </v>
   <v>       0.17647059       0.33333333       0.00000000 </v>
   <v>       0.23529412       0.33333333       0.00000000 </v>
   <v>       0.29411765       0.33333333       0.00000000 </v>
   <v>       0.35294118       0.33333333       0.00000000 </v>
   <v>       0.41176471       0.33333333       0.00000000 </v>
   <v>       0.47058824       0.33333333       0.00000000 </v>
   <v>       0.00000000       0.38888889       0.00000000 </v>
   <v>       0.05882353       0.38888889       0.00000000 </v>
   <v>       0.11764706       0.38888889       0.00000000 </v>
   <v>       0.17647059       0.38888889       0.00000000 </v>
   <v>       0.23529412       0.38888889       0.00000000 </v>
   <v>       0.29411765       0.38888889       0.00000000 </v>
   <v>       0.35294118       0.38888889       0.00000000 </v>
   <v>       0.41176471       0.38888889       0.00000000 </v>
   <v>       0.47058824       0.38888889       0.00000000 </v>
   <v>       0.00000000       0.44444444       0.00000000 </v>
   <v>       0.05882353       0.44444444       0.00000000 </v>
   <v>       0.11764706       0.44444444       0.00000000 </v>
   <v>       0.17647059       0.44444444       0.00000000 </v>
   <v>       0.23529412       0.44444444       0.00000000 </v>
   <v>       0.29411765       0.44444444       0.00000000 </v>
   <v>       0.35294118       0.44444444       0.00000000 </v>
   <v>       0.41176471       0.44444444       0.00000000 </v>
   <v>       0.47058824       0.44444444       0.00000000 </v>
   <v>       0.00000000       0.50000000       0.00000000 </v>
   <v>       0.05882353       0.50000000       0.00000000 </v>
   <v>       0.11764706       0.50000000       0.00000000 </v>
   <v>       0.17647059       0.50000000       0.00000000 </v>
   <v>       0.23529412       0.50000000       0.00000000 </v>
   <v>       0.29411765       0.50000000       0.00000000 </v>
   <v>       0.35294118       0.50000000       0.00000000 </v>
   <v>       0.41176471       0.50000000       0.00000000 </v>
   <v>       0.47058824       0.50000000       0.00000000 </v>
   <v>       0.00000000       0.00000000       0.09090909 </v>
   <v>       0.05882353       0.00000000       0.09090909 </v>
   <v>       0.11764706       0.00000000       0.09090909 </v>
   <v>       0.17647059       0.00000000       0.09090909 </v>
   <v>       0.23529412       0.00000000       0.09090909 </v>
   <v>       0.29411765       0.00000000       0.09090909 </v>
   <v>       0.35294118       0.00000000       0.09090909 </v>
   <v>       0.41176471       0.00000000       0.09090909 </v>
   <v>       0.47058824       0.00000000       0.09090909 </v>
   <v>       0.00000000       0.05555556       0.09090909 </v>
   <v>       0.05882353       0.05555556       0.09090909 </v>
   <v>       0.11764706       0.05555556       0.09090909 </v>
   <v>       0.17647059       0.05555556       0.09090909 </v>
   <v>       0.23529412       0.05555556       0.09090909 </v>
   <v>       0.29411765       0.05555556       0.09090909 </v>
   <v>       0.35294118       0.05555556       0.09090909 </v>
   <v>       0.41176471       0.05555556       0.09090909 </v>
   <v>       0.47058824       0.05555556       0.09090909 </v>
   <v>       0.00000000       0.11111111       0.09090909 </v>
   <v>       0.05882353       0.11111111       0.09090909 </v>
   <v>       0.11764706       0.11111111       0.09090909 </v>
   <v>       0.17647059       0.11111111       0.09090909 </v>
   <v>       0.23529412       0.11111111       0.09090909 </v>
   <v>       0.29411765       0.11111111       0.09090909 </v>
   <v>       0.35294118       0.11111111       0.09090909 </v>
   <v>       0.41176471       0.11111111       0.09090909 </v>
   <v>       0.47058824       0.11111111       0.09090909 </v>
   <v>       0.00000000       0.16666667       0.09090909 </v>
   <v>       0.05882353       0.16666667       0.09090909 </v>
   <v>       0.11764706       0.16666667       0.09090909 </v>
   <v>       0.17647059       0.16666667       0.09090909 </v>
   <v>       0.23529412       0.16666667       0.09090909 </v>
   <v>       0.29411765       0.16666667       0.09090909 </v>
   <v>       0.35294118       0.16666667       0.09090909 </v>
   <v>       0.41176471       0.16666667       0.09090909 </v>
   <v>       0.47058824       0.16666667       0.09090909 </v>
   <v>       0.00000000       0.22222222       0.09090909 </v>
   <v>       0.05882353       0.22222222       0.09090909 </v>
   <v>       0.11764706       0.22222222       0.09090909 </v>
   <v>       0.17647059       0.22222222       0.09090909 </v>
   <v>       0.23529412       0.22222222       0.09090909 </v>
   <v>       0.29411765       0.22222222       0.09090909 </v>
   <v>       0.35294118       0.22222222       0.09090909 </v>
   <v>       0.41176471       0.22222222       0.09090909 </v>
   <v>       0.47058824       0.22222222       0.09090909 </v>
   <v>       0.00000000       0.27777778       0.09090909 </v>
   <v>       0.05882353       0.27777778       0.09090909 </v>
   <v>       0.11764706       0.27777778       0.09090909 </v>
   <v>       0.17647059       0.27777778       0.09090909 </v>
   <v>       0.23529412       0.27777778       0.09090909 </v>
   <v>       0.29411765       0.27777778       0.09090909 </v>
   <v>       0.35294118       0.27777778       0.09090909 </v>
   <v>       0.41176471       0.27777778       0.09090909 </v>
   <v>       0.47058824       0.27777778       0.09090909 </v>
   <v>       0.00000000       0.33333333       0.09090909 </v>
   <v>       0.05882353       0.33333333       0.09090909 </v>
   <v>       0.11764706       0.33333333       0.09090909 </v>
   <v>       0.17647059       0.33333333       0.09090909 </v>
   <v>       0.23529412       0.33333333       0.09090909 </v>
   <v>       0.29411765       0.33333333       0.09090909 </v>
   <v>       0.35294118       0.33333333       0.09090909 </v>
   <v>       0.41176471       0.33333333       0.09090909 </v>
   <v>       0.47058824       0.33333333       0.09090909 </v>
   <v>       0.00000000       0.38888889       0.09090909 </v>
   <v>       0.05882353       0.38888889       0.09090909 </v>
   <v>       0.11764706       0.38888889       0.09090909 </v>
   <v>       0.17647059       0.38888889       0.09090909 </v>
   <v>       0.23529412       0.38888889       0.09090909 </v>
   <v>       0.29411765       0.38888889       0.09090909 </v>
   <v>       0.35294118       0.38888889       0.09090909 </v>
   <v>       0.41176471       0.38888889       0.09090909 </v>
   <v>       0.47058824       0.38888889       0.09090909 </v>
   <v>       0.00000000       0.44444444       0.09090909 </v>
   <v>       0.05882353       0.44444444       0.09090909 </v>
   <v>       0.11764706       0.44444444       0.09090909 </v>
   <v>       0.17647059       0.44444444       0.09090909 </v>
   <v>       0.23529412       0.44444444       0.09090909 </v>
   <v>       0.29411765       0.44444444       0.09090909 </v>
   <v>       0.35294118       0.44444444       0.09090909 </v>
   <v>       0.41176471       0.44444444       0.09090909 </v>
   <v>       0.47058824       0.44444444       0.09090909 </v>
   <v>       0.00000000       0.50000000       0.09090909 </v>
   <v>       0.05882353       0.50000000       0.09090909 </v>
   <v>       0.11764706       0.50000000       0.09090909 </v>
   <v>       0.17647059       0.50000000       0.09090909 </v>
   <v>       0.23529412       0.50000000       0.09090909 </v>
   <v>       0.29411765       0.50000000       0.09090909 </v>
   <v>       0.35294118       0.50000000       0.09090909 </v>
   <v>       0.41176471       0.50000000       0.09090909 </v>
   <v>       0.47058824       0.50000000       0.09090909 </v>
   <v>       0.00000000      -0.44444444       0.09090909 </v>
   <v>       0.05882353      -0.44444444       0.09090909 </v>
   <v>       0.11764706      -0.44444444       0.09090909 </v>
   <v>       0.17647059      -0.44444444       0.09090909 </v>
   <v>       0.23529412      -0.44444444       0.09090909 </v>
   <v>       0.29411765      -0.44444444       0.09090909 </v>
   <v>       0.35294118      -0.44444444       0.09090909 </v>
   <v>       0.41176471      -0.44444444       0.09090909 </v>
   <v>       0.47058824      -0.44444444       0.09090909 </v>
   <v>       0.00000000      -0.38888889       0.09090909 </v>
   <v>       0.05882353      -0.38888889       0.09090909 </v>
   <v>       0.11764706      -0.38888889       0.09090909 </v>
   <v>       0.17647059      -0.38888889       0.09090909 </v>
   <v>       0.23529412      -0.38888889       0.09090909 </v>
   <v>       0.29411765      -0.38888889       0.09090909 </v>
   <v>       0.35294118      -0.38888889       0.09090909 </v>
   <v>       0.41176471      -0.38888889       0.09090909 </v>
   <v>       0.47058824      -0.38888889       0.09090909 </v>
   <v>       0.00000000      -0.33333333       0.09090909 </v>
   <v>       0.05882353      -0.33333333       0.09090909 </v>
   <v>       0.11764706      -0.33333333       0.09090909 </v>
   <v>       0.17647059      -0.33333333       0.09090909 </v>
   <v>       0.23529412      -0.33333333       0.09090909 </v>
   <v>       0.29411765      -0.33333333       0.09090909 </v>
   <v>       0.35294118      -0.33333333       0.09090909 </v>
   <v>       0.41176471      -0.33333333       0.09090909 </v>
   <v>       0.47058824      -0.33333333       0.09090909 </v>
   <v>       0.00000000      -0.27777778       0.09090909 </v>
   <v>       0.05882353      -0.27777778       0.09090909 </v>
   <v>       0.11764706      -0.27777778       0.09090909 </v>
   <v>       0.17647059      -0.27777778       0.09090909 </v>
   <v>       0.23529412      -0.27777778       0.09090909 </v>
   <v>       0.29411765      -0.27777778       0.09090909 </v>
   <v>       0.35294118      -0.27777778       0.09090909 </v>
   <v>       0.41176471      -0.27777778       0.09090909 </v>
   <v>       0.47058824      -0.27777778       0.09090909 </v>
   <v>       0.00000000      -0.22222222       0.09090909 </v>
   <v>       0.05882353      -0.22222222       0.09090909 </v>
   <v>       0.11764706      -0.22222222       0.09090909 </v>
   <v>       0.17647059      -0.22222222       0.09090909 </v>
   <v>       0.23529412      -0.22222222       0.09090909 </v>
   <v>       0.29411765      -0.22222222       0.09090909 </v>
   <v>       0.35294118      -0.22222222       0.09090909 </v>
   <v>       0.41176471      -0.22222222       0.09090909 </v>
   <v>       0.47058824      -0.22222222       0.09090909 </v>
   <v>       0.00000000      -0.16666667       0.09090909 </v>
   <v>       0.05882353      -0.16666667       0.09090909 </v>
   <v>       0.11764706      -0.16666667       0.09090909 </v>
   <v>       0.17647059      -0.16666667       0.09090909 </v>
   <v>       0.23529412      -0.16666667       0.09090909 </v>
   <v>       0.29411765      -0.16666667       0.09090909 </v>
   <v>       0.35294118      -0.16666667       0.09090909 </v>
   <v>       0.41176471      -0.16666667       0.09090909 </v>
   <v>       0.47058824      -0.16666667       0.09090909 </v>
   <v>       0.00000000      -0.11111111       0.09090909 </v>
   <v>       0.05882353      -0.11111111       0.09090909 </v>
   <v>       0.11764706      -0.11111111       0.09090909 </v>
   <v>       0.17647059      -0.11111111       0.09090909 </v>
   <v>       0.23529412      -0.11111111       0.09090909 </v>
   <v>       0.29411765      -0.11111111       0.09090909 </v>
   <v>       0.35294118      -0.11111111       0.09090909 </v>
   <v>       0.41176471      -0.11111111       0.09090909 </v>
   <v>       0.47058824      -0.11111111       0.09090909 </v>
   <v>       0.00000000      -0.05555556       0.09090909 </v>
   <v>       0.05882353      -0.05555556       0.09090909 </v>
   <v>       0.11764706      -0.05555556       0.09090909 </v>
   <v>       0.17647059      -0.05555556       0.09090909 </v>
   <v>       0.23529412      -0.05555556       0.09090909 </v>
   <v>       0.29411765      -0.05555556       0.09090909 </v>
   <v>       0.35294118      -0.05555556       0.09090909 </v>
   <v>       0.41176471      -0.05555556       0.09090909 </v>
   <v>       0.47058824      -0.05555556       0.09090909 </v>
   <v>       0.00000000       0.00000000       0.18181818 </v>
   <v>       0.05882353       0.00000000       0.18181818 </v>
   <v>       0.11764706       0.00000000       0.18181818 </v>
   <v>       0.17647059       0.00000000       0.18181818 </v>
   <v>       0.23529412       0.00000000       0.18181818 </v>
   <v>       0.29411765       0.00000000       0.18181818 </v>
   <v>       0.35294118       0.00000000       0.18181818 </v>
   <v>       0.41176471       0.00000000       0.18181818 </v>
   <v>       0.47058824       0.00000000       0.18181818 </v>
   <v>       0.00000000       0.05555556       0.18181818 </v>
   <v>       0.05882353       0.05555556       0.18181818 </v>
   <v>       0.11764706       0.05555556       0.18181818 </v>
   <v>       0.17647059       0.05555556       0.18181818 </v>
   <v>       0.23529412       0.05555556       0.18181818 </v>
   <v>       0.29411765       0.05555556       0.18181818 </v>
   <v>       0.35294118       0.05555556       0.18181818 </v>
   <v>       0.41176471       0.05555556       0.18181818 </v>
   <v>       0.47058824       0.05555556       0.18181818 </v>
   <v>       0.00000000       0.11111111       0.18181818 </v>
   <v>       0.05882353       0.11111111       0.18181818 </v>
   <v>       0.11764706       0.11111111       0.18181818 </v>
   <v>       0.17647059       0.11111111       0.18181818 </v>
   <v>       0.23529412       0.11111111       0.18181818 </v>
   <v>       0.29411765       0.11111111       0.18181818 </v>
   <v>       0.35294118       0.11111111       0.18181818 </v>
   <v>       0.41176471       0.11111111       0.18181818 </v>
   <v>       0.47058824       0.11111111       0.18181818 </v>
   <v>       0.00000000       0.16666667       0.18181818 </v>
   <v>       0.05882353       0.16666667       0.18181818 </v>
   <v>       0.11764706       0.16666667       0.18181818 </v>
   <v>       0.17647059       0.16666667       0.18181818 </v>
   <v>       0.23529412       0.16666667       0.18181818 </v>
   <v>       0.29411765       0.16666667       0.18181818 </v>
   <v>       0.35294118       0.16666667       0.18181818 </v>
   <v>       0.41176471       0.16666667       0.18181818 </v>
   <v>       0.47058824       0.16666667       0.18181818 </v>
   <v>       0.00000000       0.22222222       0.18181818 </v>
   <v>       0.05882353       0.22222222       0.18181818 </v>
   <v>       0.11764706       0.22222222       0.18181818 </v>
   <v>       0.17647059       0.22222222       0.18181818 </v>
   <v>       0.23529412       0.22222222       0.18181818 </v>
   <v>       0.29411765       0.22222222       0.18181818 </v>
   <v>       0.35294118       0.22222222       0.18181818 </v>
   <v>       0.41176471       0.22222222       0.18181818 </v>
   <v>       0.47058824       0.22222222       0.18181818 </v>
   <v>       0.00000000       0.27777778       0.18181818 </v>
   <v>       0.05882353       0.27777778       0.18181818 </v>
   <v>       0.11764706       0.27777778       0.18181818 </v>
   <v>       0.17647059       0.27777778       0.18181818 </v>
   <v>       0.23529412       0.27777778       0.18181818 </v>
   <v>       0.29411765       0.27777778       0.18181818 </v>
   <v>       0.35294118       0.27777778       0.18181818 </v>
   <v>       0.41176471       0.27777778       0.18181818 </v>
   <v>       0.47058824       0.27777778       0.18181818 </v>
   <v>       0.00000000       0.33333333       0.18181818 </v>
   <v>       0.05882353       0.33333333       0.18181818 </v>
   <v>       0.11764706       0.33333333       0.18181818 </v>
   <v>       0.17647059       0.33333333       0.18181818 </v>
   <v>       0.23529412       0.33333333       0.18181818 </v>
   <v>       0.29411765       0.33333333       0.18181818 </v>
   <v>       0.35294118       0.33333333       0.18181818 </v>
   <v>       0.41176471       0.33333333       0.18181818 </v>
   <v>       0.47058824       0.33333333       0.18181818 </v>
   <v>       0.00000000       0.38888889       0.18181818 </v>
   <v>       0.05882353       0.38888889       0.18181818 </v>
   <v>       0.11764706       0.38888889       0.18181818 </v>
   <v>       0.17647059       0.38888889       0.18181818 </v>
   <v>       0.23529412       0.38888889       0.18181818 </v>
   <v>       0.29411765       0.38888889       0.18181818 </v>
   <v>       0.35294118       0.38888889       0.18181818 </v>
   <v>       0.41176471       0.38888889       0.18181818 </v>
   <v>       0.47058824       0.38888889       0.18181818 </v>
   <v>       0.00000000       0.44444444       0.18181818 </v>
   <v>       0.05882353       0.44444444       0.18181818 </v>
   <v>       0.11764706       0.44444444       0.18181818 </v>
   <v>       0.17647059       0.44444444       0.18181818 </v>
   <v>       0.23529412       0.44444444       0.18181818 </v>
   <v>       0.29411765       0.44444444       0.18181818 </v>
   <v>       0.35294118       0.44444444       0.18181818 </v>
   <v>       0.41176471       0.44444444       0.18181818 </v>
   <v>       0.47058824       0.44444444       0.18181818 </v>
   <v>       0.00000000       0.50000000       0.18181818 </v>
   <v>       0.05882353       0.50000000       0.18181818 </v>
   <v>       0.11764706       0.50000000       0.18181818 </v>
   <v>       0.17647059       0.50000000       0.18181818 </v>
   <v>       0.23529412       0.50000000       0.18181818 </v>
   <v>       0.29411765       0.50000000       0.18181818 </v>
   <v>       0.35294118       0.50000000       0.18181818 </v>
   <v>       0.41176471       0.50000000       0.18181818 </v>
   <v>       0.47058824       0.50000000       0.18181818 </v>
   <v>       0.00000000      -0.44444444       0.18181818 </v>
   <v>       0.05882353      -0.44444444       0.18181818 </v>
   <v>       0.11764706      -0.44444444       0.18181818 </v>
   <v>       0.17647059      -0.44444444       0.18181818 </v>
   <v>       0.23529412      -0.44444444       0.18181818 </v>
   <v>       0.29411765      -0.44444444       0.18181818 </v>
   <v>       0.35294118      -0.44444444       0.18181818 </v>
   <v>       0.41176471      -0.44444444       0.18181818 </v>
   <v>       0.47058824      -0.44444444       0.18181818 </v>
   <v>       0.00000000      -0.38888889       0.18181818 </v>
   <v>       0.05882353      -0.38888889       0.18181818 </v>
   <v>       0.11764706      -0.38888889       0.18181818 </v>
   <v>       0.17647059      -0.38888889       0.18181818 </v>
   <v>       0.23529412      -0.38888889       0.18181818 </v>
   <v>       0.29411765      -0.38888889       0.18181818 </v>
   <v>       0.35294118      -0.38888889       0.18181818 </v>
   <v>       0.41176471      -0.38888889       0.18181818 </v>
   <v>       0.47058824      -0.38888889       0.18181818 </v>
   <v>       0.00000000      -0.33333333       0.18181818 </v>
   <v>       0.05882353      -0.33333333       0.18181818 </v>
   <v>       0.11764706      -0.33333333       0.18181818 </v>
   <v>       0.17647059      -0.33333333       0.18181818 </v>
   <v>       0.23529412      -0.33333333       0.18181818 </v>
   <v>       0.29411765      -0.33333333       0.18181818 </v>
   <v>       0.35294118      -0.33333333       0.18181818 </v>
   <v>       0.41176471      -0.33333333       0.18181818 </v>
   <v>       0.47058824      -0.33333333       0.18181818 </v>
   <v>       0.00000000      -0.27777778       0.18181818 </v>
   <v>       0.05882353      -0.27777778       0.18181818 </v>
   <v>       0.11764706      -0.27777778       0.18181818 </v>
   <v>       0.17647059      -0.27777778       0.18181818 </v>
   <v>       0.23529412      -0.27777778       0.18181818 </v>
   <v>       0.29411765      -0.27777778       0.18181818 </v>
   <v>       0.35294118      -0.27777778       0.18181818 </v>
   <v>       0.41176471      -0.27777778       0.18181818 </v>
   <v>       0.47058824      -0.27777778       0.18181818 </v>
   <v>       0.00000000      -0.22222222       0.18181818 </v>
   <v>       0.05882353      -0.22222222       0.18181818 </v>
   <v>       0.11764706      -0.22222222       0.18181818 </v>
   <v>       0.17647059      -0.22222222       0.18181818 </v>
   <v>       0.23529412      -0.22222222       0.18181818 </v>
   <v>       0.29411765      -0.22222222       0.18181818 </v>
   <v>       0.35294118      -0.22222222       0.18181818 </v>
   <v>       0.41176471      -0.22222222       0.18181818 </v>
   <v>       0.47058824      -0.22222222       0.18181818 </v>
   <v>       0.00000000      -0.16666667       0.18181818 </v>
   <v>       0.05882353      -0.16666667       0.18181818 </v>
   <v>       0.11764706      -0.16666667       0.18181818 </v>
   <v>       0.17647059      -0.16666667       0.18181818 </v>
   <v>       0.23529412      -0.16666667       0.18181818 </v>
   <v>       0.29411765      -0.16666667       0.18181818 </v>
   <v>       0.35294118      -0.16666667       0.18181818 </v>
   <v>       0.41176471      -0.16666667       0.18181818 </v>
   <v>       0.47058824      -0.16666667       0.18181818 </v>
   <v>       0.00000000      -0.11111111       0.18181818 </v>
   <v>       0.05882353      -0.11111111       0.18181818 </v>
   <v>       0.11764706      -0.11111111       0.18181818 </v>
   <v>       0.17647059      -0.11111111       0.18181818 </v>
   <v>       0.23529412      -0.11111111       0.18181818 </v>
   <v>       0.29411765      -0.11111111       0.18181818 </v>
   <v>       0.35294118      -0.11111111       0.18181818 </v>
   <v>       0.41176471      -0.11111111       0.18181818 </v>
   <v>       0.47058824      -0.11111111       0.18181818 </v>
   <v>       0.00000000      -0.05555556       0.18181818 </v>
   <v>       0.05882353      -0.05555556       0.18181818 </v>
   <v>       0.11764706      -0.05555556       0.18181818 </v>
   <v>       0.17647059      -0.05555556       0.18181818 </v>
   <v>       0.23529412      -0.05555556       0.18181818 </v>
   <v>       0.29411765      -0.05555556       0.18181818 </v>
   <v>       0.35294118      -0.05555556       0.18181818 </v>
   <v>       0.41176471      -0.05555556       0.18181818 </v>
   <v>       0.47058824      -0.05555556       0.18181818 </v>
   <v>       0.00000000       0.00000000       0.27272727 </v>
   <v>       0.05882353       0.00000000       0.27272727 </v>
   <v>       0.11764706       0.00000000       0.27272727 </v>
   <v>       0.17647059       0.00000000       0.27272727 </v>
   <v>       0.23529412       0.00000000       0.27272727 </v>
   <v>       0.29411765       0.00000000       0.27272727 </v>
   <v>       0.35294118       0.00000000       0.27272727 </v>
   <v>       0.41176471       0.00000000       0.27272727 </v>
   <v>       0.47058824       0.00000000       0.27272727 </v>
   <v>       0.00000000       0.05555556       0.27272727 </v>
   <v>       0.05882353       0.05555556       0.27272727 </v>
   <v>       0.11764706       0.05555556       0.27272727 </v>
   <v>       0.17647059       0.05555556       0.27272727 </v>
   <v>       0.23529412       0.05555556       0.27272727 </v>
   <v>       0.29411765       0.05555556       0.27272727 </v>
   <v>       0.35294118       0.05555556       0.27272727 </v>
   <v>       0.41176471       0.05555556       0.27272727 </v>
   <v>       0.47058824       0.05555556       0.27272727 </v>
   <v>       0.00000000       0.11111111       0.27272727 </v>
   <v>       0.05882353       0.11111111       0.27272727 </v>
   <v>       0.11764706       0.11111111       0.27272727 </v>
   <v>       0.17647059       0.11111111       0.27272727 </v>
   <v>       0.23529412       0.11111111       0.27272727 </v>
   <v>       0.29411765       0.11111111       0.27272727 </v>
   <v>       0.35294118       0.11111111       0.27272727 </v>
   <v>       0.41176471       0.11111111       0.27272727 </v>
   <v>       0.47058824       0.11111111       0.27272727 </v>
   <v>       0.00000000       0.16666667       0.27272727 </v>
   <v>       0.05882353       0.16666667       0.27272727 </v>
   <v>       0.11764706       0.16666667       0.27272727 </v>
   <v>       0.17647059       0.16666667       0.27272727 </v>
   <v>       0.23529412       0.16666667       0.27272727 </v>
   <v>       0.29411765       0.16666667       0.27272727 </v>
   <v>       0.35294118       0.16666667       0.27272727 </v>
   <v>       0.41176471       0.16666667       0.27272727 </v>
   <v>       0.47058824       0.16666667       0.27272727 </v>
   <v>       0.00000000       0.22222222       0.27272727 </v>
   <v>       0.05882353       0.22222222       0.27272727 </v>
   <v>       0.11764706       0.22222222       0.27272727 </v>
   <v>       0.17647059       0.22222222       0.27272727 </v>
   <v>       0.23529412       0.22222222       0.27272727 </v>
   <v>       0.29411765       0.22222222       0.27272727 </v>
   <v>       0.35294118       0.22222222       0.27272727 </v>
   <v>       0.41176471       0.22222222       0.27272727 </v>
   <v>       0.47058824       0.22222222       0.27272727 </v>
   <v>       0.00000000       0.27777778       0.27272727 </v>
   <v>       0.05882353       0.27777778       0.27272727 </v>
   <v>       0.11764706       0.27777778       0.27272727 </v>
   <v>       0.17647059       0.27777778       0.27272727 </v>
   <v>       0.23529412       0.27777778       0.27272727 </v>
   <v>       0.29411765       0.27777778       0.27272727 </v>
   <v>       0.35294118       0.27777778       0.27272727 </v>
   <v>       0.41176471       0.27777778       0.27272727 </v>
   <v>       0.47058824       0.27777778       0.27272727 </v>
   <v>       0.00000000       0.33333333       0.27272727 </v>
   <v>       0.05882353       0.33333333       0.27272727 </v>
   <v>       0.11764706       0.33333333       0.27272727 </v>
   <v>       0.17647059       0.33333333       0.27272727 </v>
   <v>       0.23529412       0.33333333       0.27272727 </v>
   <v>       0.29411765       0.33333333       0.27272727 </v>
   <v>       0.35294118       0.33333333       0.27272727 </v>
   <v>       0.41176471       0.33333333       0.27272727 </v>
   <v>       0.47058824       0.33333333       0.27272727 </v>
   <v>       0.00000000       0.38888889       0.27272727 </v>
   <v>       0.05882353       0.38888889       0.27272727 </v>
   <v>       0.11764706       0.38888889       0.27272727 </v>
   <v>       0.17647059       0.38888889       0.27272727 </v>
   <v>       0.23529412       0.38888889       0.27272727 </v>
   <v>       0.29411765       0.38888889       0.27272727 </v>
   <v>       0.35294118       0.38888889       0.27272727 </v>
   <v>       0.41176471       0.38888889       0.27272727 </v>
   <v>       0.47058824       0.38888889       0.27272727 </v>
   <v>       0.00000000       0.44444444       0.27272727 </v>
   <v>       0.05882353       0.44444444       0.27272727 </v>
   <v>       0.11764706       0.44444444       0.27272727 </v>
   <v>       0.17647059       0.44444444       0.27272727 </v>
   <v>       0.23529412       0.44444444       0.27272727 </v>
   <v>       0.29411765       0.44444444       0.27272727 </v>
   <v>       0.35294118       0.44444444       0.27272727 </v>
   <v>       0.41176471       0.44444444       0.27272727 </v>
   <v>       0.47058824       0.44444444       0.27272727 </v>
   <v>       0.00000000       0.50000000       0.27272727 </v>
   <v>       0.05882353       0.50000000       0.27272727 </v>
   <v>       0.11764706       0.50000000       0.27272727 </v>
   <v>       0.17647059       0.50000000       0.27272727 </v>
   <v>       0.23529412       0.50000000       0.27272727 </v>
   <v>       0.29411765       0.50000000       0.27272727 </v>
   <v>       0.35294118       0.50000000       0.27272727 </v>
   <v>       0.41176471       0.50000000       0.27272727 </v>
   <v>       0.47058824       0.50000000       0.27272727 </v>
   <v>       0.00000000      -0.44444444       0.27272727 </v>
   <v>       0.05882353      -0.44444444       0.27272727 </v>
   <v>       0.11764706      -0.44444444       0.27272727 </v>
   <v>       0.17647059      -0.44444444       0.27272727 </v>
   <v>       0.23529412      -0.44444444       0.27272727 </v>
   <v>       0.29411765      -0.44444444       0.27272727 </v>
   <v>       0.35294118      -0.44444444       0.27272727 </v>
   <v>       0.41176471      -0.44444444       0.27272727 </v>
   <v>       0.47058824      -0.44444444       0.27272727 </v>
   <v>       0.00000000      -0.38888889       0.27272727 </v>
   <v>       0.05882353      -0.38888889       0.27272727 </v>
   <v>       0.11764706      -0.38888889       0.27272727 </v>
   <v>       0.17647059      -0.38888889       0.27272727 </v>
   <v>       0.23529412      -0.38888889       0.27272727 </v>
   <v>       0.29411765      -0.38888889       0.27272727 </v>
   <v>       0.35294118      -0.38888889       0.27272727 </v>
   <v>       0.41176471      -0.38888889       0.27272727 </v>
   <v>       0.47058824      -0.38888889       0.27272727 </v>
   <v>       0.00000000      -0.33333333       0.27272727 </v>
   <v>       0.05882353      -0.33333333       0.27272727 </v>
   <v>       0.11764706      -0.33333333       0.27272727 </v>
   <v>       0.17647059      -0.33333333       0.27272727 </v>
   <v>       0.23529412      -0.33333333       0.27272727 </v>
   <v>       0.29411765      -0.33333333       0.27272727 </v>
   <v>       0.35294118      -0.33333333       0.27272727 </v>
   <v>       0.41176471      -0.33333333       0.27272727 </v>
   <v>       0.47058824      -0.33333333       0.27272727 </v>
   <v>       0.00000000      -0.27777778       0.27272727 </v>
   <v>       0.05882353      -0.27777778       0.27272727 </v>
   <v>       0.11764706      -0.27777778       0.27272727 </v>
   <v>       0.17647059      -0.27777778       0.27272727 </v>
   <v>       0.23529412      -0.27777778       0.27272727 </v>
   <v>       0.29411765      -0.27777778       0.27272727 </v>
   <v>       0.35294118      -0.27777778       0.27272727 </v>
   <v>       0.41176471      -0.27777778       0.27272727 </v>
   <v>       0.47058824      -0.27777778       0.27272727 </v>
   <v>       0.00000000      -0.22222222       0.27272727 </v>
   <v>       0.05882353      -0.22222222       0.27272727 </v>
   <v>       0.11764706      -0.22222222       0.27272727 </v>
   <v>       0.17647059      -0.22222222       0.27272727 </v>
   <v>       0.23529412      -0.22222222       0.27272727 </v>
   <v>       0.29411765      -0.22222222       0.27272727 </v>
   <v>       0.35294118      -0.22222222       0.27272727 </v>
   <v>       0.41176471      -0.22222222       0.27272727 </v>
   <v>       0.47058824      -0.22222222       0.27272727 </v>
   <v>       0.00000000      -0.16666667       0.27272727 </v>
   <v>       0.05882353      -0.16666667       0.27272727 </v>
   <v>       0.11764706      -0.16666667       0.27272727 </v>
   <v>       0.17647059      -0.16666667       0.27272727 </v>
   <v>       0.23529412      -0.16666667       0.27272727 </v>
   <v>       0.29411765      -0.16666667       0.27272727 </v>
   <v>       0.35294118      -0.16666667       0.27272727 </v>
   <v>       0.41176471      -0.16666667       0.27272727 </v>
   <v>       0.47058824      -0.16666667       0.27272727 </v>
   <v>       0.00000000      -0.11111111       0.27272727 </v>
   <v>       0.05882353      -0.11111111       0.27272727 </v>
   <v>       0.11764706      -0.11111111       0.27272727 </v>
   <v>       0.17647059      -0.11111111       0.27272727 </v>
   <v>       0.23529412      -0.11111111       0.27272727 </v>
   <v>       0.29411765      -0.11111111       0.27272727 </v>
   <v>       0.35294118      -0.11111111       0.27272727 </v>
   <v>       0.41176471      -0.11111111       0.27272727 </v>
   <v>       0.47058824      -0.11111111       0.27272727 </v>
   <v>       0.00000000      -0.05555556       0.27272727 </v>
   <v>       0.05882353      -0.05555556       0.27272727 </v>
   <v>       0.11764706      -0.05555556       0.27272727 </v>
   <v>       0.17647059      -0.05555556       0.27272727 </v>
   <v>       0.23529412      -0.05555556       0.27272727 </v>
   <v>       0.29411765      -0.05555556       0.27272727 </v>
   <v>       0.35294118      -0.05555556       0.27272727 </v>
   <v>       0.41176471      -0.05555556       0.27272727 </v>
   <v>       0.47058824      -0.05555556       0.27272727 </v>
   <v>       0.00000000       0.00000000       0.36363636 </v>
   <v>       0.05882353       0.00000000       0.36363636 </v>
   <v>       0.11764706       0.00000000       0.36363636 </v>
   <v>       0.17647059       0.00000000       0.36363636 </v>
   <v>       0.23529412       0.00000000       0.36363636 </v>
   <v>       0.29411765       0.00000000       0.36363636 </v>
   <v>       0.35294118       0.00000000       0.36363636 </v>
   <v>       0.41176471       0.00000000       0.36363636 </v>
   <v>       0.47058824       0.00000000       0.36363636 </v>
   <v>       0.00000000       0.05555556       0.36363636 </v>
   <v>       0.05882353       0.05555556       0.36363636 </v>
   <v>       0.11764706       0.05555556       0.36363636 </v>
   <v>       0.17647059       0.05555556       0.36363636 </v>
   <v>       0.23529412       0.05555556       0.36363636 </v>
   <v>       0.29411765       0.05555556       0.36363636 </v>
   <v>       0.35294118       0.05555556       0.36363636 </v>
   <v>       0.41176471       0.05555556       0.36363636 </v>
   <v>       0.47058824       0.05555556       0.36363636 </v>
   <v>       0.00000000       0.11111111       0.36363636 </v>
   <v>       0.05882353       0.11111111       0.36363636 </v>
   <v>       0.11764706       0.11111111       0.36363636 </v>
   <v>       0.17647059       0.11111111       0.36363636 </v>
   <v>       0.23529412       0.11111111       0.36363636 </v>
   <v>       0.29411765       0.11111111       0.36363636 </v>
   <v>       0.35294118       0.11111111       0.36363636 </v>
   <v>       0.41176471       0.11111111       0.36363636 </v>
   <v>       0.47058824       0.11111111       0.36363636 </v>
   <v>       0.00000000       0.16666667       0.36363636 </v>
   <v>       0.05882353       0.16666667       0.36363636 </v>
   <v>       0.11764706       0.16666667       0.36363636 </v>
   <v>       0.17647059       0.16666667       0.36363636 </v>
   <v>       0.23529412       0.16666667       0.36363636 </v>
   <v>       0.29411765       0.16666667       0.36363636 </v>
   <v>       0.35294118       0.16666667       0.36363636 </v>
   <v>       0.41176471       0.16666667       0.36363636 </v>
   <v>       0.47058824       0.16666667       0.36363636 </v>
   <v>       0.00000000       0.22222222       0.36363636 </v>
   <v>       0.05882353       0.22222222       0.36363636 </v>
   <v>       0.11764706       0.22222222       0.36363636 </v>
   <v>       0.17647059       0.22222222       0.36363636 </v>
   <v>       0.23529412       0.22222222       0.36363636 </v>
   <v>       0.29411765       0.22222222       0.36363636 </v>
   <v>       0.35294118       0.22222222       0.36363636 </v>
   <v>       0.41176471       0.22222222       0.36363636 </v>
   <v>       0.47058824       0.22222222       0.36363636 </v>
   <v>       0.00000000       0.27777778       0.36363636 </v>
   <v>       0.05882353       0.27777778       0.36363636 </v>
   <v>       0.11764706       0.27777778       0.36363636 </v>
   <v>       0.17647059       0.27777778       0.36363636 </v>
   <v>       0.23529412       0.27777778       0.36363636 </v>
   <v>       0.29411765       0.27777778       0.36363636 </v>
   <v>       0.35294118       0.27777778       0.36363636 </v>
   <v>       0.41176471       0.27777778       0.36363636 </v>
   <v>       0.47058824       0.27777778       0.36363636 </v>
   <v>       0.00000000       0.33333333       0.36363636 </v>
   <v>       0.05882353       0.33333333       0.36363636 </v>
   <v>       0.11764706       0.33333333       0.36363636 </v>
   <v>       0.17647059       0.33333333       0.36363636 </v>
   <v>       0.23529412       0.33333333       0.36363636 </v>
   <v>       0.29411765       0.33333333       0.36363636 </v>
   <v>       0.35294118       0.33333333       0.36363636 </v>
   <v>       0.41176471       0.33333333       0.36363636 </v>
   <v>       0.47058824       0.33333333       0.36363636 </v>
   <v>       0.00000000       0.38888889       0.36363636 </v>
   <v>       0.05882353       0.38888889       0.36363636 </v>
   <v>       0.11764706       0.38888889       0.36363636 </v>
   <v>       0.17647059       0.38888889       0.36363636 </v>
   <v>       0.23529412       0.38888889       0.36363636 </v>
   <v>       0.29411765       0.38888889       0.36363636 </v>
   <v>       0.35294118       0.38888889       0.36363636 </v>
   <v>       0.41176471       0.38888889       0.36363636 </v>
   <v>       0.47058824       0.38888889       0.36363636 </v>
   <v>       0.00000000       0.44444444       0.36363636 </v>
   <v>       0.05882353       0.44444444       0.36363636 </v>
   <v>       0.11764706       0.44444444       0.36363636 </v>
   <v>       0.17647059       0.44444444       0.36363636 </v>
   <v>       0.23529412       0.44444444       0.36363636 </v>
   <v>       0.29411765       0.44444444       0.36363636 </v>
   <v>       0.35294118       0.44444444       0.36363636 </v>
   <v>       0.41176471       0.44444444       0.36363636 </v>
   <v>       0.47058824       0.44444444       0.36363636 </v>
   <v>       0.00000000       0.50000000       0.36363636 </v>
   <v>       0.05882353       0.50000000       0.36363636 </v>
   <v>       0.11764706       0.50000000       0.36363636 </v>
   <v>       0.17647059       0.50000000       0.36363636 </v>
   <v>       0.23529412       0.50000000       0.36363636 </v>
   <v>       0.29411765       0.50000000       0.36363636 </v>
   <v>       0.35294118       0.50000000       0.36363636 </v>
   <v>       0.41176471       0.50000000       0.36363636 </v>
   <v>       0.47058824       0.50000000       0.36363636 </v>
   <v>       0.00000000      -0.44444444       0.36363636 </v>
   <v>       0.05882353      -0.44444444       0.36363636 </v>
   <v>       0.11764706      -0.44444444       0.36363636 </v>
   <v>       0.17647059      -0.44444444       0.36363636 </v>
   <v>       0.23529412      -0.44444444       0.36363636 </v>
   <v>       0.29411765      -0.44444444       0.36363636 </v>
   <v>       0.35294118      -0.44444444       0.36363636 </v>
   <v>       0.41176471      -0.44444444       0.36363636 </v>
   <v>       0.47058824      -0.44444444       0.36363636 </v>
   <v>       0.00000000      -0.38888889       0.36363636 </v>
   <v>       0.05882353      -0.38888889       0.36363636 </v>
   <v>       0.11764706      -0.38888889       0.36363636 </v>
   <v>       0.17647059      -0.38888889       0.36363636 </v>
   <v>       0.23529412      -0.38888889       0.36363636 </v>
   <v>       0.29411765      -0.38888889       0.36363636 </v>
   <v>       0.35294118      -0.38888889       0.36363636 </v>
   <v>       0.41176471      -0.38888889       0.36363636 </v>
   <v>       0.47058824      -0.38888889       0.36363636 </v>
   <v>       0.00000000      -0.33333333       0.36363636 </v>
   <v>       0.05882353      -0.33333333       0.36363636 </v>
   <v>       0.11764706      -0.33333333       0.36363636 </v>
   <v>       0.17647059      -0.33333333       0.36363636 </v>
   <v>       0.23529412      -0.33333333       0.36363636 </v>
   <v>       0.29411765      -0.33333333       0.36363636 </v>
   <v>       0.35294118      -0.33333333       0.36363636 </v>
   <v>       0.41176471      -0.33333333       0.36363636 </v>
   <v>       0.47058824      -0.33333333       0.36363636 </v>
   <v>       0.00000000      -0.27777778       0.36363636 </v>
   <v>       0.05882353      -0.27777778       0.36363636 </v>
   <v>       0.11764706      -0.27777778       0.36363636 </v>
   <v>       0.17647059      -0.27777778       0.36363636 </v>
   <v>       0.23529412      -0.27777778       0.36363636 </v>
   <v>       0.29411765      -0.27777778       0.36363636 </v>
   <v>       0.35294118      -0.27777778       0.36363636 </v>
   <v>       0.41176471      -0.27777778       0.36363636 </v>
   <v>       0.47058824      -0.27777778       0.36363636 </v>
   <v>       0.00000000      -0.22222222       0.36363636 </v>
   <v>       0.05882353      -0.22222222       0.36363636 </v>
   <v>       0.11764706      -0.22222222       0.36363636 </v>
   <v>       0.17647059      -0.22222222       0.36363636 </v>
   <v>       0.23529412      -0.22222222       0.36363636 </v>
   <v>       0.29411765      -0.22222222       0.36363636 </v>
   <v>       0.35294118      -0.22222222       0.36363636 </v>
   <v>       0.41176471      -0.22222222       0.36363636 </v>
   <v>       0.47058824      -0.22222222       0.36363636 </v>
   <v>       0.00000000      -0.16666667       0.36363636 </v>
   <v>       0.05882353      -0.16666667       0.36363636 </v>
   <v>       0.11764706      -0.16666667       0.36363636 </v>
   <v>       0.17647059      -0.16666667       0.36363636 </v>
   <v>       0.23529412      -0.16666667       0.36363636 </v>
   <v>       0.29411765      -0.16666667       0.36363636 </v>
   <v>       0.35294118      -0.16666667       0.36363636 </v>
   <v>       0.41176471      -0.16666667       0.36363636 </v>
   <v>       0.47058824      -0.16666667       0.36363636 </v>
   <v>       0.00000000      -0.11111111       0.36363636 </v>
   <v>       0.05882353      -0.11111111       0.36363636 </v>
   <v>       0.11764706      -0.11111111       0.36363636 </v>
   <v>       0.17647059      -0.11111111       0.36363636 </v>
   <v>       0.23529412      -0.11111111       0.36363636 </v>
   <v>       0.29411765      -0.11111111       0.36363636 </v>
   <v>       0.35294118      -0.11111111       0.36363636 </v>
   <v>       0.41176471      -0.11111111       0.36363636 </v>
   <v>       0.47058824      -0.11111111       0.36363636 </v>
   <v>       0.00000000      -0.05555556       0.36363636 </v>
   <v>       0.05882353      -0.05555556       0.36363636 </v>
   <v>       0.11764706      -0.05555556       0.36363636 </v>
   <v>       0.17647059      -0.05555556       0.36363636 </v>
   <v>       0.23529412      -0.05555556       0.36363636 </v>
   <v>       0.29411765      -0.05555556       0.36363636 </v>
   <v>       0.35294118      -0.05555556       0.36363636 </v>
   <v>       0.41176471      -0.05555556       0.36363636 </v>
   <v>       0.47058824      -0.05555556       0.36363636 </v>
   <v>       0.00000000       0.00000000       0.45454545 </v>
   <v>       0.05882353       0.00000000       0.45454545 </v>
   <v>       0.11764706       0.00000000       0.45454545 </v>
   <v>       0.17647059       0.00000000       0.45454545 </v>
   <v>       0.23529412       0.00000000       0.45454545 </v>
   <v>       0.29411765       0.00000000       0.45454545 </v>
   <v>       0.35294118       0.00000000       0.45454545 </v>
   <v>       0.41176471       0.00000000       0.45454545 </v>
   <v>       0.47058824       0.00000000       0.45454545 </v>
   <v>       0.00000000       0.05555556       0.45454545 </v>
   <v>       0.05882353       0.05555556       0.45454545 </v>
   <v>       0.11764706       0.05555556       0.45454545 </v>
   <v>       0.17647059       0.05555556       0.45454545 </v>
   <v>       0.23529412       0.05555556       0.45454545 </v>
   <v>       0.29411765       0.05555556       0.45454545 </v>
   <v>       0.35294118       0.05555556       0.45454545 </v>
   <v>       0.41176471       0.05555556       0.45454545 </v>
   <v>       0.47058824       0.05555556       0.45454545 </v>
   <v>       0.00000000       0.11111111       0.45454545 </v>
   <v>       0.05882353       0.11111111       0.45454545 </v>
   <v>       0.11764706       0.11111111       0.45454545 </v>
   <v>       0.17647059       0.11111111       0.45454545 </v>
   <v>       0.23529412       0.11111111       0.45454545 </v>
   <v>       0.29411765       0.11111111       0.45454545 </v>
   <v>       0.35294118       0.11111111       0.45454545 </v>
   <v>       0.41176471       0.11111111       0.45454545 </v>
   <v>       0.47058824       0.11111111       0.45454545 </v>
   <v>       0.00000000       0.16666667       0.45454545 </v>
   <v>       0.05882353       0.16666667       0.45454545 </v>
   <v>       0.11764706       0.16666667       0.45454545 </v>
   <v>       0.17647059       0.16666667       0.45454545 </v>
   <v>       0.23529412       0.16666667       0.45454545 </v>
   <v>       0.29411765       0.16666667       0.45454545 </v>
   <v>       0.35294118       0.16666667       0.45454545 </v>
   <v>       0.41176471       0.16666667       0.45454545 </v>
   <v>       0.47058824       0.16666667       0.45454545 </v>
   <v>       0.00000000       0.22222222       0.45454545 </v>
   <v>       0.05882353       0.22222222       0.45454545 </v>
   <v>       0.11764706       0.22222222       0.45454545 </v>
   <v>       0.17647059       0.22222222       0.45454545 </v>
   <v>       0.23529412       0.22222222       0.45454545 </v>
   <v>       0.29411765       0.22222222       0.45454545 </v>
   <v>       0.35294118       0.22222222       0.45454545 </v>
   <v>       0.41176471       0.22222222       0.45454545 </v>
   <v>       0.47058824       0.22222222       0.45454545 </v>
   <v>       0.00000000       0.27777778       0.45454545 </v>
   <v>       0.05882353       0.27777778       0.45454545 </v>
   <v>       0.11764706       0.27777778       0.45454545 </v>
   <v>       0.17647059       0.27777778       0.45454545 </v>
   <v>       0.23529412       0.27777778       0.45454545 </v>
   <v>       0.29411765       0.27777778       0.45454545 </v>
   <v>       0.35294118       0.27777778       0.45454545 </v>
   <v>       0.41176471       0.27777778       0.45454545 </v>
   <v>       0.47058824       0.27777778       0.45454545 </v>
   <v>       0.00000000       0.33333333       0.45454545 </v>
   <v>       0.05882353       0.33333333       0.45454545 </v>
   <v>       0.11764706       0.33333333       0.45454545 </v>
   <v>       0.17647059       0.33333333       0.45454545 </v>
   <v>       0.23529412       0.33333333       0.45454545 </v>
   <v>       0.29411765       0.33333333       0.45454545 </v>
   <v>       0.35294118       0.33333333       0.45454545 </v>
   <v>       0.41176471       0.33333333       0.45454545 </v>
   <v>       0.47058824       0.33333333       0.45454545 </v>
   <v>       0.00000000       0.38888889       0.45454545 </v>
   <v>       0.05882353       0.38888889       0.45454545 </v>
   <v>       0.11764706       0.38888889       0.45454545 </v>
   <v>       0.17647059       0.38888889       0.45454545 </v>
   <v>       0.23529412       0.38888889       0.45454545 </v>
   <v>       0.29411765       0.38888889       0.45454545 </v>
   <v>       0.35294118       0.38888889       0.45454545 </v>
   <v>       0.41176471       0.38888889       0.45454545 </v>
   <v>       0.47058824       0.38888889       0.45454545 </v>
   <v>       0.00000000       0.44444444       0.45454545 </v>
   <v>       0.05882353       0.44444444       0.45454545 </v>
   <v>       0.11764706       0.44444444       0.45454545 </v>
   <v>       0.17647059       0.44444444       0.45454545 </v>
   <v>       0.23529412       0.44444444       0.45454545 </v>
   <v>       0.29411765       0.44444444       0.45454545 </v>
   <v>       0.35294118       0.44444444       0.45454545 </v>
   <v>       0.41176471       0.44444444       0.45454545 </v>
   <v>       0.47058824       0.44444444       0.45454545 </v>
   <v>       0.00000000       0.50000000       0.45454545 </v>
   <v>       0.05882353       0.50000000       0.45454545 </v>
   <v>       0.11764706       0.50000000       0.45454545 </v>
   <v>       0.17647059       0.50000000       0.45454545 </v>
   <v>       0.23529412       0.50000000       0.45454545 </v>
   <v>       0.29411765       0.50000000       0.45454545 </v>
   <v>       0.35294118       0.50000000       0.45454545 </v>
   <v>       0.41176471       0.50000000       0.45454545 </v>
   <v>       0.47058824       0.50000000       0.45454545 </v>
   <v>       0.00000000      -0.44444444       0.45454545 </v>
   <v>       0.05882353      -0.44444444       0.45454545 </v>
   <v>       0.11764706      -0.44444444       0.45454545 </v>
   <v>       0.17647059      -0.44444444       0.45454545 </v>
   <v>       0.23529412      -0.44444444       0.45454545 </v>
   <v>       0.29411765      -0.44444444       0.45454545 </v>
   <v>       0.35294118      -0.44444444       0.45454545 </v>
   <v>       0.41176471      -0.44444444       0.45454545 </v>
   <v>       0.47058824      -0.44444444       0.45454545 </v>
   <v>       0.00000000      -0.38888889       0.45454545 </v>
   <v>       0.05882353      -0.38888889       0.45454545 </v>
   <v>       0.11764706      -0.38888889       0.45454545 </v>
   <v>       0.17647059      -0.38888889       0.45454545 </v>
   <v>       0.23529412      -0.38888889       0.45454545 </v>
   <v>       0.29411765      -0.38888889       0.45454545 </v>
   <v>       0.35294118      -0.38888889       0.45454545 </v>
   <v>       0.41176471      -0.38888889       0.45454545 </v>
   <v>       0.47058824      -0.38888889       0.45454545 </v>
   <v>       0.00000000      -0.33333333       0.45454545 </v>
   <v>       0.05882353      -0.33333333       0.45454545 </v>
   <v>       0.11764706      -0.33333333       0.45454545 </v>
   <v>       0.17647059      -0.33333333       0.45454545 </v>
   <v>       0.23529412      -0.33333333       0.45454545 </v>
   <v>       0.29411765      -0.33333333       0.45454545 </v>
   <v>       0.35294118      -0.33333333       0.45454545 </v>
   <v>       0.41176471      -0.33333333       0.45454545 </v>
   <v>       0.47058824      -0.33333333       0.45454545 </v>
   <v>       0.00000000      -0.27777778       0.45454545 </v>
   <v>       0.05882353      -0.27777778       0.45454545 </v>
   <v>       0.11764706      -0.27777778       0.45454545 </v>
   <v>       0.17647059      -0.27777778       0.45454545 </v>
   <v>       0.23529412      -0.27777778       0.45454545 </v>
   <v>       0.29411765      -0.27777778       0.45454545 </v>
   <v>       0.35294118      -0.27777778       0.45454545 </v>
   <v>       0.41176471      -0.27777778       0.45454545 </v>
   <v>       0.47058824      -0.27777778       0.45454545 </v>
   <v>       0.00000000      -0.22222222       0.45454545 </v>
   <v>       0.05882353      -0.22222222       0.45454545 </v>
   <v>       0.11764706      -0.22222222       0.45454545 </v>
   <v>       0.17647059      -0.22222222       0.45454545 </v>
   <v>       0.23529412      -0.22222222       0.45454545 </v>
   <v>       0.29411765      -0.22222222       0.45454545 </v>
   <v>       0.35294118      -0.22222222       0.45454545 </v>
   <v>       0.41176471      -0.22222222       0.45454545 </v>
   <v>       0.47058824      -0.22222222       0.45454545 </v>
   <v>       0.00000000      -0.16666667       0.45454545 </v>
   <v>       0.05882353      -0.16666667       0.45454545 </v>
   <v>       0.11764706      -0.16666667       0.45454545 </v>
   <v>       0.17647059      -0.16666667       0.45454545 </v>
   <v>       0.23529412      -0.16666667       0.45454545 </v>
   <v>       0.29411765      -0.16666667       0.45454545 </v>
   <v>       0.35294118      -0.16666667       0.45454545 </v>
   <v>       0.41176471      -0.16666667       0.45454545 </v>
   <v>       0.47058824      -0.16666667       0.45454545 </v>
   <v>       0.00000000      -0.11111111       0.45454545 </v>
   <v>       0.05882353      -0.11111111       0.45454545 </v>
   <v>       0.11764706      -0.11111111       0.45454545 </v>
   <v>       0.17647059      -0.11111111       0.45454545 </v>
   <v>       0.23529412      -0.11111111       0.45454545 </v>
   <v>       0.29411765      -0.11111111       0.45454545 </v>
   <v>       0.35294118      -0.11111111       0.45454545 </v>
   <v>       0.41176471      -0.11111111       0.45454545 </v>
   <v>       0.47058824      -0.11111111       0.45454545 </v>
   <v>       0.00000000      -0.05555556       0.45454545 </v>
   <v>       0.05882353      -0.05555556       0.45454545 </v>
   <v>       0.11764706      -0.05555556       0.45454545 </v>
   <v>       0.17647059      -0.05555556       0.45454545 </v>
   <v>       0.23529412      -0.05555556       0.45454545 </v>
   <v>       0.29411765      -0.05555556       0.45454545 </v>
   <v>       0.35294118      -0.05555556       0.45454545 </v>
   <v>       0.41176471      -0.05555556       0.45454545 </v>
   <v>       0.47058824      -0.05555556       0.45454545 </v>
  </varray>
  <varray name="weights" >
   <v>       0.00029709 </v>
   <v>       0.00059418 </v>
   <v>       0.00059418 </v>
   <v>       0.00059418 </v>
   <v>       0.00059418 </v>
   <v>       0.00059418 </v>
   <v>       0.00059418 </v>
   <v>       0.00059418 </v>
   <v>       0.00059418 </v>
   <v>       0.00059418 </v>
   <v>       0.00118835 </v>
   <v>       0.00118835 </v>
   <v>       0.00118835 </v>
   <v>       0.00118835 </v>
   <v>       0.00118835 </v>
   <v>       0.00118835 </v>
   <v>       0.00118835 </v>
   <v>       0.00118835 </v>
   <v>       0.00059418 </v>
   <v>       0.00118835 </v>
   <v>       0.00118835 </v>
   <v>       0.00118835 </v>
   <v>       0.00118835 </v>
   <v>       0.00118835 </v>
   <v>       0.00118835 </v>
   <v>       0.00118835 </v>
   <v>       0.00118835 </v>
   <v>       0.00059418 </v>
   <v>       0.00118835 </v>
   <v>       0.00118835 </v>
   <v>       0.00118835 </v>
   <v>       0.00118835 </v>
   <v>       0.00118835 </v>
   <v>       0.00118835 </v>
   <v>       0.00118835 </v>
   <v>       0.00118835 </v>
   <v>       0.00059418 </v>
   <v>       0.00118835 </v>
   <v>       0.00118835 </v>
   <v>       0.00118835 </v>
   <v>       0.00118835 </v>
   <v>       0.00118835 </v>
   <v>       0.00118835 </v>
   <v>       0.00118835 </v>
   <v>       0.00118835 </v>
   <v>       0.00059418 </v>
   <v>       0.00118835 </v>
   <v>       0.00118835 </v>
   <v>       0.00118835 </v>
   <v>       0.00118835 </v>
   <v>       0.00118835 </v>
   <v>       0.00118835 </v>
   <v>       0.00118835 </v>
   <v>       0.00118835 </v>
   <v>       0.00059418 </v>
   <v>       0.00118835 </v>
   <v>       0.00118835 </v>
   <v>       0.00118835 </v>
   <v>       0.00118835 </v>
   <v>       0.00118835 </v>
   <v>       0.00118835 </v>
   <v>       0.00118835 </v>
   <v>       0.00118835 </v>
   <v>       0.00059418 </v>
   <v>       0.00118835 </v>
   <v>       0.00118835 </v>
   <v>       0.00118835 </v>
   <v>       0.00118835 </v>
   <v>       0.00118835 </v>
   <v>       0.00118835 </v>
   <v>       0.00118835 </v>
   <v>       0.00118835 </v>
   <v>       0.00059418 </v>
   <v>       0.00118835 </v>
   <v>       0.00118835 </v>
   <v>       0.00118835 </v>
   <v>       0.00118835 </v>
   <v>       0.00118835 </v>
   <v>       0.00118835 </v>
   <v>       0.00118835 </v>
   <v>       0.00118835 </v>
   <v>       0.00029709 </v>
   <v>       0.00059418 </v>
   <v>       0.00059418 </v>
   <v>       0.00059418 </v>
   <v>       0.00059418 </v>
   <v>       0.00059418 </v>
   <v>       0.00059418 </v>
   <v>       0.00059418 </v>
   <v>       0.00059418 </v>
   <v>       0.00059418 </v>
   <v>       0.00118835 </v>
   <v>       0.00118835 </v>
   <v>       0.00118835 </v>
   <v>       0.00118835 </v>
   <v>       0.00118835 </v>
   <v>       0.00118835 </v>
   <v>       0.00118835 </v>
   <v>       0.00118835 </v>
   <v>       0.00059418 </v>
   <v>       0.00118835 </v>
   <v>       0.00118835 </v>
   <v>       0.00118835 </v>
   <v>       0.00118835 </v>
   <v>       0.00118835 </v>
   <v>       0.00118835 </v>
   <v>       0.00118835 </v>
   <v>       0.00118835 </v>
   <v>       0.00059418 </v>
   <v>       0.00118835 </v>
   <v>       0.00118835 </v>
   <v>       0.00118835 </v>
   <v>       0.00118835 </v>
   <v>       0.00118835 </v>
   <v>       0.00118835 </v>
   <v>       0.00118835 </v>
   <v>       0.00118835 </v>
   <v>       0.00059418 </v>
   <v>       0.00118835 </v>
   <v>       0.00118835 </v>
   <v>       0.00118835 </v>
   <v>       0.00118835 </v>
   <v>       0.00118835 </v>
   <v>       0.00118835 </v>
   <v>       0.00118835 </v>
   <v>       0.00118835 </v>
   <v>       0.00059418 </v>
   <v>       0.00118835 </v>
   <v>       0.00118835 </v>
   <v>       0.00118835 </v>
   <v>       0.00118835 </v>
   <v>       0.00118835 </v>
   <v>       0.00118835 </v>
   <v>       0.00118835 </v>
   <v>       0.00118835 </v>
   <v>       0.00059418 </v>
   <v>       0.00118835 </v>
   <v>       0.00118835 </v>
   <v>       0.00118835 </v>
   <v>       0.00118835 </v>
   <v>       0.00118835 </v>
   <v>       0.00118835 </v>
   <v>       0.00118835 </v>
   <v>       0.00118835 </v>
   <v>       0.00059418 </v>
   <v>       0.00118835 </v>
   <v>       0.00118835 </v>
   <v>       0.00118835 </v>
   <v>       0.00118835 </v>
   <v>       0.00118835 </v>
   <v>       0.00118835 </v>
   <v>       0.00118835 </v>
   <v>       0.00118835 </v>
   <v>       0.00059418 </v>
   <v>       0.00118835 </v>
   <v>       0.00118835 </v>
   <v>       0.00118835 </v>
   <v>       0.00118835 </v>
   <v>       0.00118835 </v>
   <v>       0.00118835 </v>
   <v>       0.00118835 </v>
   <v>       0.00118835 </v>
   <v>       0.00059418 </v>
   <v>       0.00118835 </v>
   <v>       0.00118835 </v>
   <v>       0.00118835 </v>
   <v>       0.00118835 </v>
   <v>       0.00118835 </v>
   <v>       0.00118835 </v>
   <v>       0.00118835 </v>
   <v>       0.00118835 </v>
   <v>       0.00059418 </v>
   <v>       0.00118835 </v>
   <v>       0.00118835 </v>
   <v>       0.00118835 </v>
   <v>       0.00118835 </v>
   <v>       0.00118835 </v>
   <v>       0.00118835 </v>
   <v>       0.00118835 </v>
   <v>       0.00118835 </v>
   <v>       0.00059418 </v>
   <v>       0.00118835 </v>
   <v>       0.00118835 </v>
   <v>       0.00118835 </v>
   <v>       0.00118835 </v>
   <v>       0.00118835 </v>
   <v>       0.00118835 </v>
   <v>       0.00118835 </v>
   <v>       0.00118835 </v>
   <v>       0.00059418 </v>
   <v>       0.00118835 </v>
   <v>       0.00118835 </v>
   <v>       0.00118835 </v>
   <v>       0.00118835 </v>
   <v>       0.00118835 </v>
   <v>       0.00118835 </v>
   <v>       0.00118835 </v>
   <v>       0.00118835 </v>
   <v>       0.00059418 </v>
   <v>       0.00118835 </v>
   <v>       0.00118835 </v>
   <v>       0.00118835 </v>
   <v>       0.00118835 </v>
   <v>       0.00118835 </v>
   <v>       0.00118835 </v>
   <v>       0.00118835 </v>
   <v>       0.00118835 </v>
   <v>       0.00059418 </v>
   <v>       0.00118835 </v>
   <v>       0.00118835 </v>
   <v>       0.00118835 </v>
   <v>       0.00118835 </v>
   <v>       0.00118835 </v>
   <v>       0.00118835 </v>
   <v>       0.00118835 </v>
   <v>       0.00118835 </v>
   <v>       0.00059418 </v>
   <v>       0.00118835 </v>
   <v>       0.00118835 </v>
   <v>       0.00118835 </v>
   <v>       0.00118835 </v>
   <v>       0.00118835 </v>
   <v>       0.00118835 </v>
   <v>       0.00118835 </v>
   <v>       0.00118835 </v>
   <v>       0.00059418 </v>
   <v>       0.00118835 </v>
   <v>       0.00118835 </v>
   <v>       0.00118835 </v>
   <v>       0.00118835 </v>
   <v>       0.00118835 </v>
   <v>       0.00118835 </v>
   <v>       0.00118835 </v>
   <v>       0.00118835 </v>
   <v>       0.00059418 </v>
   <v>       0.00118835 </v>
   <v>       0.00118835 </v>
   <v>       0.00118835 </v>
   <v>       0.00118835 </v>
   <v>       0.00118835 </v>
   <v>       0.00118835 </v>
   <v>       0.00118835 </v>
   <v>       0.00118835 </v>
   <v>       0.00059418 </v>
   <v>       0.00118835 </v>
   <v>       0.00118835 </v>
   <v>       0.00118835 </v>
   <v>       0.00118835 </v>
   <v>       0.00118835 </v>
   <v>       0.00118835 </v>
   <v>       0.00118835 </v>
   <v>       0.00118835 </v>
   <v>       0.00059418 </v>
   <v>       0.00118835 </v>
   <v>       0.00118835 </v>
   <v>       0.00118835 </v>
   <v>       0.00118835 </v>
   <v>       0.00118835 </v>
   <v>       0.00118835 </v>
   <v>       0.00118835 </v>
   <v>       0.00118835 </v>
   <v>       0.00059418 </v>
   <v>       0.00118835 </v>
   <v>       0.00118835 </v>
   <v>       0.00118835 </v>
   <v>       0.00118835 </v>
   <v>       0.00118835 </v>
   <v>       0.00118835 </v>
   <v>       0.00118835 </v>
   <v>       0.00118835 </v>
   <v>       0.00059418 </v>
   <v>       0.00118835 </v>
   <v>       0.00118835 </v>
   <v>       0.00118835 </v>
   <v>       0.00118835 </v>
   <v>       0.00118835 </v>
   <v>       0.00118835 </v>
   <v>       0.00118835 </v>
   <v>       0.00118835 </v>
   <v>       0.00059418 </v>
   <v>       0.00118835 </v>
   <v>       0.00118835 </v>
   <v>       0.00118835 </v>
   <v>       0.00118835 </v>
   <v>       0.00118835 </v>
   <v>       0.00118835 </v>
   <v>       0.00118835 </v>
   <v>       0.00118835 </v>
   <v>       0.00059418 </v>
   <v>       0.00118835 </v>
   <v>       0.00118835 </v>
   <v>       0.00118835 </v>
   <v>       0.00118835 </v>
   <v>       0.00118835 </v>
   <v>       0.00118835 </v>
   <v>       0.00118835 </v>
   <v>       0.00118835 </v>
   <v>       0.00059418 </v>
   <v>       0.00118835 </v>
   <v>       0.00118835 </v>
   <v>       0.00118835 </v>
   <v>       0.00118835 </v>
   <v>       0.00118835 </v>
   <v>       0.00118835 </v>
   <v>       0.00118835 </v>
   <v>       0.00118835 </v>
   <v>       0.00059418 </v>
   <v>       0.00118835 </v>
   <v>       0.00118835 </v>
   <v>       0.00118835 </v>
   <v>       0.00118835 </v>
   <v>       0.00118835 </v>
   <v>       0.00118835 </v>
   <v>       0.00118835 </v>
   <v>       0.00118835 </v>
   <v>       0.00059418 </v>
   <v>       0.00118835 </v>
   <v>       0.00118835 </v>
   <v>       0.00118835 </v>
   <v>       0.00118835 </v>
   <v>       0.00118835 </v>
   <v>       0.00118835 </v>
   <v>       0.00118835 </v>
   <v>       0.00118835 </v>
   <v>       0.00059418 </v>
   <v>       0.00118835 </v>
   <v>       0.00118835 </v>
   <v>       0.00118835 </v>
   <v>       0.00118835 </v>
   <v>       0.00118835 </v>
   <v>       0.00118835 </v>
   <v>       0.00118835 </v>
   <v>       0.00118835 </v>
   <v>       0.00059418 </v>
   <v>       0.00118835 </v>
   <v>       0.00118835 </v>
   <v>       0.00118835 </v>
   <v>       0.00118835 </v>
   <v>       0.00118835 </v>
   <v>       0.00118835 </v>
   <v>       0.00118835 </v>
   <v>       0.00118835 </v>
   <v>       0.00059418 </v>
   <v>       0.00118835 </v>
   <v>       0.00118835 </v>
   <v>       0.00118835 </v>
   <v>       0.00118835 </v>
   <v>       0.00118835 </v>
   <v>       0.00118835 </v>
   <v>       0.00118835 </v>
   <v>       0.00118835 </v>
   <v>       0.00059418 </v>
   <v>       0.00118835 </v>
   <v>       0.00118835 </v>
   <v>       0.00118835 </v>
   <v>       0.00118835 </v>
   <v>       0.00118835 </v>
   <v>       0.00118835 </v>
   <v>       0.00118835 </v>
   <v>       0.00118835 </v>
   <v>       0.00059418 </v>
   <v>       0.00118835 </v>
   <v>       0.00118835 </v>
   <v>       0.00118835 </v>
   <v>       0.00118835 </v>
   <v>       0.00118835 </v>
   <v>       0.00118835 </v>
   <v>       0.00118835 </v>
   <v>       0.00118835 </v>
   <v>       0.00059418 </v>
   <v>       0.00118835 </v>
   <v>       0.00118835 </v>
   <v>       0.00118835 </v>
   <v>       0.00118835 </v>
   <v>       0.00118835 </v>
   <v>       0.00118835 </v>
   <v>       0.00118835 </v>
   <v>       0.00118835 </v>
   <v>       0.00059418 </v>
   <v>       0.00118835 </v>
   <v>       0.00118835 </v>
   <v>       0.00118835 </v>
   <v>       0.00118835 </v>
   <v>       0.00118835 </v>
   <v>       0.00118835 </v>
   <v>       0.00118835 </v>
   <v>       0.00118835 </v>
   <v>       0.00059418 </v>
   <v>       0.00118835 </v>
   <v>       0.00118835 </v>
   <v>       0.00118835 </v>
   <v>       0.00118835 </v>
   <v>       0.00118835 </v>
   <v>       0.00118835 </v>
   <v>       0.00118835 </v>
   <v>       0.00118835 </v>
   <v>       0.00059418 </v>
   <v>       0.00118835 </v>
   <v>       0.00118835 </v>
   <v>       0.00118835 </v>
   <v>       0.00118835 </v>
   <v>       0.00118835 </v>
   <v>       0.00118835 </v>
   <v>       0.00118835 </v>
   <v>       0.00118835 </v>
   <v>       0.00059418 </v>
   <v>       0.00118835 </v>
   <v>       0.00118835 </v>
   <v>       0.00118835 </v>
   <v>       0.00118835 </v>
   <v>       0.00118835 </v>
   <v>       0.00118835 </v>
   <v>       0.00118835 </v>
   <v>       0.00118835 </v>
   <v>       0.00059418 </v>
   <v>       0.00118835 </v>
   <v>       0.00118835 </v>
   <v>       0.00118835 </v>
   <v>       0.00118835 </v>
   <v>       0.00118835 </v>
   <v>       0.00118835 </v>
   <v>       0.00118835 </v>
   <v>       0.00118835 </v>
   <v>       0.00059418 </v>
   <v>       0.00118835 </v>
   <v>       0.00118835 </v>
   <v>       0.00118835 </v>
   <v>       0.00118835 </v>
   <v>       0.00118835 </v>
   <v>       0.00118835 </v>
   <v>       0.00118835 </v>
   <v>       0.00118835 </v>
   <v>       0.00059418 </v>
   <v>       0.00118835 </v>
   <v>       0.00118835 </v>
   <v>       0.00118835 </v>
   <v>       0.00118835 </v>
   <v>       0.00118835 </v>
   <v>       0.00118835 </v>
   <v>       0.00118835 </v>
   <v>       0.00118835 </v>
   <v>       0.00059418 </v>
   <v>       0.00118835 </v>
   <v>       0.00118835 </v>
   <v>       0.00118835 </v>
   <v>       0.00118835 </v>
   <v>       0.00118835 </v>
   <v>       0.00118835 </v>
   <v>       0.00118835 </v>
   <v>       0.00118835 </v>
   <v>       0.00059418 </v>
   <v>       0.00118835 </v>
   <v>       0.00118835 </v>
   <v>       0.00118835 </v>
   <v>       0.00118835 </v>
   <v>       0.00118835 </v>
   <v>       0.00118835 </v>
   <v>       0.00118835 </v>
   <v>       0.00118835 </v>
   <v>       0.00059418 </v>
   <v>       0.00118835 </v>
   <v>       0.00118835 </v>
   <v>       0.00118835 </v>
   <v>       0.00118835 </v>
   <v>       0.00118835 </v>
   <v>       0.00118835 </v>
   <v>       0.00118835 </v>
   <v>       0.00118835 </v>
   <v>       0.00059418 </v>
   <v>       0.00118835 </v>
   <v>       0.00118835 </v>
   <v>       0.00118835 </v>
   <v>       0.00118835 </v>
   <v>       0.00118835 </v>
   <v>       0.00118835 </v>
   <v>       0.00118835 </v>
   <v>       0.00118835 </v>
   <v>       0.00059418 </v>
   <v>       0.00118835 </v>
   <v>       0.00118835 </v>
   <v>       0.00118835 </v>
   <v>       0.00118835 </v>
   <v>       0.00118835 </v>
   <v>       0.00118835 </v>
   <v>       0.00118835 </v>
   <v>       0.00118835 </v>
   <v>       0.00059418 </v>
   <v>       0.00118835 </v>
   <v>       0.00118835 </v>
   <v>       0.00118835 </v>
   <v>       0.00118835 </v>
   <v>       0.00118835 </v>
   <v>       0.00118835 </v>
   <v>       0.00118835 </v>
   <v>       0.00118835 </v>
   <v>       0.00059418 </v>
   <v>       0.00118835 </v>
   <v>       0.00118835 </v>
   <v>       0.00118835 </v>
   <v>       0.00118835 </v>
   <v>       0.00118835 </v>
   <v>       0.00118835 </v>
   <v>       0.00118835 </v>
   <v>       0.00118835 </v>
   <v>       0.00059418 </v>
   <v>       0.00118835 </v>
   <v>       0.00118835 </v>
   <v>       0.00118835 </v>
   <v>       0.00118835 </v>
   <v>       0.00118835 </v>
   <v>       0.00118835 </v>
   <v>       0.00118835 </v>
   <v>       0.00118835 </v>
   <v>       0.00059418 </v>
   <v>       0.00118835 </v>
   <v>       0.00118835 </v>
   <v>       0.00118835 </v>
   <v>       0.00118835 </v>
   <v>       0.00118835 </v>
   <v>       0.00118835 </v>
   <v>       0.00118835 </v>
   <v>       0.00118835 </v>
   <v>       0.00059418 </v>
   <v>       0.00118835 </v>
   <v>       0.00118835 </v>
   <v>       0.00118835 </v>
   <v>       0.00118835 </v>
   <v>       0.00118835 </v>
   <v>       0.00118835 </v>
   <v>       0.00118835 </v>
   <v>       0.00118835 </v>
   <v>       0.00059418 </v>
   <v>       0.00118835 </v>
   <v>       0.00118835 </v>
   <v>       0.00118835 </v>
   <v>       0.00118835 </v>
   <v>       0.00118835 </v>
   <v>       0.00118835 </v>
   <v>       0.00118835 </v>
   <v>       0.00118835 </v>
   <v>       0.00059418 </v>
   <v>       0.00118835 </v>
   <v>       0.00118835 </v>
   <v>       0.00118835 </v>
   <v>       0.00118835 </v>
   <v>       0.00118835 </v>
   <v>       0.00118835 </v>
   <v>       0.00118835 </v>
   <v>       0.00118835 </v>
   <v>       0.00059418 </v>
   <v>       0.00118835 </v>
   <v>       0.00118835 </v>
   <v>       0.00118835 </v>
   <v>       0.00118835 </v>
   <v>       0.00118835 </v>
   <v>       0.00118835 </v>
   <v>       0.00118835 </v>
   <v>       0.00118835 </v>
   <v>       0.00059418 </v>
   <v>       0.00118835 </v>
   <v>       0.00118835 </v>
   <v>       0.00118835 </v>
   <v>       0.00118835 </v>
   <v>       0.00118835 </v>
   <v>       0.00118835 </v>
   <v>       0.00118835 </v>
   <v>       0.00118835 </v>
   <v>       0.00059418 </v>
   <v>       0.00118835 </v>
   <v>       0.00118835 </v>
   <v>       0.00118835 </v>
   <v>       0.00118835 </v>
   <v>       0.00118835 </v>
   <v>       0.00118835 </v>
   <v>       0.00118835 </v>
   <v>       0.00118835 </v>
   <v>       0.00059418 </v>
   <v>       0.00118835 </v>
   <v>       0.00118835 </v>
   <v>       0.00118835 </v>
   <v>       0.00118835 </v>
   <v>       0.00118835 </v>
   <v>       0.00118835 </v>
   <v>       0.00118835 </v>
   <v>       0.00118835 </v>
   <v>       0.00059418 </v>
   <v>       0.00118835 </v>
   <v>       0.00118835 </v>
   <v>       0.00118835 </v>
   <v>       0.00118835 </v>
   <v>       0.00118835 </v>
   <v>       0.00118835 </v>
   <v>       0.00118835 </v>
   <v>       0.00118835 </v>
   <v>       0.00059418 </v>
   <v>       0.00118835 </v>
   <v>       0.00118835 </v>
   <v>       0.00118835 </v>
   <v>       0.00118835 </v>
   <v>       0.00118835 </v>
   <v>       0.00118835 </v>
   <v>       0.00118835 </v>
   <v>       0.00118835 </v>
   <v>       0.00059418 </v>
   <v>       0.00118835 </v>
   <v>       0.00118835 </v>
   <v>       0.00118835 </v>
   <v>       0.00118835 </v>
   <v>       0.00118835 </v>
   <v>       0.00118835 </v>
   <v>       0.00118835 </v>
   <v>       0.00118835 </v>
   <v>       0.00059418 </v>
   <v>       0.00118835 </v>
   <v>       0.00118835 </v>
   <v>       0.00118835 </v>
   <v>       0.00118835 </v>
   <v>       0.00118835 </v>
   <v>       0.00118835 </v>
   <v>       0.00118835 </v>
   <v>       0.00118835 </v>
   <v>       0.00059418 </v>
   <v>       0.00118835 </v>
   <v>       0.00118835 </v>
   <v>       0.00118835 </v>
   <v>       0.00118835 </v>
   <v>       0.00118835 </v>
   <v>       0.00118835 </v>
   <v>       0.00118835 </v>
   <v>       0.00118835 </v>
   <v>       0.00059418 </v>
   <v>       0.00118835 </v>
   <v>       0.00118835 </v>
   <v>       0.00118835 </v>
   <v>       0.00118835 </v>
   <v>       0.00118835 </v>
   <v>       0.00118835 </v>
   <v>       0.00118835 </v>
   <v>       0.00118835 </v>
   <v>       0.00059418 </v>
   <v>       0.00118835 </v>
   <v>       0.00118835 </v>
   <v>       0.00118835 </v>
   <v>       0.00118835 </v>
   <v>       0.00118835 </v>
   <v>       0.00118835 </v>
   <v>       0.00118835 </v>
   <v>       0.00118835 </v>
   <v>       0.00059418 </v>
   <v>       0.00118835 </v>
   <v>       0.00118835 </v>
   <v>       0.00118835 </v>
   <v>       0.00118835 </v>
   <v>       0.00118835 </v>
   <v>       0.00118835 </v>
   <v>       0.00118835 </v>
   <v>       0.00118835 </v>
   <v>       0.00059418 </v>
   <v>       0.00118835 </v>
   <v>       0.00118835 </v>
   <v>       0.00118835 </v>
   <v>       0.00118835 </v>
   <v>       0.00118835 </v>
   <v>       0.00118835 </v>
   <v>       0.00118835 </v>
   <v>       0.00118835 </v>
   <v>       0.00059418 </v>
   <v>       0.00118835 </v>
   <v>       0.00118835 </v>
   <v>       0.00118835 </v>
   <v>       0.00118835 </v>
   <v>       0.00118835 </v>
   <v>       0.00118835 </v>
   <v>       0.00118835 </v>
   <v>       0.00118835 </v>
   <v>       0.00059418 </v>
   <v>       0.00118835 </v>
   <v>       0.00118835 </v>
   <v>       0.00118835 </v>
   <v>       0.00118835 </v>
   <v>       0.00118835 </v>
   <v>       0.00118835 </v>
   <v>       0.00118835 </v>
   <v>       0.00118835 </v>
   <v>       0.00059418 </v>
   <v>       0.00118835 </v>
   <v>       0.00118835 </v>
   <v>       0.00118835 </v>
   <v>       0.00118835 </v>
   <v>       0.00118835 </v>
   <v>       0.00118835 </v>
   <v>       0.00118835 </v>
   <v>       0.00118835 </v>
   <v>       0.00059418 </v>
   <v>       0.00118835 </v>
   <v>       0.00118835 </v>
   <v>       0.00118835 </v>
   <v>       0.00118835 </v>
   <v>       0.00118835 </v>
   <v>       0.00118835 </v>
   <v>       0.00118835 </v>
   <v>       0.00118835 </v>
   <v>       0.00059418 </v>
   <v>       0.00118835 </v>
   <v>       0.00118835 </v>
   <v>       0.00118835 </v>
   <v>       0.00118835 </v>
   <v>       0.00118835 </v>
   <v>       0.00118835 </v>
   <v>       0.00118835 </v>
   <v>       0.00118835 </v>
   <v>       0.00059418 </v>
   <v>       0.00118835 </v>
   <v>       0.00118835 </v>
   <v>       0.00118835 </v>
   <v>       0.00118835 </v>
   <v>       0.00118835 </v>
   <v>       0.00118835 </v>
   <v>       0.00118835 </v>
   <v>       0.00118835 </v>
   <v>       0.00059418 </v>
   <v>       0.00118835 </v>
   <v>       0.00118835 </v>
   <v>       0.00118835 </v>
   <v>       0.00118835 </v>
   <v>       0.00118835 </v>
   <v>       0.00118835 </v>
   <v>       0.00118835 </v>
   <v>       0.00118835 </v>
   <v>       0.00059418 </v>
   <v>       0.00118835 </v>
   <v>       0.00118835 </v>
   <v>       0.00118835 </v>
   <v>       0.00118835 </v>
   <v>       0.00118835 </v>
   <v>       0.00118835 </v>
   <v>       0.00118835 </v>
   <v>       0.00118835 </v>
   <v>       0.00059418 </v>
   <v>       0.00118835 </v>
   <v>       0.00118835 </v>
   <v>       0.00118835 </v>
[...]
       <r>    4.5601    1.0000 </r>
       <r>    4.8795    1.0000 </r>
       <r>    5.0295    1.0000 </r>
       <r>    5.0716    1.0000 </r>
       <r>    5.2585    1.0000 </r>
       <r>    5.3226    1.0000 </r>
       <r>    5.3988    1.0000 </r>
       <r>    5.6021    1.0000 </r>
       <r>    5.8821    1.0000 </r>
       <r>    6.0232    1.0000 </r>
       <r>    6.2090    1.0000 </r>
       <r>    7.5038    1.0013 </r>
       <r>    8.2602    0.4575 </r>
       <r>   12.0213    0.0000 </r>
       <r>   12.2354    0.0000 </r>
       <r>   13.9084    0.0000 </r>
       <r>   14.3577    0.0000 </r>
       <r>   15.7012    0.0000 </r>
       <r>   15.9465    0.0000 </r>
      </set>
      <set comment="kpoint 899">
       <r>    1.8662    1.0000 </r>
       <r>    2.1776    1.0000 </r>
       <r>    2.6714    1.0000 </r>
       <r>    2.6912    1.0000 </r>
       <r>    2.7380    1.0000 </r>
       <r>    2.8958    1.0000 </r>
       <r>    3.0102    1.0000 </r>
       <r>    3.0124    1.0000 </r>
       <r>    3.0556    1.0000 </r>
       <r>    3.2536    1.0000 </r>
       <r>    3.3341    1.0000 </r>
       <r>    3.3764    1.0000 </r>
       <r>    3.4418    1.0000 </r>
       <r>    3.6512    1.0000 </r>
       <r>    3.8500    1.0000 </r>
       <r>    3.8638    1.0000 </r>
       <r>    3.8905    1.0000 </r>
       <r>    3.9168    1.0000 </r>
       <r>    4.2805    1.0000 </r>
       <r>    4.3192    1.0000 </r>
       <r>    4.4964    1.0000 </r>
       <r>    4.5877    1.0000 </r>
       <r>    4.7790    1.0000 </r>
       <r>    4.9472    1.0000 </r>
       <r>    4.9513    1.0000 </r>
       <r>    5.1131    1.0000 </r>
       <r>    5.1689    1.0000 </r>
       <r>    5.2569    1.0000 </r>
       <r>    5.8036    1.0000 </r>
       <r>    5.8791    1.0000 </r>
       <r>    6.2073    1.0000 </r>
       <r>    6.2808    1.0000 </r>
       <r>    6.9833    1.0000 </r>
       <r>    7.6677    1.0101 </r>
       <r>   12.5208    0.0000 </r>
       <r>   12.8168    0.0000 </r>
       <r>   13.9163    0.0000 </r>
       <r>   14.1809    0.0000 </r>
       <r>   15.2910    0.0000 </r>
       <r>   15.5576    0.0000 </r>
      </set>
      <set comment="kpoint 900">
       <r>    2.0455    1.0000 </r>
       <r>    2.3145    1.0000 </r>
       <r>    2.6607    1.0000 </r>
       <r>    2.7660    1.0000 </r>
       <r>    2.7900    1.0000 </r>
       <r>    2.8668    1.0000 </r>
       <r>    3.1212    1.0000 </r>
       <r>    3.1909    1.0000 </r>
       <r>    3.2549    1.0000 </r>
       <r>    3.2607    1.0000 </r>
       <r>    3.3257    1.0000 </r>
       <r>    3.3718    1.0000 </r>
       <r>    3.5448    1.0000 </r>
       <r>    3.5529    1.0000 </r>
       <r>    3.5919    1.0000 </r>
       <r>    3.6564    1.0000 </r>
       <r>    3.7866    1.0000 </r>
       <r>    3.8051    1.0000 </r>
       <r>    4.3474    1.0000 </r>
       <r>    4.4247    1.0000 </r>
       <r>    4.4581    1.0000 </r>
       <r>    4.5517    1.0000 </r>
       <r>    4.7558    1.0000 </r>
       <r>    4.9107    1.0000 </r>
       <r>    4.9665    1.0000 </r>
       <r>    5.0026    1.0000 </r>
       <r>    5.0457    1.0000 </r>
       <r>    5.1059    1.0000 </r>
       <r>    5.8777    1.0000 </r>
       <r>    6.0474    1.0000 </r>
       <r>    6.2074    1.0000 </r>
       <r>    6.3722    1.0000 </r>
       <r>    6.7966    1.0000 </r>
       <r>    7.1884    1.0000 </r>
       <r>   12.8384    0.0000 </r>
       <r>   13.3237    0.0000 </r>
       <r>   13.8652    0.0000 </r>
       <r>   14.0137    0.0000 </r>
       <r>   14.9816    0.0000 </r>
       <r>   15.3153    0.0000 </r>
      </set>
     </set>
    </set>
   </array>
  </eigenvalues>
  <separator name="orbital magnetization" >
   <v name="MAGDIPOLOUT">      0.00000000      0.00000000      0.00000000</v>
  </separator>
  <dos>
   <i name="efermi">      8.24509464 </i>
   <total>
    <array>
     <dimension dim="1">gridpoints</dimension>
     <dimension dim="2">spin</dimension>
     <field>energy</field>
     <field>total</field>
     <field>integrated</field>
     <set>
      <set comment="spin 1">
       <r>    -3.2160     0.0000     0.0000 </r>
       <r>    -3.1376     0.0000     0.0000 </r>
       <r>    -3.0592     0.0000     0.0000 </r>
       <r>    -2.9808     0.0000     0.0000 </r>
       <r>    -2.9024     0.0000     0.0000 </r>
       <r>    -2.8240     0.0000     0.0000 </r>
       <r>    -2.7456     0.0000     0.0000 </r>
       <r>    -2.6672     0.0000     0.0000 </r>
       <r>    -2.5887     0.0000     0.0000 </r>
       <r>    -2.5103     0.0000     0.0000 </r>
       <r>    -2.4319     0.0000     0.0000 </r>
       <r>    -2.3535     0.0000     0.0000 </r>
       <r>    -2.2751     0.0000     0.0000 </r>
       <r>    -2.1967     0.0000     0.0000 </r>
       <r>    -2.1183     0.0000     0.0000 </r>
       <r>    -2.0399     0.0000     0.0000 </r>
       <r>    -1.9615     0.0000     0.0000 </r>
       <r>    -1.8831     0.0000     0.0000 </r>
       <r>    -1.8047     0.0000     0.0000 </r>
       <r>    -1.7263     0.0000     0.0000 </r>
       <r>    -1.6479     0.0000     0.0000 </r>
       <r>    -1.5695     0.0000     0.0000 </r>
       <r>    -1.4911     0.0000     0.0000 </r>
       <r>    -1.4127     0.0000     0.0000 </r>
       <r>    -1.3343     0.0000     0.0000 </r>
       <r>    -1.2559     0.0000     0.0000 </r>
       <r>    -1.1775     0.0000     0.0000 </r>
       <r>    -1.0991     0.0000     0.0000 </r>
       <r>    -1.0207     0.0000     0.0000 </r>
       <r>    -0.9422    -0.0001     0.0000 </r>
       <r>    -0.8638    -0.0004     0.0000 </r>
       <r>    -0.7854    -0.0011    -0.0001 </r>
       <r>    -0.7070    -0.0025    -0.0003 </r>
       <r>    -0.6286    -0.0048    -0.0007 </r>
       <r>    -0.5502    -0.0075    -0.0013 </r>
       <r>    -0.4718    -0.0085    -0.0020 </r>
       <r>    -0.3934    -0.0036    -0.0022 </r>
       <r>    -0.3150     0.0125    -0.0013 </r>
       <r>    -0.2366     0.0442     0.0022 </r>
       <r>    -0.1582     0.0918     0.0094 </r>
       <r>    -0.0798     0.1510     0.0213 </r>
       <r>    -0.0014     0.2144     0.0381 </r>
       <r>     0.0770     0.2752     0.0596 </r>
       <r>     0.1554     0.3298     0.0855 </r>
       <r>     0.2338     0.3778     0.1151 </r>
       <r>     0.3122     0.4210     0.1481 </r>
       <r>     0.3906     0.4615     0.1843 </r>
       <r>     0.4690     0.5011     0.2236 </r>
       <r>     0.5474     0.5411     0.2660 </r>
       <r>     0.6259     0.5821     0.3117 </r>
       <r>     0.7043     0.6243     0.3606 </r>
       <r>     0.7827     0.6677     0.4129 </r>
       <r>     0.8611     0.7131     0.4689 </r>
       <r>     0.9395     0.7612     0.5285 </r>
       <r>     1.0179     0.8114     0.5922 </r>
       <r>     1.0963     0.8618     0.6597 </r>
       <r>     1.1747     0.9122     0.7313 </r>
       <r>     1.2531     0.9688     0.8072 </r>
       <r>     1.3315     1.0516     0.8897 </r>
       <r>     1.4099     1.2004     0.9838 </r>
       <r>     1.4883     1.4683     1.0989 </r>
       <r>     1.5667     1.8941     1.2474 </r>
       <r>     1.6451     2.4620     1.4404 </r>
       <r>     1.7235     3.0900     1.6827 </r>
       <r>     1.8019     3.6818     1.9714 </r>
       <r>     1.8803     4.2209     2.3023 </r>
       <r>     1.9587     4.8225     2.6804 </r>
       <r>     2.0371     5.6785     3.1256 </r>
       <r>     2.1155     6.9273     3.6688 </r>
       <r>     2.1939     8.5551     4.3395 </r>
       <r>     2.2724    10.3981     5.1548 </r>
       <r>     2.3508    12.2154     6.1125 </r>
       <r>     2.4292    13.7619     7.1915 </r>
       <r>     2.5076    14.8325     8.3545 </r>
       <r>     2.5860    15.2963     9.5538 </r>
       <r>     2.6644    15.1326    10.7402 </r>
       <r>     2.7428    14.4491    11.8731 </r>
       <r>     2.8212    13.4703    12.9293 </r>
       <r>     2.8996    12.4956    13.9090 </r>
       <r>     2.9780    11.8281    14.8364 </r>
       <r>     3.0564    11.6757    15.7518 </r>
       <r>     3.1348    12.0612    16.6975 </r>
       <r>     3.2132    12.8061    17.7015 </r>
       <r>     3.2916    13.6193    18.7693 </r>
       <r>     3.3700    14.2534    19.8869 </r>
       <r>     3.4484    14.6398    21.0347 </r>
       <r>     3.5268    14.9315    22.2054 </r>
       <r>     3.6052    15.4302    23.4152 </r>
       <r>     3.6836    16.4137    24.7021 </r>
       <r>     3.7620    17.9254    26.1076 </r>
       <r>     3.8404    19.6405    27.6475 </r>
       <r>     3.9189    20.9424    29.2895 </r>
       <r>     3.9973    21.2408    30.9548 </r>
       <r>     4.0757    20.3500    32.5504 </r>
       <r>     4.1541    18.6402    34.0118 </r>
       <r>     4.2325    16.8179    35.3305 </r>
       <r>     4.3109    15.4972    36.5455 </r>
       <r>     4.3893    14.8846    37.7125 </r>
       <r>     4.4677    14.7741    38.8709 </r>
       <r>     4.5461    14.7911    40.0306 </r>
       <r>     4.6245    14.6710    41.1809 </r>
       <r>     4.7029    14.3863    42.3088 </r>
       <r>     4.7813    14.0823    43.4129 </r>
       <r>     4.8597    13.9146    44.5039 </r>
       <r>     4.9381    13.9267    45.5958 </r>
       <r>     5.0165    14.0449    46.6970 </r>
       <r>     5.0949    14.1584    47.8071 </r>
       <r>     5.1733    14.1992    48.9204 </r>
       <r>     5.2517    14.1652    50.0310 </r>
       <r>     5.3301    14.1022    51.1367 </r>
       <r>     5.4085    14.0853    52.2411 </r>
       <r>     5.4869    14.2072    53.3550 </r>
       <r>     5.5654    14.5397    54.4950 </r>
       <r>     5.6438    15.0537    55.6753 </r>
       <r>     5.7222    15.5465    56.8942 </r>
       <r>     5.8006    15.6633    58.1223 </r>
       <r>     5.8790    15.0514    59.3024 </r>
       <r>     5.9574    13.5649    60.3659 </r>
       <r>     6.0358    11.3687    61.2573 </r>
       <r>     6.1142     8.8564    61.9517 </r>
       <r>     6.1926     6.4540    62.4577 </r>
       <r>     6.2710     4.4569    62.8071 </r>
       <r>     6.3494     2.9850    63.0412 </r>
       <r>     6.4278     2.0263    63.2000 </r>
       <r>     6.5062     1.4970    63.3174 </r>
       <r>     6.5846     1.2846    63.4181 </r>
       <r>     6.6630     1.2732    63.5180 </r>
       <r>     6.7414     1.3595    63.6245 </r>
       <r>     6.8198     1.4639    63.7393 </r>
       <r>     6.8982     1.5373    63.8599 </r>
       <r>     6.9766     1.5638    63.9825 </r>
       <r>     7.0550     1.5548    64.1044 </r>
       <r>     7.1334     1.5346    64.2247 </r>
       <r>     7.2119     1.5243    64.3442 </r>
       <r>     7.2903     1.5332    64.4644 </r>
       <r>     7.3687     1.5581    64.5866 </r>
       <r>     7.4471     1.5874    64.7110 </r>
       <r>     7.5255     1.6066    64.8370 </r>
       <r>     7.6039     1.6048    64.9628 </r>
       <r>     7.6823     1.5824    65.0869 </r>
       <r>     7.7607     1.5538    65.2087 </r>
       <r>     7.8391     1.5422    65.3296 </r>
       <r>     7.9175     1.5648    65.4523 </r>
       <r>     7.9959     1.6178    65.5791 </r>
       <r>     8.0743     1.6751    65.7105 </r>
       <r>     8.1527     1.7044    65.8441 </r>
       <r>     8.2311     1.6909    65.9767 </r>
       <r>     8.3095     1.6479    66.1059 </r>
       <r>     8.3879     1.6068    66.2319 </r>
       <r>     8.4663     1.5936    66.3568 </r>
       <r>     8.5447     1.6116    66.4832 </r>
       <r>     8.6231     1.6420    66.6119 </r>
       <r>     8.7015     1.6595    66.7420 </r>
       <r>     8.7800     1.6515    66.8715 </r>
       <r>     8.8584     1.6250    66.9989 </r>
       <r>     8.9368     1.5998    67.1243 </r>
       <r>     9.0152     1.5924    67.2492 </r>
       <r>     9.0936     1.6052    67.3751 </r>
       <r>     9.1720     1.6248    67.5024 </r>
       <r>     9.2504     1.6331    67.6305 </r>
       <r>     9.3288     1.6216    67.7576 </r>
       <r>     9.4072     1.5984    67.8829 </r>
       <r>     9.4856     1.5813    68.0069 </r>
       <r>     9.5640     1.5818    68.1309 </r>
       <r>     9.6424     1.5945    68.2560 </r>
       <r>     9.7208     1.6033    68.3817 </r>
       <r>     9.7992     1.5970    68.5069 </r>
       <r>     9.8776     1.5804    68.6308 </r>
       <r>     9.9560     1.5683    68.7538 </r>
       <r>    10.0344     1.5680    68.8767 </r>
       <r>    10.1128     1.5705    68.9998 </r>
       <r>    10.1912     1.5585    69.1220 </r>
       <r>    10.2696     1.5249    69.2416 </r>
       <r>    10.3480     1.4810    69.3577 </r>
       <r>    10.4265     1.4479    69.4712 </r>
       <r>    10.5049     1.4382    69.5840 </r>
       <r>    10.5833     1.4477    69.6975 </r>
       <r>    10.6617     1.4618    69.8121 </r>
       <r>    10.7401     1.4692    69.9273 </r>
       <r>    10.8185     1.4691    70.0425 </r>
       <r>    10.8969     1.4675    70.1575 </r>
       <r>    10.9753     1.4710    70.2729 </r>
       <r>    11.0537     1.4854    70.3893 </r>
       <r>    11.1321     1.5167    70.5083 </r>
       <r>    11.2105     1.5706    70.6314 </r>
       <r>    11.2889     1.6465    70.7605 </r>
       <r>    11.3673     1.7324    70.8963 </r>
       <r>    11.4457     1.8072    71.0380 </r>
       <r>    11.5241     1.8519    71.1832 </r>
       <r>    11.6025     1.8616    71.3292 </r>
       <r>    11.6809     1.8496    71.4742 </r>
       <r>    11.7593     1.8380    71.6183 </r>
       <r>    11.8377     1.8429    71.7628 </r>
       <r>    11.9161     1.8640    71.9089 </r>
       <r>    11.9945     1.8872    72.0569 </r>
       <r>    12.0730     1.8965    72.2056 </r>
       <r>    12.1514     1.8859    72.3535 </r>
       <r>    12.2298     1.8612    72.4994 </r>
       <r>    12.3082     1.8349    72.6433 </r>
       <r>    12.3866     1.8179    72.7858 </r>
       <r>    12.4650     1.8150    72.9281 </r>
       <r>    12.5434     1.8237    73.0711 </r>
       <r>    12.6218     1.8347    73.2149 </r>
       <r>    12.7002     1.8361    73.3589 </r>
       <r>    12.7786     1.8218    73.5017 </r>
       <r>    12.8570     1.7970    73.6426 </r>
       <r>    12.9354     1.7757    73.7818 </r>
       <r>    13.0138     1.7707    73.9207 </r>
       <r>    13.0922     1.7861    74.0607 </r>
       <r>    13.1706     1.8166    74.2031 </r>
       <r>    13.2490     1.8532    74.3484 </r>
       <r>    13.3274     1.8873    74.4964 </r>
       <r>    13.4058     1.9136    74.6465 </r>
       <r>    13.4842     1.9312    74.7979 </r>
       <r>    13.5626     1.9446    74.9503 </r>
       <r>    13.6410     1.9615    75.1041 </r>
       <r>    13.7195     1.9869    75.2599 </r>
       <r>    13.7979     2.0188    75.4182 </r>
       <r>    13.8763     2.0475    75.5787 </r>
       <r>    13.9547     2.0610    75.7403 </r>
       <r>    14.0331     2.0529    75.9013 </r>
       <r>    14.1115     2.0294    76.0604 </r>
       <r>    14.1899     2.0088    76.2179 </r>
       <r>    14.2683     2.0119    76.3756 </r>
       <r>    14.3467     2.0467    76.5361 </r>
       <r>    14.4251     2.0961    76.7005 </r>
       <r>    14.5035     2.1214    76.8668 </r>
       <r>    14.5819     2.0835    77.0301 </r>
       <r>    14.6603     1.9711    77.1847 </r>
       <r>    14.7387     1.8130    77.3268 </r>
       <r>    14.8171     1.6654    77.4574 </r>
       <r>    14.8955     1.5801    77.5813 </r>
       <r>    14.9739     1.5794    77.7051 </r>
       <r>    15.0523     1.6500    77.8345 </r>
       <r>    15.1307     1.7560    77.9722 </r>
       <r>    15.2091     1.8593    78.1180 </r>
       <r>    15.2875     1.9352    78.2697 </r>
       <r>    15.3660     1.9786    78.4248 </r>
       <r>    15.4444     1.9984    78.5815 </r>
       <r>    15.5228     2.0017    78.7384 </r>
       <r>    15.6012     1.9800    78.8937 </r>
       <r>    15.6796     1.9119    79.0436 </r>
       <r>    15.7580     1.7830    79.1834 </r>
       <r>    15.8364     1.6031    79.3091 </r>
       <r>    15.9148     1.4027    79.4190 </r>
       <r>    15.9932     1.2142    79.5142 </r>
       <r>    16.0716     1.0553    79.5970 </r>
       <r>    16.1500     0.9287    79.6698 </r>
       <r>    16.2284     0.8281    79.7347 </r>
       <r>    16.3068     0.7427    79.7930 </r>
       <r>    16.3852     0.6585    79.8446 </r>
       <r>    16.4636     0.5629    79.8887 </r>
       <r>    16.5420     0.4523    79.9242 </r>
       <r>    16.6204     0.3354    79.9505 </r>
       <r>    16.6988     0.2283    79.9684 </r>
       <r>    16.7772     0.1448    79.9797 </r>
       <r>    16.8556     0.0891    79.9867 </r>
       <r>    16.9341     0.0559    79.9911 </r>
       <r>    17.0125     0.0366    79.9940 </r>
       <r>    17.0909     0.0246    79.9959 </r>
       <r>    17.1693     0.0170    79.9972 </r>
       <r>    17.2477     0.0125    79.9982 </r>
       <r>    17.3261     0.0099    79.9990 </r>
       <r>    17.4045     0.0076    79.9996 </r>
       <r>    17.4829     0.0050    80.0000 </r>
       <r>    17.5613     0.0023    80.0002 </r>
       <r>    17.6397     0.0003    80.0002 </r>
       <r>    17.7181    -0.0006    80.0001 </r>
       <r>    17.7965    -0.0008    80.0001 </r>
       <r>    17.8749    -0.0006    80.0000 </r>
       <r>    17.9533    -0.0003    80.0000 </r>
       <r>    18.0317    -0.0001    80.0000 </r>
       <r>    18.1101     0.0000    80.0000 </r>
       <r>    18.1885     0.0000    80.0000 </r>
       <r>    18.2669     0.0000    80.0000 </r>
       <r>    18.3453     0.0000    80.0000 </r>
       <r>    18.4237     0.0000    80.0000 </r>
       <r>    18.5021     0.0000    80.0000 </r>
       <r>    18.5806     0.0000    80.0000 </r>
       <r>    18.6590     0.0000    80.0000 </r>
       <r>    18.7374     0.0000    80.0000 </r>
       <r>    18.8158     0.0000    80.0000 </r>
       <r>    18.8942     0.0000    80.0000 </r>
       <r>    18.9726     0.0000    80.0000 </r>
       <r>    19.0510     0.0000    80.0000 </r>
       <r>    19.1294     0.0000    80.0000 </r>
       <r>    19.2078     0.0000    80.0000 </r>
       <r>    19.2862     0.0000    80.0000 </r>
       <r>    19.3646     0.0000    80.0000 </r>
       <r>    19.4430     0.0000    80.0000 </r>
       <r>    19.5214     0.0000    80.0000 </r>
       <r>    19.5998     0.0000    80.0000 </r>
       <r>    19.6782     0.0000    80.0000 </r>
       <r>    19.7566     0.0000    80.0000 </r>
       <r>    19.8350     0.0000    80.0000 </r>
       <r>    19.9134     0.0000    80.0000 </r>
       <r>    19.9918     0.0000    80.0000 </r>
       <r>    20.0702     0.0000    80.0000 </r>
       <r>    20.1486     0.0000    80.0000 </r>
       <r>    20.2271     0.0000    80.0000 </r>
       <r>    20.3055     0.0000    80.0000 </r>
      </set>
     </set>
    </array>
   </total>
  </dos>
 </calculation>
 <structure name="finalpos" >
  <crystal>
   <varray name="basis" >
    <v>       4.14712235       0.00000000       0.00000000 </v>
    <v>       0.00000000       0.00000000      -4.15321407 </v>
    <v>       0.00000000       6.20975390       2.07660704 </v>
   </varray>
   <i name="volume">    106.95609897 </i>
   <varray name="rec_basis" >
    <v>       0.24113106       0.00000000       0.00000000 </v>
    <v>       0.00000000       0.08051849      -0.24077738 </v>
    <v>       0.00000000       0.16103698       0.00000000 </v>
   </varray>
  </crystal>
  <varray name="positions" >
   <v>       0.50000000       0.49978868       0.99957737 </v>
   <v>       0.00000000       0.66666667       0.33333333 </v>
   <v>       0.50000000       0.83354465       0.66708930 </v>
   <v>       0.00000000       0.00013161       0.00026321 </v>
   <v>       0.50000000       0.16666667       0.33333333 </v>
   <v>       0.00000000       0.33320173       0.66640346 </v>
  </varray>
 </structure>
</modeling>
