<?xml version="1.0" encoding="ISO-8859-1"?>
<modeling>
 <generator>
  <i name="program" type="string">vasp </i>
  <i name="version" type="string">5.3.5  </i>
  <i name="subversion" type="string">31Mar14 (build Jun 20 2014 13:15:13) complex                          parallel </i>
  <i name="platform" type="string">LinuxIFC </i>
  <i name="date" type="string">2025 11 21 </i>
  <i name="time" type="string">11:20:44 </i>
 </generator>
 <incar>
  <i type="string" name="PREC">accurate</i>
  <i type="int" name="IALGO">    68</i>
  <i type="logical" name="ADDGRID"> T  </i>
  <i type="int" name="NELM">   100</i>
  <i type="int" name="NELMIN">     4</i>
  <i type="int" name="IBRION">     2</i>
  <i name="EDIFF">      0.00000100</i>
  <i name="EDIFFG">     -0.02000000</i>
  <i type="int" name="NSW">    30</i>
  <i type="int" name="ISIF">     3</i>
  <i name="ENCUT">    500.00000000</i>
  <i type="logical" name="LREAL"> F  </i>
  <i type="int" name="ISMEAR">     1</i>
  <i name="SIGMA">      0.30000000</i>
  <i type="logical" name="LWAVE"> F  </i>
  <i type="logical" name="LCHARG"> F  </i>
  <i type="int" name="NELM">   100</i>
 </incar>
 <kpoints>
  <generation param="Auto">
   <i name="subdivisionlength">     70.00000000 </i>
   <v type="int" name="divisions">      24       24        7 </v>
   <v name="usershift">      0.00000000       0.00000000       0.00000000 </v>
   <v name="genvec1">      0.04166667       0.00000000       0.00000000 </v>
   <v name="genvec2">      0.00000000       0.04166667       0.00000000 </v>
   <v name="genvec3">      0.00000000       0.00000000       0.14285714 </v>
   <v name="shift">      0.00000000       0.00000000       0.00000000 </v>
  </generation>
  <varray name="kpointlist" >
   <v>       0.00000000       0.00000000       0.00000000 </v>
   <v>       0.04166667       0.00000000       0.00000000 </v>
   <v>       0.08333333       0.00000000       0.00000000 </v>
   <v>       0.12500000       0.00000000       0.00000000 </v>
   <v>       0.16666667       0.00000000       0.00000000 </v>
   <v>       0.20833333       0.00000000       0.00000000 </v>
   <v>       0.25000000       0.00000000       0.00000000 </v>
   <v>       0.29166667       0.00000000       0.00000000 </v>
   <v>       0.33333333       0.00000000       0.00000000 </v>
   <v>       0.37500000       0.00000000       0.00000000 </v>
   <v>       0.41666667       0.00000000       0.00000000 </v>
   <v>       0.45833333       0.00000000       0.00000000 </v>
   <v>       0.50000000       0.00000000       0.00000000 </v>
   <v>       0.04166667       0.04166667       0.00000000 </v>
   <v>       0.08333333       0.04166667       0.00000000 </v>
   <v>       0.12500000       0.04166667       0.00000000 </v>
   <v>       0.16666667       0.04166667       0.00000000 </v>
   <v>       0.20833333       0.04166667       0.00000000 </v>
   <v>       0.25000000       0.04166667       0.00000000 </v>
   <v>       0.29166667       0.04166667       0.00000000 </v>
   <v>       0.33333333       0.04166667       0.00000000 </v>
   <v>       0.37500000       0.04166667       0.00000000 </v>
   <v>       0.41666667       0.04166667       0.00000000 </v>
   <v>       0.45833333       0.04166667       0.00000000 </v>
   <v>       0.50000000       0.04166667       0.00000000 </v>
   <v>      -0.45833333       0.04166667       0.00000000 </v>
   <v>      -0.41666667       0.04166667       0.00000000 </v>
   <v>      -0.37500000       0.04166667       0.00000000 </v>
   <v>      -0.33333333       0.04166667       0.00000000 </v>
   <v>      -0.29166667       0.04166667       0.00000000 </v>
   <v>      -0.25000000       0.04166667       0.00000000 </v>
   <v>      -0.20833333       0.04166667       0.00000000 </v>
   <v>      -0.16666667       0.04166667       0.00000000 </v>
   <v>      -0.12500000       0.04166667       0.00000000 </v>
   <v>      -0.08333333       0.04166667       0.00000000 </v>
   <v>      -0.04166667       0.04166667       0.00000000 </v>
   <v>       0.08333333       0.08333333       0.00000000 </v>
   <v>       0.12500000       0.08333333       0.00000000 </v>
   <v>       0.16666667       0.08333333       0.00000000 </v>
   <v>       0.20833333       0.08333333       0.00000000 </v>
   <v>       0.25000000       0.08333333       0.00000000 </v>
   <v>       0.29166667       0.08333333       0.00000000 </v>
   <v>       0.33333333       0.08333333       0.00000000 </v>
   <v>       0.37500000       0.08333333       0.00000000 </v>
   <v>       0.41666667       0.08333333       0.00000000 </v>
   <v>       0.45833333       0.08333333       0.00000000 </v>
   <v>       0.50000000       0.08333333       0.00000000 </v>
   <v>      -0.45833333       0.08333333       0.00000000 </v>
   <v>      -0.41666667       0.08333333       0.00000000 </v>
   <v>      -0.37500000       0.08333333       0.00000000 </v>
   <v>      -0.33333333       0.08333333       0.00000000 </v>
   <v>      -0.29166667       0.08333333       0.00000000 </v>
   <v>      -0.25000000       0.08333333       0.00000000 </v>
   <v>      -0.20833333       0.08333333       0.00000000 </v>
   <v>      -0.16666667       0.08333333       0.00000000 </v>
   <v>      -0.12500000       0.08333333       0.00000000 </v>
   <v>      -0.08333333       0.08333333       0.00000000 </v>
   <v>       0.12500000       0.12500000       0.00000000 </v>
   <v>       0.16666667       0.12500000       0.00000000 </v>
   <v>       0.20833333       0.12500000       0.00000000 </v>
   <v>       0.25000000       0.12500000       0.00000000 </v>
   <v>       0.29166667       0.12500000       0.00000000 </v>
   <v>       0.33333333       0.12500000       0.00000000 </v>
   <v>       0.37500000       0.12500000       0.00000000 </v>
   <v>       0.41666667       0.12500000       0.00000000 </v>
   <v>       0.45833333       0.12500000       0.00000000 </v>
   <v>       0.50000000       0.12500000       0.00000000 </v>
   <v>      -0.45833333       0.12500000       0.00000000 </v>
   <v>      -0.41666667       0.12500000       0.00000000 </v>
   <v>      -0.37500000       0.12500000       0.00000000 </v>
   <v>      -0.33333333       0.12500000       0.00000000 </v>
   <v>      -0.29166667       0.12500000       0.00000000 </v>
   <v>      -0.25000000       0.12500000       0.00000000 </v>
   <v>      -0.20833333       0.12500000       0.00000000 </v>
   <v>      -0.16666667       0.12500000       0.00000000 </v>
   <v>      -0.12500000       0.12500000       0.00000000 </v>
   <v>       0.16666667       0.16666667       0.00000000 </v>
   <v>       0.20833333       0.16666667       0.00000000 </v>
   <v>       0.25000000       0.16666667       0.00000000 </v>
   <v>       0.29166667       0.16666667       0.00000000 </v>
   <v>       0.33333333       0.16666667       0.00000000 </v>
   <v>       0.37500000       0.16666667       0.00000000 </v>
   <v>       0.41666667       0.16666667       0.00000000 </v>
   <v>       0.45833333       0.16666667       0.00000000 </v>
   <v>       0.50000000       0.16666667       0.00000000 </v>
   <v>      -0.45833333       0.16666667       0.00000000 </v>
   <v>      -0.41666667       0.16666667       0.00000000 </v>
   <v>      -0.37500000       0.16666667       0.00000000 </v>
   <v>      -0.33333333       0.16666667       0.00000000 </v>
   <v>      -0.29166667       0.16666667       0.00000000 </v>
   <v>      -0.25000000       0.16666667       0.00000000 </v>
   <v>      -0.20833333       0.16666667       0.00000000 </v>
   <v>      -0.16666667       0.16666667       0.00000000 </v>
   <v>       0.20833333       0.20833333       0.00000000 </v>
   <v>       0.25000000       0.20833333       0.00000000 </v>
   <v>       0.29166667       0.20833333       0.00000000 </v>
   <v>       0.33333333       0.20833333       0.00000000 </v>
   <v>       0.37500000       0.20833333       0.00000000 </v>
   <v>       0.41666667       0.20833333       0.00000000 </v>
   <v>       0.45833333       0.20833333       0.00000000 </v>
   <v>       0.50000000       0.20833333       0.00000000 </v>
   <v>      -0.45833333       0.20833333       0.00000000 </v>
   <v>      -0.41666667       0.20833333       0.00000000 </v>
   <v>      -0.37500000       0.20833333       0.00000000 </v>
   <v>      -0.33333333       0.20833333       0.00000000 </v>
   <v>      -0.29166667       0.20833333       0.00000000 </v>
   <v>      -0.25000000       0.20833333       0.00000000 </v>
   <v>      -0.20833333       0.20833333       0.00000000 </v>
   <v>       0.25000000       0.25000000       0.00000000 </v>
   <v>       0.29166667       0.25000000       0.00000000 </v>
   <v>       0.33333333       0.25000000       0.00000000 </v>
   <v>       0.37500000       0.25000000       0.00000000 </v>
   <v>       0.41666667       0.25000000       0.00000000 </v>
   <v>       0.45833333       0.25000000       0.00000000 </v>
   <v>       0.50000000       0.25000000       0.00000000 </v>
   <v>      -0.45833333       0.25000000       0.00000000 </v>
   <v>      -0.41666667       0.25000000       0.00000000 </v>
   <v>      -0.37500000       0.25000000       0.00000000 </v>
   <v>      -0.33333333       0.25000000       0.00000000 </v>
   <v>      -0.29166667       0.25000000       0.00000000 </v>
   <v>      -0.25000000       0.25000000       0.00000000 </v>
   <v>       0.29166667       0.29166667       0.00000000 </v>
   <v>       0.33333333       0.29166667       0.00000000 </v>
   <v>       0.37500000       0.29166667       0.00000000 </v>
   <v>       0.41666667       0.29166667       0.00000000 </v>
   <v>       0.45833333       0.29166667       0.00000000 </v>
   <v>       0.50000000       0.29166667       0.00000000 </v>
   <v>      -0.45833333       0.29166667       0.00000000 </v>
   <v>      -0.41666667       0.29166667       0.00000000 </v>
   <v>      -0.37500000       0.29166667       0.00000000 </v>
   <v>      -0.33333333       0.29166667       0.00000000 </v>
   <v>      -0.29166667       0.29166667       0.00000000 </v>
   <v>       0.33333333       0.33333333       0.00000000 </v>
   <v>       0.37500000       0.33333333       0.00000000 </v>
   <v>       0.41666667       0.33333333       0.00000000 </v>
   <v>       0.45833333       0.33333333       0.00000000 </v>
   <v>       0.50000000       0.33333333       0.00000000 </v>
   <v>      -0.45833333       0.33333333       0.00000000 </v>
   <v>      -0.41666667       0.33333333       0.00000000 </v>
   <v>      -0.37500000       0.33333333       0.00000000 </v>
   <v>      -0.33333333       0.33333333       0.00000000 </v>
   <v>       0.37500000       0.37500000       0.00000000 </v>
   <v>       0.41666667       0.37500000       0.00000000 </v>
   <v>       0.45833333       0.37500000       0.00000000 </v>
   <v>       0.50000000       0.37500000       0.00000000 </v>
   <v>      -0.45833333       0.37500000       0.00000000 </v>
   <v>      -0.41666667       0.37500000       0.00000000 </v>
   <v>      -0.37500000       0.37500000       0.00000000 </v>
   <v>       0.41666667       0.41666667       0.00000000 </v>
   <v>       0.45833333       0.41666667       0.00000000 </v>
   <v>       0.50000000       0.41666667       0.00000000 </v>
   <v>      -0.45833333       0.41666667       0.00000000 </v>
   <v>      -0.41666667       0.41666667       0.00000000 </v>
   <v>       0.45833333       0.45833333       0.00000000 </v>
   <v>       0.50000000       0.45833333       0.00000000 </v>
   <v>      -0.45833333       0.45833333       0.00000000 </v>
   <v>       0.50000000       0.50000000       0.00000000 </v>
   <v>       0.00000000       0.00000000       0.14285714 </v>
   <v>       0.04166667       0.00000000       0.14285714 </v>
   <v>       0.08333333       0.00000000       0.14285714 </v>
   <v>       0.12500000       0.00000000       0.14285714 </v>
   <v>       0.16666667       0.00000000       0.14285714 </v>
   <v>       0.20833333       0.00000000       0.14285714 </v>
   <v>       0.25000000       0.00000000       0.14285714 </v>
   <v>       0.29166667       0.00000000       0.14285714 </v>
   <v>       0.33333333       0.00000000       0.14285714 </v>
   <v>       0.37500000       0.00000000       0.14285714 </v>
   <v>       0.41666667       0.00000000       0.14285714 </v>
   <v>       0.45833333       0.00000000       0.14285714 </v>
   <v>       0.50000000       0.00000000       0.14285714 </v>
   <v>      -0.45833333       0.00000000       0.14285714 </v>
   <v>      -0.41666667       0.00000000       0.14285714 </v>
   <v>      -0.37500000       0.00000000       0.14285714 </v>
   <v>      -0.33333333       0.00000000       0.14285714 </v>
   <v>      -0.29166667       0.00000000       0.14285714 </v>
   <v>      -0.25000000       0.00000000       0.14285714 </v>
   <v>      -0.20833333       0.00000000       0.14285714 </v>
   <v>      -0.16666667       0.00000000       0.14285714 </v>
   <v>      -0.12500000       0.00000000       0.14285714 </v>
   <v>      -0.08333333       0.00000000       0.14285714 </v>
   <v>      -0.04166667       0.00000000       0.14285714 </v>
   <v>       0.04166667       0.04166667       0.14285714 </v>
   <v>       0.08333333       0.04166667       0.14285714 </v>
   <v>       0.12500000       0.04166667       0.14285714 </v>
   <v>       0.16666667       0.04166667       0.14285714 </v>
   <v>       0.20833333       0.04166667       0.14285714 </v>
   <v>       0.25000000       0.04166667       0.14285714 </v>
   <v>       0.29166667       0.04166667       0.14285714 </v>
   <v>       0.33333333       0.04166667       0.14285714 </v>
   <v>       0.37500000       0.04166667       0.14285714 </v>
   <v>       0.41666667       0.04166667       0.14285714 </v>
   <v>       0.45833333       0.04166667       0.14285714 </v>
   <v>       0.50000000       0.04166667       0.14285714 </v>
   <v>      -0.45833333       0.04166667       0.14285714 </v>
   <v>      -0.41666667       0.04166667       0.14285714 </v>
   <v>      -0.37500000       0.04166667       0.14285714 </v>
   <v>      -0.33333333       0.04166667       0.14285714 </v>
   <v>      -0.29166667       0.04166667       0.14285714 </v>
   <v>      -0.25000000       0.04166667       0.14285714 </v>
   <v>      -0.20833333       0.04166667       0.14285714 </v>
   <v>      -0.16666667       0.04166667       0.14285714 </v>
   <v>      -0.12500000       0.04166667       0.14285714 </v>
   <v>      -0.08333333       0.04166667       0.14285714 </v>
   <v>      -0.04166667       0.04166667       0.14285714 </v>
   <v>       0.08333333       0.08333333       0.14285714 </v>
   <v>       0.12500000       0.08333333       0.14285714 </v>
   <v>       0.16666667       0.08333333       0.14285714 </v>
   <v>       0.20833333       0.08333333       0.14285714 </v>
   <v>       0.25000000       0.08333333       0.14285714 </v>
   <v>       0.29166667       0.08333333       0.14285714 </v>
   <v>       0.33333333       0.08333333       0.14285714 </v>
   <v>       0.37500000       0.08333333       0.14285714 </v>
   <v>       0.41666667       0.08333333       0.14285714 </v>
   <v>       0.45833333       0.08333333       0.14285714 </v>
   <v>       0.50000000       0.08333333       0.14285714 </v>
   <v>      -0.45833333       0.08333333       0.14285714 </v>
   <v>      -0.41666667       0.08333333       0.14285714 </v>
   <v>      -0.37500000       0.08333333       0.14285714 </v>
   <v>      -0.33333333       0.08333333       0.14285714 </v>
   <v>      -0.29166667       0.08333333       0.14285714 </v>
   <v>      -0.25000000       0.08333333       0.14285714 </v>
   <v>      -0.20833333       0.08333333       0.14285714 </v>
   <v>      -0.16666667       0.08333333       0.14285714 </v>
   <v>      -0.12500000       0.08333333       0.14285714 </v>
   <v>      -0.08333333       0.08333333       0.14285714 </v>
   <v>      -0.04166667       0.08333333       0.14285714 </v>
   <v>       0.12500000       0.12500000       0.14285714 </v>
   <v>       0.16666667       0.12500000       0.14285714 </v>
   <v>       0.20833333       0.12500000       0.14285714 </v>
   <v>       0.25000000       0.12500000       0.14285714 </v>
   <v>       0.29166667       0.12500000       0.14285714 </v>
   <v>       0.33333333       0.12500000       0.14285714 </v>
   <v>       0.37500000       0.12500000       0.14285714 </v>
   <v>       0.41666667       0.12500000       0.14285714 </v>
   <v>       0.45833333       0.12500000       0.14285714 </v>
   <v>       0.50000000       0.12500000       0.14285714 </v>
   <v>      -0.45833333       0.12500000       0.14285714 </v>
   <v>      -0.41666667       0.12500000       0.14285714 </v>
   <v>      -0.37500000       0.12500000       0.14285714 </v>
   <v>      -0.33333333       0.12500000       0.14285714 </v>
   <v>      -0.29166667       0.12500000       0.14285714 </v>
   <v>      -0.25000000       0.12500000       0.14285714 </v>
   <v>      -0.20833333       0.12500000       0.14285714 </v>
   <v>      -0.16666667       0.12500000       0.14285714 </v>
   <v>      -0.12500000       0.12500000       0.14285714 </v>
   <v>      -0.08333333       0.12500000       0.14285714 </v>
   <v>      -0.04166667       0.12500000       0.14285714 </v>
   <v>       0.16666667       0.16666667       0.14285714 </v>
   <v>       0.20833333       0.16666667       0.14285714 </v>
   <v>       0.25000000       0.16666667       0.14285714 </v>
   <v>       0.29166667       0.16666667       0.14285714 </v>
   <v>       0.33333333       0.16666667       0.14285714 </v>
   <v>       0.37500000       0.16666667       0.14285714 </v>
   <v>       0.41666667       0.16666667       0.14285714 </v>
   <v>       0.45833333       0.16666667       0.14285714 </v>
   <v>       0.50000000       0.16666667       0.14285714 </v>
   <v>      -0.45833333       0.16666667       0.14285714 </v>
   <v>      -0.41666667       0.16666667       0.14285714 </v>
   <v>      -0.37500000       0.16666667       0.14285714 </v>
   <v>      -0.33333333       0.16666667       0.14285714 </v>
   <v>      -0.29166667       0.16666667       0.14285714 </v>
   <v>      -0.25000000       0.16666667       0.14285714 </v>
   <v>      -0.20833333       0.16666667       0.14285714 </v>
   <v>      -0.16666667       0.16666667       0.14285714 </v>
   <v>      -0.12500000       0.16666667       0.14285714 </v>
   <v>      -0.08333333       0.16666667       0.14285714 </v>
   <v>      -0.04166667       0.16666667       0.14285714 </v>
   <v>       0.20833333       0.20833333       0.14285714 </v>
   <v>       0.25000000       0.20833333       0.14285714 </v>
   <v>       0.29166667       0.20833333       0.14285714 </v>
   <v>       0.33333333       0.20833333       0.14285714 </v>
   <v>       0.37500000       0.20833333       0.14285714 </v>
   <v>       0.41666667       0.20833333       0.14285714 </v>
   <v>       0.45833333       0.20833333       0.14285714 </v>
   <v>       0.50000000       0.20833333       0.14285714 </v>
   <v>      -0.45833333       0.20833333       0.14285714 </v>
   <v>      -0.41666667       0.20833333       0.14285714 </v>
   <v>      -0.37500000       0.20833333       0.14285714 </v>
   <v>      -0.33333333       0.20833333       0.14285714 </v>
   <v>      -0.29166667       0.20833333       0.14285714 </v>
   <v>      -0.25000000       0.20833333       0.14285714 </v>
   <v>      -0.20833333       0.20833333       0.14285714 </v>
   <v>      -0.16666667       0.20833333       0.14285714 </v>
   <v>      -0.12500000       0.20833333       0.14285714 </v>
   <v>      -0.08333333       0.20833333       0.14285714 </v>
   <v>      -0.04166667       0.20833333       0.14285714 </v>
   <v>       0.25000000       0.25000000       0.14285714 </v>
   <v>       0.29166667       0.25000000       0.14285714 </v>
   <v>       0.33333333       0.25000000       0.14285714 </v>
   <v>       0.37500000       0.25000000       0.14285714 </v>
   <v>       0.41666667       0.25000000       0.14285714 </v>
   <v>       0.45833333       0.25000000       0.14285714 </v>
   <v>       0.50000000       0.25000000       0.14285714 </v>
   <v>      -0.45833333       0.25000000       0.14285714 </v>
   <v>      -0.41666667       0.25000000       0.14285714 </v>
   <v>      -0.37500000       0.25000000       0.14285714 </v>
   <v>      -0.33333333       0.25000000       0.14285714 </v>
   <v>      -0.29166667       0.25000000       0.14285714 </v>
   <v>      -0.25000000       0.25000000       0.14285714 </v>
   <v>      -0.20833333       0.25000000       0.14285714 </v>
   <v>      -0.16666667       0.25000000       0.14285714 </v>
   <v>      -0.12500000       0.25000000       0.14285714 </v>
   <v>      -0.08333333       0.25000000       0.14285714 </v>
   <v>      -0.04166667       0.25000000       0.14285714 </v>
   <v>       0.29166667       0.29166667       0.14285714 </v>
   <v>       0.33333333       0.29166667       0.14285714 </v>
   <v>       0.37500000       0.29166667       0.14285714 </v>
   <v>       0.41666667       0.29166667       0.14285714 </v>
   <v>       0.45833333       0.29166667       0.14285714 </v>
   <v>       0.50000000       0.29166667       0.14285714 </v>
   <v>      -0.45833333       0.29166667       0.14285714 </v>
   <v>      -0.41666667       0.29166667       0.14285714 </v>
   <v>      -0.37500000       0.29166667       0.14285714 </v>
   <v>      -0.33333333       0.29166667       0.14285714 </v>
   <v>      -0.29166667       0.29166667       0.14285714 </v>
   <v>      -0.25000000       0.29166667       0.14285714 </v>
   <v>      -0.20833333       0.29166667       0.14285714 </v>
   <v>      -0.16666667       0.29166667       0.14285714 </v>
   <v>      -0.12500000       0.29166667       0.14285714 </v>
   <v>      -0.08333333       0.29166667       0.14285714 </v>
   <v>      -0.04166667       0.29166667       0.14285714 </v>
   <v>       0.33333333       0.33333333       0.14285714 </v>
   <v>       0.37500000       0.33333333       0.14285714 </v>
   <v>       0.41666667       0.33333333       0.14285714 </v>
   <v>       0.45833333       0.33333333       0.14285714 </v>
   <v>       0.50000000       0.33333333       0.14285714 </v>
   <v>      -0.45833333       0.33333333       0.14285714 </v>
   <v>      -0.41666667       0.33333333       0.14285714 </v>
   <v>      -0.37500000       0.33333333       0.14285714 </v>
   <v>      -0.33333333       0.33333333       0.14285714 </v>
   <v>      -0.29166667       0.33333333       0.14285714 </v>
   <v>      -0.25000000       0.33333333       0.14285714 </v>
   <v>      -0.20833333       0.33333333       0.14285714 </v>
   <v>      -0.16666667       0.33333333       0.14285714 </v>
   <v>      -0.12500000       0.33333333       0.14285714 </v>
   <v>      -0.08333333       0.33333333       0.14285714 </v>
   <v>      -0.04166667       0.33333333       0.14285714 </v>
   <v>       0.37500000       0.37500000       0.14285714 </v>
   <v>       0.41666667       0.37500000       0.14285714 </v>
   <v>       0.45833333       0.37500000       0.14285714 </v>
   <v>       0.50000000       0.37500000       0.14285714 </v>
   <v>      -0.45833333       0.37500000       0.14285714 </v>
   <v>      -0.41666667       0.37500000       0.14285714 </v>
   <v>      -0.37500000       0.37500000       0.14285714 </v>
   <v>      -0.33333333       0.37500000       0.14285714 </v>
   <v>      -0.29166667       0.37500000       0.14285714 </v>
   <v>      -0.25000000       0.37500000       0.14285714 </v>
   <v>      -0.20833333       0.37500000       0.14285714 </v>
   <v>      -0.16666667       0.37500000       0.14285714 </v>
   <v>      -0.12500000       0.37500000       0.14285714 </v>
   <v>      -0.08333333       0.37500000       0.14285714 </v>
   <v>      -0.04166667       0.37500000       0.14285714 </v>
   <v>       0.41666667       0.41666667       0.14285714 </v>
   <v>       0.45833333       0.41666667       0.14285714 </v>
   <v>       0.50000000       0.41666667       0.14285714 </v>
   <v>      -0.45833333       0.41666667       0.14285714 </v>
   <v>      -0.41666667       0.41666667       0.14285714 </v>
   <v>      -0.37500000       0.41666667       0.14285714 </v>
   <v>      -0.33333333       0.41666667       0.14285714 </v>
   <v>      -0.29166667       0.41666667       0.14285714 </v>
   <v>      -0.25000000       0.41666667       0.14285714 </v>
   <v>      -0.20833333       0.41666667       0.14285714 </v>
   <v>      -0.16666667       0.41666667       0.14285714 </v>
   <v>      -0.12500000       0.41666667       0.14285714 </v>
   <v>      -0.08333333       0.41666667       0.14285714 </v>
   <v>      -0.04166667       0.41666667       0.14285714 </v>
   <v>       0.45833333       0.45833333       0.14285714 </v>
   <v>       0.50000000       0.45833333       0.14285714 </v>
   <v>      -0.45833333       0.45833333       0.14285714 </v>
   <v>      -0.41666667       0.45833333       0.14285714 </v>
   <v>      -0.37500000       0.45833333       0.14285714 </v>
   <v>      -0.33333333       0.45833333       0.14285714 </v>
   <v>      -0.29166667       0.45833333       0.14285714 </v>
   <v>      -0.25000000       0.45833333       0.14285714 </v>
   <v>      -0.20833333       0.45833333       0.14285714 </v>
   <v>      -0.16666667       0.45833333       0.14285714 </v>
   <v>      -0.12500000       0.45833333       0.14285714 </v>
   <v>      -0.08333333       0.45833333       0.14285714 </v>
   <v>      -0.04166667       0.45833333       0.14285714 </v>
   <v>       0.50000000       0.50000000       0.14285714 </v>
   <v>      -0.45833333       0.50000000       0.14285714 </v>
   <v>      -0.41666667       0.50000000       0.14285714 </v>
   <v>      -0.37500000       0.50000000       0.14285714 </v>
   <v>      -0.33333333       0.50000000       0.14285714 </v>
   <v>      -0.29166667       0.50000000       0.14285714 </v>
   <v>      -0.25000000       0.50000000       0.14285714 </v>
   <v>      -0.20833333       0.50000000       0.14285714 </v>
   <v>      -0.16666667       0.50000000       0.14285714 </v>
   <v>      -0.12500000       0.50000000       0.14285714 </v>
   <v>      -0.08333333       0.50000000       0.14285714 </v>
   <v>      -0.04166667       0.50000000       0.14285714 </v>
   <v>      -0.45833333      -0.45833333       0.14285714 </v>
   <v>      -0.41666667      -0.45833333       0.14285714 </v>
   <v>      -0.37500000      -0.45833333       0.14285714 </v>
   <v>      -0.33333333      -0.45833333       0.14285714 </v>
   <v>      -0.29166667      -0.45833333       0.14285714 </v>
   <v>      -0.25000000      -0.45833333       0.14285714 </v>
   <v>      -0.20833333      -0.45833333       0.14285714 </v>
   <v>      -0.16666667      -0.45833333       0.14285714 </v>
   <v>      -0.12500000      -0.45833333       0.14285714 </v>
   <v>      -0.08333333      -0.45833333       0.14285714 </v>
   <v>      -0.04166667      -0.45833333       0.14285714 </v>
   <v>      -0.41666667      -0.41666667       0.14285714 </v>
   <v>      -0.37500000      -0.41666667       0.14285714 </v>
   <v>      -0.33333333      -0.41666667       0.14285714 </v>
   <v>      -0.29166667      -0.41666667       0.14285714 </v>
   <v>      -0.25000000      -0.41666667       0.14285714 </v>
   <v>      -0.20833333      -0.41666667       0.14285714 </v>
   <v>      -0.16666667      -0.41666667       0.14285714 </v>
   <v>      -0.12500000      -0.41666667       0.14285714 </v>
   <v>      -0.08333333      -0.41666667       0.14285714 </v>
   <v>      -0.04166667      -0.41666667       0.14285714 </v>
   <v>      -0.37500000      -0.37500000       0.14285714 </v>
   <v>      -0.33333333      -0.37500000       0.14285714 </v>
   <v>      -0.29166667      -0.37500000       0.14285714 </v>
   <v>      -0.25000000      -0.37500000       0.14285714 </v>
   <v>      -0.20833333      -0.37500000       0.14285714 </v>
   <v>      -0.16666667      -0.37500000       0.14285714 </v>
   <v>      -0.12500000      -0.37500000       0.14285714 </v>
   <v>      -0.08333333      -0.37500000       0.14285714 </v>
   <v>      -0.04166667      -0.37500000       0.14285714 </v>
   <v>      -0.33333333      -0.33333333       0.14285714 </v>
   <v>      -0.29166667      -0.33333333       0.14285714 </v>
   <v>      -0.25000000      -0.33333333       0.14285714 </v>
   <v>      -0.20833333      -0.33333333       0.14285714 </v>
   <v>      -0.16666667      -0.33333333       0.14285714 </v>
   <v>      -0.12500000      -0.33333333       0.14285714 </v>
   <v>      -0.08333333      -0.33333333       0.14285714 </v>
   <v>      -0.04166667      -0.33333333       0.14285714 </v>
   <v>      -0.29166667      -0.29166667       0.14285714 </v>
   <v>      -0.25000000      -0.29166667       0.14285714 </v>
   <v>      -0.20833333      -0.29166667       0.14285714 </v>
   <v>      -0.16666667      -0.29166667       0.14285714 </v>
   <v>      -0.12500000      -0.29166667       0.14285714 </v>
   <v>      -0.08333333      -0.29166667       0.14285714 </v>
   <v>      -0.04166667      -0.29166667       0.14285714 </v>
   <v>      -0.25000000      -0.25000000       0.14285714 </v>
   <v>      -0.20833333      -0.25000000       0.14285714 </v>
   <v>      -0.16666667      -0.25000000       0.14285714 </v>
   <v>      -0.12500000      -0.25000000       0.14285714 </v>
   <v>      -0.08333333      -0.25000000       0.14285714 </v>
   <v>      -0.04166667      -0.25000000       0.14285714 </v>
   <v>      -0.20833333      -0.20833333       0.14285714 </v>
   <v>      -0.16666667      -0.20833333       0.14285714 </v>
   <v>      -0.12500000      -0.20833333       0.14285714 </v>
   <v>      -0.08333333      -0.20833333       0.14285714 </v>
   <v>      -0.04166667      -0.20833333       0.14285714 </v>
   <v>      -0.16666667      -0.16666667       0.14285714 </v>
   <v>      -0.12500000      -0.16666667       0.14285714 </v>
   <v>      -0.08333333      -0.16666667       0.14285714 </v>
   <v>      -0.04166667      -0.16666667       0.14285714 </v>
   <v>      -0.12500000      -0.12500000       0.14285714 </v>
   <v>      -0.08333333      -0.12500000       0.14285714 </v>
   <v>      -0.04166667      -0.12500000       0.14285714 </v>
   <v>      -0.08333333      -0.08333333       0.14285714 </v>
   <v>      -0.04166667      -0.08333333       0.14285714 </v>
   <v>      -0.04166667      -0.04166667       0.14285714 </v>
   <v>       0.00000000       0.00000000       0.28571429 </v>
   <v>       0.04166667       0.00000000       0.28571429 </v>
   <v>       0.08333333       0.00000000       0.28571429 </v>
   <v>       0.12500000       0.00000000       0.28571429 </v>
   <v>       0.16666667       0.00000000       0.28571429 </v>
   <v>       0.20833333       0.00000000       0.28571429 </v>
   <v>       0.25000000       0.00000000       0.28571429 </v>
   <v>       0.29166667       0.00000000       0.28571429 </v>
   <v>       0.33333333       0.00000000       0.28571429 </v>
   <v>       0.37500000       0.00000000       0.28571429 </v>
   <v>       0.41666667       0.00000000       0.28571429 </v>
   <v>       0.45833333       0.00000000       0.28571429 </v>
   <v>       0.50000000       0.00000000       0.28571429 </v>
   <v>      -0.45833333       0.00000000       0.28571429 </v>
   <v>      -0.41666667       0.00000000       0.28571429 </v>
   <v>      -0.37500000       0.00000000       0.28571429 </v>
   <v>      -0.33333333       0.00000000       0.28571429 </v>
   <v>      -0.29166667       0.00000000       0.28571429 </v>
   <v>      -0.25000000       0.00000000       0.28571429 </v>
   <v>      -0.20833333       0.00000000       0.28571429 </v>
   <v>      -0.16666667       0.00000000       0.28571429 </v>
   <v>      -0.12500000       0.00000000       0.28571429 </v>
   <v>      -0.08333333       0.00000000       0.28571429 </v>
   <v>      -0.04166667       0.00000000       0.28571429 </v>
   <v>       0.04166667       0.04166667       0.28571429 </v>
   <v>       0.08333333       0.04166667       0.28571429 </v>
   <v>       0.12500000       0.04166667       0.28571429 </v>
   <v>       0.16666667       0.04166667       0.28571429 </v>
   <v>       0.20833333       0.04166667       0.28571429 </v>
   <v>       0.25000000       0.04166667       0.28571429 </v>
   <v>       0.29166667       0.04166667       0.28571429 </v>
   <v>       0.33333333       0.04166667       0.28571429 </v>
   <v>       0.37500000       0.04166667       0.28571429 </v>
   <v>       0.41666667       0.04166667       0.28571429 </v>
   <v>       0.45833333       0.04166667       0.28571429 </v>
   <v>       0.50000000       0.04166667       0.28571429 </v>
   <v>      -0.45833333       0.04166667       0.28571429 </v>
   <v>      -0.41666667       0.04166667       0.28571429 </v>
   <v>      -0.37500000       0.04166667       0.28571429 </v>
   <v>      -0.33333333       0.04166667       0.28571429 </v>
   <v>      -0.29166667       0.04166667       0.28571429 </v>
   <v>      -0.25000000       0.04166667       0.28571429 </v>
   <v>      -0.20833333       0.04166667       0.28571429 </v>
   <v>      -0.16666667       0.04166667       0.28571429 </v>
   <v>      -0.12500000       0.04166667       0.28571429 </v>
   <v>      -0.08333333       0.04166667       0.28571429 </v>
   <v>      -0.04166667       0.04166667       0.28571429 </v>
   <v>       0.08333333       0.08333333       0.28571429 </v>
   <v>       0.12500000       0.08333333       0.28571429 </v>
   <v>       0.16666667       0.08333333       0.28571429 </v>
   <v>       0.20833333       0.08333333       0.28571429 </v>
   <v>       0.25000000       0.08333333       0.28571429 </v>
   <v>       0.29166667       0.08333333       0.28571429 </v>
   <v>       0.33333333       0.08333333       0.28571429 </v>
   <v>       0.37500000       0.08333333       0.28571429 </v>
   <v>       0.41666667       0.08333333       0.28571429 </v>
   <v>       0.45833333       0.08333333       0.28571429 </v>
   <v>       0.50000000       0.08333333       0.28571429 </v>
   <v>      -0.45833333       0.08333333       0.28571429 </v>
   <v>      -0.41666667       0.08333333       0.28571429 </v>
   <v>      -0.37500000       0.08333333       0.28571429 </v>
   <v>      -0.33333333       0.08333333       0.28571429 </v>
   <v>      -0.29166667       0.08333333       0.28571429 </v>
   <v>      -0.25000000       0.08333333       0.28571429 </v>
   <v>      -0.20833333       0.08333333       0.28571429 </v>
   <v>      -0.16666667       0.08333333       0.28571429 </v>
   <v>      -0.12500000       0.08333333       0.28571429 </v>
   <v>      -0.08333333       0.08333333       0.28571429 </v>
   <v>      -0.04166667       0.08333333       0.28571429 </v>
   <v>       0.12500000       0.12500000       0.28571429 </v>
   <v>       0.16666667       0.12500000       0.28571429 </v>
   <v>       0.20833333       0.12500000       0.28571429 </v>
   <v>       0.25000000       0.12500000       0.28571429 </v>
   <v>       0.29166667       0.12500000       0.28571429 </v>
   <v>       0.33333333       0.12500000       0.28571429 </v>
   <v>       0.37500000       0.12500000       0.28571429 </v>
   <v>       0.41666667       0.12500000       0.28571429 </v>
   <v>       0.45833333       0.12500000       0.28571429 </v>
   <v>       0.50000000       0.12500000       0.28571429 </v>
   <v>      -0.45833333       0.12500000       0.28571429 </v>
   <v>      -0.41666667       0.12500000       0.28571429 </v>
   <v>      -0.37500000       0.12500000       0.28571429 </v>
   <v>      -0.33333333       0.12500000       0.28571429 </v>
   <v>      -0.29166667       0.12500000       0.28571429 </v>
   <v>      -0.25000000       0.12500000       0.28571429 </v>
   <v>      -0.20833333       0.12500000       0.28571429 </v>
   <v>      -0.16666667       0.12500000       0.28571429 </v>
   <v>      -0.12500000       0.12500000       0.28571429 </v>
   <v>      -0.08333333       0.12500000       0.28571429 </v>
   <v>      -0.04166667       0.12500000       0.28571429 </v>
   <v>       0.16666667       0.16666667       0.28571429 </v>
   <v>       0.20833333       0.16666667       0.28571429 </v>
   <v>       0.25000000       0.16666667       0.28571429 </v>
   <v>       0.29166667       0.16666667       0.28571429 </v>
   <v>       0.33333333       0.16666667       0.28571429 </v>
   <v>       0.37500000       0.16666667       0.28571429 </v>
   <v>       0.41666667       0.16666667       0.28571429 </v>
   <v>       0.45833333       0.16666667       0.28571429 </v>
   <v>       0.50000000       0.16666667       0.28571429 </v>
   <v>      -0.45833333       0.16666667       0.28571429 </v>
   <v>      -0.41666667       0.16666667       0.28571429 </v>
   <v>      -0.37500000       0.16666667       0.28571429 </v>
   <v>      -0.33333333       0.16666667       0.28571429 </v>
   <v>      -0.29166667       0.16666667       0.28571429 </v>
   <v>      -0.25000000       0.16666667       0.28571429 </v>
   <v>      -0.20833333       0.16666667       0.28571429 </v>
   <v>      -0.16666667       0.16666667       0.28571429 </v>
   <v>      -0.12500000       0.16666667       0.28571429 </v>
   <v>      -0.08333333       0.16666667       0.28571429 </v>
   <v>      -0.04166667       0.16666667       0.28571429 </v>
   <v>       0.20833333       0.20833333       0.28571429 </v>
   <v>       0.25000000       0.20833333       0.28571429 </v>
   <v>       0.29166667       0.20833333       0.28571429 </v>
   <v>       0.33333333       0.20833333       0.28571429 </v>
   <v>       0.37500000       0.20833333       0.28571429 </v>
   <v>       0.41666667       0.20833333       0.28571429 </v>
   <v>       0.45833333       0.20833333       0.28571429 </v>
   <v>       0.50000000       0.20833333       0.28571429 </v>
   <v>      -0.45833333       0.20833333       0.28571429 </v>
   <v>      -0.41666667       0.20833333       0.28571429 </v>
   <v>      -0.37500000       0.20833333       0.28571429 </v>
   <v>      -0.33333333       0.20833333       0.28571429 </v>
   <v>      -0.29166667       0.20833333       0.28571429 </v>
   <v>      -0.25000000       0.20833333       0.28571429 </v>
   <v>      -0.20833333       0.20833333       0.28571429 </v>
   <v>      -0.16666667       0.20833333       0.28571429 </v>
   <v>      -0.12500000       0.20833333       0.28571429 </v>
   <v>      -0.08333333       0.20833333       0.28571429 </v>
   <v>      -0.04166667       0.20833333       0.28571429 </v>
   <v>       0.25000000       0.25000000       0.28571429 </v>
   <v>       0.29166667       0.25000000       0.28571429 </v>
   <v>       0.33333333       0.25000000       0.28571429 </v>
   <v>       0.37500000       0.25000000       0.28571429 </v>
   <v>       0.41666667       0.25000000       0.28571429 </v>
   <v>       0.45833333       0.25000000       0.28571429 </v>
   <v>       0.50000000       0.25000000       0.28571429 </v>
   <v>      -0.45833333       0.25000000       0.28571429 </v>
   <v>      -0.41666667       0.25000000       0.28571429 </v>
   <v>      -0.37500000       0.25000000       0.28571429 </v>
   <v>      -0.33333333       0.25000000       0.28571429 </v>
   <v>      -0.29166667       0.25000000       0.28571429 </v>
   <v>      -0.25000000       0.25000000       0.28571429 </v>
   <v>      -0.20833333       0.25000000       0.28571429 </v>
   <v>      -0.16666667       0.25000000       0.28571429 </v>
   <v>      -0.12500000       0.25000000       0.28571429 </v>
   <v>      -0.08333333       0.25000000       0.28571429 </v>
   <v>      -0.04166667       0.25000000       0.28571429 </v>
   <v>       0.29166667       0.29166667       0.28571429 </v>
   <v>       0.33333333       0.29166667       0.28571429 </v>
   <v>       0.37500000       0.29166667       0.28571429 </v>
   <v>       0.41666667       0.29166667       0.28571429 </v>
   <v>       0.45833333       0.29166667       0.28571429 </v>
   <v>       0.50000000       0.29166667       0.28571429 </v>
   <v>      -0.45833333       0.29166667       0.28571429 </v>
   <v>      -0.41666667       0.29166667       0.28571429 </v>
   <v>      -0.37500000       0.29166667       0.28571429 </v>
   <v>      -0.33333333       0.29166667       0.28571429 </v>
   <v>      -0.29166667       0.29166667       0.28571429 </v>
   <v>      -0.25000000       0.29166667       0.28571429 </v>
   <v>      -0.20833333       0.29166667       0.28571429 </v>
   <v>      -0.16666667       0.29166667       0.28571429 </v>
   <v>      -0.12500000       0.29166667       0.28571429 </v>
   <v>      -0.08333333       0.29166667       0.28571429 </v>
   <v>      -0.04166667       0.29166667       0.28571429 </v>
   <v>       0.33333333       0.33333333       0.28571429 </v>
   <v>       0.37500000       0.33333333       0.28571429 </v>
   <v>       0.41666667       0.33333333       0.28571429 </v>
   <v>       0.45833333       0.33333333       0.28571429 </v>
   <v>       0.50000000       0.33333333       0.28571429 </v>
   <v>      -0.45833333       0.33333333       0.28571429 </v>
   <v>      -0.41666667       0.33333333       0.28571429 </v>
   <v>      -0.37500000       0.33333333       0.28571429 </v>
   <v>      -0.33333333       0.33333333       0.28571429 </v>
   <v>      -0.29166667       0.33333333       0.28571429 </v>
   <v>      -0.25000000       0.33333333       0.28571429 </v>
   <v>      -0.20833333       0.33333333       0.28571429 </v>
   <v>      -0.16666667       0.33333333       0.28571429 </v>
   <v>      -0.12500000       0.33333333       0.28571429 </v>
   <v>      -0.08333333       0.33333333       0.28571429 </v>
   <v>      -0.04166667       0.33333333       0.28571429 </v>
   <v>       0.37500000       0.37500000       0.28571429 </v>
   <v>       0.41666667       0.37500000       0.28571429 </v>
   <v>       0.45833333       0.37500000       0.28571429 </v>
   <v>       0.50000000       0.37500000       0.28571429 </v>
   <v>      -0.45833333       0.37500000       0.28571429 </v>
   <v>      -0.41666667       0.37500000       0.28571429 </v>
   <v>      -0.37500000       0.37500000       0.28571429 </v>
   <v>      -0.33333333       0.37500000       0.28571429 </v>
   <v>      -0.29166667       0.37500000       0.28571429 </v>
   <v>      -0.25000000       0.37500000       0.28571429 </v>
   <v>      -0.20833333       0.37500000       0.28571429 </v>
   <v>      -0.16666667       0.37500000       0.28571429 </v>
   <v>      -0.12500000       0.37500000       0.28571429 </v>
   <v>      -0.08333333       0.37500000       0.28571429 </v>
   <v>      -0.04166667       0.37500000       0.28571429 </v>
   <v>       0.41666667       0.41666667       0.28571429 </v>
   <v>       0.45833333       0.41666667       0.28571429 </v>
   <v>       0.50000000       0.41666667       0.28571429 </v>
   <v>      -0.45833333       0.41666667       0.28571429 </v>
   <v>      -0.41666667       0.41666667       0.28571429 </v>
   <v>      -0.37500000       0.41666667       0.28571429 </v>
   <v>      -0.33333333       0.41666667       0.28571429 </v>
   <v>      -0.29166667       0.41666667       0.28571429 </v>
   <v>      -0.25000000       0.41666667       0.28571429 </v>
   <v>      -0.20833333       0.41666667       0.28571429 </v>
   <v>      -0.16666667       0.41666667       0.28571429 </v>
   <v>      -0.12500000       0.41666667       0.28571429 </v>
   <v>      -0.08333333       0.41666667       0.28571429 </v>
   <v>      -0.04166667       0.41666667       0.28571429 </v>
   <v>       0.45833333       0.45833333       0.28571429 </v>
   <v>       0.50000000       0.45833333       0.28571429 </v>
   <v>      -0.45833333       0.45833333       0.28571429 </v>
   <v>      -0.41666667       0.45833333       0.28571429 </v>
   <v>      -0.37500000       0.45833333       0.28571429 </v>
   <v>      -0.33333333       0.45833333       0.28571429 </v>
   <v>      -0.29166667       0.45833333       0.28571429 </v>
   <v>      -0.25000000       0.45833333       0.28571429 </v>
   <v>      -0.20833333       0.45833333       0.28571429 </v>
   <v>      -0.16666667       0.45833333       0.28571429 </v>
   <v>      -0.12500000       0.45833333       0.28571429 </v>
   <v>      -0.08333333       0.45833333       0.28571429 </v>
   <v>      -0.04166667       0.45833333       0.28571429 </v>
   <v>       0.50000000       0.50000000       0.28571429 </v>
   <v>      -0.45833333       0.50000000       0.28571429 </v>
   <v>      -0.41666667       0.50000000       0.28571429 </v>
   <v>      -0.37500000       0.50000000       0.28571429 </v>
   <v>      -0.33333333       0.50000000       0.28571429 </v>
   <v>      -0.29166667       0.50000000       0.28571429 </v>
   <v>      -0.25000000       0.50000000       0.28571429 </v>
   <v>      -0.20833333       0.50000000       0.28571429 </v>
   <v>      -0.16666667       0.50000000       0.28571429 </v>
   <v>      -0.12500000       0.50000000       0.28571429 </v>
   <v>      -0.08333333       0.50000000       0.28571429 </v>
   <v>      -0.04166667       0.50000000       0.28571429 </v>
   <v>      -0.45833333      -0.45833333       0.28571429 </v>
   <v>      -0.41666667      -0.45833333       0.28571429 </v>
   <v>      -0.37500000      -0.45833333       0.28571429 </v>
   <v>      -0.33333333      -0.45833333       0.28571429 </v>
   <v>      -0.29166667      -0.45833333       0.28571429 </v>
   <v>      -0.25000000      -0.45833333       0.28571429 </v>
   <v>      -0.20833333      -0.45833333       0.28571429 </v>
   <v>      -0.16666667      -0.45833333       0.28571429 </v>
   <v>      -0.12500000      -0.45833333       0.28571429 </v>
   <v>      -0.08333333      -0.45833333       0.28571429 </v>
   <v>      -0.04166667      -0.45833333       0.28571429 </v>
   <v>      -0.41666667      -0.41666667       0.28571429 </v>
   <v>      -0.37500000      -0.41666667       0.28571429 </v>
   <v>      -0.33333333      -0.41666667       0.28571429 </v>
   <v>      -0.29166667      -0.41666667       0.28571429 </v>
   <v>      -0.25000000      -0.41666667       0.28571429 </v>
   <v>      -0.20833333      -0.41666667       0.28571429 </v>
   <v>      -0.16666667      -0.41666667       0.28571429 </v>
   <v>      -0.12500000      -0.41666667       0.28571429 </v>
   <v>      -0.08333333      -0.41666667       0.28571429 </v>
   <v>      -0.04166667      -0.41666667       0.28571429 </v>
   <v>      -0.37500000      -0.37500000       0.28571429 </v>
   <v>      -0.33333333      -0.37500000       0.28571429 </v>
   <v>      -0.29166667      -0.37500000       0.28571429 </v>
   <v>      -0.25000000      -0.37500000       0.28571429 </v>
   <v>      -0.20833333      -0.37500000       0.28571429 </v>
   <v>      -0.16666667      -0.37500000       0.28571429 </v>
   <v>      -0.12500000      -0.37500000       0.28571429 </v>
   <v>      -0.08333333      -0.37500000       0.28571429 </v>
   <v>      -0.04166667      -0.37500000       0.28571429 </v>
   <v>      -0.33333333      -0.33333333       0.28571429 </v>
   <v>      -0.29166667      -0.33333333       0.28571429 </v>
   <v>      -0.25000000      -0.33333333       0.28571429 </v>
   <v>      -0.20833333      -0.33333333       0.28571429 </v>
   <v>      -0.16666667      -0.33333333       0.28571429 </v>
   <v>      -0.12500000      -0.33333333       0.28571429 </v>
   <v>      -0.08333333      -0.33333333       0.28571429 </v>
   <v>      -0.04166667      -0.33333333       0.28571429 </v>
   <v>      -0.29166667      -0.29166667       0.28571429 </v>
   <v>      -0.25000000      -0.29166667       0.28571429 </v>
   <v>      -0.20833333      -0.29166667       0.28571429 </v>
   <v>      -0.16666667      -0.29166667       0.28571429 </v>
   <v>      -0.12500000      -0.29166667       0.28571429 </v>
   <v>      -0.08333333      -0.29166667       0.28571429 </v>
   <v>      -0.04166667      -0.29166667       0.28571429 </v>
   <v>      -0.25000000      -0.25000000       0.28571429 </v>
   <v>      -0.20833333      -0.25000000       0.28571429 </v>
   <v>      -0.16666667      -0.25000000       0.28571429 </v>
   <v>      -0.12500000      -0.25000000       0.28571429 </v>
   <v>      -0.08333333      -0.25000000       0.28571429 </v>
   <v>      -0.04166667      -0.25000000       0.28571429 </v>
   <v>      -0.20833333      -0.20833333       0.28571429 </v>
   <v>      -0.16666667      -0.20833333       0.28571429 </v>
   <v>      -0.12500000      -0.20833333       0.28571429 </v>
   <v>      -0.08333333      -0.20833333       0.28571429 </v>
   <v>      -0.04166667      -0.20833333       0.28571429 </v>
   <v>      -0.16666667      -0.16666667       0.28571429 </v>
   <v>      -0.12500000      -0.16666667       0.28571429 </v>
   <v>      -0.08333333      -0.16666667       0.28571429 </v>
   <v>      -0.04166667      -0.16666667       0.28571429 </v>
   <v>      -0.12500000      -0.12500000       0.28571429 </v>
   <v>      -0.08333333      -0.12500000       0.28571429 </v>
   <v>      -0.04166667      -0.12500000       0.28571429 </v>
   <v>      -0.08333333      -0.08333333       0.28571429 </v>
   <v>      -0.04166667      -0.08333333       0.28571429 </v>
   <v>      -0.04166667      -0.04166667       0.28571429 </v>
   <v>       0.00000000       0.00000000       0.42857143 </v>
   <v>       0.04166667       0.00000000       0.42857143 </v>
   <v>       0.08333333       0.00000000       0.42857143 </v>
   <v>       0.12500000       0.00000000       0.42857143 </v>
   <v>       0.16666667       0.00000000       0.42857143 </v>
   <v>       0.20833333       0.00000000       0.42857143 </v>
   <v>       0.25000000       0.00000000       0.42857143 </v>
   <v>       0.29166667       0.00000000       0.42857143 </v>
   <v>       0.33333333       0.00000000       0.42857143 </v>
   <v>       0.37500000       0.00000000       0.42857143 </v>
   <v>       0.41666667       0.00000000       0.42857143 </v>
   <v>       0.45833333       0.00000000       0.42857143 </v>
   <v>       0.50000000       0.00000000       0.42857143 </v>
   <v>      -0.45833333       0.00000000       0.42857143 </v>
   <v>      -0.41666667       0.00000000       0.42857143 </v>
   <v>      -0.37500000       0.00000000       0.42857143 </v>
   <v>      -0.33333333       0.00000000       0.42857143 </v>
   <v>      -0.29166667       0.00000000       0.42857143 </v>
   <v>      -0.25000000       0.00000000       0.42857143 </v>
   <v>      -0.20833333       0.00000000       0.42857143 </v>
   <v>      -0.16666667       0.00000000       0.42857143 </v>
   <v>      -0.12500000       0.00000000       0.42857143 </v>
   <v>      -0.08333333       0.00000000       0.42857143 </v>
   <v>      -0.04166667       0.00000000       0.42857143 </v>
   <v>       0.04166667       0.04166667       0.42857143 </v>
   <v>       0.08333333       0.04166667       0.42857143 </v>
   <v>       0.12500000       0.04166667       0.42857143 </v>
   <v>       0.16666667       0.04166667       0.42857143 </v>
   <v>       0.20833333       0.04166667       0.42857143 </v>
   <v>       0.25000000       0.04166667       0.42857143 </v>
   <v>       0.29166667       0.04166667       0.42857143 </v>
   <v>       0.33333333       0.04166667       0.42857143 </v>
   <v>       0.37500000       0.04166667       0.42857143 </v>
   <v>       0.41666667       0.04166667       0.42857143 </v>
   <v>       0.45833333       0.04166667       0.42857143 </v>
   <v>       0.50000000       0.04166667       0.42857143 </v>
   <v>      -0.45833333       0.04166667       0.42857143 </v>
   <v>      -0.41666667       0.04166667       0.42857143 </v>
   <v>      -0.37500000       0.04166667       0.42857143 </v>
   <v>      -0.33333333       0.04166667       0.42857143 </v>
   <v>      -0.29166667       0.04166667       0.42857143 </v>
   <v>      -0.25000000       0.04166667       0.42857143 </v>
   <v>      -0.20833333       0.04166667       0.42857143 </v>
   <v>      -0.16666667       0.04166667       0.42857143 </v>
   <v>      -0.12500000       0.04166667       0.42857143 </v>
   <v>      -0.08333333       0.04166667       0.42857143 </v>
   <v>      -0.04166667       0.04166667       0.42857143 </v>
   <v>       0.08333333       0.08333333       0.42857143 </v>
   <v>       0.12500000       0.08333333       0.42857143 </v>
   <v>       0.16666667       0.08333333       0.42857143 </v>
   <v>       0.20833333       0.08333333       0.42857143 </v>
   <v>       0.25000000       0.08333333       0.42857143 </v>
   <v>       0.29166667       0.08333333       0.42857143 </v>
   <v>       0.33333333       0.08333333       0.42857143 </v>
   <v>       0.37500000       0.08333333       0.42857143 </v>
   <v>       0.41666667       0.08333333       0.42857143 </v>
   <v>       0.45833333       0.08333333       0.42857143 </v>
   <v>       0.50000000       0.08333333       0.42857143 </v>
   <v>      -0.45833333       0.08333333       0.42857143 </v>
   <v>      -0.41666667       0.08333333       0.42857143 </v>
   <v>      -0.37500000       0.08333333       0.42857143 </v>
   <v>      -0.33333333       0.08333333       0.42857143 </v>
   <v>      -0.29166667       0.08333333       0.42857143 </v>
   <v>      -0.25000000       0.08333333       0.42857143 </v>
   <v>      -0.20833333       0.08333333       0.42857143 </v>
   <v>      -0.16666667       0.08333333       0.42857143 </v>
   <v>      -0.12500000       0.08333333       0.42857143 </v>
   <v>      -0.08333333       0.08333333       0.42857143 </v>
   <v>      -0.04166667       0.08333333       0.42857143 </v>
   <v>       0.12500000       0.12500000       0.42857143 </v>
   <v>       0.16666667       0.12500000       0.42857143 </v>
   <v>       0.20833333       0.12500000       0.42857143 </v>
   <v>       0.25000000       0.12500000       0.42857143 </v>
   <v>       0.29166667       0.12500000       0.42857143 </v>
   <v>       0.33333333       0.12500000       0.42857143 </v>
   <v>       0.37500000       0.12500000       0.42857143 </v>
   <v>       0.41666667       0.12500000       0.42857143 </v>
   <v>       0.45833333       0.12500000       0.42857143 </v>
   <v>       0.50000000       0.12500000       0.42857143 </v>
   <v>      -0.45833333       0.12500000       0.42857143 </v>
   <v>      -0.41666667       0.12500000       0.42857143 </v>
   <v>      -0.37500000       0.12500000       0.42857143 </v>
   <v>      -0.33333333       0.12500000       0.42857143 </v>
   <v>      -0.29166667       0.12500000       0.42857143 </v>
   <v>      -0.25000000       0.12500000       0.42857143 </v>
   <v>      -0.20833333       0.12500000       0.42857143 </v>
   <v>      -0.16666667       0.12500000       0.42857143 </v>
   <v>      -0.12500000       0.12500000       0.42857143 </v>
   <v>      -0.08333333       0.12500000       0.42857143 </v>
   <v>      -0.04166667       0.12500000       0.42857143 </v>
   <v>       0.16666667       0.16666667       0.42857143 </v>
   <v>       0.20833333       0.16666667       0.42857143 </v>
   <v>       0.25000000       0.16666667       0.42857143 </v>
   <v>       0.29166667       0.16666667       0.42857143 </v>
   <v>       0.33333333       0.16666667       0.42857143 </v>
   <v>       0.37500000       0.16666667       0.42857143 </v>
   <v>       0.41666667       0.16666667       0.42857143 </v>
   <v>       0.45833333       0.16666667       0.42857143 </v>
   <v>       0.50000000       0.16666667       0.42857143 </v>
   <v>      -0.45833333       0.16666667       0.42857143 </v>
   <v>      -0.41666667       0.16666667       0.42857143 </v>
   <v>      -0.37500000       0.16666667       0.42857143 </v>
   <v>      -0.33333333       0.16666667       0.42857143 </v>
   <v>      -0.29166667       0.16666667       0.42857143 </v>
   <v>      -0.25000000       0.16666667       0.42857143 </v>
   <v>      -0.20833333       0.16666667       0.42857143 </v>
   <v>      -0.16666667       0.16666667       0.42857143 </v>
   <v>      -0.12500000       0.16666667       0.42857143 </v>
   <v>      -0.08333333       0.16666667       0.42857143 </v>
   <v>      -0.04166667       0.16666667       0.42857143 </v>
   <v>       0.20833333       0.20833333       0.42857143 </v>
   <v>       0.25000000       0.20833333       0.42857143 </v>
   <v>       0.29166667       0.20833333       0.42857143 </v>
   <v>       0.33333333       0.20833333       0.42857143 </v>
   <v>       0.37500000       0.20833333       0.42857143 </v>
   <v>       0.41666667       0.20833333       0.42857143 </v>
   <v>       0.45833333       0.20833333       0.42857143 </v>
   <v>       0.50000000       0.20833333       0.42857143 </v>
   <v>      -0.45833333       0.20833333       0.42857143 </v>
   <v>      -0.41666667       0.20833333       0.42857143 </v>
   <v>      -0.37500000       0.20833333       0.42857143 </v>
   <v>      -0.33333333       0.20833333       0.42857143 </v>
   <v>      -0.29166667       0.20833333       0.42857143 </v>
   <v>      -0.25000000       0.20833333       0.42857143 </v>
   <v>      -0.20833333       0.20833333       0.42857143 </v>
   <v>      -0.16666667       0.20833333       0.42857143 </v>
   <v>      -0.12500000       0.20833333       0.42857143 </v>
   <v>      -0.08333333       0.20833333       0.42857143 </v>
   <v>      -0.04166667       0.20833333       0.42857143 </v>
   <v>       0.25000000       0.25000000       0.42857143 </v>
   <v>       0.29166667       0.25000000       0.42857143 </v>
   <v>       0.33333333       0.25000000       0.42857143 </v>
   <v>       0.37500000       0.25000000       0.42857143 </v>
   <v>       0.41666667       0.25000000       0.42857143 </v>
   <v>       0.45833333       0.25000000       0.42857143 </v>
   <v>       0.50000000       0.25000000       0.42857143 </v>
   <v>      -0.45833333       0.25000000       0.42857143 </v>
   <v>      -0.41666667       0.25000000       0.42857143 </v>
   <v>      -0.37500000       0.25000000       0.42857143 </v>
   <v>      -0.33333333       0.25000000       0.42857143 </v>
   <v>      -0.29166667       0.25000000       0.42857143 </v>
   <v>      -0.25000000       0.25000000       0.42857143 </v>
   <v>      -0.20833333       0.25000000       0.42857143 </v>
   <v>      -0.16666667       0.25000000       0.42857143 </v>
   <v>      -0.12500000       0.25000000       0.42857143 </v>
   <v>      -0.08333333       0.25000000       0.42857143 </v>
   <v>      -0.04166667       0.25000000       0.42857143 </v>
   <v>       0.29166667       0.29166667       0.42857143 </v>
   <v>       0.33333333       0.29166667       0.42857143 </v>
   <v>       0.37500000       0.29166667       0.42857143 </v>
   <v>       0.41666667       0.29166667       0.42857143 </v>
   <v>       0.45833333       0.29166667       0.42857143 </v>
   <v>       0.50000000       0.29166667       0.42857143 </v>
   <v>      -0.45833333       0.29166667       0.42857143 </v>
   <v>      -0.41666667       0.29166667       0.42857143 </v>
   <v>      -0.37500000       0.29166667       0.42857143 </v>
   <v>      -0.33333333       0.29166667       0.42857143 </v>
   <v>      -0.29166667       0.29166667       0.42857143 </v>
   <v>      -0.25000000       0.29166667       0.42857143 </v>
   <v>      -0.20833333       0.29166667       0.42857143 </v>
   <v>      -0.16666667       0.29166667       0.42857143 </v>
   <v>      -0.12500000       0.29166667       0.42857143 </v>
   <v>      -0.08333333       0.29166667       0.42857143 </v>
   <v>      -0.04166667       0.29166667       0.42857143 </v>
   <v>       0.33333333       0.33333333       0.42857143 </v>
   <v>       0.37500000       0.33333333       0.42857143 </v>
   <v>       0.41666667       0.33333333       0.42857143 </v>
   <v>       0.45833333       0.33333333       0.42857143 </v>
   <v>       0.50000000       0.33333333       0.42857143 </v>
   <v>      -0.45833333       0.33333333       0.42857143 </v>
   <v>      -0.41666667       0.33333333       0.42857143 </v>
   <v>      -0.37500000       0.33333333       0.42857143 </v>
   <v>      -0.33333333       0.33333333       0.42857143 </v>
   <v>      -0.29166667       0.33333333       0.42857143 </v>
   <v>      -0.25000000       0.33333333       0.42857143 </v>
   <v>      -0.20833333       0.33333333       0.42857143 </v>
   <v>      -0.16666667       0.33333333       0.42857143 </v>
   <v>      -0.12500000       0.33333333       0.42857143 </v>
   <v>      -0.08333333       0.33333333       0.42857143 </v>
   <v>      -0.04166667       0.33333333       0.42857143 </v>
   <v>       0.37500000       0.37500000       0.42857143 </v>
   <v>       0.41666667       0.37500000       0.42857143 </v>
   <v>       0.45833333       0.37500000       0.42857143 </v>
   <v>       0.50000000       0.37500000       0.42857143 </v>
   <v>      -0.45833333       0.37500000       0.42857143 </v>
   <v>      -0.41666667       0.37500000       0.42857143 </v>
   <v>      -0.37500000       0.37500000       0.42857143 </v>
   <v>      -0.33333333       0.37500000       0.42857143 </v>
   <v>      -0.29166667       0.37500000       0.42857143 </v>
   <v>      -0.25000000       0.37500000       0.42857143 </v>
   <v>      -0.20833333       0.37500000       0.42857143 </v>
   <v>      -0.16666667       0.37500000       0.42857143 </v>
   <v>      -0.12500000       0.37500000       0.42857143 </v>
   <v>      -0.08333333       0.37500000       0.42857143 </v>
   <v>      -0.04166667       0.37500000       0.42857143 </v>
   <v>       0.41666667       0.41666667       0.42857143 </v>
   <v>       0.45833333       0.41666667       0.42857143 </v>
   <v>       0.50000000       0.41666667       0.42857143 </v>
   <v>      -0.45833333       0.41666667       0.42857143 </v>
   <v>      -0.41666667       0.41666667       0.42857143 </v>
   <v>      -0.37500000       0.41666667       0.42857143 </v>
   <v>      -0.33333333       0.41666667       0.42857143 </v>
   <v>      -0.29166667       0.41666667       0.42857143 </v>
   <v>      -0.25000000       0.41666667       0.42857143 </v>
   <v>      -0.20833333       0.41666667       0.42857143 </v>
   <v>      -0.16666667       0.41666667       0.42857143 </v>
   <v>      -0.12500000       0.41666667       0.42857143 </v>
   <v>      -0.08333333       0.41666667       0.42857143 </v>
   <v>      -0.04166667       0.41666667       0.42857143 </v>
   <v>       0.45833333       0.45833333       0.42857143 </v>
   <v>       0.50000000       0.45833333       0.42857143 </v>
   <v>      -0.45833333       0.45833333       0.42857143 </v>
   <v>      -0.41666667       0.45833333       0.42857143 </v>
   <v>      -0.37500000       0.45833333       0.42857143 </v>
   <v>      -0.33333333       0.45833333       0.42857143 </v>
   <v>      -0.29166667       0.45833333       0.42857143 </v>
   <v>      -0.25000000       0.45833333       0.42857143 </v>
   <v>      -0.20833333       0.45833333       0.42857143 </v>
   <v>      -0.16666667       0.45833333       0.42857143 </v>
   <v>      -0.12500000       0.45833333       0.42857143 </v>
   <v>      -0.08333333       0.45833333       0.42857143 </v>
   <v>      -0.04166667       0.45833333       0.42857143 </v>
   <v>       0.50000000       0.50000000       0.42857143 </v>
   <v>      -0.45833333       0.50000000       0.42857143 </v>
   <v>      -0.41666667       0.50000000       0.42857143 </v>
   <v>      -0.37500000       0.50000000       0.42857143 </v>
   <v>      -0.33333333       0.50000000       0.42857143 </v>
   <v>      -0.29166667       0.50000000       0.42857143 </v>
   <v>      -0.25000000       0.50000000       0.42857143 </v>
   <v>      -0.20833333       0.50000000       0.42857143 </v>
   <v>      -0.16666667       0.50000000       0.42857143 </v>
   <v>      -0.12500000       0.50000000       0.42857143 </v>
   <v>      -0.08333333       0.50000000       0.42857143 </v>
   <v>      -0.04166667       0.50000000       0.42857143 </v>
   <v>      -0.45833333      -0.45833333       0.42857143 </v>
   <v>      -0.41666667      -0.45833333       0.42857143 </v>
   <v>      -0.37500000      -0.45833333       0.42857143 </v>
   <v>      -0.33333333      -0.45833333       0.42857143 </v>
   <v>      -0.29166667      -0.45833333       0.42857143 </v>
   <v>      -0.25000000      -0.45833333       0.42857143 </v>
   <v>      -0.20833333      -0.45833333       0.42857143 </v>
   <v>      -0.16666667      -0.45833333       0.42857143 </v>
   <v>      -0.12500000      -0.45833333       0.42857143 </v>
   <v>      -0.08333333      -0.45833333       0.42857143 </v>
   <v>      -0.04166667      -0.45833333       0.42857143 </v>
   <v>      -0.41666667      -0.41666667       0.42857143 </v>
   <v>      -0.37500000      -0.41666667       0.42857143 </v>
   <v>      -0.33333333      -0.41666667       0.42857143 </v>
   <v>      -0.29166667      -0.41666667       0.42857143 </v>
   <v>      -0.25000000      -0.41666667       0.42857143 </v>
   <v>      -0.20833333      -0.41666667       0.42857143 </v>
   <v>      -0.16666667      -0.41666667       0.42857143 </v>
   <v>      -0.12500000      -0.41666667       0.42857143 </v>
   <v>      -0.08333333      -0.41666667       0.42857143 </v>
   <v>      -0.04166667      -0.41666667       0.42857143 </v>
   <v>      -0.37500000      -0.37500000       0.42857143 </v>
   <v>      -0.33333333      -0.37500000       0.42857143 </v>
   <v>      -0.29166667      -0.37500000       0.42857143 </v>
   <v>      -0.25000000      -0.37500000       0.42857143 </v>
   <v>      -0.20833333      -0.37500000       0.42857143 </v>
   <v>      -0.16666667      -0.37500000       0.42857143 </v>
   <v>      -0.12500000      -0.37500000       0.42857143 </v>
   <v>      -0.08333333      -0.37500000       0.42857143 </v>
   <v>      -0.04166667      -0.37500000       0.42857143 </v>
   <v>      -0.33333333      -0.33333333       0.42857143 </v>
   <v>      -0.29166667      -0.33333333       0.42857143 </v>
   <v>      -0.25000000      -0.33333333       0.42857143 </v>
   <v>      -0.20833333      -0.33333333       0.42857143 </v>
   <v>      -0.16666667      -0.33333333       0.42857143 </v>
   <v>      -0.12500000      -0.33333333       0.42857143 </v>
   <v>      -0.08333333      -0.33333333       0.42857143 </v>
   <v>      -0.04166667      -0.33333333       0.42857143 </v>
   <v>      -0.29166667      -0.29166667       0.42857143 </v>
   <v>      -0.25000000      -0.29166667       0.42857143 </v>
   <v>      -0.20833333      -0.29166667       0.42857143 </v>
   <v>      -0.16666667      -0.29166667       0.42857143 </v>
   <v>      -0.12500000      -0.29166667       0.42857143 </v>
   <v>      -0.08333333      -0.29166667       0.42857143 </v>
   <v>      -0.04166667      -0.29166667       0.42857143 </v>
   <v>      -0.25000000      -0.25000000       0.42857143 </v>
   <v>      -0.20833333      -0.25000000       0.42857143 </v>
   <v>      -0.16666667      -0.25000000       0.42857143 </v>
   <v>      -0.12500000      -0.25000000       0.42857143 </v>
   <v>      -0.08333333      -0.25000000       0.42857143 </v>
   <v>      -0.04166667      -0.25000000       0.42857143 </v>
   <v>      -0.20833333      -0.20833333       0.42857143 </v>
   <v>      -0.16666667      -0.20833333       0.42857143 </v>
   <v>      -0.12500000      -0.20833333       0.42857143 </v>
   <v>      -0.08333333      -0.20833333       0.42857143 </v>
   <v>      -0.04166667      -0.20833333       0.42857143 </v>
   <v>      -0.16666667      -0.16666667       0.42857143 </v>
   <v>      -0.12500000      -0.16666667       0.42857143 </v>
   <v>      -0.08333333      -0.16666667       0.42857143 </v>
   <v>      -0.04166667      -0.16666667       0.42857143 </v>
   <v>      -0.12500000      -0.12500000       0.42857143 </v>
   <v>      -0.08333333      -0.12500000       0.42857143 </v>
   <v>      -0.04166667      -0.12500000       0.42857143 </v>
   <v>      -0.08333333      -0.08333333       0.42857143 </v>
   <v>      -0.04166667      -0.08333333       0.42857143 </v>
   <v>      -0.04166667      -0.04166667       0.42857143 </v>
  </varray>
  <varray name="weights" >
   <v>       0.00024802 </v>
   <v>       0.00099206 </v>
   <v>       0.00099206 </v>
   <v>       0.00099206 </v>
   <v>       0.00099206 </v>
   <v>       0.00099206 </v>
   <v>       0.00099206 </v>
   <v>       0.00099206 </v>
   <v>       0.00099206 </v>
   <v>       0.00099206 </v>
   <v>       0.00099206 </v>
   <v>       0.00099206 </v>
   <v>       0.00049603 </v>
   <v>       0.00049603 </v>
   <v>       0.00099206 </v>
   <v>       0.00099206 </v>
   <v>       0.00099206 </v>
   <v>       0.00099206 </v>
   <v>       0.00099206 </v>
   <v>       0.00099206 </v>
   <v>       0.00099206 </v>
   <v>       0.00099206 </v>
   <v>       0.00099206 </v>
   <v>       0.00099206 </v>
   <v>       0.00099206 </v>
   <v>       0.00099206 </v>
   <v>       0.00099206 </v>
   <v>       0.00099206 </v>
   <v>       0.00099206 </v>
   <v>       0.00099206 </v>
   <v>       0.00099206 </v>
   <v>       0.00099206 </v>
   <v>       0.00099206 </v>
   <v>       0.00099206 </v>
   <v>       0.00099206 </v>
   <v>       0.00049603 </v>
   <v>       0.00049603 </v>
   <v>       0.00099206 </v>
   <v>       0.00099206 </v>
   <v>       0.00099206 </v>
   <v>       0.00099206 </v>
   <v>       0.00099206 </v>
   <v>       0.00099206 </v>
   <v>       0.00099206 </v>
   <v>       0.00099206 </v>
   <v>       0.00099206 </v>
   <v>       0.00099206 </v>
   <v>       0.00099206 </v>
   <v>       0.00099206 </v>
   <v>       0.00099206 </v>
   <v>       0.00099206 </v>
   <v>       0.00099206 </v>
   <v>       0.00099206 </v>
   <v>       0.00099206 </v>
   <v>       0.00099206 </v>
   <v>       0.00099206 </v>
   <v>       0.00049603 </v>
   <v>       0.00049603 </v>
   <v>       0.00099206 </v>
   <v>       0.00099206 </v>
   <v>       0.00099206 </v>
   <v>       0.00099206 </v>
   <v>       0.00099206 </v>
   <v>       0.00099206 </v>
   <v>       0.00099206 </v>
   <v>       0.00099206 </v>
   <v>       0.00099206 </v>
   <v>       0.00099206 </v>
   <v>       0.00099206 </v>
   <v>       0.00099206 </v>
   <v>       0.00099206 </v>
   <v>       0.00099206 </v>
   <v>       0.00099206 </v>
   <v>       0.00099206 </v>
   <v>       0.00099206 </v>
   <v>       0.00049603 </v>
   <v>       0.00049603 </v>
   <v>       0.00099206 </v>
   <v>       0.00099206 </v>
   <v>       0.00099206 </v>
   <v>       0.00099206 </v>
   <v>       0.00099206 </v>
   <v>       0.00099206 </v>
   <v>       0.00099206 </v>
   <v>       0.00099206 </v>
   <v>       0.00099206 </v>
   <v>       0.00099206 </v>
   <v>       0.00099206 </v>
   <v>       0.00099206 </v>
   <v>       0.00099206 </v>
   <v>       0.00099206 </v>
   <v>       0.00099206 </v>
   <v>       0.00049603 </v>
   <v>       0.00049603 </v>
   <v>       0.00099206 </v>
   <v>       0.00099206 </v>
   <v>       0.00099206 </v>
   <v>       0.00099206 </v>
   <v>       0.00099206 </v>
   <v>       0.00099206 </v>
   <v>       0.00099206 </v>
   <v>       0.00099206 </v>
   <v>       0.00099206 </v>
   <v>       0.00099206 </v>
   <v>       0.00099206 </v>
   <v>       0.00099206 </v>
   <v>       0.00099206 </v>
   <v>       0.00049603 </v>
   <v>       0.00049603 </v>
   <v>       0.00099206 </v>
   <v>       0.00099206 </v>
   <v>       0.00099206 </v>
   <v>       0.00099206 </v>
   <v>       0.00099206 </v>
   <v>       0.00099206 </v>
   <v>       0.00099206 </v>
   <v>       0.00099206 </v>
   <v>       0.00099206 </v>
   <v>       0.00099206 </v>
   <v>       0.00099206 </v>
   <v>       0.00049603 </v>
   <v>       0.00049603 </v>
   <v>       0.00099206 </v>
   <v>       0.00099206 </v>
   <v>       0.00099206 </v>
   <v>       0.00099206 </v>
   <v>       0.00099206 </v>
   <v>       0.00099206 </v>
   <v>       0.00099206 </v>
   <v>       0.00099206 </v>
   <v>       0.00099206 </v>
   <v>       0.00049603 </v>
   <v>       0.00049603 </v>
   <v>       0.00099206 </v>
   <v>       0.00099206 </v>
   <v>       0.00099206 </v>
   <v>       0.00099206 </v>
   <v>       0.00099206 </v>
   <v>       0.00099206 </v>
   <v>       0.00099206 </v>
   <v>       0.00049603 </v>
   <v>       0.00049603 </v>
   <v>       0.00099206 </v>
   <v>       0.00099206 </v>
   <v>       0.00099206 </v>
   <v>       0.00099206 </v>
   <v>       0.00099206 </v>
   <v>       0.00049603 </v>
   <v>       0.00049603 </v>
   <v>       0.00099206 </v>
   <v>       0.00099206 </v>
   <v>       0.00099206 </v>
   <v>       0.00049603 </v>
   <v>       0.00049603 </v>
   <v>       0.00099206 </v>
   <v>       0.00049603 </v>
   <v>       0.00024802 </v>
   <v>       0.00049603 </v>
   <v>       0.00099206 </v>
   <v>       0.00099206 </v>
   <v>       0.00099206 </v>
   <v>       0.00099206 </v>
   <v>       0.00099206 </v>
   <v>       0.00099206 </v>
   <v>       0.00099206 </v>
   <v>       0.00099206 </v>
   <v>       0.00099206 </v>
   <v>       0.00099206 </v>
   <v>       0.00099206 </v>
   <v>       0.00099206 </v>
   <v>       0.00099206 </v>
   <v>       0.00099206 </v>
   <v>       0.00099206 </v>
   <v>       0.00099206 </v>
   <v>       0.00099206 </v>
   <v>       0.00099206 </v>
   <v>       0.00099206 </v>
   <v>       0.00099206 </v>
   <v>       0.00099206 </v>
   <v>       0.00099206 </v>
   <v>       0.00099206 </v>
   <v>       0.00049603 </v>
   <v>       0.00099206 </v>
   <v>       0.00099206 </v>
   <v>       0.00099206 </v>
   <v>       0.00099206 </v>
   <v>       0.00099206 </v>
   <v>       0.00099206 </v>
   <v>       0.00099206 </v>
   <v>       0.00099206 </v>
   <v>       0.00099206 </v>
   <v>       0.00099206 </v>
   <v>       0.00099206 </v>
   <v>       0.00099206 </v>
   <v>       0.00099206 </v>
   <v>       0.00099206 </v>
   <v>       0.00099206 </v>
   <v>       0.00099206 </v>
   <v>       0.00099206 </v>
   <v>       0.00099206 </v>
   <v>       0.00099206 </v>
   <v>       0.00099206 </v>
   <v>       0.00099206 </v>
   <v>       0.00099206 </v>
   <v>       0.00049603 </v>
   <v>       0.00099206 </v>
   <v>       0.00099206 </v>
   <v>       0.00099206 </v>
   <v>       0.00099206 </v>
   <v>       0.00099206 </v>
   <v>       0.00099206 </v>
   <v>       0.00099206 </v>
   <v>       0.00099206 </v>
   <v>       0.00099206 </v>
   <v>       0.00099206 </v>
   <v>       0.00099206 </v>
   <v>       0.00099206 </v>
   <v>       0.00099206 </v>
   <v>       0.00099206 </v>
   <v>       0.00099206 </v>
   <v>       0.00099206 </v>
   <v>       0.00099206 </v>
   <v>       0.00099206 </v>
   <v>       0.00099206 </v>
   <v>       0.00099206 </v>
   <v>       0.00099206 </v>
   <v>       0.00049603 </v>
   <v>       0.00099206 </v>
   <v>       0.00099206 </v>
   <v>       0.00099206 </v>
   <v>       0.00099206 </v>
   <v>       0.00099206 </v>
   <v>       0.00099206 </v>
   <v>       0.00099206 </v>
   <v>       0.00099206 </v>
   <v>       0.00099206 </v>
   <v>       0.00099206 </v>
   <v>       0.00099206 </v>
   <v>       0.00099206 </v>
   <v>       0.00099206 </v>
   <v>       0.00099206 </v>
   <v>       0.00099206 </v>
   <v>       0.00099206 </v>
   <v>       0.00099206 </v>
   <v>       0.00099206 </v>
   <v>       0.00099206 </v>
   <v>       0.00099206 </v>
   <v>       0.00049603 </v>
   <v>       0.00099206 </v>
   <v>       0.00099206 </v>
   <v>       0.00099206 </v>
   <v>       0.00099206 </v>
   <v>       0.00099206 </v>
   <v>       0.00099206 </v>
   <v>       0.00099206 </v>
   <v>       0.00099206 </v>
   <v>       0.00099206 </v>
   <v>       0.00099206 </v>
   <v>       0.00099206 </v>
   <v>       0.00099206 </v>
   <v>       0.00099206 </v>
   <v>       0.00099206 </v>
   <v>       0.00099206 </v>
   <v>       0.00099206 </v>
   <v>       0.00099206 </v>
   <v>       0.00099206 </v>
   <v>       0.00099206 </v>
   <v>       0.00049603 </v>
   <v>       0.00099206 </v>
   <v>       0.00099206 </v>
   <v>       0.00099206 </v>
   <v>       0.00099206 </v>
   <v>       0.00099206 </v>
   <v>       0.00099206 </v>
   <v>       0.00099206 </v>
   <v>       0.00099206 </v>
   <v>       0.00099206 </v>
   <v>       0.00099206 </v>
   <v>       0.00099206 </v>
   <v>       0.00099206 </v>
   <v>       0.00099206 </v>
   <v>       0.00099206 </v>
   <v>       0.00099206 </v>
   <v>       0.00099206 </v>
   <v>       0.00099206 </v>
   <v>       0.00099206 </v>
   <v>       0.00049603 </v>
   <v>       0.00099206 </v>
   <v>       0.00099206 </v>
   <v>       0.00099206 </v>
   <v>       0.00099206 </v>
   <v>       0.00099206 </v>
   <v>       0.00099206 </v>
   <v>       0.00099206 </v>
   <v>       0.00099206 </v>
   <v>       0.00099206 </v>
   <v>       0.00099206 </v>
   <v>       0.00099206 </v>
   <v>       0.00099206 </v>
   <v>       0.00099206 </v>
   <v>       0.00099206 </v>
   <v>       0.00099206 </v>
   <v>       0.00099206 </v>
   <v>       0.00099206 </v>
   <v>       0.00049603 </v>
   <v>       0.00099206 </v>
   <v>       0.00099206 </v>
   <v>       0.00099206 </v>
   <v>       0.00099206 </v>
   <v>       0.00099206 </v>
   <v>       0.00099206 </v>
   <v>       0.00099206 </v>
   <v>       0.00099206 </v>
   <v>       0.00099206 </v>
   <v>       0.00099206 </v>
   <v>       0.00099206 </v>
   <v>       0.00099206 </v>
   <v>       0.00099206 </v>
   <v>       0.00099206 </v>
   <v>       0.00099206 </v>
   <v>       0.00099206 </v>
   <v>       0.00049603 </v>
   <v>       0.00099206 </v>
   <v>       0.00099206 </v>
   <v>       0.00099206 </v>
   <v>       0.00099206 </v>
   <v>       0.00099206 </v>
   <v>       0.00099206 </v>
   <v>       0.00099206 </v>
   <v>       0.00099206 </v>
   <v>       0.00099206 </v>
   <v>       0.00099206 </v>
   <v>       0.00099206 </v>
   <v>       0.00099206 </v>
   <v>       0.00099206 </v>
   <v>       0.00099206 </v>
   <v>       0.00099206 </v>
   <v>       0.00049603 </v>
   <v>       0.00099206 </v>
   <v>       0.00099206 </v>
   <v>       0.00099206 </v>
   <v>       0.00099206 </v>
   <v>       0.00099206 </v>
   <v>       0.00099206 </v>
   <v>       0.00099206 </v>
   <v>       0.00099206 </v>
   <v>       0.00099206 </v>
   <v>       0.00099206 </v>
   <v>       0.00099206 </v>
   <v>       0.00099206 </v>
   <v>       0.00099206 </v>
   <v>       0.00099206 </v>
   <v>       0.00049603 </v>
   <v>       0.00099206 </v>
   <v>       0.00099206 </v>
   <v>       0.00099206 </v>
   <v>       0.00099206 </v>
   <v>       0.00099206 </v>
   <v>       0.00099206 </v>
   <v>       0.00099206 </v>
   <v>       0.00099206 </v>
   <v>       0.00099206 </v>
   <v>       0.00099206 </v>
   <v>       0.00099206 </v>
   <v>       0.00099206 </v>
   <v>       0.00099206 </v>
   <v>       0.00049603 </v>
   <v>       0.00099206 </v>
   <v>       0.00099206 </v>
   <v>       0.00099206 </v>
   <v>       0.00099206 </v>
   <v>       0.00099206 </v>
   <v>       0.00099206 </v>
   <v>       0.00099206 </v>
   <v>       0.00099206 </v>
   <v>       0.00099206 </v>
   <v>       0.00099206 </v>
   <v>       0.00099206 </v>
   <v>       0.00099206 </v>
   <v>       0.00049603 </v>
   <v>       0.00099206 </v>
   <v>       0.00099206 </v>
   <v>       0.00099206 </v>
   <v>       0.00099206 </v>
   <v>       0.00099206 </v>
   <v>       0.00099206 </v>
   <v>       0.00099206 </v>
   <v>       0.00099206 </v>
   <v>       0.00099206 </v>
   <v>       0.00099206 </v>
   <v>       0.00099206 </v>
   <v>       0.00049603 </v>
   <v>       0.00099206 </v>
   <v>       0.00099206 </v>
   <v>       0.00099206 </v>
   <v>       0.00099206 </v>
   <v>       0.00099206 </v>
   <v>       0.00099206 </v>
   <v>       0.00099206 </v>
   <v>       0.00099206 </v>
   <v>       0.00099206 </v>
[...]
       <r>    2.7663    1.0000 </r>
       <r>    3.3231    1.0000 </r>
       <r>    3.4825    1.0000 </r>
       <r>    3.7343    1.0000 </r>
       <r>    3.7821    1.0000 </r>
       <r>    3.9103    1.0000 </r>
       <r>    3.9127    1.0000 </r>
       <r>    3.9317    1.0000 </r>
       <r>    4.3608    1.0000 </r>
       <r>    4.4371    1.0000 </r>
       <r>    4.5942    1.0000 </r>
       <r>    4.6341    1.0000 </r>
       <r>    4.7103    1.0000 </r>
       <r>    4.8164    1.0000 </r>
       <r>    4.8769    1.0000 </r>
       <r>    5.2542    1.0000 </r>
       <r>    5.2759    1.0000 </r>
       <r>    5.4458    1.0000 </r>
       <r>    5.6820    1.0000 </r>
       <r>    5.8121    1.0000 </r>
       <r>    5.8970    1.0000 </r>
       <r>    6.6831    1.0000 </r>
       <r>   10.0306    0.0000 </r>
       <r>   14.4801    0.0000 </r>
       <r>   17.9459    0.0000 </r>
       <r>   17.9780    0.0000 </r>
       <r>   18.9275    0.0000 </r>
       <r>   19.7010    0.0000 </r>
       <r>   20.3048    0.0000 </r>
      </set>
      <set comment="kpoint 1056">
       <r>    0.1666    1.0000 </r>
       <r>    0.6405    1.0000 </r>
       <r>    2.0072    1.0000 </r>
       <r>    2.1413    1.0000 </r>
       <r>    2.1988    1.0000 </r>
       <r>    2.4670    1.0000 </r>
       <r>    2.5049    1.0000 </r>
       <r>    2.7261    1.0000 </r>
       <r>    3.3344    1.0000 </r>
       <r>    3.4923    1.0000 </r>
       <r>    3.7240    1.0000 </r>
       <r>    3.7614    1.0000 </r>
       <r>    3.8883    1.0000 </r>
       <r>    3.9064    1.0000 </r>
       <r>    4.0825    1.0000 </r>
       <r>    4.4627    1.0000 </r>
       <r>    4.5300    1.0000 </r>
       <r>    4.5874    1.0000 </r>
       <r>    4.6346    1.0000 </r>
       <r>    4.7093    1.0000 </r>
       <r>    4.8020    1.0000 </r>
       <r>    4.9010    1.0000 </r>
       <r>    5.2491    1.0000 </r>
       <r>    5.3732    1.0000 </r>
       <r>    5.5398    1.0000 </r>
       <r>    5.7345    1.0000 </r>
       <r>    5.7558    1.0000 </r>
       <r>    5.9035    1.0000 </r>
       <r>    6.3447    1.0000 </r>
       <r>    9.8344    0.0000 </r>
       <r>   14.4019    0.0000 </r>
       <r>   17.7737    0.0000 </r>
       <r>   18.6259    0.0000 </r>
       <r>   19.1740    0.0000 </r>
       <r>   20.2460    0.0000 </r>
       <r>   20.5292    0.0000 </r>
      </set>
      <set comment="kpoint 1057">
       <r>    0.0734    1.0000 </r>
       <r>    0.5163    1.0000 </r>
       <r>    1.9462    1.0000 </r>
       <r>    2.0793    1.0000 </r>
       <r>    2.1348    1.0000 </r>
       <r>    2.4436    1.0000 </r>
       <r>    2.4444    1.0000 </r>
       <r>    2.6643    1.0000 </r>
       <r>    3.3349    1.0000 </r>
       <r>    3.4789    1.0000 </r>
       <r>    3.7274    1.0000 </r>
       <r>    3.7479    1.0000 </r>
       <r>    3.8859    1.0000 </r>
       <r>    3.8927    1.0000 </r>
       <r>    4.2790    1.0000 </r>
       <r>    4.4746    1.0000 </r>
       <r>    4.6197    1.0000 </r>
       <r>    4.6559    1.0000 </r>
       <r>    4.6712    1.0000 </r>
       <r>    4.7504    1.0000 </r>
       <r>    4.8160    1.0000 </r>
       <r>    4.9578    1.0000 </r>
       <r>    5.2303    1.0000 </r>
       <r>    5.2382    1.0000 </r>
       <r>    5.7115    1.0000 </r>
       <r>    5.7339    1.0000 </r>
       <r>    5.8194    1.0000 </r>
       <r>    5.9159    1.0000 </r>
       <r>    5.9731    1.0000 </r>
       <r>    9.5912    0.0000 </r>
       <r>   14.3448    0.0000 </r>
       <r>   18.4144    0.0000 </r>
       <r>   18.4317    0.0000 </r>
       <r>   19.9920    0.0000 </r>
       <r>   20.4985    0.0000 </r>
       <r>   20.6042    0.0000 </r>
      </set>
     </set>
    </set>
   </array>
  </eigenvalues>
  <separator name="orbital magnetization" >
   <v name="MAGDIPOLOUT">      0.00000000      0.00000000      0.00000000</v>
  </separator>
  <dos>
   <i name="efermi">      8.19694093 </i>
   <total>
    <array>
     <dimension dim="1">gridpoints</dimension>
     <dimension dim="2">spin</dimension>
     <field>energy</field>
     <field>total</field>
     <field>integrated</field>
     <set>
      <set comment="spin 1">
       <r>    -3.1796     0.0000     0.0000 </r>
       <r>    -3.0875     0.0000     0.0000 </r>
       <r>    -2.9954     0.0000     0.0000 </r>
       <r>    -2.9033     0.0000     0.0000 </r>
       <r>    -2.8111     0.0000     0.0000 </r>
       <r>    -2.7190     0.0000     0.0000 </r>
       <r>    -2.6269     0.0000     0.0000 </r>
       <r>    -2.5348     0.0000     0.0000 </r>
       <r>    -2.4427     0.0000     0.0000 </r>
       <r>    -2.3505     0.0000     0.0000 </r>
       <r>    -2.2584     0.0000     0.0000 </r>
       <r>    -2.1663     0.0000     0.0000 </r>
       <r>    -2.0742     0.0000     0.0000 </r>
       <r>    -1.9821     0.0000     0.0000 </r>
       <r>    -1.8900     0.0000     0.0000 </r>
       <r>    -1.7978     0.0000     0.0000 </r>
       <r>    -1.7057     0.0000     0.0000 </r>
       <r>    -1.6136     0.0000     0.0000 </r>
       <r>    -1.5215     0.0000     0.0000 </r>
       <r>    -1.4294     0.0000     0.0000 </r>
       <r>    -1.3373     0.0000     0.0000 </r>
       <r>    -1.2451     0.0000     0.0000 </r>
       <r>    -1.1530     0.0000     0.0000 </r>
       <r>    -1.0609     0.0000     0.0000 </r>
       <r>    -0.9688     0.0000     0.0000 </r>
       <r>    -0.8767    -0.0002     0.0000 </r>
       <r>    -0.7846    -0.0006    -0.0001 </r>
       <r>    -0.6924    -0.0017    -0.0002 </r>
       <r>    -0.6003    -0.0040    -0.0006 </r>
       <r>    -0.5082    -0.0071    -0.0013 </r>
       <r>    -0.4161    -0.0077    -0.0020 </r>
       <r>    -0.3240     0.0006    -0.0019 </r>
       <r>    -0.2319     0.0265     0.0005 </r>
       <r>    -0.1397     0.0741     0.0074 </r>
       <r>    -0.0476     0.1378     0.0201 </r>
       <r>     0.0445     0.2037     0.0388 </r>
       <r>     0.1366     0.2581     0.0626 </r>
       <r>     0.2287     0.2966     0.0899 </r>
       <r>     0.3208     0.3258     0.1199 </r>
       <r>     0.4130     0.3571     0.1528 </r>
       <r>     0.5051     0.3984     0.1895 </r>
       <r>     0.5972     0.4514     0.2311 </r>
       <r>     0.6893     0.5137     0.2784 </r>
       <r>     0.7814     0.5795     0.3318 </r>
       <r>     0.8735     0.6420     0.3909 </r>
       <r>     0.9657     0.6956     0.4550 </r>
       <r>     1.0578     0.7372     0.5229 </r>
       <r>     1.1499     0.7693     0.5938 </r>
       <r>     1.2420     0.8052     0.6680 </r>
       <r>     1.3341     0.8743     0.7485 </r>
       <r>     1.4263     1.0119     0.8417 </r>
       <r>     1.5184     1.2340     0.9554 </r>
       <r>     1.6105     1.5196     1.0954 </r>
       <r>     1.7026     1.8426     1.2651 </r>
       <r>     1.7947     2.2522     1.4726 </r>
       <r>     1.8868     2.9239     1.7419 </r>
       <r>     1.9790     4.0888     2.1186 </r>
       <r>     2.0711     5.8560     2.6580 </r>
       <r>     2.1632     8.0642     3.4008 </r>
       <r>     2.2553    10.2996     4.3496 </r>
       <r>     2.3474    12.0878     5.4631 </r>
       <r>     2.4395    13.1175     6.6715 </r>
       <r>     2.5317    13.3407     7.9004 </r>
       <r>     2.6238    12.9196     9.0905 </r>
       <r>     2.7159    12.1160    10.2066 </r>
       <r>     2.8080    11.2251    11.2406 </r>
       <r>     2.9001    10.5560    12.2130 </r>
       <r>     2.9922    10.3657    13.1678 </r>
       <r>     3.0844    10.7176    14.1551 </r>
       <r>     3.1765    11.3996    15.2052 </r>
       <r>     3.2686    12.0591    16.3161 </r>
       <r>     3.3607    12.4910    17.4667 </r>
       <r>     3.4528    12.8311    18.6487 </r>
       <r>     3.5449    13.4646    19.8890 </r>
       <r>     3.6371    14.6815    21.2414 </r>
       <r>     3.7292    16.3162    22.7444 </r>
       <r>     3.8213    17.6964    24.3745 </r>
       <r>     3.9134    18.0537    26.0376 </r>
       <r>     4.0055    17.1185    27.6145 </r>
       <r>     4.0976    15.3570    29.0291 </r>
       <r>     4.1898    13.6187    30.2837 </r>
       <r>     4.2819    12.5674    31.4413 </r>
       <r>     4.3740    12.3922    32.5829 </r>
       <r>     4.4661    12.8667    33.7681 </r>
       <r>     4.5582    13.5214    35.0137 </r>
       <r>     4.6503    13.8377    36.2883 </r>
       <r>     4.7425    13.4926    37.5312 </r>
       <r>     4.8346    12.5497    38.6873 </r>
       <r>     4.9267    11.4203    39.7393 </r>
       <r>     5.0188    10.6231    40.7179 </r>
       <r>     5.1109    10.5266    41.6875 </r>
       <r>     5.2031    11.1874    42.7181 </r>
       <r>     5.2952    12.3195    43.8529 </r>
       <r>     5.3873    13.4311    45.0902 </r>
       <r>     5.4794    14.0783    46.3870 </r>
       <r>     5.5715    14.0398    47.6803 </r>
       <r>     5.6636    13.2669    48.9024 </r>
       <r>     5.7558    11.7510    49.9849 </r>
       <r>     5.8479     9.5593    50.8655 </r>
       <r>     5.9400     6.9966    51.5100 </r>
       <r>     6.0321     4.5914    51.9329 </r>
       <r>     6.1242     2.8216    52.1928 </r>
       <r>     6.2163     1.8484    52.3631 </r>
       <r>     6.3085     1.5039    52.5016 </r>
       <r>     6.4006     1.4796    52.6379 </r>
       <r>     6.4927     1.5154    52.7775 </r>
       <r>     6.5848     1.4809    52.9139 </r>
       <r>     6.6769     1.3677    53.0399 </r>
       <r>     6.7690     1.2394    53.1541 </r>
       <r>     6.8612     1.1695    53.2618 </r>
       <r>     6.9533     1.1879    53.3712 </r>
       <r>     7.0454     1.2624    53.4875 </r>
       <r>     7.1375     1.3273    53.6098 </r>
       <r>     7.2296     1.3351    53.7328 </r>
       <r>     7.3217     1.2901    53.8516 </r>
       <r>     7.4139     1.2362    53.9655 </r>
       <r>     7.5060     1.2157    54.0775 </r>
       <r>     7.5981     1.2380    54.1915 </r>
       <r>     7.6902     1.2830    54.3097 </r>
       <r>     7.7823     1.3272    54.4320 </r>
       <r>     7.8744     1.3613    54.5574 </r>
       <r>     7.9666     1.3831    54.6848 </r>
       <r>     8.0587     1.3861    54.8124 </r>
       <r>     8.1508     1.3655    54.9382 </r>
       <r>     8.2429     1.3292    55.0607 </r>
       <r>     8.3350     1.3002    55.1804 </r>
       <r>     8.4271     1.3044    55.3006 </r>
       <r>     8.5193     1.3514    55.4251 </r>
       <r>     8.6114     1.4189    55.5558 </r>
       <r>     8.7035     1.4629    55.6905 </r>
       <r>     8.7956     1.4531    55.8244 </r>
       <r>     8.8877     1.3969    55.9531 </r>
       <r>     8.9799     1.3266    56.0753 </r>
       <r>     9.0720     1.2710    56.1924 </r>
       <r>     9.1641     1.2453    56.3071 </r>
       <r>     9.2562     1.2576    56.4229 </r>
       <r>     9.3483     1.3068    56.5433 </r>
       <r>     9.4404     1.3713    56.6696 </r>
       <r>     9.5326     1.4146    56.7999 </r>
       <r>     9.6247     1.4125    56.9300 </r>
       <r>     9.7168     1.3721    57.0564 </r>
       <r>     9.8089     1.3192    57.1779 </r>
       <r>     9.9010     1.2737    57.2953 </r>
       <r>     9.9931     1.2420    57.4097 </r>
       <r>    10.0853     1.2270    57.5227 </r>
       <r>    10.1774     1.2309    57.6361 </r>
       <r>    10.2695     1.2462    57.7509 </r>
       <r>    10.3616     1.2538    57.8664 </r>
       <r>    10.4537     1.2394    57.9806 </r>
       <r>    10.5458     1.2120    58.0922 </r>
       <r>    10.6380     1.1959    58.2024 </r>
       <r>    10.7301     1.2045    58.3133 </r>
       <r>    10.8222     1.2305    58.4267 </r>
       <r>    10.9143     1.2649    58.5432 </r>
       <r>    11.0064     1.3127    58.6641 </r>
       <r>    11.0985     1.3777    58.7910 </r>
       <r>    11.1907     1.4429    58.9239 </r>
       <r>    11.2828     1.4814    59.0604 </r>
       <r>    11.3749     1.4865    59.1973 </r>
       <r>    11.4670     1.4751    59.3332 </r>
       <r>    11.5591     1.4617    59.4679 </r>
       <r>    11.6512     1.4410    59.6006 </r>
       <r>    11.7434     1.4036    59.7299 </r>
       <r>    11.8355     1.3612    59.8553 </r>
       <r>    11.9276     1.3451    59.9792 </r>
       <r>    12.0197     1.3791    60.1062 </r>
       <r>    12.1118     1.4598    60.2407 </r>
       <r>    12.2039     1.5618    60.3846 </r>
       <r>    12.2961     1.6542    60.5370 </r>
       <r>    12.3882     1.7107    60.6945 </r>
       <r>    12.4803     1.7131    60.8523 </r>
       <r>    12.5724     1.6594    61.0052 </r>
       <r>    12.6645     1.5713    61.1500 </r>
       <r>    12.7567     1.4850    61.2867 </r>
       <r>    12.8488     1.4296    61.4184 </r>
       <r>    12.9409     1.4124    61.5485 </r>
       <r>    13.0330     1.4231    61.6796 </r>
       <r>    13.1251     1.4494    61.8132 </r>
       <r>    13.2172     1.4856    61.9500 </r>
       <r>    13.3094     1.5285    62.0908 </r>
       <r>    13.4015     1.5702    62.2354 </r>
       <r>    13.4936     1.6004    62.3829 </r>
       <r>    13.5857     1.6186    62.5320 </r>
       <r>    13.6778     1.6390    62.6829 </r>
       <r>    13.7699     1.6761    62.8373 </r>
       <r>    13.8621     1.7243    62.9962 </r>
       <r>    13.9542     1.7569    63.1580 </r>
       <r>    14.0463     1.7504    63.3193 </r>
       <r>    14.1384     1.7077    63.4766 </r>
       <r>    14.2305     1.6561    63.6291 </r>
       <r>    14.3226     1.6229    63.7786 </r>
       <r>    14.4148     1.6120    63.9271 </r>
       <r>    14.5069     1.6023    64.0747 </r>
       <r>    14.5990     1.5715    64.2195 </r>
       <r>    14.6911     1.5227    64.3598 </r>
       <r>    14.7832     1.4884    64.4969 </r>
       <r>    14.8753     1.5061    64.6356 </r>
       <r>    14.9675     1.5891    64.7820 </r>
       <r>    15.0596     1.7166    64.9401 </r>
       <r>    15.1517     1.8509    65.1106 </r>
       <r>    15.2438     1.9619    65.2913 </r>
       <r>    15.3359     2.0343    65.4787 </r>
       <r>    15.4280     2.0595    65.6684 </r>
       <r>    15.5202     2.0346    65.8558 </r>
       <r>    15.6123     1.9762    66.0379 </r>
       <r>    15.7044     1.9234    66.2151 </r>
       <r>    15.7965     1.9120    66.3912 </r>
       <r>    15.8886     1.9416    66.5701 </r>
       <r>    15.9807     1.9731    66.7518 </r>
       <r>    16.0729     1.9633    66.9327 </r>
       <r>    16.1650     1.9025    67.1079 </r>
       <r>    16.2571     1.8195    67.2755 </r>
       <r>    16.3492     1.7517    67.4369 </r>
       <r>    16.4413     1.7131    67.5947 </r>
       <r>    16.5335     1.6903    67.7504 </r>
       <r>    16.6256     1.6658    67.9039 </r>
       <r>    16.7177     1.6392    68.0549 </r>
       <r>    16.8098     1.6232    68.2044 </r>
       <r>    16.9019     1.6233    68.3539 </r>
       <r>    16.9940     1.6278    68.5039 </r>
       <r>    17.0862     1.6198    68.6531 </r>
       <r>    17.1783     1.5913    68.7997 </r>
       <r>    17.2704     1.5460    68.9421 </r>
       <r>    17.3625     1.4932    69.0796 </r>
       <r>    17.4546     1.4416    69.2124 </r>
       <r>    17.5467     1.3960    69.3410 </r>
       <r>    17.6389     1.3592    69.4662 </r>
       <r>    17.7310     1.3351    69.5892 </r>
       <r>    17.8231     1.3292    69.7117 </r>
       <r>    17.9152     1.3419    69.8353 </r>
       <r>    18.0073     1.3618    69.9607 </r>
       <r>    18.0994     1.3701    70.0869 </r>
       <r>    18.1916     1.3559    70.2118 </r>
       <r>    18.2837     1.3259    70.3340 </r>
       <r>    18.3758     1.2959    70.4533 </r>
       <r>    18.4679     1.2716    70.5705 </r>
       <r>    18.5600     1.2409    70.6848 </r>
       <r>    18.6521     1.1869    70.7941 </r>
       <r>    18.7443     1.1096    70.8963 </r>
       <r>    18.8364     1.0328    70.9915 </r>
       <r>    18.9285     0.9870    71.0824 </r>
       <r>    19.0206     0.9811    71.1728 </r>
       <r>    19.1127     0.9912    71.2641 </r>
       <r>    19.2048     0.9773    71.3541 </r>
       <r>    19.2970     0.9127    71.4382 </r>
       <r>    19.3891     0.8017    71.5120 </r>
       <r>    19.4812     0.6737    71.5741 </r>
       <r>    19.5733     0.5620    71.6259 </r>
       <r>    19.6654     0.4837    71.6704 </r>
       <r>    19.7575     0.4357    71.7105 </r>
       <r>    19.8497     0.4042    71.7478 </r>
       <r>    19.9418     0.3780    71.7826 </r>
       <r>    20.0339     0.3538    71.8152 </r>
       <r>    20.1260     0.3301    71.8456 </r>
       <r>    20.2181     0.3031    71.8735 </r>
       <r>    20.3103     0.2692    71.8983 </r>
       <r>    20.4024     0.2296    71.9195 </r>
       <r>    20.4945     0.1891    71.9369 </r>
       <r>    20.5866     0.1515    71.9508 </r>
       <r>    20.6787     0.1184    71.9617 </r>
       <r>    20.7708     0.0907    71.9701 </r>
       <r>    20.8630     0.0698    71.9765 </r>
       <r>    20.9551     0.0559    71.9817 </r>
       <r>    21.0472     0.0466    71.9860 </r>
       <r>    21.1393     0.0397    71.9896 </r>
       <r>    21.2314     0.0338    71.9927 </r>
       <r>    21.3235     0.0285    71.9954 </r>
       <r>    21.4157     0.0231    71.9975 </r>
       <r>    21.5078     0.0167    71.9990 </r>
       <r>    21.5999     0.0096    71.9999 </r>
       <r>    21.6920     0.0036    72.0003 </r>
       <r>    21.7841     0.0001    72.0003 </r>
       <r>    21.8762    -0.0011    72.0002 </r>
       <r>    21.9684    -0.0009    72.0001 </r>
       <r>    22.0605    -0.0005    72.0000 </r>
       <r>    22.1526    -0.0002    72.0000 </r>
       <r>    22.2447    -0.0001    72.0000 </r>
       <r>    22.3368     0.0000    72.0000 </r>
       <r>    22.4289     0.0000    72.0000 </r>
       <r>    22.5211     0.0000    72.0000 </r>
       <r>    22.6132     0.0000    72.0000 </r>
       <r>    22.7053     0.0000    72.0000 </r>
       <r>    22.7974     0.0000    72.0000 </r>
       <r>    22.8895     0.0000    72.0000 </r>
       <r>    22.9816     0.0000    72.0000 </r>
       <r>    23.0738     0.0000    72.0000 </r>
       <r>    23.1659     0.0000    72.0000 </r>
       <r>    23.2580     0.0000    72.0000 </r>
       <r>    23.3501     0.0000    72.0000 </r>
       <r>    23.4422     0.0000    72.0000 </r>
       <r>    23.5343     0.0000    72.0000 </r>
       <r>    23.6265     0.0000    72.0000 </r>
       <r>    23.7186     0.0000    72.0000 </r>
       <r>    23.8107     0.0000    72.0000 </r>
       <r>    23.9028     0.0000    72.0000 </r>
       <r>    23.9949     0.0000    72.0000 </r>
       <r>    24.0871     0.0000    72.0000 </r>
       <r>    24.1792     0.0000    72.0000 </r>
       <r>    24.2713     0.0000    72.0000 </r>
       <r>    24.3634     0.0000    72.0000 </r>
       <r>    24.4555     0.0000    72.0000 </r>
      </set>
     </set>
    </array>
   </total>
  </dos>
 </calculation>
 <structure name="finalpos" >
  <crystal>
   <varray name="basis" >
    <v>       0.00000000      -2.06370875       2.06370875 </v>
    <v>       0.00000000      -2.06370875      -2.06370875 </v>
    <v>      10.44880928       2.06370875       0.00000000 </v>
   </varray>
   <i name="volume">     89.00073850 </i>
   <varray name="rec_basis" >
    <v>       0.04785234      -0.24228225       0.24228225 </v>
    <v>       0.04785234      -0.24228225      -0.24228225 </v>
    <v>       0.09570468       0.00000000       0.00000000 </v>
   </varray>
  </crystal>
  <varray name="positions" >
   <v>       0.60000000       0.60000000       0.20000000 </v>
   <v>       0.80013148       0.80013148       0.60026297 </v>
   <v>       0.39986852       0.39986852       0.79973703 </v>
   <v>       0.99993018       0.99993018       0.99986035 </v>
   <v>       0.20006982       0.20006982       0.40013965 </v>
  </varray>
 </structure>
</modeling>
