<?xml version="1.0" encoding="ISO-8859-1"?>
<modeling>
 <generator>
  <i name="program" type="string">vasp </i>
  <i name="version" type="string">5.3.5  </i>
  <i name="subversion" type="string">31Mar14 (build Jun 20 2014 13:15:13) complex                          parallel </i>
  <i name="platform" type="string">LinuxIFC </i>
  <i name="date" type="string">2025 11 29 </i>
  <i name="time" type="string">08:36:10 </i>
 </generator>
 <incar>
  <i type="string" name="PREC">accurate</i>
  <i type="int" name="IALGO">    68</i>
  <i type="logical" name="ADDGRID"> T  </i>
  <i type="int" name="NELM">   200</i>
  <i type="int" name="NELMIN">     4</i>
  <i type="int" name="IBRION">     2</i>
  <i name="EDIFF">      0.00000100</i>
  <i name="EDIFFG">     -0.02000000</i>
  <i type="int" name="NSW">    30</i>
  <i type="int" name="ISIF">     3</i>
  <i name="ENCUT">    500.00000000</i>
  <i type="logical" name="LREAL"> F  </i>
  <i type="int" name="ISMEAR">     1</i>
  <i name="SIGMA">      0.30000000</i>
  <i type="logical" name="LWAVE"> F  </i>
  <i type="logical" name="LCHARG"> F  </i>
  <i type="int" name="NELM">   200</i>
 </incar>
 <kpoints>
  <generation param="Auto">
   <i name="subdivisionlength">     70.00000000 </i>
   <v type="int" name="divisions">      19       19       12 </v>
   <v name="usershift">      0.00000000       0.00000000       0.00000000 </v>
   <v name="genvec1">      0.05263158       0.00000000       0.00000000 </v>
   <v name="genvec2">      0.00000000       0.05263158       0.00000000 </v>
   <v name="genvec3">      0.00000000       0.00000000       0.08333333 </v>
   <v name="shift">      0.00000000       0.00000000       0.00000000 </v>
  </generation>
  <varray name="kpointlist" >
   <v>       0.00000000       0.00000000       0.00000000 </v>
   <v>       0.05263158       0.00000000       0.00000000 </v>
   <v>       0.10526316       0.00000000       0.00000000 </v>
   <v>       0.15789474       0.00000000       0.00000000 </v>
   <v>       0.21052632       0.00000000       0.00000000 </v>
   <v>       0.26315789       0.00000000       0.00000000 </v>
   <v>       0.31578947       0.00000000       0.00000000 </v>
   <v>       0.36842105       0.00000000       0.00000000 </v>
   <v>       0.42105263       0.00000000       0.00000000 </v>
   <v>       0.47368421       0.00000000       0.00000000 </v>
   <v>       0.00000000       0.05263158       0.00000000 </v>
   <v>       0.05263158       0.05263158       0.00000000 </v>
   <v>       0.10526316       0.05263158       0.00000000 </v>
   <v>       0.15789474       0.05263158       0.00000000 </v>
   <v>       0.21052632       0.05263158       0.00000000 </v>
   <v>       0.26315789       0.05263158       0.00000000 </v>
   <v>       0.31578947       0.05263158       0.00000000 </v>
   <v>       0.36842105       0.05263158       0.00000000 </v>
   <v>       0.42105263       0.05263158       0.00000000 </v>
   <v>       0.47368421       0.05263158       0.00000000 </v>
   <v>       0.00000000       0.10526316       0.00000000 </v>
   <v>       0.05263158       0.10526316       0.00000000 </v>
   <v>       0.10526316       0.10526316       0.00000000 </v>
   <v>       0.15789474       0.10526316       0.00000000 </v>
   <v>       0.21052632       0.10526316       0.00000000 </v>
   <v>       0.26315789       0.10526316       0.00000000 </v>
   <v>       0.31578947       0.10526316       0.00000000 </v>
   <v>       0.36842105       0.10526316       0.00000000 </v>
   <v>       0.42105263       0.10526316       0.00000000 </v>
   <v>       0.47368421       0.10526316       0.00000000 </v>
   <v>       0.00000000       0.15789474       0.00000000 </v>
   <v>       0.05263158       0.15789474       0.00000000 </v>
   <v>       0.10526316       0.15789474       0.00000000 </v>
   <v>       0.15789474       0.15789474       0.00000000 </v>
   <v>       0.21052632       0.15789474       0.00000000 </v>
   <v>       0.26315789       0.15789474       0.00000000 </v>
   <v>       0.31578947       0.15789474       0.00000000 </v>
   <v>       0.36842105       0.15789474       0.00000000 </v>
   <v>       0.42105263       0.15789474       0.00000000 </v>
   <v>       0.47368421       0.15789474       0.00000000 </v>
   <v>       0.00000000       0.21052632       0.00000000 </v>
   <v>       0.05263158       0.21052632       0.00000000 </v>
   <v>       0.10526316       0.21052632       0.00000000 </v>
   <v>       0.15789474       0.21052632       0.00000000 </v>
   <v>       0.21052632       0.21052632       0.00000000 </v>
   <v>       0.26315789       0.21052632       0.00000000 </v>
   <v>       0.31578947       0.21052632       0.00000000 </v>
   <v>       0.36842105       0.21052632       0.00000000 </v>
   <v>       0.42105263       0.21052632       0.00000000 </v>
   <v>       0.47368421       0.21052632       0.00000000 </v>
   <v>       0.00000000       0.26315789       0.00000000 </v>
   <v>       0.05263158       0.26315789       0.00000000 </v>
   <v>       0.10526316       0.26315789       0.00000000 </v>
   <v>       0.15789474       0.26315789       0.00000000 </v>
   <v>       0.21052632       0.26315789       0.00000000 </v>
   <v>       0.26315789       0.26315789       0.00000000 </v>
   <v>       0.31578947       0.26315789       0.00000000 </v>
   <v>       0.36842105       0.26315789       0.00000000 </v>
   <v>       0.42105263       0.26315789       0.00000000 </v>
   <v>       0.47368421       0.26315789       0.00000000 </v>
   <v>       0.00000000       0.31578947       0.00000000 </v>
   <v>       0.05263158       0.31578947       0.00000000 </v>
   <v>       0.10526316       0.31578947       0.00000000 </v>
   <v>       0.15789474       0.31578947       0.00000000 </v>
   <v>       0.21052632       0.31578947       0.00000000 </v>
   <v>       0.26315789       0.31578947       0.00000000 </v>
   <v>       0.31578947       0.31578947       0.00000000 </v>
   <v>       0.36842105       0.31578947       0.00000000 </v>
   <v>       0.42105263       0.31578947       0.00000000 </v>
   <v>       0.47368421       0.31578947       0.00000000 </v>
   <v>       0.00000000       0.36842105       0.00000000 </v>
   <v>       0.05263158       0.36842105       0.00000000 </v>
   <v>       0.10526316       0.36842105       0.00000000 </v>
   <v>       0.15789474       0.36842105       0.00000000 </v>
   <v>       0.21052632       0.36842105       0.00000000 </v>
   <v>       0.26315789       0.36842105       0.00000000 </v>
   <v>       0.31578947       0.36842105       0.00000000 </v>
   <v>       0.36842105       0.36842105       0.00000000 </v>
   <v>       0.42105263       0.36842105       0.00000000 </v>
   <v>       0.47368421       0.36842105       0.00000000 </v>
   <v>       0.00000000       0.42105263       0.00000000 </v>
   <v>       0.05263158       0.42105263       0.00000000 </v>
   <v>       0.10526316       0.42105263       0.00000000 </v>
   <v>       0.15789474       0.42105263       0.00000000 </v>
   <v>       0.21052632       0.42105263       0.00000000 </v>
   <v>       0.26315789       0.42105263       0.00000000 </v>
   <v>       0.31578947       0.42105263       0.00000000 </v>
   <v>       0.36842105       0.42105263       0.00000000 </v>
   <v>       0.42105263       0.42105263       0.00000000 </v>
   <v>       0.47368421       0.42105263       0.00000000 </v>
   <v>       0.00000000       0.47368421       0.00000000 </v>
   <v>       0.05263158       0.47368421       0.00000000 </v>
   <v>       0.10526316       0.47368421       0.00000000 </v>
   <v>       0.15789474       0.47368421       0.00000000 </v>
   <v>       0.21052632       0.47368421       0.00000000 </v>
   <v>       0.26315789       0.47368421       0.00000000 </v>
   <v>       0.31578947       0.47368421       0.00000000 </v>
   <v>       0.36842105       0.47368421       0.00000000 </v>
   <v>       0.42105263       0.47368421       0.00000000 </v>
   <v>       0.47368421       0.47368421       0.00000000 </v>
   <v>       0.00000000       0.00000000       0.08333333 </v>
   <v>       0.05263158       0.00000000       0.08333333 </v>
   <v>       0.10526316       0.00000000       0.08333333 </v>
   <v>       0.15789474       0.00000000       0.08333333 </v>
   <v>       0.21052632       0.00000000       0.08333333 </v>
   <v>       0.26315789       0.00000000       0.08333333 </v>
   <v>       0.31578947       0.00000000       0.08333333 </v>
   <v>       0.36842105       0.00000000       0.08333333 </v>
   <v>       0.42105263       0.00000000       0.08333333 </v>
   <v>       0.47368421       0.00000000       0.08333333 </v>
   <v>       0.00000000       0.05263158       0.08333333 </v>
   <v>       0.05263158       0.05263158       0.08333333 </v>
   <v>       0.10526316       0.05263158       0.08333333 </v>
   <v>       0.15789474       0.05263158       0.08333333 </v>
   <v>       0.21052632       0.05263158       0.08333333 </v>
   <v>       0.26315789       0.05263158       0.08333333 </v>
   <v>       0.31578947       0.05263158       0.08333333 </v>
   <v>       0.36842105       0.05263158       0.08333333 </v>
   <v>       0.42105263       0.05263158       0.08333333 </v>
   <v>       0.47368421       0.05263158       0.08333333 </v>
   <v>       0.00000000       0.10526316       0.08333333 </v>
   <v>       0.05263158       0.10526316       0.08333333 </v>
   <v>       0.10526316       0.10526316       0.08333333 </v>
   <v>       0.15789474       0.10526316       0.08333333 </v>
   <v>       0.21052632       0.10526316       0.08333333 </v>
   <v>       0.26315789       0.10526316       0.08333333 </v>
   <v>       0.31578947       0.10526316       0.08333333 </v>
   <v>       0.36842105       0.10526316       0.08333333 </v>
   <v>       0.42105263       0.10526316       0.08333333 </v>
   <v>       0.47368421       0.10526316       0.08333333 </v>
   <v>       0.00000000       0.15789474       0.08333333 </v>
   <v>       0.05263158       0.15789474       0.08333333 </v>
   <v>       0.10526316       0.15789474       0.08333333 </v>
   <v>       0.15789474       0.15789474       0.08333333 </v>
   <v>       0.21052632       0.15789474       0.08333333 </v>
   <v>       0.26315789       0.15789474       0.08333333 </v>
   <v>       0.31578947       0.15789474       0.08333333 </v>
   <v>       0.36842105       0.15789474       0.08333333 </v>
   <v>       0.42105263       0.15789474       0.08333333 </v>
   <v>       0.47368421       0.15789474       0.08333333 </v>
   <v>       0.00000000       0.21052632       0.08333333 </v>
   <v>       0.05263158       0.21052632       0.08333333 </v>
   <v>       0.10526316       0.21052632       0.08333333 </v>
   <v>       0.15789474       0.21052632       0.08333333 </v>
   <v>       0.21052632       0.21052632       0.08333333 </v>
   <v>       0.26315789       0.21052632       0.08333333 </v>
   <v>       0.31578947       0.21052632       0.08333333 </v>
   <v>       0.36842105       0.21052632       0.08333333 </v>
   <v>       0.42105263       0.21052632       0.08333333 </v>
   <v>       0.47368421       0.21052632       0.08333333 </v>
   <v>       0.00000000       0.26315789       0.08333333 </v>
   <v>       0.05263158       0.26315789       0.08333333 </v>
   <v>       0.10526316       0.26315789       0.08333333 </v>
   <v>       0.15789474       0.26315789       0.08333333 </v>
   <v>       0.21052632       0.26315789       0.08333333 </v>
   <v>       0.26315789       0.26315789       0.08333333 </v>
   <v>       0.31578947       0.26315789       0.08333333 </v>
   <v>       0.36842105       0.26315789       0.08333333 </v>
   <v>       0.42105263       0.26315789       0.08333333 </v>
   <v>       0.47368421       0.26315789       0.08333333 </v>
   <v>       0.00000000       0.31578947       0.08333333 </v>
   <v>       0.05263158       0.31578947       0.08333333 </v>
   <v>       0.10526316       0.31578947       0.08333333 </v>
   <v>       0.15789474       0.31578947       0.08333333 </v>
   <v>       0.21052632       0.31578947       0.08333333 </v>
   <v>       0.26315789       0.31578947       0.08333333 </v>
   <v>       0.31578947       0.31578947       0.08333333 </v>
   <v>       0.36842105       0.31578947       0.08333333 </v>
   <v>       0.42105263       0.31578947       0.08333333 </v>
   <v>       0.47368421       0.31578947       0.08333333 </v>
   <v>       0.00000000       0.36842105       0.08333333 </v>
   <v>       0.05263158       0.36842105       0.08333333 </v>
   <v>       0.10526316       0.36842105       0.08333333 </v>
   <v>       0.15789474       0.36842105       0.08333333 </v>
   <v>       0.21052632       0.36842105       0.08333333 </v>
   <v>       0.26315789       0.36842105       0.08333333 </v>
   <v>       0.31578947       0.36842105       0.08333333 </v>
   <v>       0.36842105       0.36842105       0.08333333 </v>
   <v>       0.42105263       0.36842105       0.08333333 </v>
   <v>       0.47368421       0.36842105       0.08333333 </v>
   <v>       0.00000000       0.42105263       0.08333333 </v>
   <v>       0.05263158       0.42105263       0.08333333 </v>
   <v>       0.10526316       0.42105263       0.08333333 </v>
   <v>       0.15789474       0.42105263       0.08333333 </v>
   <v>       0.21052632       0.42105263       0.08333333 </v>
   <v>       0.26315789       0.42105263       0.08333333 </v>
   <v>       0.31578947       0.42105263       0.08333333 </v>
   <v>       0.36842105       0.42105263       0.08333333 </v>
   <v>       0.42105263       0.42105263       0.08333333 </v>
   <v>       0.47368421       0.42105263       0.08333333 </v>
   <v>       0.00000000       0.47368421       0.08333333 </v>
   <v>       0.05263158       0.47368421       0.08333333 </v>
   <v>       0.10526316       0.47368421       0.08333333 </v>
   <v>       0.15789474       0.47368421       0.08333333 </v>
   <v>       0.21052632       0.47368421       0.08333333 </v>
   <v>       0.26315789       0.47368421       0.08333333 </v>
   <v>       0.31578947       0.47368421       0.08333333 </v>
   <v>       0.36842105       0.47368421       0.08333333 </v>
   <v>       0.42105263       0.47368421       0.08333333 </v>
   <v>       0.47368421       0.47368421       0.08333333 </v>
   <v>       0.00000000      -0.47368421       0.08333333 </v>
   <v>       0.05263158      -0.47368421       0.08333333 </v>
   <v>       0.10526316      -0.47368421       0.08333333 </v>
   <v>       0.15789474      -0.47368421       0.08333333 </v>
   <v>       0.21052632      -0.47368421       0.08333333 </v>
   <v>       0.26315789      -0.47368421       0.08333333 </v>
   <v>       0.31578947      -0.47368421       0.08333333 </v>
   <v>       0.36842105      -0.47368421       0.08333333 </v>
   <v>       0.42105263      -0.47368421       0.08333333 </v>
   <v>       0.47368421      -0.47368421       0.08333333 </v>
   <v>       0.00000000      -0.42105263       0.08333333 </v>
   <v>       0.05263158      -0.42105263       0.08333333 </v>
   <v>       0.10526316      -0.42105263       0.08333333 </v>
   <v>       0.15789474      -0.42105263       0.08333333 </v>
   <v>       0.21052632      -0.42105263       0.08333333 </v>
   <v>       0.26315789      -0.42105263       0.08333333 </v>
   <v>       0.31578947      -0.42105263       0.08333333 </v>
   <v>       0.36842105      -0.42105263       0.08333333 </v>
   <v>       0.42105263      -0.42105263       0.08333333 </v>
   <v>       0.47368421      -0.42105263       0.08333333 </v>
   <v>       0.00000000      -0.36842105       0.08333333 </v>
   <v>       0.05263158      -0.36842105       0.08333333 </v>
   <v>       0.10526316      -0.36842105       0.08333333 </v>
   <v>       0.15789474      -0.36842105       0.08333333 </v>
   <v>       0.21052632      -0.36842105       0.08333333 </v>
   <v>       0.26315789      -0.36842105       0.08333333 </v>
   <v>       0.31578947      -0.36842105       0.08333333 </v>
   <v>       0.36842105      -0.36842105       0.08333333 </v>
   <v>       0.42105263      -0.36842105       0.08333333 </v>
   <v>       0.47368421      -0.36842105       0.08333333 </v>
   <v>       0.00000000      -0.31578947       0.08333333 </v>
   <v>       0.05263158      -0.31578947       0.08333333 </v>
   <v>       0.10526316      -0.31578947       0.08333333 </v>
   <v>       0.15789474      -0.31578947       0.08333333 </v>
   <v>       0.21052632      -0.31578947       0.08333333 </v>
   <v>       0.26315789      -0.31578947       0.08333333 </v>
   <v>       0.31578947      -0.31578947       0.08333333 </v>
   <v>       0.36842105      -0.31578947       0.08333333 </v>
   <v>       0.42105263      -0.31578947       0.08333333 </v>
   <v>       0.47368421      -0.31578947       0.08333333 </v>
   <v>       0.00000000      -0.26315789       0.08333333 </v>
   <v>       0.05263158      -0.26315789       0.08333333 </v>
   <v>       0.10526316      -0.26315789       0.08333333 </v>
   <v>       0.15789474      -0.26315789       0.08333333 </v>
   <v>       0.21052632      -0.26315789       0.08333333 </v>
   <v>       0.26315789      -0.26315789       0.08333333 </v>
   <v>       0.31578947      -0.26315789       0.08333333 </v>
   <v>       0.36842105      -0.26315789       0.08333333 </v>
   <v>       0.42105263      -0.26315789       0.08333333 </v>
   <v>       0.47368421      -0.26315789       0.08333333 </v>
   <v>       0.00000000      -0.21052632       0.08333333 </v>
   <v>       0.05263158      -0.21052632       0.08333333 </v>
   <v>       0.10526316      -0.21052632       0.08333333 </v>
   <v>       0.15789474      -0.21052632       0.08333333 </v>
   <v>       0.21052632      -0.21052632       0.08333333 </v>
   <v>       0.26315789      -0.21052632       0.08333333 </v>
   <v>       0.31578947      -0.21052632       0.08333333 </v>
   <v>       0.36842105      -0.21052632       0.08333333 </v>
   <v>       0.42105263      -0.21052632       0.08333333 </v>
   <v>       0.47368421      -0.21052632       0.08333333 </v>
   <v>       0.00000000      -0.15789474       0.08333333 </v>
   <v>       0.05263158      -0.15789474       0.08333333 </v>
   <v>       0.10526316      -0.15789474       0.08333333 </v>
   <v>       0.15789474      -0.15789474       0.08333333 </v>
   <v>       0.21052632      -0.15789474       0.08333333 </v>
   <v>       0.26315789      -0.15789474       0.08333333 </v>
   <v>       0.31578947      -0.15789474       0.08333333 </v>
   <v>       0.36842105      -0.15789474       0.08333333 </v>
   <v>       0.42105263      -0.15789474       0.08333333 </v>
   <v>       0.47368421      -0.15789474       0.08333333 </v>
   <v>       0.00000000      -0.10526316       0.08333333 </v>
   <v>       0.05263158      -0.10526316       0.08333333 </v>
   <v>       0.10526316      -0.10526316       0.08333333 </v>
   <v>       0.15789474      -0.10526316       0.08333333 </v>
   <v>       0.21052632      -0.10526316       0.08333333 </v>
   <v>       0.26315789      -0.10526316       0.08333333 </v>
   <v>       0.31578947      -0.10526316       0.08333333 </v>
   <v>       0.36842105      -0.10526316       0.08333333 </v>
   <v>       0.42105263      -0.10526316       0.08333333 </v>
   <v>       0.47368421      -0.10526316       0.08333333 </v>
   <v>       0.00000000      -0.05263158       0.08333333 </v>
   <v>       0.05263158      -0.05263158       0.08333333 </v>
   <v>       0.10526316      -0.05263158       0.08333333 </v>
   <v>       0.15789474      -0.05263158       0.08333333 </v>
   <v>       0.21052632      -0.05263158       0.08333333 </v>
   <v>       0.26315789      -0.05263158       0.08333333 </v>
   <v>       0.31578947      -0.05263158       0.08333333 </v>
   <v>       0.36842105      -0.05263158       0.08333333 </v>
   <v>       0.42105263      -0.05263158       0.08333333 </v>
   <v>       0.47368421      -0.05263158       0.08333333 </v>
   <v>       0.00000000       0.00000000       0.16666667 </v>
   <v>       0.05263158       0.00000000       0.16666667 </v>
   <v>       0.10526316       0.00000000       0.16666667 </v>
   <v>       0.15789474       0.00000000       0.16666667 </v>
   <v>       0.21052632       0.00000000       0.16666667 </v>
   <v>       0.26315789       0.00000000       0.16666667 </v>
   <v>       0.31578947       0.00000000       0.16666667 </v>
   <v>       0.36842105       0.00000000       0.16666667 </v>
   <v>       0.42105263       0.00000000       0.16666667 </v>
   <v>       0.47368421       0.00000000       0.16666667 </v>
   <v>       0.00000000       0.05263158       0.16666667 </v>
   <v>       0.05263158       0.05263158       0.16666667 </v>
   <v>       0.10526316       0.05263158       0.16666667 </v>
   <v>       0.15789474       0.05263158       0.16666667 </v>
   <v>       0.21052632       0.05263158       0.16666667 </v>
   <v>       0.26315789       0.05263158       0.16666667 </v>
   <v>       0.31578947       0.05263158       0.16666667 </v>
   <v>       0.36842105       0.05263158       0.16666667 </v>
   <v>       0.42105263       0.05263158       0.16666667 </v>
   <v>       0.47368421       0.05263158       0.16666667 </v>
   <v>       0.00000000       0.10526316       0.16666667 </v>
   <v>       0.05263158       0.10526316       0.16666667 </v>
   <v>       0.10526316       0.10526316       0.16666667 </v>
   <v>       0.15789474       0.10526316       0.16666667 </v>
   <v>       0.21052632       0.10526316       0.16666667 </v>
   <v>       0.26315789       0.10526316       0.16666667 </v>
   <v>       0.31578947       0.10526316       0.16666667 </v>
   <v>       0.36842105       0.10526316       0.16666667 </v>
   <v>       0.42105263       0.10526316       0.16666667 </v>
   <v>       0.47368421       0.10526316       0.16666667 </v>
   <v>       0.00000000       0.15789474       0.16666667 </v>
   <v>       0.05263158       0.15789474       0.16666667 </v>
   <v>       0.10526316       0.15789474       0.16666667 </v>
   <v>       0.15789474       0.15789474       0.16666667 </v>
   <v>       0.21052632       0.15789474       0.16666667 </v>
   <v>       0.26315789       0.15789474       0.16666667 </v>
   <v>       0.31578947       0.15789474       0.16666667 </v>
   <v>       0.36842105       0.15789474       0.16666667 </v>
   <v>       0.42105263       0.15789474       0.16666667 </v>
   <v>       0.47368421       0.15789474       0.16666667 </v>
   <v>       0.00000000       0.21052632       0.16666667 </v>
   <v>       0.05263158       0.21052632       0.16666667 </v>
   <v>       0.10526316       0.21052632       0.16666667 </v>
   <v>       0.15789474       0.21052632       0.16666667 </v>
   <v>       0.21052632       0.21052632       0.16666667 </v>
   <v>       0.26315789       0.21052632       0.16666667 </v>
   <v>       0.31578947       0.21052632       0.16666667 </v>
   <v>       0.36842105       0.21052632       0.16666667 </v>
   <v>       0.42105263       0.21052632       0.16666667 </v>
   <v>       0.47368421       0.21052632       0.16666667 </v>
   <v>       0.00000000       0.26315789       0.16666667 </v>
   <v>       0.05263158       0.26315789       0.16666667 </v>
   <v>       0.10526316       0.26315789       0.16666667 </v>
   <v>       0.15789474       0.26315789       0.16666667 </v>
   <v>       0.21052632       0.26315789       0.16666667 </v>
   <v>       0.26315789       0.26315789       0.16666667 </v>
   <v>       0.31578947       0.26315789       0.16666667 </v>
   <v>       0.36842105       0.26315789       0.16666667 </v>
   <v>       0.42105263       0.26315789       0.16666667 </v>
   <v>       0.47368421       0.26315789       0.16666667 </v>
   <v>       0.00000000       0.31578947       0.16666667 </v>
   <v>       0.05263158       0.31578947       0.16666667 </v>
   <v>       0.10526316       0.31578947       0.16666667 </v>
   <v>       0.15789474       0.31578947       0.16666667 </v>
   <v>       0.21052632       0.31578947       0.16666667 </v>
   <v>       0.26315789       0.31578947       0.16666667 </v>
   <v>       0.31578947       0.31578947       0.16666667 </v>
   <v>       0.36842105       0.31578947       0.16666667 </v>
   <v>       0.42105263       0.31578947       0.16666667 </v>
   <v>       0.47368421       0.31578947       0.16666667 </v>
   <v>       0.00000000       0.36842105       0.16666667 </v>
   <v>       0.05263158       0.36842105       0.16666667 </v>
   <v>       0.10526316       0.36842105       0.16666667 </v>
   <v>       0.15789474       0.36842105       0.16666667 </v>
   <v>       0.21052632       0.36842105       0.16666667 </v>
   <v>       0.26315789       0.36842105       0.16666667 </v>
   <v>       0.31578947       0.36842105       0.16666667 </v>
   <v>       0.36842105       0.36842105       0.16666667 </v>
   <v>       0.42105263       0.36842105       0.16666667 </v>
   <v>       0.47368421       0.36842105       0.16666667 </v>
   <v>       0.00000000       0.42105263       0.16666667 </v>
   <v>       0.05263158       0.42105263       0.16666667 </v>
   <v>       0.10526316       0.42105263       0.16666667 </v>
   <v>       0.15789474       0.42105263       0.16666667 </v>
   <v>       0.21052632       0.42105263       0.16666667 </v>
   <v>       0.26315789       0.42105263       0.16666667 </v>
   <v>       0.31578947       0.42105263       0.16666667 </v>
   <v>       0.36842105       0.42105263       0.16666667 </v>
   <v>       0.42105263       0.42105263       0.16666667 </v>
   <v>       0.47368421       0.42105263       0.16666667 </v>
   <v>       0.00000000       0.47368421       0.16666667 </v>
   <v>       0.05263158       0.47368421       0.16666667 </v>
   <v>       0.10526316       0.47368421       0.16666667 </v>
   <v>       0.15789474       0.47368421       0.16666667 </v>
   <v>       0.21052632       0.47368421       0.16666667 </v>
   <v>       0.26315789       0.47368421       0.16666667 </v>
   <v>       0.31578947       0.47368421       0.16666667 </v>
   <v>       0.36842105       0.47368421       0.16666667 </v>
   <v>       0.42105263       0.47368421       0.16666667 </v>
   <v>       0.47368421       0.47368421       0.16666667 </v>
   <v>       0.00000000      -0.47368421       0.16666667 </v>
   <v>       0.05263158      -0.47368421       0.16666667 </v>
   <v>       0.10526316      -0.47368421       0.16666667 </v>
   <v>       0.15789474      -0.47368421       0.16666667 </v>
   <v>       0.21052632      -0.47368421       0.16666667 </v>
   <v>       0.26315789      -0.47368421       0.16666667 </v>
   <v>       0.31578947      -0.47368421       0.16666667 </v>
   <v>       0.36842105      -0.47368421       0.16666667 </v>
   <v>       0.42105263      -0.47368421       0.16666667 </v>
   <v>       0.47368421      -0.47368421       0.16666667 </v>
   <v>       0.00000000      -0.42105263       0.16666667 </v>
   <v>       0.05263158      -0.42105263       0.16666667 </v>
   <v>       0.10526316      -0.42105263       0.16666667 </v>
   <v>       0.15789474      -0.42105263       0.16666667 </v>
   <v>       0.21052632      -0.42105263       0.16666667 </v>
   <v>       0.26315789      -0.42105263       0.16666667 </v>
   <v>       0.31578947      -0.42105263       0.16666667 </v>
   <v>       0.36842105      -0.42105263       0.16666667 </v>
   <v>       0.42105263      -0.42105263       0.16666667 </v>
   <v>       0.47368421      -0.42105263       0.16666667 </v>
   <v>       0.00000000      -0.36842105       0.16666667 </v>
   <v>       0.05263158      -0.36842105       0.16666667 </v>
   <v>       0.10526316      -0.36842105       0.16666667 </v>
   <v>       0.15789474      -0.36842105       0.16666667 </v>
   <v>       0.21052632      -0.36842105       0.16666667 </v>
   <v>       0.26315789      -0.36842105       0.16666667 </v>
   <v>       0.31578947      -0.36842105       0.16666667 </v>
   <v>       0.36842105      -0.36842105       0.16666667 </v>
   <v>       0.42105263      -0.36842105       0.16666667 </v>
   <v>       0.47368421      -0.36842105       0.16666667 </v>
   <v>       0.00000000      -0.31578947       0.16666667 </v>
   <v>       0.05263158      -0.31578947       0.16666667 </v>
   <v>       0.10526316      -0.31578947       0.16666667 </v>
   <v>       0.15789474      -0.31578947       0.16666667 </v>
   <v>       0.21052632      -0.31578947       0.16666667 </v>
   <v>       0.26315789      -0.31578947       0.16666667 </v>
   <v>       0.31578947      -0.31578947       0.16666667 </v>
   <v>       0.36842105      -0.31578947       0.16666667 </v>
   <v>       0.42105263      -0.31578947       0.16666667 </v>
   <v>       0.47368421      -0.31578947       0.16666667 </v>
   <v>       0.00000000      -0.26315789       0.16666667 </v>
   <v>       0.05263158      -0.26315789       0.16666667 </v>
   <v>       0.10526316      -0.26315789       0.16666667 </v>
   <v>       0.15789474      -0.26315789       0.16666667 </v>
   <v>       0.21052632      -0.26315789       0.16666667 </v>
   <v>       0.26315789      -0.26315789       0.16666667 </v>
   <v>       0.31578947      -0.26315789       0.16666667 </v>
   <v>       0.36842105      -0.26315789       0.16666667 </v>
   <v>       0.42105263      -0.26315789       0.16666667 </v>
   <v>       0.47368421      -0.26315789       0.16666667 </v>
   <v>       0.00000000      -0.21052632       0.16666667 </v>
   <v>       0.05263158      -0.21052632       0.16666667 </v>
   <v>       0.10526316      -0.21052632       0.16666667 </v>
   <v>       0.15789474      -0.21052632       0.16666667 </v>
   <v>       0.21052632      -0.21052632       0.16666667 </v>
   <v>       0.26315789      -0.21052632       0.16666667 </v>
   <v>       0.31578947      -0.21052632       0.16666667 </v>
   <v>       0.36842105      -0.21052632       0.16666667 </v>
   <v>       0.42105263      -0.21052632       0.16666667 </v>
   <v>       0.47368421      -0.21052632       0.16666667 </v>
   <v>       0.00000000      -0.15789474       0.16666667 </v>
   <v>       0.05263158      -0.15789474       0.16666667 </v>
   <v>       0.10526316      -0.15789474       0.16666667 </v>
   <v>       0.15789474      -0.15789474       0.16666667 </v>
   <v>       0.21052632      -0.15789474       0.16666667 </v>
   <v>       0.26315789      -0.15789474       0.16666667 </v>
   <v>       0.31578947      -0.15789474       0.16666667 </v>
   <v>       0.36842105      -0.15789474       0.16666667 </v>
   <v>       0.42105263      -0.15789474       0.16666667 </v>
   <v>       0.47368421      -0.15789474       0.16666667 </v>
   <v>       0.00000000      -0.10526316       0.16666667 </v>
   <v>       0.05263158      -0.10526316       0.16666667 </v>
   <v>       0.10526316      -0.10526316       0.16666667 </v>
   <v>       0.15789474      -0.10526316       0.16666667 </v>
   <v>       0.21052632      -0.10526316       0.16666667 </v>
   <v>       0.26315789      -0.10526316       0.16666667 </v>
   <v>       0.31578947      -0.10526316       0.16666667 </v>
   <v>       0.36842105      -0.10526316       0.16666667 </v>
   <v>       0.42105263      -0.10526316       0.16666667 </v>
   <v>       0.47368421      -0.10526316       0.16666667 </v>
   <v>       0.00000000      -0.05263158       0.16666667 </v>
   <v>       0.05263158      -0.05263158       0.16666667 </v>
   <v>       0.10526316      -0.05263158       0.16666667 </v>
   <v>       0.15789474      -0.05263158       0.16666667 </v>
   <v>       0.21052632      -0.05263158       0.16666667 </v>
   <v>       0.26315789      -0.05263158       0.16666667 </v>
   <v>       0.31578947      -0.05263158       0.16666667 </v>
   <v>       0.36842105      -0.05263158       0.16666667 </v>
   <v>       0.42105263      -0.05263158       0.16666667 </v>
   <v>       0.47368421      -0.05263158       0.16666667 </v>
   <v>       0.00000000       0.00000000       0.25000000 </v>
   <v>       0.05263158       0.00000000       0.25000000 </v>
   <v>       0.10526316       0.00000000       0.25000000 </v>
   <v>       0.15789474       0.00000000       0.25000000 </v>
   <v>       0.21052632       0.00000000       0.25000000 </v>
   <v>       0.26315789       0.00000000       0.25000000 </v>
   <v>       0.31578947       0.00000000       0.25000000 </v>
   <v>       0.36842105       0.00000000       0.25000000 </v>
   <v>       0.42105263       0.00000000       0.25000000 </v>
   <v>       0.47368421       0.00000000       0.25000000 </v>
   <v>       0.00000000       0.05263158       0.25000000 </v>
   <v>       0.05263158       0.05263158       0.25000000 </v>
   <v>       0.10526316       0.05263158       0.25000000 </v>
   <v>       0.15789474       0.05263158       0.25000000 </v>
   <v>       0.21052632       0.05263158       0.25000000 </v>
   <v>       0.26315789       0.05263158       0.25000000 </v>
   <v>       0.31578947       0.05263158       0.25000000 </v>
   <v>       0.36842105       0.05263158       0.25000000 </v>
   <v>       0.42105263       0.05263158       0.25000000 </v>
   <v>       0.47368421       0.05263158       0.25000000 </v>
   <v>       0.00000000       0.10526316       0.25000000 </v>
   <v>       0.05263158       0.10526316       0.25000000 </v>
   <v>       0.10526316       0.10526316       0.25000000 </v>
   <v>       0.15789474       0.10526316       0.25000000 </v>
   <v>       0.21052632       0.10526316       0.25000000 </v>
   <v>       0.26315789       0.10526316       0.25000000 </v>
   <v>       0.31578947       0.10526316       0.25000000 </v>
   <v>       0.36842105       0.10526316       0.25000000 </v>
   <v>       0.42105263       0.10526316       0.25000000 </v>
   <v>       0.47368421       0.10526316       0.25000000 </v>
   <v>       0.00000000       0.15789474       0.25000000 </v>
   <v>       0.05263158       0.15789474       0.25000000 </v>
   <v>       0.10526316       0.15789474       0.25000000 </v>
   <v>       0.15789474       0.15789474       0.25000000 </v>
   <v>       0.21052632       0.15789474       0.25000000 </v>
   <v>       0.26315789       0.15789474       0.25000000 </v>
   <v>       0.31578947       0.15789474       0.25000000 </v>
   <v>       0.36842105       0.15789474       0.25000000 </v>
   <v>       0.42105263       0.15789474       0.25000000 </v>
   <v>       0.47368421       0.15789474       0.25000000 </v>
   <v>       0.00000000       0.21052632       0.25000000 </v>
   <v>       0.05263158       0.21052632       0.25000000 </v>
   <v>       0.10526316       0.21052632       0.25000000 </v>
   <v>       0.15789474       0.21052632       0.25000000 </v>
   <v>       0.21052632       0.21052632       0.25000000 </v>
   <v>       0.26315789       0.21052632       0.25000000 </v>
   <v>       0.31578947       0.21052632       0.25000000 </v>
   <v>       0.36842105       0.21052632       0.25000000 </v>
   <v>       0.42105263       0.21052632       0.25000000 </v>
   <v>       0.47368421       0.21052632       0.25000000 </v>
   <v>       0.00000000       0.26315789       0.25000000 </v>
   <v>       0.05263158       0.26315789       0.25000000 </v>
   <v>       0.10526316       0.26315789       0.25000000 </v>
   <v>       0.15789474       0.26315789       0.25000000 </v>
   <v>       0.21052632       0.26315789       0.25000000 </v>
   <v>       0.26315789       0.26315789       0.25000000 </v>
   <v>       0.31578947       0.26315789       0.25000000 </v>
   <v>       0.36842105       0.26315789       0.25000000 </v>
   <v>       0.42105263       0.26315789       0.25000000 </v>
   <v>       0.47368421       0.26315789       0.25000000 </v>
   <v>       0.00000000       0.31578947       0.25000000 </v>
   <v>       0.05263158       0.31578947       0.25000000 </v>
   <v>       0.10526316       0.31578947       0.25000000 </v>
   <v>       0.15789474       0.31578947       0.25000000 </v>
   <v>       0.21052632       0.31578947       0.25000000 </v>
   <v>       0.26315789       0.31578947       0.25000000 </v>
   <v>       0.31578947       0.31578947       0.25000000 </v>
   <v>       0.36842105       0.31578947       0.25000000 </v>
   <v>       0.42105263       0.31578947       0.25000000 </v>
   <v>       0.47368421       0.31578947       0.25000000 </v>
   <v>       0.00000000       0.36842105       0.25000000 </v>
   <v>       0.05263158       0.36842105       0.25000000 </v>
   <v>       0.10526316       0.36842105       0.25000000 </v>
   <v>       0.15789474       0.36842105       0.25000000 </v>
   <v>       0.21052632       0.36842105       0.25000000 </v>
   <v>       0.26315789       0.36842105       0.25000000 </v>
   <v>       0.31578947       0.36842105       0.25000000 </v>
   <v>       0.36842105       0.36842105       0.25000000 </v>
   <v>       0.42105263       0.36842105       0.25000000 </v>
   <v>       0.47368421       0.36842105       0.25000000 </v>
   <v>       0.00000000       0.42105263       0.25000000 </v>
   <v>       0.05263158       0.42105263       0.25000000 </v>
   <v>       0.10526316       0.42105263       0.25000000 </v>
   <v>       0.15789474       0.42105263       0.25000000 </v>
   <v>       0.21052632       0.42105263       0.25000000 </v>
   <v>       0.26315789       0.42105263       0.25000000 </v>
   <v>       0.31578947       0.42105263       0.25000000 </v>
   <v>       0.36842105       0.42105263       0.25000000 </v>
   <v>       0.42105263       0.42105263       0.25000000 </v>
   <v>       0.47368421       0.42105263       0.25000000 </v>
   <v>       0.00000000       0.47368421       0.25000000 </v>
   <v>       0.05263158       0.47368421       0.25000000 </v>
   <v>       0.10526316       0.47368421       0.25000000 </v>
   <v>       0.15789474       0.47368421       0.25000000 </v>
   <v>       0.21052632       0.47368421       0.25000000 </v>
   <v>       0.26315789       0.47368421       0.25000000 </v>
   <v>       0.31578947       0.47368421       0.25000000 </v>
   <v>       0.36842105       0.47368421       0.25000000 </v>
   <v>       0.42105263       0.47368421       0.25000000 </v>
   <v>       0.47368421       0.47368421       0.25000000 </v>
   <v>       0.00000000      -0.47368421       0.25000000 </v>
   <v>       0.05263158      -0.47368421       0.25000000 </v>
   <v>       0.10526316      -0.47368421       0.25000000 </v>
   <v>       0.15789474      -0.47368421       0.25000000 </v>
   <v>       0.21052632      -0.47368421       0.25000000 </v>
   <v>       0.26315789      -0.47368421       0.25000000 </v>
   <v>       0.31578947      -0.47368421       0.25000000 </v>
   <v>       0.36842105      -0.47368421       0.25000000 </v>
   <v>       0.42105263      -0.47368421       0.25000000 </v>
   <v>       0.47368421      -0.47368421       0.25000000 </v>
   <v>       0.00000000      -0.42105263       0.25000000 </v>
   <v>       0.05263158      -0.42105263       0.25000000 </v>
   <v>       0.10526316      -0.42105263       0.25000000 </v>
   <v>       0.15789474      -0.42105263       0.25000000 </v>
   <v>       0.21052632      -0.42105263       0.25000000 </v>
   <v>       0.26315789      -0.42105263       0.25000000 </v>
   <v>       0.31578947      -0.42105263       0.25000000 </v>
   <v>       0.36842105      -0.42105263       0.25000000 </v>
   <v>       0.42105263      -0.42105263       0.25000000 </v>
   <v>       0.47368421      -0.42105263       0.25000000 </v>
   <v>       0.00000000      -0.36842105       0.25000000 </v>
   <v>       0.05263158      -0.36842105       0.25000000 </v>
   <v>       0.10526316      -0.36842105       0.25000000 </v>
   <v>       0.15789474      -0.36842105       0.25000000 </v>
   <v>       0.21052632      -0.36842105       0.25000000 </v>
   <v>       0.26315789      -0.36842105       0.25000000 </v>
   <v>       0.31578947      -0.36842105       0.25000000 </v>
   <v>       0.36842105      -0.36842105       0.25000000 </v>
   <v>       0.42105263      -0.36842105       0.25000000 </v>
   <v>       0.47368421      -0.36842105       0.25000000 </v>
   <v>       0.00000000      -0.31578947       0.25000000 </v>
   <v>       0.05263158      -0.31578947       0.25000000 </v>
   <v>       0.10526316      -0.31578947       0.25000000 </v>
   <v>       0.15789474      -0.31578947       0.25000000 </v>
   <v>       0.21052632      -0.31578947       0.25000000 </v>
   <v>       0.26315789      -0.31578947       0.25000000 </v>
   <v>       0.31578947      -0.31578947       0.25000000 </v>
   <v>       0.36842105      -0.31578947       0.25000000 </v>
   <v>       0.42105263      -0.31578947       0.25000000 </v>
   <v>       0.47368421      -0.31578947       0.25000000 </v>
   <v>       0.00000000      -0.26315789       0.25000000 </v>
   <v>       0.05263158      -0.26315789       0.25000000 </v>
   <v>       0.10526316      -0.26315789       0.25000000 </v>
   <v>       0.15789474      -0.26315789       0.25000000 </v>
   <v>       0.21052632      -0.26315789       0.25000000 </v>
   <v>       0.26315789      -0.26315789       0.25000000 </v>
   <v>       0.31578947      -0.26315789       0.25000000 </v>
   <v>       0.36842105      -0.26315789       0.25000000 </v>
   <v>       0.42105263      -0.26315789       0.25000000 </v>
   <v>       0.47368421      -0.26315789       0.25000000 </v>
   <v>       0.00000000      -0.21052632       0.25000000 </v>
   <v>       0.05263158      -0.21052632       0.25000000 </v>
   <v>       0.10526316      -0.21052632       0.25000000 </v>
   <v>       0.15789474      -0.21052632       0.25000000 </v>
   <v>       0.21052632      -0.21052632       0.25000000 </v>
   <v>       0.26315789      -0.21052632       0.25000000 </v>
   <v>       0.31578947      -0.21052632       0.25000000 </v>
   <v>       0.36842105      -0.21052632       0.25000000 </v>
   <v>       0.42105263      -0.21052632       0.25000000 </v>
   <v>       0.47368421      -0.21052632       0.25000000 </v>
   <v>       0.00000000      -0.15789474       0.25000000 </v>
   <v>       0.05263158      -0.15789474       0.25000000 </v>
   <v>       0.10526316      -0.15789474       0.25000000 </v>
   <v>       0.15789474      -0.15789474       0.25000000 </v>
   <v>       0.21052632      -0.15789474       0.25000000 </v>
   <v>       0.26315789      -0.15789474       0.25000000 </v>
   <v>       0.31578947      -0.15789474       0.25000000 </v>
   <v>       0.36842105      -0.15789474       0.25000000 </v>
   <v>       0.42105263      -0.15789474       0.25000000 </v>
   <v>       0.47368421      -0.15789474       0.25000000 </v>
   <v>       0.00000000      -0.10526316       0.25000000 </v>
   <v>       0.05263158      -0.10526316       0.25000000 </v>
   <v>       0.10526316      -0.10526316       0.25000000 </v>
   <v>       0.15789474      -0.10526316       0.25000000 </v>
   <v>       0.21052632      -0.10526316       0.25000000 </v>
   <v>       0.26315789      -0.10526316       0.25000000 </v>
   <v>       0.31578947      -0.10526316       0.25000000 </v>
   <v>       0.36842105      -0.10526316       0.25000000 </v>
   <v>       0.42105263      -0.10526316       0.25000000 </v>
   <v>       0.47368421      -0.10526316       0.25000000 </v>
   <v>       0.00000000      -0.05263158       0.25000000 </v>
   <v>       0.05263158      -0.05263158       0.25000000 </v>
   <v>       0.10526316      -0.05263158       0.25000000 </v>
   <v>       0.15789474      -0.05263158       0.25000000 </v>
   <v>       0.21052632      -0.05263158       0.25000000 </v>
   <v>       0.26315789      -0.05263158       0.25000000 </v>
   <v>       0.31578947      -0.05263158       0.25000000 </v>
   <v>       0.36842105      -0.05263158       0.25000000 </v>
   <v>       0.42105263      -0.05263158       0.25000000 </v>
   <v>       0.47368421      -0.05263158       0.25000000 </v>
   <v>       0.00000000       0.00000000       0.33333333 </v>
   <v>       0.05263158       0.00000000       0.33333333 </v>
   <v>       0.10526316       0.00000000       0.33333333 </v>
   <v>       0.15789474       0.00000000       0.33333333 </v>
   <v>       0.21052632       0.00000000       0.33333333 </v>
   <v>       0.26315789       0.00000000       0.33333333 </v>
   <v>       0.31578947       0.00000000       0.33333333 </v>
   <v>       0.36842105       0.00000000       0.33333333 </v>
   <v>       0.42105263       0.00000000       0.33333333 </v>
   <v>       0.47368421       0.00000000       0.33333333 </v>
   <v>       0.00000000       0.05263158       0.33333333 </v>
   <v>       0.05263158       0.05263158       0.33333333 </v>
   <v>       0.10526316       0.05263158       0.33333333 </v>
   <v>       0.15789474       0.05263158       0.33333333 </v>
   <v>       0.21052632       0.05263158       0.33333333 </v>
   <v>       0.26315789       0.05263158       0.33333333 </v>
   <v>       0.31578947       0.05263158       0.33333333 </v>
   <v>       0.36842105       0.05263158       0.33333333 </v>
   <v>       0.42105263       0.05263158       0.33333333 </v>
   <v>       0.47368421       0.05263158       0.33333333 </v>
   <v>       0.00000000       0.10526316       0.33333333 </v>
   <v>       0.05263158       0.10526316       0.33333333 </v>
   <v>       0.10526316       0.10526316       0.33333333 </v>
   <v>       0.15789474       0.10526316       0.33333333 </v>
   <v>       0.21052632       0.10526316       0.33333333 </v>
   <v>       0.26315789       0.10526316       0.33333333 </v>
   <v>       0.31578947       0.10526316       0.33333333 </v>
   <v>       0.36842105       0.10526316       0.33333333 </v>
   <v>       0.42105263       0.10526316       0.33333333 </v>
   <v>       0.47368421       0.10526316       0.33333333 </v>
   <v>       0.00000000       0.15789474       0.33333333 </v>
   <v>       0.05263158       0.15789474       0.33333333 </v>
   <v>       0.10526316       0.15789474       0.33333333 </v>
   <v>       0.15789474       0.15789474       0.33333333 </v>
   <v>       0.21052632       0.15789474       0.33333333 </v>
   <v>       0.26315789       0.15789474       0.33333333 </v>
   <v>       0.31578947       0.15789474       0.33333333 </v>
   <v>       0.36842105       0.15789474       0.33333333 </v>
   <v>       0.42105263       0.15789474       0.33333333 </v>
   <v>       0.47368421       0.15789474       0.33333333 </v>
   <v>       0.00000000       0.21052632       0.33333333 </v>
   <v>       0.05263158       0.21052632       0.33333333 </v>
   <v>       0.10526316       0.21052632       0.33333333 </v>
   <v>       0.15789474       0.21052632       0.33333333 </v>
   <v>       0.21052632       0.21052632       0.33333333 </v>
   <v>       0.26315789       0.21052632       0.33333333 </v>
   <v>       0.31578947       0.21052632       0.33333333 </v>
   <v>       0.36842105       0.21052632       0.33333333 </v>
   <v>       0.42105263       0.21052632       0.33333333 </v>
   <v>       0.47368421       0.21052632       0.33333333 </v>
   <v>       0.00000000       0.26315789       0.33333333 </v>
   <v>       0.05263158       0.26315789       0.33333333 </v>
   <v>       0.10526316       0.26315789       0.33333333 </v>
   <v>       0.15789474       0.26315789       0.33333333 </v>
   <v>       0.21052632       0.26315789       0.33333333 </v>
   <v>       0.26315789       0.26315789       0.33333333 </v>
   <v>       0.31578947       0.26315789       0.33333333 </v>
   <v>       0.36842105       0.26315789       0.33333333 </v>
   <v>       0.42105263       0.26315789       0.33333333 </v>
   <v>       0.47368421       0.26315789       0.33333333 </v>
   <v>       0.00000000       0.31578947       0.33333333 </v>
   <v>       0.05263158       0.31578947       0.33333333 </v>
   <v>       0.10526316       0.31578947       0.33333333 </v>
   <v>       0.15789474       0.31578947       0.33333333 </v>
   <v>       0.21052632       0.31578947       0.33333333 </v>
   <v>       0.26315789       0.31578947       0.33333333 </v>
   <v>       0.31578947       0.31578947       0.33333333 </v>
   <v>       0.36842105       0.31578947       0.33333333 </v>
   <v>       0.42105263       0.31578947       0.33333333 </v>
   <v>       0.47368421       0.31578947       0.33333333 </v>
   <v>       0.00000000       0.36842105       0.33333333 </v>
   <v>       0.05263158       0.36842105       0.33333333 </v>
   <v>       0.10526316       0.36842105       0.33333333 </v>
   <v>       0.15789474       0.36842105       0.33333333 </v>
   <v>       0.21052632       0.36842105       0.33333333 </v>
   <v>       0.26315789       0.36842105       0.33333333 </v>
   <v>       0.31578947       0.36842105       0.33333333 </v>
   <v>       0.36842105       0.36842105       0.33333333 </v>
   <v>       0.42105263       0.36842105       0.33333333 </v>
   <v>       0.47368421       0.36842105       0.33333333 </v>
   <v>       0.00000000       0.42105263       0.33333333 </v>
   <v>       0.05263158       0.42105263       0.33333333 </v>
   <v>       0.10526316       0.42105263       0.33333333 </v>
   <v>       0.15789474       0.42105263       0.33333333 </v>
   <v>       0.21052632       0.42105263       0.33333333 </v>
   <v>       0.26315789       0.42105263       0.33333333 </v>
   <v>       0.31578947       0.42105263       0.33333333 </v>
   <v>       0.36842105       0.42105263       0.33333333 </v>
   <v>       0.42105263       0.42105263       0.33333333 </v>
   <v>       0.47368421       0.42105263       0.33333333 </v>
   <v>       0.00000000       0.47368421       0.33333333 </v>
   <v>       0.05263158       0.47368421       0.33333333 </v>
   <v>       0.10526316       0.47368421       0.33333333 </v>
   <v>       0.15789474       0.47368421       0.33333333 </v>
   <v>       0.21052632       0.47368421       0.33333333 </v>
   <v>       0.26315789       0.47368421       0.33333333 </v>
   <v>       0.31578947       0.47368421       0.33333333 </v>
   <v>       0.36842105       0.47368421       0.33333333 </v>
   <v>       0.42105263       0.47368421       0.33333333 </v>
   <v>       0.47368421       0.47368421       0.33333333 </v>
   <v>       0.00000000      -0.47368421       0.33333333 </v>
   <v>       0.05263158      -0.47368421       0.33333333 </v>
   <v>       0.10526316      -0.47368421       0.33333333 </v>
   <v>       0.15789474      -0.47368421       0.33333333 </v>
   <v>       0.21052632      -0.47368421       0.33333333 </v>
   <v>       0.26315789      -0.47368421       0.33333333 </v>
   <v>       0.31578947      -0.47368421       0.33333333 </v>
   <v>       0.36842105      -0.47368421       0.33333333 </v>
   <v>       0.42105263      -0.47368421       0.33333333 </v>
   <v>       0.47368421      -0.47368421       0.33333333 </v>
   <v>       0.00000000      -0.42105263       0.33333333 </v>
   <v>       0.05263158      -0.42105263       0.33333333 </v>
   <v>       0.10526316      -0.42105263       0.33333333 </v>
   <v>       0.15789474      -0.42105263       0.33333333 </v>
   <v>       0.21052632      -0.42105263       0.33333333 </v>
   <v>       0.26315789      -0.42105263       0.33333333 </v>
   <v>       0.31578947      -0.42105263       0.33333333 </v>
   <v>       0.36842105      -0.42105263       0.33333333 </v>
   <v>       0.42105263      -0.42105263       0.33333333 </v>
   <v>       0.47368421      -0.42105263       0.33333333 </v>
   <v>       0.00000000      -0.36842105       0.33333333 </v>
   <v>       0.05263158      -0.36842105       0.33333333 </v>
   <v>       0.10526316      -0.36842105       0.33333333 </v>
   <v>       0.15789474      -0.36842105       0.33333333 </v>
   <v>       0.21052632      -0.36842105       0.33333333 </v>
   <v>       0.26315789      -0.36842105       0.33333333 </v>
   <v>       0.31578947      -0.36842105       0.33333333 </v>
   <v>       0.36842105      -0.36842105       0.33333333 </v>
   <v>       0.42105263      -0.36842105       0.33333333 </v>
   <v>       0.47368421      -0.36842105       0.33333333 </v>
   <v>       0.00000000      -0.31578947       0.33333333 </v>
   <v>       0.05263158      -0.31578947       0.33333333 </v>
   <v>       0.10526316      -0.31578947       0.33333333 </v>
   <v>       0.15789474      -0.31578947       0.33333333 </v>
   <v>       0.21052632      -0.31578947       0.33333333 </v>
   <v>       0.26315789      -0.31578947       0.33333333 </v>
   <v>       0.31578947      -0.31578947       0.33333333 </v>
   <v>       0.36842105      -0.31578947       0.33333333 </v>
   <v>       0.42105263      -0.31578947       0.33333333 </v>
   <v>       0.47368421      -0.31578947       0.33333333 </v>
   <v>       0.00000000      -0.26315789       0.33333333 </v>
   <v>       0.05263158      -0.26315789       0.33333333 </v>
   <v>       0.10526316      -0.26315789       0.33333333 </v>
   <v>       0.15789474      -0.26315789       0.33333333 </v>
   <v>       0.21052632      -0.26315789       0.33333333 </v>
   <v>       0.26315789      -0.26315789       0.33333333 </v>
   <v>       0.31578947      -0.26315789       0.33333333 </v>
   <v>       0.36842105      -0.26315789       0.33333333 </v>
   <v>       0.42105263      -0.26315789       0.33333333 </v>
   <v>       0.47368421      -0.26315789       0.33333333 </v>
   <v>       0.00000000      -0.21052632       0.33333333 </v>
   <v>       0.05263158      -0.21052632       0.33333333 </v>
   <v>       0.10526316      -0.21052632       0.33333333 </v>
   <v>       0.15789474      -0.21052632       0.33333333 </v>
   <v>       0.21052632      -0.21052632       0.33333333 </v>
   <v>       0.26315789      -0.21052632       0.33333333 </v>
   <v>       0.31578947      -0.21052632       0.33333333 </v>
   <v>       0.36842105      -0.21052632       0.33333333 </v>
   <v>       0.42105263      -0.21052632       0.33333333 </v>
   <v>       0.47368421      -0.21052632       0.33333333 </v>
   <v>       0.00000000      -0.15789474       0.33333333 </v>
   <v>       0.05263158      -0.15789474       0.33333333 </v>
   <v>       0.10526316      -0.15789474       0.33333333 </v>
   <v>       0.15789474      -0.15789474       0.33333333 </v>
   <v>       0.21052632      -0.15789474       0.33333333 </v>
   <v>       0.26315789      -0.15789474       0.33333333 </v>
   <v>       0.31578947      -0.15789474       0.33333333 </v>
   <v>       0.36842105      -0.15789474       0.33333333 </v>
   <v>       0.42105263      -0.15789474       0.33333333 </v>
   <v>       0.47368421      -0.15789474       0.33333333 </v>
   <v>       0.00000000      -0.10526316       0.33333333 </v>
   <v>       0.05263158      -0.10526316       0.33333333 </v>
   <v>       0.10526316      -0.10526316       0.33333333 </v>
   <v>       0.15789474      -0.10526316       0.33333333 </v>
   <v>       0.21052632      -0.10526316       0.33333333 </v>
   <v>       0.26315789      -0.10526316       0.33333333 </v>
   <v>       0.31578947      -0.10526316       0.33333333 </v>
   <v>       0.36842105      -0.10526316       0.33333333 </v>
   <v>       0.42105263      -0.10526316       0.33333333 </v>
   <v>       0.47368421      -0.10526316       0.33333333 </v>
   <v>       0.00000000      -0.05263158       0.33333333 </v>
   <v>       0.05263158      -0.05263158       0.33333333 </v>
   <v>       0.10526316      -0.05263158       0.33333333 </v>
   <v>       0.15789474      -0.05263158       0.33333333 </v>
   <v>       0.21052632      -0.05263158       0.33333333 </v>
   <v>       0.26315789      -0.05263158       0.33333333 </v>
   <v>       0.31578947      -0.05263158       0.33333333 </v>
   <v>       0.36842105      -0.05263158       0.33333333 </v>
   <v>       0.42105263      -0.05263158       0.33333333 </v>
   <v>       0.47368421      -0.05263158       0.33333333 </v>
   <v>       0.00000000       0.00000000       0.41666667 </v>
   <v>       0.05263158       0.00000000       0.41666667 </v>
   <v>       0.10526316       0.00000000       0.41666667 </v>
   <v>       0.15789474       0.00000000       0.41666667 </v>
   <v>       0.21052632       0.00000000       0.41666667 </v>
   <v>       0.26315789       0.00000000       0.41666667 </v>
   <v>       0.31578947       0.00000000       0.41666667 </v>
   <v>       0.36842105       0.00000000       0.41666667 </v>
   <v>       0.42105263       0.00000000       0.41666667 </v>
   <v>       0.47368421       0.00000000       0.41666667 </v>
   <v>       0.00000000       0.05263158       0.41666667 </v>
   <v>       0.05263158       0.05263158       0.41666667 </v>
   <v>       0.10526316       0.05263158       0.41666667 </v>
   <v>       0.15789474       0.05263158       0.41666667 </v>
   <v>       0.21052632       0.05263158       0.41666667 </v>
   <v>       0.26315789       0.05263158       0.41666667 </v>
   <v>       0.31578947       0.05263158       0.41666667 </v>
   <v>       0.36842105       0.05263158       0.41666667 </v>
   <v>       0.42105263       0.05263158       0.41666667 </v>
   <v>       0.47368421       0.05263158       0.41666667 </v>
   <v>       0.00000000       0.10526316       0.41666667 </v>
   <v>       0.05263158       0.10526316       0.41666667 </v>
   <v>       0.10526316       0.10526316       0.41666667 </v>
   <v>       0.15789474       0.10526316       0.41666667 </v>
   <v>       0.21052632       0.10526316       0.41666667 </v>
   <v>       0.26315789       0.10526316       0.41666667 </v>
   <v>       0.31578947       0.10526316       0.41666667 </v>
   <v>       0.36842105       0.10526316       0.41666667 </v>
   <v>       0.42105263       0.10526316       0.41666667 </v>
   <v>       0.47368421       0.10526316       0.41666667 </v>
   <v>       0.00000000       0.15789474       0.41666667 </v>
   <v>       0.05263158       0.15789474       0.41666667 </v>
   <v>       0.10526316       0.15789474       0.41666667 </v>
   <v>       0.15789474       0.15789474       0.41666667 </v>
   <v>       0.21052632       0.15789474       0.41666667 </v>
   <v>       0.26315789       0.15789474       0.41666667 </v>
   <v>       0.31578947       0.15789474       0.41666667 </v>
   <v>       0.36842105       0.15789474       0.41666667 </v>
   <v>       0.42105263       0.15789474       0.41666667 </v>
   <v>       0.47368421       0.15789474       0.41666667 </v>
   <v>       0.00000000       0.21052632       0.41666667 </v>
   <v>       0.05263158       0.21052632       0.41666667 </v>
   <v>       0.10526316       0.21052632       0.41666667 </v>
   <v>       0.15789474       0.21052632       0.41666667 </v>
   <v>       0.21052632       0.21052632       0.41666667 </v>
   <v>       0.26315789       0.21052632       0.41666667 </v>
   <v>       0.31578947       0.21052632       0.41666667 </v>
   <v>       0.36842105       0.21052632       0.41666667 </v>
   <v>       0.42105263       0.21052632       0.41666667 </v>
   <v>       0.47368421       0.21052632       0.41666667 </v>
   <v>       0.00000000       0.26315789       0.41666667 </v>
   <v>       0.05263158       0.26315789       0.41666667 </v>
   <v>       0.10526316       0.26315789       0.41666667 </v>
   <v>       0.15789474       0.26315789       0.41666667 </v>
   <v>       0.21052632       0.26315789       0.41666667 </v>
   <v>       0.26315789       0.26315789       0.41666667 </v>
   <v>       0.31578947       0.26315789       0.41666667 </v>
   <v>       0.36842105       0.26315789       0.41666667 </v>
   <v>       0.42105263       0.26315789       0.41666667 </v>
   <v>       0.47368421       0.26315789       0.41666667 </v>
   <v>       0.00000000       0.31578947       0.41666667 </v>
   <v>       0.05263158       0.31578947       0.41666667 </v>
   <v>       0.10526316       0.31578947       0.41666667 </v>
   <v>       0.15789474       0.31578947       0.41666667 </v>
   <v>       0.21052632       0.31578947       0.41666667 </v>
   <v>       0.26315789       0.31578947       0.41666667 </v>
   <v>       0.31578947       0.31578947       0.41666667 </v>
   <v>       0.36842105       0.31578947       0.41666667 </v>
   <v>       0.42105263       0.31578947       0.41666667 </v>
   <v>       0.47368421       0.31578947       0.41666667 </v>
   <v>       0.00000000       0.36842105       0.41666667 </v>
   <v>       0.05263158       0.36842105       0.41666667 </v>
   <v>       0.10526316       0.36842105       0.41666667 </v>
   <v>       0.15789474       0.36842105       0.41666667 </v>
   <v>       0.21052632       0.36842105       0.41666667 </v>
   <v>       0.26315789       0.36842105       0.41666667 </v>
   <v>       0.31578947       0.36842105       0.41666667 </v>
   <v>       0.36842105       0.36842105       0.41666667 </v>
   <v>       0.42105263       0.36842105       0.41666667 </v>
   <v>       0.47368421       0.36842105       0.41666667 </v>
   <v>       0.00000000       0.42105263       0.41666667 </v>
   <v>       0.05263158       0.42105263       0.41666667 </v>
   <v>       0.10526316       0.42105263       0.41666667 </v>
   <v>       0.15789474       0.42105263       0.41666667 </v>
   <v>       0.21052632       0.42105263       0.41666667 </v>
   <v>       0.26315789       0.42105263       0.41666667 </v>
   <v>       0.31578947       0.42105263       0.41666667 </v>
   <v>       0.36842105       0.42105263       0.41666667 </v>
   <v>       0.42105263       0.42105263       0.41666667 </v>
   <v>       0.47368421       0.42105263       0.41666667 </v>
   <v>       0.00000000       0.47368421       0.41666667 </v>
   <v>       0.05263158       0.47368421       0.41666667 </v>
   <v>       0.10526316       0.47368421       0.41666667 </v>
   <v>       0.15789474       0.47368421       0.41666667 </v>
   <v>       0.21052632       0.47368421       0.41666667 </v>
   <v>       0.26315789       0.47368421       0.41666667 </v>
   <v>       0.31578947       0.47368421       0.41666667 </v>
   <v>       0.36842105       0.47368421       0.41666667 </v>
   <v>       0.42105263       0.47368421       0.41666667 </v>
   <v>       0.47368421       0.47368421       0.41666667 </v>
   <v>       0.00000000      -0.47368421       0.41666667 </v>
   <v>       0.05263158      -0.47368421       0.41666667 </v>
   <v>       0.10526316      -0.47368421       0.41666667 </v>
   <v>       0.15789474      -0.47368421       0.41666667 </v>
   <v>       0.21052632      -0.47368421       0.41666667 </v>
   <v>       0.26315789      -0.47368421       0.41666667 </v>
   <v>       0.31578947      -0.47368421       0.41666667 </v>
   <v>       0.36842105      -0.47368421       0.41666667 </v>
   <v>       0.42105263      -0.47368421       0.41666667 </v>
   <v>       0.47368421      -0.47368421       0.41666667 </v>
   <v>       0.00000000      -0.42105263       0.41666667 </v>
   <v>       0.05263158      -0.42105263       0.41666667 </v>
   <v>       0.10526316      -0.42105263       0.41666667 </v>
   <v>       0.15789474      -0.42105263       0.41666667 </v>
   <v>       0.21052632      -0.42105263       0.41666667 </v>
   <v>       0.26315789      -0.42105263       0.41666667 </v>
   <v>       0.31578947      -0.42105263       0.41666667 </v>
   <v>       0.36842105      -0.42105263       0.41666667 </v>
   <v>       0.42105263      -0.42105263       0.41666667 </v>
   <v>       0.47368421      -0.42105263       0.41666667 </v>
   <v>       0.00000000      -0.36842105       0.41666667 </v>
   <v>       0.05263158      -0.36842105       0.41666667 </v>
   <v>       0.10526316      -0.36842105       0.41666667 </v>
   <v>       0.15789474      -0.36842105       0.41666667 </v>
   <v>       0.21052632      -0.36842105       0.41666667 </v>
   <v>       0.26315789      -0.36842105       0.41666667 </v>
   <v>       0.31578947      -0.36842105       0.41666667 </v>
   <v>       0.36842105      -0.36842105       0.41666667 </v>
   <v>       0.42105263      -0.36842105       0.41666667 </v>
   <v>       0.47368421      -0.36842105       0.41666667 </v>
   <v>       0.00000000      -0.31578947       0.41666667 </v>
   <v>       0.05263158      -0.31578947       0.41666667 </v>
   <v>       0.10526316      -0.31578947       0.41666667 </v>
   <v>       0.15789474      -0.31578947       0.41666667 </v>
   <v>       0.21052632      -0.31578947       0.41666667 </v>
   <v>       0.26315789      -0.31578947       0.41666667 </v>
   <v>       0.31578947      -0.31578947       0.41666667 </v>
   <v>       0.36842105      -0.31578947       0.41666667 </v>
   <v>       0.42105263      -0.31578947       0.41666667 </v>
   <v>       0.47368421      -0.31578947       0.41666667 </v>
   <v>       0.00000000      -0.26315789       0.41666667 </v>
   <v>       0.05263158      -0.26315789       0.41666667 </v>
   <v>       0.10526316      -0.26315789       0.41666667 </v>
   <v>       0.15789474      -0.26315789       0.41666667 </v>
   <v>       0.21052632      -0.26315789       0.41666667 </v>
   <v>       0.26315789      -0.26315789       0.41666667 </v>
   <v>       0.31578947      -0.26315789       0.41666667 </v>
   <v>       0.36842105      -0.26315789       0.41666667 </v>
   <v>       0.42105263      -0.26315789       0.41666667 </v>
   <v>       0.47368421      -0.26315789       0.41666667 </v>
   <v>       0.00000000      -0.21052632       0.41666667 </v>
   <v>       0.05263158      -0.21052632       0.41666667 </v>
   <v>       0.10526316      -0.21052632       0.41666667 </v>
   <v>       0.15789474      -0.21052632       0.41666667 </v>
   <v>       0.21052632      -0.21052632       0.41666667 </v>
   <v>       0.26315789      -0.21052632       0.41666667 </v>
   <v>       0.31578947      -0.21052632       0.41666667 </v>
   <v>       0.36842105      -0.21052632       0.41666667 </v>
   <v>       0.42105263      -0.21052632       0.41666667 </v>
   <v>       0.47368421      -0.21052632       0.41666667 </v>
   <v>       0.00000000      -0.15789474       0.41666667 </v>
   <v>       0.05263158      -0.15789474       0.41666667 </v>
   <v>       0.10526316      -0.15789474       0.41666667 </v>
   <v>       0.15789474      -0.15789474       0.41666667 </v>
   <v>       0.21052632      -0.15789474       0.41666667 </v>
   <v>       0.26315789      -0.15789474       0.41666667 </v>
   <v>       0.31578947      -0.15789474       0.41666667 </v>
   <v>       0.36842105      -0.15789474       0.41666667 </v>
   <v>       0.42105263      -0.15789474       0.41666667 </v>
   <v>       0.47368421      -0.15789474       0.41666667 </v>
   <v>       0.00000000      -0.10526316       0.41666667 </v>
   <v>       0.05263158      -0.10526316       0.41666667 </v>
   <v>       0.10526316      -0.10526316       0.41666667 </v>
   <v>       0.15789474      -0.10526316       0.41666667 </v>
   <v>       0.21052632      -0.10526316       0.41666667 </v>
   <v>       0.26315789      -0.10526316       0.41666667 </v>
   <v>       0.31578947      -0.10526316       0.41666667 </v>
   <v>       0.36842105      -0.10526316       0.41666667 </v>
   <v>       0.42105263      -0.10526316       0.41666667 </v>
   <v>       0.47368421      -0.10526316       0.41666667 </v>
   <v>       0.00000000      -0.05263158       0.41666667 </v>
   <v>       0.05263158      -0.05263158       0.41666667 </v>
   <v>       0.10526316      -0.05263158       0.41666667 </v>
   <v>       0.15789474      -0.05263158       0.41666667 </v>
   <v>       0.21052632      -0.05263158       0.41666667 </v>
   <v>       0.26315789      -0.05263158       0.41666667 </v>
   <v>       0.31578947      -0.05263158       0.41666667 </v>
   <v>       0.36842105      -0.05263158       0.41666667 </v>
   <v>       0.42105263      -0.05263158       0.41666667 </v>
   <v>       0.47368421      -0.05263158       0.41666667 </v>
   <v>       0.00000000       0.00000000       0.50000000 </v>
   <v>       0.05263158       0.00000000       0.50000000 </v>
   <v>       0.10526316       0.00000000       0.50000000 </v>
   <v>       0.15789474       0.00000000       0.50000000 </v>
   <v>       0.21052632       0.00000000       0.50000000 </v>
   <v>       0.26315789       0.00000000       0.50000000 </v>
   <v>       0.31578947       0.00000000       0.50000000 </v>
   <v>       0.36842105       0.00000000       0.50000000 </v>
   <v>       0.42105263       0.00000000       0.50000000 </v>
   <v>       0.47368421       0.00000000       0.50000000 </v>
   <v>       0.00000000       0.05263158       0.50000000 </v>
   <v>       0.05263158       0.05263158       0.50000000 </v>
   <v>       0.10526316       0.05263158       0.50000000 </v>
   <v>       0.15789474       0.05263158       0.50000000 </v>
   <v>       0.21052632       0.05263158       0.50000000 </v>
   <v>       0.26315789       0.05263158       0.50000000 </v>
   <v>       0.31578947       0.05263158       0.50000000 </v>
   <v>       0.36842105       0.05263158       0.50000000 </v>
   <v>       0.42105263       0.05263158       0.50000000 </v>
   <v>       0.47368421       0.05263158       0.50000000 </v>
   <v>       0.00000000       0.10526316       0.50000000 </v>
   <v>       0.05263158       0.10526316       0.50000000 </v>
   <v>       0.10526316       0.10526316       0.50000000 </v>
   <v>       0.15789474       0.10526316       0.50000000 </v>
   <v>       0.21052632       0.10526316       0.50000000 </v>
   <v>       0.26315789       0.10526316       0.50000000 </v>
   <v>       0.31578947       0.10526316       0.50000000 </v>
   <v>       0.36842105       0.10526316       0.50000000 </v>
   <v>       0.42105263       0.10526316       0.50000000 </v>
   <v>       0.47368421       0.10526316       0.50000000 </v>
   <v>       0.00000000       0.15789474       0.50000000 </v>
   <v>       0.05263158       0.15789474       0.50000000 </v>
   <v>       0.10526316       0.15789474       0.50000000 </v>
   <v>       0.15789474       0.15789474       0.50000000 </v>
   <v>       0.21052632       0.15789474       0.50000000 </v>
   <v>       0.26315789       0.15789474       0.50000000 </v>
   <v>       0.31578947       0.15789474       0.50000000 </v>
   <v>       0.36842105       0.15789474       0.50000000 </v>
   <v>       0.42105263       0.15789474       0.50000000 </v>
   <v>       0.47368421       0.15789474       0.50000000 </v>
   <v>       0.00000000       0.21052632       0.50000000 </v>
   <v>       0.05263158       0.21052632       0.50000000 </v>
   <v>       0.10526316       0.21052632       0.50000000 </v>
   <v>       0.15789474       0.21052632       0.50000000 </v>
   <v>       0.21052632       0.21052632       0.50000000 </v>
   <v>       0.26315789       0.21052632       0.50000000 </v>
   <v>       0.31578947       0.21052632       0.50000000 </v>
   <v>       0.36842105       0.21052632       0.50000000 </v>
   <v>       0.42105263       0.21052632       0.50000000 </v>
   <v>       0.47368421       0.21052632       0.50000000 </v>
   <v>       0.00000000       0.26315789       0.50000000 </v>
   <v>       0.05263158       0.26315789       0.50000000 </v>
   <v>       0.10526316       0.26315789       0.50000000 </v>
   <v>       0.15789474       0.26315789       0.50000000 </v>
   <v>       0.21052632       0.26315789       0.50000000 </v>
   <v>       0.26315789       0.26315789       0.50000000 </v>
   <v>       0.31578947       0.26315789       0.50000000 </v>
   <v>       0.36842105       0.26315789       0.50000000 </v>
   <v>       0.42105263       0.26315789       0.50000000 </v>
   <v>       0.47368421       0.26315789       0.50000000 </v>
   <v>       0.00000000       0.31578947       0.50000000 </v>
   <v>       0.05263158       0.31578947       0.50000000 </v>
   <v>       0.10526316       0.31578947       0.50000000 </v>
   <v>       0.15789474       0.31578947       0.50000000 </v>
   <v>       0.21052632       0.31578947       0.50000000 </v>
   <v>       0.26315789       0.31578947       0.50000000 </v>
   <v>       0.31578947       0.31578947       0.50000000 </v>
   <v>       0.36842105       0.31578947       0.50000000 </v>
   <v>       0.42105263       0.31578947       0.50000000 </v>
   <v>       0.47368421       0.31578947       0.50000000 </v>
   <v>       0.00000000       0.36842105       0.50000000 </v>
   <v>       0.05263158       0.36842105       0.50000000 </v>
   <v>       0.10526316       0.36842105       0.50000000 </v>
   <v>       0.15789474       0.36842105       0.50000000 </v>
   <v>       0.21052632       0.36842105       0.50000000 </v>
   <v>       0.26315789       0.36842105       0.50000000 </v>
   <v>       0.31578947       0.36842105       0.50000000 </v>
   <v>       0.36842105       0.36842105       0.50000000 </v>
   <v>       0.42105263       0.36842105       0.50000000 </v>
   <v>       0.47368421       0.36842105       0.50000000 </v>
   <v>       0.00000000       0.42105263       0.50000000 </v>
   <v>       0.05263158       0.42105263       0.50000000 </v>
   <v>       0.10526316       0.42105263       0.50000000 </v>
   <v>       0.15789474       0.42105263       0.50000000 </v>
   <v>       0.21052632       0.42105263       0.50000000 </v>
   <v>       0.26315789       0.42105263       0.50000000 </v>
   <v>       0.31578947       0.42105263       0.50000000 </v>
   <v>       0.36842105       0.42105263       0.50000000 </v>
   <v>       0.42105263       0.42105263       0.50000000 </v>
   <v>       0.47368421       0.42105263       0.50000000 </v>
   <v>       0.00000000       0.47368421       0.50000000 </v>
   <v>       0.05263158       0.47368421       0.50000000 </v>
   <v>       0.10526316       0.47368421       0.50000000 </v>
   <v>       0.15789474       0.47368421       0.50000000 </v>
   <v>       0.21052632       0.47368421       0.50000000 </v>
   <v>       0.26315789       0.47368421       0.50000000 </v>
   <v>       0.31578947       0.47368421       0.50000000 </v>
   <v>       0.36842105       0.47368421       0.50000000 </v>
   <v>       0.42105263       0.47368421       0.50000000 </v>
   <v>       0.47368421       0.47368421       0.50000000 </v>
  </varray>
  <varray name="weights" >
   <v>       0.00023084 </v>
   <v>       0.00046168 </v>
   <v>       0.00046168 </v>
   <v>       0.00046168 </v>
   <v>       0.00046168 </v>
   <v>       0.00046168 </v>
   <v>       0.00046168 </v>
   <v>       0.00046168 </v>
   <v>       0.00046168 </v>
   <v>       0.00046168 </v>
   <v>       0.00046168 </v>
   <v>       0.00092336 </v>
   <v>       0.00092336 </v>
   <v>       0.00092336 </v>
   <v>       0.00092336 </v>
   <v>       0.00092336 </v>
   <v>       0.00092336 </v>
   <v>       0.00092336 </v>
   <v>       0.00092336 </v>
   <v>       0.00092336 </v>
   <v>       0.00046168 </v>
   <v>       0.00092336 </v>
   <v>       0.00092336 </v>
   <v>       0.00092336 </v>
   <v>       0.00092336 </v>
   <v>       0.00092336 </v>
   <v>       0.00092336 </v>
   <v>       0.00092336 </v>
   <v>       0.00092336 </v>
   <v>       0.00092336 </v>
   <v>       0.00046168 </v>
   <v>       0.00092336 </v>
   <v>       0.00092336 </v>
   <v>       0.00092336 </v>
   <v>       0.00092336 </v>
   <v>       0.00092336 </v>
   <v>       0.00092336 </v>
   <v>       0.00092336 </v>
   <v>       0.00092336 </v>
   <v>       0.00092336 </v>
   <v>       0.00046168 </v>
   <v>       0.00092336 </v>
   <v>       0.00092336 </v>
   <v>       0.00092336 </v>
   <v>       0.00092336 </v>
   <v>       0.00092336 </v>
   <v>       0.00092336 </v>
   <v>       0.00092336 </v>
   <v>       0.00092336 </v>
   <v>       0.00092336 </v>
   <v>       0.00046168 </v>
   <v>       0.00092336 </v>
   <v>       0.00092336 </v>
   <v>       0.00092336 </v>
   <v>       0.00092336 </v>
   <v>       0.00092336 </v>
   <v>       0.00092336 </v>
   <v>       0.00092336 </v>
   <v>       0.00092336 </v>
   <v>       0.00092336 </v>
   <v>       0.00046168 </v>
   <v>       0.00092336 </v>
   <v>       0.00092336 </v>
   <v>       0.00092336 </v>
   <v>       0.00092336 </v>
   <v>       0.00092336 </v>
   <v>       0.00092336 </v>
   <v>       0.00092336 </v>
   <v>       0.00092336 </v>
   <v>       0.00092336 </v>
   <v>       0.00046168 </v>
   <v>       0.00092336 </v>
   <v>       0.00092336 </v>
   <v>       0.00092336 </v>
   <v>       0.00092336 </v>
   <v>       0.00092336 </v>
   <v>       0.00092336 </v>
   <v>       0.00092336 </v>
   <v>       0.00092336 </v>
   <v>       0.00092336 </v>
   <v>       0.00046168 </v>
   <v>       0.00092336 </v>
   <v>       0.00092336 </v>
   <v>       0.00092336 </v>
   <v>       0.00092336 </v>
   <v>       0.00092336 </v>
   <v>       0.00092336 </v>
   <v>       0.00092336 </v>
   <v>       0.00092336 </v>
   <v>       0.00092336 </v>
   <v>       0.00046168 </v>
   <v>       0.00092336 </v>
   <v>       0.00092336 </v>
   <v>       0.00092336 </v>
   <v>       0.00092336 </v>
   <v>       0.00092336 </v>
   <v>       0.00092336 </v>
   <v>       0.00092336 </v>
   <v>       0.00092336 </v>
   <v>       0.00092336 </v>
   <v>       0.00046168 </v>
   <v>       0.00092336 </v>
   <v>       0.00092336 </v>
   <v>       0.00092336 </v>
   <v>       0.00092336 </v>
   <v>       0.00092336 </v>
   <v>       0.00092336 </v>
   <v>       0.00092336 </v>
   <v>       0.00092336 </v>
   <v>       0.00092336 </v>
   <v>       0.00046168 </v>
   <v>       0.00092336 </v>
   <v>       0.00092336 </v>
   <v>       0.00092336 </v>
   <v>       0.00092336 </v>
   <v>       0.00092336 </v>
   <v>       0.00092336 </v>
   <v>       0.00092336 </v>
   <v>       0.00092336 </v>
   <v>       0.00092336 </v>
   <v>       0.00046168 </v>
   <v>       0.00092336 </v>
   <v>       0.00092336 </v>
   <v>       0.00092336 </v>
   <v>       0.00092336 </v>
   <v>       0.00092336 </v>
   <v>       0.00092336 </v>
   <v>       0.00092336 </v>
   <v>       0.00092336 </v>
   <v>       0.00092336 </v>
   <v>       0.00046168 </v>
   <v>       0.00092336 </v>
   <v>       0.00092336 </v>
   <v>       0.00092336 </v>
   <v>       0.00092336 </v>
   <v>       0.00092336 </v>
   <v>       0.00092336 </v>
   <v>       0.00092336 </v>
   <v>       0.00092336 </v>
   <v>       0.00092336 </v>
   <v>       0.00046168 </v>
   <v>       0.00092336 </v>
   <v>       0.00092336 </v>
   <v>       0.00092336 </v>
   <v>       0.00092336 </v>
   <v>       0.00092336 </v>
   <v>       0.00092336 </v>
   <v>       0.00092336 </v>
   <v>       0.00092336 </v>
   <v>       0.00092336 </v>
   <v>       0.00046168 </v>
   <v>       0.00092336 </v>
   <v>       0.00092336 </v>
   <v>       0.00092336 </v>
   <v>       0.00092336 </v>
   <v>       0.00092336 </v>
   <v>       0.00092336 </v>
   <v>       0.00092336 </v>
   <v>       0.00092336 </v>
   <v>       0.00092336 </v>
   <v>       0.00046168 </v>
   <v>       0.00092336 </v>
   <v>       0.00092336 </v>
   <v>       0.00092336 </v>
   <v>       0.00092336 </v>
   <v>       0.00092336 </v>
   <v>       0.00092336 </v>
   <v>       0.00092336 </v>
   <v>       0.00092336 </v>
   <v>       0.00092336 </v>
   <v>       0.00046168 </v>
   <v>       0.00092336 </v>
   <v>       0.00092336 </v>
   <v>       0.00092336 </v>
   <v>       0.00092336 </v>
   <v>       0.00092336 </v>
   <v>       0.00092336 </v>
   <v>       0.00092336 </v>
   <v>       0.00092336 </v>
   <v>       0.00092336 </v>
   <v>       0.00046168 </v>
   <v>       0.00092336 </v>
   <v>       0.00092336 </v>
   <v>       0.00092336 </v>
   <v>       0.00092336 </v>
   <v>       0.00092336 </v>
   <v>       0.00092336 </v>
   <v>       0.00092336 </v>
   <v>       0.00092336 </v>
   <v>       0.00092336 </v>
   <v>       0.00046168 </v>
   <v>       0.00092336 </v>
   <v>       0.00092336 </v>
   <v>       0.00092336 </v>
   <v>       0.00092336 </v>
   <v>       0.00092336 </v>
   <v>       0.00092336 </v>
   <v>       0.00092336 </v>
   <v>       0.00092336 </v>
[...]
       <r>    5.1626    1.0000 </r>
       <r>    5.3606    1.0000 </r>
       <r>    5.4221    1.0000 </r>
       <r>    5.5211    1.0000 </r>
       <r>    5.5487    1.0000 </r>
       <r>    5.6497    1.0000 </r>
       <r>    5.6729    1.0000 </r>
       <r>    5.8200    1.0000 </r>
       <r>    5.8507    1.0000 </r>
       <r>    6.2343    1.0000 </r>
       <r>    6.5358    1.0000 </r>
       <r>    6.7508    1.0002 </r>
       <r>    7.2620    1.0336 </r>
       <r>    8.2958   -0.0025 </r>
       <r>    8.7647    0.0000 </r>
       <r>   11.4687    0.0000 </r>
       <r>   12.0268    0.0000 </r>
       <r>   12.7250    0.0000 </r>
       <r>   13.0706    0.0000 </r>
      </set>
      <set comment="kpoint 1149">
       <r>    1.4111    1.0000 </r>
       <r>    1.4855    1.0000 </r>
       <r>    1.7698    1.0000 </r>
       <r>    2.0712    1.0000 </r>
       <r>    2.2463    1.0000 </r>
       <r>    2.7350    1.0000 </r>
       <r>    2.8951    1.0000 </r>
       <r>    2.9004    1.0000 </r>
       <r>    3.1330    1.0000 </r>
       <r>    3.2703    1.0000 </r>
       <r>    3.3633    1.0000 </r>
       <r>    3.9355    1.0000 </r>
       <r>    4.2435    1.0000 </r>
       <r>    4.2837    1.0000 </r>
       <r>    4.4656    1.0000 </r>
       <r>    4.6442    1.0000 </r>
       <r>    4.6978    1.0000 </r>
       <r>    4.7471    1.0000 </r>
       <r>    4.8339    1.0000 </r>
       <r>    4.8584    1.0000 </r>
       <r>    4.9827    1.0000 </r>
       <r>    5.1448    1.0000 </r>
       <r>    5.3364    1.0000 </r>
       <r>    5.5081    1.0000 </r>
       <r>    5.5671    1.0000 </r>
       <r>    5.6149    1.0000 </r>
       <r>    5.6785    1.0000 </r>
       <r>    5.7443    1.0000 </r>
       <r>    5.8501    1.0000 </r>
       <r>    5.8622    1.0000 </r>
       <r>    6.4760    1.0000 </r>
       <r>    6.7295    1.0002 </r>
       <r>    6.8514    1.0012 </r>
       <r>    7.1354    1.0256 </r>
       <r>    7.7098    0.2096 </r>
       <r>    8.1665   -0.0112 </r>
       <r>   11.1611    0.0000 </r>
       <r>   11.6081    0.0000 </r>
       <r>   13.1690    0.0000 </r>
       <r>   13.4917    0.0000 </r>
      </set>
      <set comment="kpoint 1150">
       <r>    1.3802    1.0000 </r>
       <r>    1.4795    1.0000 </r>
       <r>    1.7626    1.0000 </r>
       <r>    2.1124    1.0000 </r>
       <r>    2.2187    1.0000 </r>
       <r>    2.7354    1.0000 </r>
       <r>    2.8956    1.0000 </r>
       <r>    2.9083    1.0000 </r>
       <r>    3.1542    1.0000 </r>
       <r>    3.3529    1.0000 </r>
       <r>    3.3896    1.0000 </r>
       <r>    4.0098    1.0000 </r>
       <r>    4.1953    1.0000 </r>
       <r>    4.3704    1.0000 </r>
       <r>    4.4586    1.0000 </r>
       <r>    4.5909    1.0000 </r>
       <r>    4.7210    1.0000 </r>
       <r>    4.7266    1.0000 </r>
       <r>    4.8471    1.0000 </r>
       <r>    4.8654    1.0000 </r>
       <r>    4.9813    1.0000 </r>
       <r>    5.1358    1.0000 </r>
       <r>    5.3230    1.0000 </r>
       <r>    5.4845    1.0000 </r>
       <r>    5.5910    1.0000 </r>
       <r>    5.6627    1.0000 </r>
       <r>    5.6741    1.0000 </r>
       <r>    5.8347    1.0000 </r>
       <r>    5.8623    1.0000 </r>
       <r>    5.9099    1.0000 </r>
       <r>    6.7534    1.0002 </r>
       <r>    6.8375    1.0010 </r>
       <r>    6.9804    1.0065 </r>
       <r>    7.1470    1.0274 </r>
       <r>    7.2721    1.0321 </r>
       <r>    7.6524    0.3519 </r>
       <r>   11.0221    0.0000 </r>
       <r>   11.3705    0.0000 </r>
       <r>   13.6014    0.0000 </r>
       <r>   13.9099    0.0000 </r>
      </set>
     </set>
    </set>
   </array>
  </eigenvalues>
  <separator name="orbital magnetization" >
   <v name="MAGDIPOLOUT">      0.00000000      0.00000000      0.00000000</v>
  </separator>
  <dos>
   <i name="efermi">      7.59894982 </i>
   <total>
    <array>
     <dimension dim="1">gridpoints</dimension>
     <dimension dim="2">spin</dimension>
     <field>energy</field>
     <field>total</field>
     <field>integrated</field>
     <set>
      <set comment="spin 1">
       <r>    -3.9506     0.0000     0.0000 </r>
       <r>    -3.8747     0.0000     0.0000 </r>
       <r>    -3.7987     0.0000     0.0000 </r>
       <r>    -3.7227     0.0000     0.0000 </r>
       <r>    -3.6467     0.0000     0.0000 </r>
       <r>    -3.5708     0.0000     0.0000 </r>
       <r>    -3.4948     0.0000     0.0000 </r>
       <r>    -3.4188     0.0000     0.0000 </r>
       <r>    -3.3428     0.0000     0.0000 </r>
       <r>    -3.2669     0.0000     0.0000 </r>
       <r>    -3.1909     0.0000     0.0000 </r>
       <r>    -3.1149     0.0000     0.0000 </r>
       <r>    -3.0389     0.0000     0.0000 </r>
       <r>    -2.9630     0.0000     0.0000 </r>
       <r>    -2.8870     0.0000     0.0000 </r>
       <r>    -2.8110     0.0000     0.0000 </r>
       <r>    -2.7350     0.0000     0.0000 </r>
       <r>    -2.6591     0.0000     0.0000 </r>
       <r>    -2.5831     0.0000     0.0000 </r>
       <r>    -2.5071     0.0000     0.0000 </r>
       <r>    -2.4311     0.0000     0.0000 </r>
       <r>    -2.3552     0.0000     0.0000 </r>
       <r>    -2.2792     0.0000     0.0000 </r>
       <r>    -2.2032     0.0000     0.0000 </r>
       <r>    -2.1272     0.0000     0.0000 </r>
       <r>    -2.0512     0.0000     0.0000 </r>
       <r>    -1.9753     0.0000     0.0000 </r>
       <r>    -1.8993     0.0000     0.0000 </r>
       <r>    -1.8233     0.0000     0.0000 </r>
       <r>    -1.7473     0.0000     0.0000 </r>
       <r>    -1.6714    -0.0001     0.0000 </r>
       <r>    -1.5954    -0.0004     0.0000 </r>
       <r>    -1.5194    -0.0010    -0.0001 </r>
       <r>    -1.4434    -0.0022    -0.0003 </r>
       <r>    -1.3675    -0.0042    -0.0006 </r>
       <r>    -1.2915    -0.0066    -0.0011 </r>
       <r>    -1.2155    -0.0077    -0.0017 </r>
       <r>    -1.1395    -0.0042    -0.0020 </r>
       <r>    -1.0636     0.0083    -0.0014 </r>
       <r>    -0.9876     0.0335     0.0012 </r>
       <r>    -0.9116     0.0724     0.0067 </r>
       <r>    -0.8356     0.1220     0.0159 </r>
       <r>    -0.7597     0.1765     0.0293 </r>
       <r>    -0.6837     0.2299     0.0468 </r>
       <r>    -0.6077     0.2782     0.0679 </r>
       <r>    -0.5317     0.3202     0.0923 </r>
       <r>    -0.4558     0.3569     0.1194 </r>
       <r>    -0.3798     0.3903     0.1490 </r>
       <r>    -0.3038     0.4223     0.1811 </r>
       <r>    -0.2278     0.4540     0.2156 </r>
       <r>    -0.1519     0.4860     0.2525 </r>
       <r>    -0.0759     0.5184     0.2919 </r>
       <r>     0.0001     0.5509     0.3338 </r>
       <r>     0.0761     0.5831     0.3781 </r>
       <r>     0.1520     0.6140     0.4247 </r>
       <r>     0.2280     0.6431     0.4736 </r>
       <r>     0.3040     0.6715     0.5246 </r>
       <r>     0.3800     0.7020     0.5779 </r>
       <r>     0.4559     0.7370     0.6339 </r>
       <r>     0.5319     0.7764     0.6929 </r>
       <r>     0.6079     0.8184     0.7551 </r>
       <r>     0.6839     0.8614     0.8205 </r>
       <r>     0.7598     0.9050     0.8893 </r>
       <r>     0.8358     0.9493     0.9614 </r>
       <r>     0.9118     0.9958     1.0371 </r>
       <r>     0.9878     1.0555     1.1173 </r>
       <r>     1.0637     1.1585     1.2053 </r>
       <r>     1.1397     1.3582     1.3085 </r>
       <r>     1.2157     1.7170     1.4389 </r>
       <r>     1.2917     2.2799     1.6121 </r>
       <r>     1.3677     3.0520     1.8440 </r>
       <r>     1.4436     4.0024     2.1481 </r>
       <r>     1.5196     5.0927     2.5350 </r>
       <r>     1.5956     6.2993     3.0136 </r>
       <r>     1.6716     7.5982     3.5909 </r>
       <r>     1.7475     8.9258     4.2690 </r>
       <r>     1.8235    10.1682     5.0416 </r>
       <r>     1.8995    11.2120     5.8934 </r>
       <r>     1.9755    12.0135     6.8061 </r>
       <r>     2.0514    12.5977     7.7633 </r>
       <r>     2.1274    12.9642     8.7482 </r>
       <r>     2.2034    12.9967     9.7356 </r>
       <r>     2.2794    12.5080    10.6859 </r>
       <r>     2.3553    11.4248    11.5540 </r>
       <r>     2.4313     9.9530    12.3101 </r>
       <r>     2.5073     8.5626    12.9607 </r>
       <r>     2.5833     7.7852    13.5522 </r>
       <r>     2.6592     7.9625    14.1571 </r>
       <r>     2.7352     9.0787    14.8469 </r>
       <r>     2.8112    10.7402    15.6629 </r>
       <r>     2.8872    12.3122    16.5983 </r>
       <r>     2.9631    13.1742    17.5992 </r>
       <r>     3.0391    12.9837    18.5857 </r>
       <r>     3.1151    11.8032    19.4824 </r>
       <r>     3.1911    10.0183    20.2436 </r>
       <r>     3.2670     8.1233    20.8608 </r>
       <r>     3.3430     6.5171    21.3559 </r>
       <r>     3.4190     5.4117    21.7670 </r>
       <r>     3.4950     4.8507    22.1356 </r>
       <r>     3.5709     4.7712    22.4981 </r>
       <r>     3.6469     5.0493    22.8817 </r>
       <r>     3.7229     5.5125    23.3005 </r>
       <r>     3.7989     5.9546    23.7529 </r>
       <r>     3.8748     6.1933    24.2234 </r>
       <r>     3.9508     6.1667    24.6920 </r>
       <r>     4.0268     6.0081    25.1484 </r>
       <r>     4.1028     6.0267    25.6063 </r>
       <r>     4.1787     6.5773    26.1060 </r>
       <r>     4.2547     7.8731    26.7042 </r>
       <r>     4.3307     9.8520    27.4527 </r>
       <r>     4.4067    12.1949    28.3792 </r>
       <r>     4.4826    14.5079    29.4815 </r>
       <r>     4.5586    16.5445    30.7385 </r>
       <r>     4.6346    18.2862    32.1278 </r>
       <r>     4.7106    19.8101    33.6328 </r>
       <r>     4.7866    21.0819    35.2345 </r>
       <r>     4.8625    21.8904    36.8977 </r>
       <r>     4.9385    21.9995    38.5691 </r>
       <r>     5.0145    21.3778    40.1933 </r>
       <r>     5.0905    20.3002    41.7356 </r>
       <r>     5.1664    19.2472    43.1979 </r>
       <r>     5.2424    18.6942    44.6182 </r>
       <r>     5.3184    18.9401    46.0572 </r>
       <r>     5.3944    20.0522    47.5807 </r>
       <r>     5.4703    21.8876    49.2436 </r>
       <r>     5.5463    24.1115    51.0755 </r>
       <r>     5.6223    26.1879    53.0652 </r>
       <r>     5.6983    27.4217    55.1485 </r>
       <r>     5.7742    27.1347    57.2101 </r>
       <r>     5.8502    24.9451    59.1053 </r>
       <r>     5.9262    20.9959    60.7005 </r>
       <r>     6.0022    15.9732    61.9141 </r>
       <r>     6.0781    10.8685    62.7398 </r>
       <r>     6.1541     6.5963    63.2410 </r>
       <r>     6.2301     3.6685    63.5197 </r>
       <r>     6.3061     2.0926    63.6787 </r>
       <r>     6.3820     1.5148    63.7938 </r>
       <r>     6.4580     1.4778    63.9060 </r>
       <r>     6.5340     1.6264    64.0296 </r>
       <r>     6.6100     1.7777    64.1647 </r>
       <r>     6.6859     1.8801    64.3075 </r>
       <r>     6.7619     1.9375    64.4547 </r>
       <r>     6.8379     1.9580    64.6035 </r>
       <r>     6.9139     1.9436    64.7511 </r>
       <r>     6.9898     1.9030    64.8957 </r>
       <r>     7.0658     1.8576    65.0369 </r>
       <r>     7.1418     1.8300    65.1759 </r>
       <r>     7.2178     1.8267    65.3147 </r>
       <r>     7.2937     1.8338    65.4540 </r>
       <r>     7.3697     1.8306    65.5931 </r>
       <r>     7.4457     1.8079    65.7304 </r>
       <r>     7.5217     1.7738    65.8652 </r>
       <r>     7.5976     1.7444    65.9977 </r>
       <r>     7.6736     1.7308    66.1292 </r>
       <r>     7.7496     1.7323    66.2609 </r>
       <r>     7.8256     1.7407    66.3931 </r>
       <r>     7.9015     1.7463    66.5258 </r>
       <r>     7.9775     1.7430    66.6582 </r>
       <r>     8.0535     1.7275    66.7894 </r>
       <r>     8.1295     1.6996    66.9186 </r>
       <r>     8.2055     1.6636    67.0450 </r>
       <r>     8.2814     1.6300    67.1688 </r>
       <r>     8.3574     1.6127    67.2913 </r>
       <r>     8.4334     1.6199    67.4144 </r>
       <r>     8.5094     1.6457    67.5394 </r>
       <r>     8.5853     1.6709    67.6664 </r>
       <r>     8.6613     1.6747    67.7936 </r>
       <r>     8.7373     1.6488    67.9189 </r>
       <r>     8.8133     1.6022    68.0406 </r>
       <r>     8.8892     1.5548    68.1587 </r>
       <r>     8.9652     1.5261    68.2747 </r>
       <r>     9.0412     1.5270    68.3907 </r>
       <r>     9.1172     1.5552    68.5089 </r>
       <r>     9.1931     1.5959    68.6301 </r>
       <r>     9.2691     1.6268    68.7537 </r>
       <r>     9.3451     1.6277    68.8774 </r>
       <r>     9.4211     1.5912    68.9983 </r>
       <r>     9.4970     1.5277    69.1143 </r>
       <r>     9.5730     1.4593    69.2252 </r>
       <r>     9.6490     1.4082    69.3322 </r>
       <r>     9.7250     1.3868    69.4376 </r>
       <r>     9.8009     1.3933    69.5434 </r>
       <r>     9.8769     1.4136    69.6508 </r>
       <r>     9.9529     1.4279    69.7593 </r>
       <r>    10.0289     1.4195    69.8672 </r>
       <r>    10.1048     1.3811    69.9721 </r>
       <r>    10.1808     1.3179    70.0722 </r>
       <r>    10.2568     1.2458    70.1669 </r>
       <r>    10.3328     1.1847    70.2569 </r>
       <r>    10.4087     1.1503    70.3443 </r>
       <r>    10.4847     1.1458    70.4313 </r>
       <r>    10.5607     1.1590    70.5194 </r>
       <r>    10.6367     1.1673    70.6081 </r>
       <r>    10.7126     1.1512    70.6955 </r>
       <r>    10.7886     1.1074    70.7797 </r>
       <r>    10.8646     1.0545    70.8598 </r>
       <r>    10.9406     1.0257    70.9377 </r>
       <r>    11.0165     1.0530    71.0177 </r>
       <r>    11.0925     1.1502    71.1051 </r>
       <r>    11.1685     1.3047    71.2042 </r>
       <r>    11.2445     1.4832    71.3169 </r>
       <r>    11.3204     1.6484    71.4421 </r>
       <r>    11.3964     1.7752    71.5770 </r>
       <r>    11.4724     1.8570    71.7181 </r>
       <r>    11.5484     1.9015    71.8626 </r>
       <r>    11.6244     1.9220    72.0086 </r>
       <r>    11.7003     1.9310    72.1553 </r>
       <r>    11.7763     1.9354    72.3024 </r>
       <r>    11.8523     1.9330    72.4492 </r>
       <r>    11.9283     1.9156    72.5948 </r>
       <r>    12.0042     1.8784    72.7375 </r>
       <r>    12.0802     1.8301    72.8765 </r>
       <r>    12.1562     1.7908    73.0126 </r>
       <r>    12.2322     1.7792    73.1477 </r>
       <r>    12.3081     1.7971    73.2843 </r>
       <r>    12.3841     1.8278    73.4231 </r>
       <r>    12.4601     1.8464    73.5634 </r>
       <r>    12.5361     1.8351    73.7028 </r>
       <r>    12.6120     1.7925    73.8390 </r>
       <r>    12.6880     1.7336    73.9707 </r>
       <r>    12.7640     1.6817    74.0985 </r>
       <r>    12.8400     1.6561    74.2243 </r>
       <r>    12.9159     1.6620    74.3506 </r>
       <r>    12.9919     1.6879    74.4789 </r>
       <r>    13.0679     1.7144    74.6091 </r>
       <r>    13.1439     1.7261    74.7402 </r>
       <r>    13.2198     1.7194    74.8709 </r>
       <r>    13.2958     1.6997    75.0000 </r>
       <r>    13.3718     1.6751    75.1273 </r>
       <r>    13.4478     1.6512    75.2527 </r>
       <r>    13.5237     1.6309    75.3766 </r>
       <r>    13.5997     1.6151    75.4993 </r>
       <r>    13.6757     1.6036    75.6212 </r>
       <r>    13.7517     1.5953    75.7424 </r>
       <r>    13.8276     1.5930    75.8634 </r>
       <r>    13.9036     1.6055    75.9854 </r>
       <r>    13.9796     1.6426    76.1102 </r>
       <r>    14.0556     1.7057    76.2398 </r>
       <r>    14.1315     1.7827    76.3752 </r>
       <r>    14.2075     1.8559    76.5162 </r>
       <r>    14.2835     1.9147    76.6617 </r>
       <r>    14.3595     1.9610    76.8107 </r>
       <r>    14.4354     2.0026    76.9628 </r>
       <r>    14.5114     2.0420    77.1180 </r>
       <r>    14.5874     2.0737    77.2755 </r>
       <r>    14.6634     2.0899    77.4343 </r>
       <r>    14.7393     2.0887    77.5930 </r>
       <r>    14.8153     2.0755    77.7507 </r>
       <r>    14.8913     2.0596    77.9072 </r>
       <r>    14.9673     2.0501    78.0629 </r>
       <r>    15.0433     2.0548    78.2190 </r>
       <r>    15.1192     2.0805    78.3771 </r>
       <r>    15.1952     2.1310    78.5390 </r>
       <r>    15.2712     2.2054    78.7066 </r>
       <r>    15.3472     2.2971    78.8811 </r>
       <r>    15.4231     2.3923    79.0629 </r>
       <r>    15.4991     2.4640    79.2501 </r>
       <r>    15.5751     2.4644    79.4373 </r>
       <r>    15.6511     2.3329    79.6145 </r>
       <r>    15.7270     2.0279    79.7686 </r>
       <r>    15.8030     1.5661    79.8876 </r>
       <r>    15.8790     1.0318    79.9660 </r>
       <r>    15.9550     0.5414    80.0071 </r>
       <r>    16.0309     0.1844    80.0211 </r>
       <r>    16.1069    -0.0130    80.0201 </r>
       <r>    16.1829    -0.0828    80.0139 </r>
       <r>    16.2589    -0.0805    80.0077 </r>
       <r>    16.3348    -0.0538    80.0037 </r>
       <r>    16.4108    -0.0285    80.0015 </r>
       <r>    16.4868    -0.0126    80.0005 </r>
       <r>    16.5628    -0.0048    80.0002 </r>
       <r>    16.6387    -0.0015    80.0000 </r>
       <r>    16.7147    -0.0004    80.0000 </r>
       <r>    16.7907    -0.0001    80.0000 </r>
       <r>    16.8667     0.0000    80.0000 </r>
       <r>    16.9426     0.0000    80.0000 </r>
       <r>    17.0186     0.0000    80.0000 </r>
       <r>    17.0946     0.0000    80.0000 </r>
       <r>    17.1706     0.0000    80.0000 </r>
       <r>    17.2465     0.0000    80.0000 </r>
       <r>    17.3225     0.0000    80.0000 </r>
       <r>    17.3985     0.0000    80.0000 </r>
       <r>    17.4745     0.0000    80.0000 </r>
       <r>    17.5504     0.0000    80.0000 </r>
       <r>    17.6264     0.0000    80.0000 </r>
       <r>    17.7024     0.0000    80.0000 </r>
       <r>    17.7784     0.0000    80.0000 </r>
       <r>    17.8543     0.0000    80.0000 </r>
       <r>    17.9303     0.0000    80.0000 </r>
       <r>    18.0063     0.0000    80.0000 </r>
       <r>    18.0823     0.0000    80.0000 </r>
       <r>    18.1583     0.0000    80.0000 </r>
       <r>    18.2342     0.0000    80.0000 </r>
       <r>    18.3102     0.0000    80.0000 </r>
       <r>    18.3862     0.0000    80.0000 </r>
       <r>    18.4622     0.0000    80.0000 </r>
       <r>    18.5381     0.0000    80.0000 </r>
       <r>    18.6141     0.0000    80.0000 </r>
       <r>    18.6901     0.0000    80.0000 </r>
       <r>    18.7661     0.0000    80.0000 </r>
       <r>    18.8420     0.0000    80.0000 </r>
      </set>
     </set>
    </array>
   </total>
  </dos>
 </calculation>
 <structure name="finalpos" >
  <crystal>
   <varray name="basis" >
    <v>       3.77762016       0.00000000       0.00000000 </v>
    <v>       0.00000000       0.00000000      -3.84885435 </v>
    <v>       0.00000000       5.77921065       1.92442717 </v>
   </varray>
   <i name="volume">     84.02688969 </i>
   <varray name="rec_basis" >
    <v>       0.26471693       0.00000000       0.00000000 </v>
    <v>       0.00000000       0.08651701      -0.25981757 </v>
    <v>       0.00000000       0.17303401       0.00000000 </v>
   </varray>
  </crystal>
  <varray name="positions" >
   <v>       0.50000000       0.16666667       0.33333333 </v>
   <v>       0.50000000       0.50823696       0.01647393 </v>
   <v>       0.00000000       0.66666667       0.33333333 </v>
   <v>       0.50000000       0.82509637       0.65019274 </v>
   <v>       0.00000000       0.00379590       0.00759180 </v>
   <v>       0.00000000       0.32953744       0.65907487 </v>
  </varray>
 </structure>
</modeling>
