<?xml version="1.0" encoding="ISO-8859-1"?>
<modeling>
 <generator>
  <i name="program" type="string">vasp </i>
  <i name="version" type="string">5.3.5  </i>
  <i name="subversion" type="string">31Mar14 (build Jun 20 2014 13:15:13) complex                          parallel </i>
  <i name="platform" type="string">LinuxIFC </i>
  <i name="date" type="string">2025 12 12 </i>
  <i name="time" type="string">11:56:30 </i>
 </generator>
 <incar>
  <i type="string" name="PREC">accurate</i>
  <i type="int" name="IALGO">    38</i>
  <i type="logical" name="ADDGRID"> T  </i>
  <i type="int" name="ISPIN">     2</i>
  <i type="int" name="NELM">   100</i>
  <i type="int" name="NELMIN">     4</i>
  <i name="EDIFF">      0.00000100</i>
  <i name="ENCUT">    500.00000000</i>
  <i type="logical" name="LREAL"> F  </i>
  <i type="int" name="ISMEAR">     0</i>
  <i name="SIGMA">      0.05000000</i>
  <i type="logical" name="LWAVE"> F  </i>
  <i type="logical" name="LCHARG"> F  </i>
  <i type="int" name="NELM">   100</i>
  <i type="logical" name="LDAU"> T  </i>
  <v name="LDAUU">      0.00000000      4.00000000      0.00000000</v>
  <v name="LDAUJ">      0.00000000      0.00000000      0.00000000</v>
 </incar>
 <kpoints>
  <generation param="Auto">
   <i name="subdivisionlength">     20.00000000 </i>
   <v type="int" name="divisions">       3        5        3 </v>
   <v name="usershift">      0.00000000       0.00000000       0.00000000 </v>
   <v name="genvec1">      0.33333333       0.00000000       0.00000000 </v>
   <v name="genvec2">      0.00000000       0.20000000       0.00000000 </v>
   <v name="genvec3">      0.00000000       0.00000000       0.33333333 </v>
   <v name="shift">      0.00000000       0.00000000       0.00000000 </v>
  </generation>
  <varray name="kpointlist" >
   <v>       0.00000000       0.00000000       0.00000000 </v>
   <v>       0.33333333       0.00000000       0.00000000 </v>
   <v>       0.00000000       0.20000000       0.00000000 </v>
   <v>       0.33333333       0.20000000       0.00000000 </v>
   <v>       0.00000000       0.40000000       0.00000000 </v>
   <v>       0.33333333       0.40000000       0.00000000 </v>
   <v>       0.00000000       0.00000000       0.33333333 </v>
   <v>       0.33333333       0.00000000       0.33333333 </v>
   <v>      -0.33333333       0.00000000       0.33333333 </v>
   <v>       0.00000000       0.20000000       0.33333333 </v>
   <v>       0.33333333       0.20000000       0.33333333 </v>
   <v>      -0.33333333       0.20000000       0.33333333 </v>
   <v>       0.00000000       0.40000000       0.33333333 </v>
   <v>       0.33333333       0.40000000       0.33333333 </v>
   <v>      -0.33333333       0.40000000       0.33333333 </v>
  </varray>
  <varray name="weights" >
   <v>       0.02222222 </v>
   <v>       0.04444444 </v>
   <v>       0.04444444 </v>
   <v>       0.08888889 </v>
   <v>       0.04444444 </v>
   <v>       0.08888889 </v>
   <v>       0.04444444 </v>
   <v>       0.04444444 </v>
   <v>       0.04444444 </v>
   <v>       0.08888889 </v>
   <v>       0.08888889 </v>
   <v>       0.08888889 </v>
   <v>       0.08888889 </v>
   <v>       0.08888889 </v>
   <v>       0.08888889 </v>
  </varray>
 </kpoints>
 <parameters>
  <separator name="general" >
   <i type="string" name="SYSTEM">unknown system</i>
   <i type="logical" name="LCOMPAT"> F  </i>
  </separator>
  <separator name="electronic" >
   <i type="string" name="PREC">accura</i>
   <i name="ENMAX">    500.00000000</i>
   <i name="ENAUG">    586.98000000</i>
   <i name="EDIFF">      0.00000100</i>
   <i type="int" name="IALGO">    38</i>
   <i type="int" name="IWAVPR">    10</i>
   <i type="int" name="NBANDS">    88</i>
   <i name="NELECT">    132.00000000</i>
   <i type="int" name="TURBO">     0</i>
   <i type="int" name="IRESTART">     0</i>
   <i type="int" name="NREBOOT">     0</i>
   <i type="int" name="NMIN">     0</i>
   <i name="EREF">      0.00000000</i>
   <separator name="electronic smearing" >
    <i type="int" name="ISMEAR">     0</i>
    <i name="SIGMA">      0.05000000</i>
    <i name="KSPACING">      0.50000000</i>
    <i type="logical" name="KGAMMA"> T  </i>
   </separator>
   <separator name="electronic projectors" >
    <i type="logical" name="LREAL"> F  </i>
    <v name="ROPT">      0.00000000      0.00000000      0.00000000</v>
    <i type="int" name="LMAXPAW">  -100</i>
    <i type="int" name="LMAXMIX">     2</i>
    <i type="logical" name="NLSPLINE"> F  </i>
   </separator>
   <separator name="electronic startup" >
    <i type="int" name="ISTART">     0</i>
    <i type="int" name="ICHARG">     2</i>
    <i type="int" name="INIWAV">     1</i>
   </separator>
   <separator name="electronic spin" >
    <i type="int" name="ISPIN">     2</i>
    <i type="logical" name="LNONCOLLINEAR"> F  </i>
    <v name="MAGMOM">      1.00000000      1.00000000      1.00000000      1.00000000      1.00000000      1.00000000      1.00000000      1.00000000      1.00000000      1.00000000      1.00000000      1.00000000      1.00000000      1.00000000      1.00000000      1.00000000</v>
    <i name="NUPDOWN">     -1.00000000</i>
    <i type="logical" name="LSORBIT"> F  </i>
    <v name="SAXIS">      0.00000000      0.00000000      1.00000000</v>
    <i type="logical" name="LSPIRAL"> F  </i>
    <v name="QSPIRAL">      0.00000000      0.00000000      0.00000000</v>
    <i type="logical" name="LZEROZ"> F  </i>
   </separator>
   <separator name="electronic exchange-correlation" >
    <i type="logical" name="LASPH"> F  </i>
    <i type="logical" name="LMETAGGA"> F  </i>
   </separator>
   <separator name="electronic convergence" >
    <i type="int" name="NELM">   100</i>
    <i type="int" name="NELMDL">    -5</i>
    <i type="int" name="NELMIN">     4</i>
    <i name="ENINI">    500.00000000</i>
    <separator name="electronic convergence detail" >
     <i type="logical" name="LDIAG"> T  </i>
     <i type="logical" name="LSUBROT"> F  </i>
     <i name="WEIMIN">      0.00000000</i>
     <i name="EBREAK">      0.00000000</i>
     <i name="DEPER">      0.30000000</i>
     <i type="int" name="NRMM">     4</i>
     <i name="TIME">      0.40000000</i>
    </separator>
   </separator>
   <separator name="electronic mixer" >
    <i name="AMIX">      0.40000000</i>
    <i name="BMIX">      1.00000000</i>
    <i name="AMIN">      0.10000000</i>
    <i name="AMIX_MAG">      1.60000000</i>
    <i name="BMIX_MAG">      1.00000000</i>
    <separator name="electronic mixer details" >
     <i type="int" name="IMIX">     4</i>
     <i type="int" name="MAXMIX">   -45</i>
     <i name="WC">    100.00000000</i>
     <i type="int" name="INIMIX">     1</i>
     <i type="int" name="MIXPRE">     1</i>
     <i type="int" name="MREMOVE">     5</i>
    </separator>
   </separator>
   <separator name="electronic dipolcorrection" >
    <i type="logical" name="LDIPOL"> F  </i>
    <i type="logical" name="LMONO"> F  </i>
    <i type="int" name="IDIPOL">     0</i>
    <i name="EPSILON">      1.00000000</i>
    <v name="DIPOL">   -100.00000000   -100.00000000   -100.00000000</v>
    <i name="EFIELD">      0.00000000</i>
   </separator>
  </separator>
  <separator name="grids" >
   <i type="int" name="NGX">    60</i>
   <i type="int" name="NGY">    30</i>
   <i type="int" name="NGZ">    70</i>
   <i type="int" name="NGXF">   120</i>
   <i type="int" name="NGYF">    60</i>
   <i type="int" name="NGZF">   140</i>
   <i type="logical" name="ADDGRID"> T  </i>
  </separator>
  <separator name="ionic" >
   <i type="int" name="NSW">     0</i>
   <i type="int" name="IBRION">    -1</i>
   <i type="int" name="ISIF">     2</i>
   <i name="PSTRESS">      0.00000000</i>
   <i name="EDIFFG">      0.00001000</i>
   <i type="int" name="NFREE">     0</i>
   <i name="POTIM">      0.50000000</i>
   <i name="SMASS">     -3.00000000</i>
   <i name="SCALEE">      1.00000000</i>
  </separator>
  <separator name="ionic md" >
   <i name="TEBEG">      0.00010000</i>
   <i name="TEEND">      0.00010000</i>
   <i type="int" name="NBLOCK">     1</i>
   <i type="int" name="KBLOCK">     1</i>
   <i type="int" name="NPACO">   256</i>
   <i name="APACO">     16.00000000</i>
  </separator>
  <separator name="symmetry" >
   <i type="int" name="ISYM">     2</i>
   <i name="SYMPREC">      0.00001000</i>
  </separator>
  <separator name="dos" >
   <i type="logical" name="LORBIT"> F  </i>
   <v name="RWIGS">     -1.00000000     -1.00000000     -1.00000000</v>
   <i type="int" name="NEDOS">   301</i>
   <i name="EMIN">     10.00000000</i>
   <i name="EMAX">    -10.00000000</i>
   <i name="EFERMI">      0.00000000</i>
  </separator>
  <separator name="writing" >
   <i type="int" name="NWRITE">     2</i>
   <i type="logical" name="LWAVE"> F  </i>
   <i type="logical" name="LCHARG"> F  </i>
   <i type="logical" name="LPARD"> F  </i>
   <i type="logical" name="LVTOT"> F  </i>
   <i type="logical" name="LVHAR"> F  </i>
   <i type="logical" name="LELF"> F  </i>
   <i type="logical" name="LOPTICS"> F  </i>
   <v name="STM">      0.00000000      0.00000000      0.00000000      0.00000000      0.00000000      0.00000000      0.00000000</v>
  </separator>
  <separator name="performance" >
   <i type="int" name="NPAR">     4</i>
   <i type="int" name="NSIM">     4</i>
   <i type="int" name="NBLK">    -1</i>
   <i type="logical" name="LPLANE"> T  </i>
   <i type="logical" name="LSCALAPACK"> T  </i>
   <i type="logical" name="LSCAAWARE"> F  </i>
   <i type="logical" name="LSCALU"> F  </i>
   <i type="logical" name="LASYNC"> F  </i>
   <i type="logical" name="LORBITALREAL"> F  </i>
  </separator>
  <separator name="miscellaneous" >
   <i type="int" name="IDIOT">     3</i>
   <i type="logical" name="LMUSIC"> F  </i>
   <v name="POMASS">     87.62000000     63.54600000     16.00000000</v>
   <v name="DARWINR">      0.00000000      0.00000000      0.00000000</v>
   <v name="DARWINV">      1.00000000      1.00000000      1.00000000</v>
   <i type="logical" name="LCORR"> T  </i>
  </separator>
  <i type="logical" name="GGA_COMPAT"> T  </i>
  <i type="logical" name="LBERRY"> F  </i>
  <i type="int" name="ICORELEVEL">     0</i>
  <i type="logical" name="LDAU"> T  </i>
  <v type="int" name="LDAUTYPE">     2</v>
  <v type="int" name="LDAUL">     2</v>
  <v name="LDAUU">      0.00000000</v>
  <v name="LDAUJ">      0.00000000</v>
  <i type="int" name="LDAUPRINT">     0</i>
  <i type="int" name="I_CONSTRAINED_M">     0</i>
  <separator name="electronic exchange-correlation" >
   <i type="string" name="GGA">--</i>
   <i type="int" name="VOSKOWN">     0</i>
   <i type="logical" name="LHFCALC"> F  </i>
   <i type="string" name="PRECFOCK"></i>
   <i type="logical" name="LSYMGRAD"> F  </i>
   <i type="logical" name="LHFONE"> F  </i>
   <i type="logical" name="LRHFCALC"> F  </i>
   <i type="logical" name="LTHOMAS"> F  </i>
   <i type="logical" name="LMODELHF"> F  </i>
   <i name="ENCUT4O">     -1.00000000</i>
   <i type="int" name="EXXOEP">     0</i>
   <i type="int" name="FOURORBIT">     0</i>
   <i name="AEXX">      0.00000000</i>
   <i name="HFALPHA">      0.00000000</i>
   <i name="MCALPHA">      0.00000000</i>
   <i name="ALDAX">      1.00000000</i>
   <i name="AGGAX">      1.00000000</i>
   <i name="ALDAC">      1.00000000</i>
   <i name="AGGAC">      1.00000000</i>
   <i type="int" name="NKREDX">     1</i>
   <i type="int" name="NKREDY">     1</i>
   <i type="int" name="NKREDZ">     1</i>
   <i type="logical" name="SHIFTRED"> F  </i>
   <i type="logical" name="ODDONLY"> F  </i>
   <i type="logical" name="EVENONLY"> F  </i>
   <i type="int" name="LMAXFOCK">     0</i>
   <i type="int" name="NMAXFOCKAE">     0</i>
   <i type="logical" name="LFOCKAEDFT"> F  </i>
   <i name="HFSCREEN">      0.00000000</i>
   <i name="HFSCREENC">      0.00000000</i>
   <i type="int" name="NBANDSGWLOW">     0</i>
  </separator>
  <separator name="vdW DFT" >
   <i type="logical" name="LUSE_VDW"> F  </i>
   <i name="Zab_VDW">     -0.84910000</i>
   <i name="PARAM1">      0.12340000</i>
   <i name="PARAM2">      1.00000000</i>
   <i name="PARAM3">      0.00000000</i>
  </separator>
  <separator name="model GW" >
   <i type="int" name="MODEL_GW">     0</i>
   <i name="MODEL_EPS0">      9.60000000</i>
   <i name="MODEL_ALPHA">      1.00000000</i>
  </separator>
  <separator name="linear response parameters" >
   <i type="logical" name="LEPSILON"> F  </i>
   <i type="logical" name="LRPA"> F  </i>
   <i type="logical" name="LNABLA"> F  </i>
   <i type="logical" name="LVEL"> F  </i>
   <i type="int" name="KINTER">     0</i>
   <i name="CSHIFT">      0.10000000</i>
   <i name="OMEGAMAX">     -1.00000000</i>
   <i name="DEG_THRESHOLD">      0.00200000</i>
  </separator>
  <separator name="orbital magnetization" >
   <i type="logical" name="NUCIND"> F  </i>
   <v name="MAGPOS">      0.00000000      0.00000000      0.00000000</v>
   <i type="logical" name="LNICSALL"> T  </i>
   <i type="logical" name="ORBITALMAG"> F  </i>
   <i type="logical" name="LMAGBLOCH"> F  </i>
   <i type="logical" name="LCHIMAG"> F  </i>
   <i type="logical" name="LGAUGE"> T  </i>
   <i type="int" name="MAGATOM">     0</i>
   <v name="MAGDIPOL">      0.00000000      0.00000000      0.00000000</v>
   <v name="AVECCONST">      0.00000000      0.00000000      0.00000000</v>
  </separator>
  <separator name="response functions" >
   <i type="logical" name="LADDER"> F  </i>
   <i type="logical" name="LFXC"> F  </i>
   <i type="logical" name="LHARTREE"> T  </i>
   <i type="int" name="IBSE">     0</i>
   <i type="logical" name="LTCTE"> F  </i>
   <i type="logical" name="LTETE"> F  </i>
   <i type="logical" name="LTRIPLET"> F  </i>
   <i type="logical" name="LFXCEPS"> F  </i>
   <i type="logical" name="LFXHEG"> F  </i>
   <i type="logical" name="L2ORDER"> F  </i>
   <i type="logical" name="LUSEW"> F  </i>
   <i name="ENCUTGW">     -2.00000000</i>
   <i name="ENCUTGWSOFT">     -2.00000000</i>
   <i name="ENCUTLF">     -1.00000000</i>
   <i type="int" name="LMAXMP2">    -1</i>
   <i name="SCISSOR">      0.00000000</i>
   <i type="int" name="NOMEGA">     0</i>
   <i type="int" name="NOMEGAR">     0</i>
   <i type="int" name="NBANDSGW">    -1</i>
   <i type="int" name="NBANDSO">    -1</i>
   <i type="int" name="NBANDSV">    -1</i>
   <i type="int" name="NELM">   100</i>
   <i type="int" name="DIM">     3</i>
   <i type="int" name="ANTIRES">     0</i>
   <i name="OMEGAMAX">    -30.00000000</i>
   <i name="OMEGAMIN">    -30.00000000</i>
   <i name="OMEGATL">   -200.00000000</i>
   <i type="int" name="OMEGAGRID">     0</i>
   <i name="CSHIFT">     -0.10000000</i>
   <i type="logical" name="SELFENERGY"> F  </i>
   <i type="logical" name="LSPECTRAL"> F  </i>
   <i type="logical" name="ODDONLYGW"> F  </i>
   <i type="logical" name="EVENONLYGW"> F  </i>
   <i type="int" name="NKREDLFX">     1</i>
   <i type="int" name="NKREDLFY">     1</i>
   <i type="int" name="NKREDLFZ">     1</i>
   <i type="int" name="MAXMEM">  1800</i>
   <i type="int" name="TELESCOPE">     0</i>
   <i type="int" name="TAUPAR">     1</i>
  </separator>
  <separator name="External order field" >
   <i name="OFIELD_KAPPA">      0.00000000</i>
   <v name="OFIELD_K">      0.00000000      0.00000000      0.00000000</v>
   <i name="OFIELD_Q6_NEAR">      0.00000000</i>
   <i name="OFIELD_Q6_FAR">      0.00000000</i>
   <i name="OFIELD_A">      0.00000000</i>
  </separator>
 </parameters>
 <atominfo>
  <atoms>      16 </atoms>
  <types>       3 </types>
  <array name="atoms" >
   <dimension dim="1">ion</dimension>
   <field type="string">element</field>
   <field type="int">atomtype</field>
   <set>
    <rc><c>Sr</c><c>   1</c></rc>
    <rc><c>Sr</c><c>   1</c></rc>
    <rc><c>Sr</c><c>   1</c></rc>
    <rc><c>Sr</c><c>   1</c></rc>
    <rc><c>Cu</c><c>   2</c></rc>
    <rc><c>Cu</c><c>   2</c></rc>
    <rc><c>Cu</c><c>   2</c></rc>
    <rc><c>Cu</c><c>   2</c></rc>
    <rc><c>O </c><c>   3</c></rc>
    <rc><c>O </c><c>   3</c></rc>
    <rc><c>O </c><c>   3</c></rc>
    <rc><c>O </c><c>   3</c></rc>
    <rc><c>O </c><c>   3</c></rc>
    <rc><c>O </c><c>   3</c></rc>
    <rc><c>O </c><c>   3</c></rc>
    <rc><c>O </c><c>   3</c></rc>
   </set>
  </array>
  <array name="atomtypes" >
   <dimension dim="1">type</dimension>
   <field type="int">atomspertype</field>
   <field type="string">element</field>
   <field>mass</field>
   <field>valence</field>
   <field type="string">pseudopotential</field>
   <set>
    <rc><c>   4</c><c>Sr</c><c>     87.62000000</c><c>     10.00000000</c><c>  PAW_PBE Sr_sv 07Sep2000               </c></rc>
    <rc><c>   4</c><c>Cu</c><c>     63.54600000</c><c>     11.00000000</c><c>  PAW_PBE Cu 22Jun2005                  </c></rc>
    <rc><c>   8</c><c>O </c><c>     16.00000000</c><c>      6.00000000</c><c>  PAW_PBE O_s 07Sep2000                 </c></rc>
   </set>
  </array>
 </atominfo>
 <structure name="initialpos" >
  <crystal>
   <varray name="basis" >
    <v>       8.00000000       0.00000000       0.00000000 </v>
    <v>       0.00000000       4.00000000       0.00000000 </v>
    <v>      -4.00000000       0.00000000       8.00000000 </v>
   </varray>
   <i name="volume">    256.00000000 </i>
   <varray name="rec_basis" >
    <v>       0.12500000       0.00000000       0.06250000 </v>
    <v>       0.00000000       0.25000000       0.00000000 </v>
    <v>       0.00000000       0.00000000       0.12500000 </v>
   </varray>
  </crystal>
  <varray name="positions" >
   <v>       0.00000000       0.00000000       0.00000000 </v>
   <v>       0.75000000       0.00000000       0.50000000 </v>
   <v>       0.50000000       0.00000000       0.00000000 </v>
   <v>       0.25000000       0.00000000       0.50000000 </v>
   <v>       0.12500000       0.50000000       0.75000000 </v>
   <v>       0.87500000       0.50000000       0.25000000 </v>
   <v>       0.62500000       0.50000000       0.75000000 </v>
   <v>       0.37500000       0.50000000       0.25000000 </v>
   <v>       0.00000000       0.50000000       0.50000000 </v>
   <v>       0.75000000       0.50000000       0.00000000 </v>
   <v>       0.50000000       0.50000000       0.50000000 </v>
   <v>       0.12500000       0.00000000       0.75000000 </v>
   <v>       0.37500000       0.00000000       0.25000000 </v>
   <v>       0.62500000       0.50000000       0.25000000 </v>
   <v>       0.37500000       0.50000000       0.75000000 </v>
   <v>       0.12500000       0.50000000       0.25000000 </v>
  </varray>
 </structure>
 <calculation>
  <scstep>
   <time name="dav">    2.82    2.83</time>
   <time name="total">    3.00    3.01</time>
   <energy>
    <i name="alphaZ">    598.65364144 </i>
    <i name="ewald">  -8646.53739739 </i>
    <i name="hartreedc">  -3797.66536212 </i>
    <i name="XCdc">    543.13669078 </i>
    <i name="pawpsdc">  10188.96972968 </i>
    <i name="pawaedc"> -10517.73277125 </i>
    <i name="eentropy">     -0.00247306 </i>
    <i name="bandstr">    876.34504400 </i>
    <i name="atom">  12395.00728236 </i>
    <i name="e_fr_energy">   1640.17438444 </i>
    <i name="e_wo_entrp">   1640.17685749 </i>
    <i name="e_0_energy">   1640.17562096 </i>
   </energy>
  </scstep>
  <scstep>
   <time name="dav">    2.87    2.87</time>
   <time name="total">    2.87    2.88</time>
   <energy>
    <i name="e_fr_energy">    150.45596155 </i>
    <i name="e_wo_entrp">    150.46093763 </i>
    <i name="e_0_energy">    150.45844959 </i>
   </energy>
  </scstep>
  <scstep>
   <time name="dav">    2.98    2.98</time>
   <time name="total">    2.98    2.99</time>
   <energy>
    <i name="e_fr_energy">    -78.58317593 </i>
    <i name="e_wo_entrp">    -78.57655582 </i>
    <i name="e_0_energy">    -78.57986588 </i>
   </energy>
  </scstep>
  <scstep>
   <time name="dav">    3.89    3.90</time>
   <time name="total">    3.90    3.91</time>
   <energy>
    <i name="e_fr_energy">    -96.17085720 </i>
    <i name="e_wo_entrp">    -96.16133082 </i>
    <i name="e_0_energy">    -96.16609401 </i>
   </energy>
  </scstep>
  <scstep>
   <time name="dav">    4.77    4.78</time>
   <time name="total">    5.08    5.09</time>
   <energy>
    <i name="e_fr_energy">    -97.20691739 </i>
    <i name="e_wo_entrp">    -97.19762131 </i>
    <i name="e_0_energy">    -97.20226935 </i>
   </energy>
  </scstep>
  <scstep>
   <time name="dav">    3.82    3.83</time>
   <time name="total">    4.30    4.31</time>
   <energy>
    <i name="e_fr_energy">    -86.18581744 </i>
    <i name="e_wo_entrp">    -86.17122529 </i>
    <i name="e_0_energy">    -86.17852136 </i>
   </energy>
  </scstep>
  <scstep>
   <time name="dav">    3.84    3.84</time>
   <time name="total">    4.32    4.33</time>
   <energy>
    <i name="e_fr_energy">    -79.55896485 </i>
    <i name="e_wo_entrp">    -79.55381245 </i>
    <i name="e_0_energy">    -79.55638865 </i>
   </energy>
  </scstep>
  <scstep>
   <time name="dav">    4.11    4.11</time>
   <time name="total">    4.58    4.59</time>
   <energy>
    <i name="e_fr_energy">    -79.87959712 </i>
    <i name="e_wo_entrp">    -79.87560486 </i>
    <i name="e_0_energy">    -79.87760099 </i>
   </energy>
  </scstep>
  <scstep>
   <time name="dav">    3.82    3.83</time>
   <time name="total">    4.30    4.31</time>
   <energy>
    <i name="e_fr_energy">    -80.68235392 </i>
    <i name="e_wo_entrp">    -80.67545231 </i>
    <i name="e_0_energy">    -80.67890312 </i>
   </energy>
  </scstep>
  <scstep>
   <time name="dav">    3.68    3.68</time>
   <time name="total">    4.15    4.17</time>
   <energy>
    <i name="e_fr_energy">    -78.93377057 </i>
    <i name="e_wo_entrp">    -78.92412886 </i>
    <i name="e_0_energy">    -78.92894971 </i>
   </energy>
  </scstep>
  <scstep>
   <time name="dav">    3.95    3.95</time>
   <time name="total">    4.42    4.44</time>
   <energy>
    <i name="e_fr_energy">    -79.19846015 </i>
    <i name="e_wo_entrp">    -79.19179701 </i>
    <i name="e_0_energy">    -79.19512858 </i>
   </energy>
  </scstep>
  <scstep>
   <time name="dav">    3.94    3.94</time>
   <time name="total">    4.41    4.43</time>
   <energy>
    <i name="e_fr_energy">    -79.16197396 </i>
    <i name="e_wo_entrp">    -79.15559580 </i>
    <i name="e_0_energy">    -79.15878488 </i>
   </energy>
  </scstep>
  <scstep>
   <time name="dav">    3.98    3.98</time>
   <time name="total">    4.46    4.47</time>
   <energy>
    <i name="e_fr_energy">    -79.17347391 </i>
    <i name="e_wo_entrp">    -79.16525295 </i>
    <i name="e_0_energy">    -79.16936343 </i>
   </energy>
  </scstep>
  <scstep>
   <time name="dav">    3.80    3.81</time>
   <time name="total">    4.28    4.29</time>
   <energy>
    <i name="e_fr_energy">    -79.16936938 </i>
    <i name="e_wo_entrp">    -79.16227433 </i>
    <i name="e_0_energy">    -79.16582185 </i>
   </energy>
  </scstep>
  <scstep>
   <time name="dav">    4.04    4.04</time>
   <time name="total">    4.51    4.53</time>
   <energy>
    <i name="e_fr_energy">    -79.17196948 </i>
    <i name="e_wo_entrp">    -79.16608486 </i>
    <i name="e_0_energy">    -79.16902717 </i>
   </energy>
  </scstep>
  <scstep>
   <time name="dav">    3.86    3.86</time>
   <time name="total">    4.33    4.35</time>
   <energy>
    <i name="e_fr_energy">    -79.17325174 </i>
    <i name="e_wo_entrp">    -79.16788586 </i>
    <i name="e_0_energy">    -79.17056880 </i>
   </energy>
  </scstep>
  <scstep>
   <time name="dav">    3.93    3.93</time>
   <time name="total">    4.40    4.42</time>
   <energy>
    <i name="e_fr_energy">    -79.17559691 </i>
    <i name="e_wo_entrp">    -79.17070239 </i>
    <i name="e_0_energy">    -79.17314965 </i>
   </energy>
  </scstep>
  <scstep>
   <time name="dav">    3.83    3.83</time>
   <time name="total">    4.30    4.31</time>
   <energy>
    <i name="e_fr_energy">    -79.17673021 </i>
    <i name="e_wo_entrp">    -79.17179273 </i>
    <i name="e_0_energy">    -79.17426147 </i>
   </energy>
  </scstep>
  <scstep>
   <time name="dav">    3.99    3.99</time>
   <time name="total">    4.47    4.48</time>
   <energy>
    <i name="e_fr_energy">    -79.17709759 </i>
    <i name="e_wo_entrp">    -79.17216133 </i>
    <i name="e_0_energy">    -79.17462946 </i>
   </energy>
  </scstep>
  <scstep>
   <time name="dav">    4.06    4.06</time>
   <time name="total">    4.53    4.55</time>
   <energy>
    <i name="e_fr_energy">    -79.17727590 </i>
    <i name="e_wo_entrp">    -79.17232457 </i>
    <i name="e_0_energy">    -79.17480023 </i>
   </energy>
  </scstep>
  <scstep>
   <time name="dav">    4.13    4.13</time>
   <time name="total">    4.60    4.62</time>
   <energy>
    <i name="e_fr_energy">    -79.17735497 </i>
    <i name="e_wo_entrp">    -79.17239239 </i>
    <i name="e_0_energy">    -79.17487368 </i>
   </energy>
  </scstep>
  <scstep>
   <time name="dav">    3.98    3.98</time>
   <time name="total">    4.46    4.47</time>
   <energy>
    <i name="e_fr_energy">    -79.17738804 </i>
    <i name="e_wo_entrp">    -79.17242140 </i>
    <i name="e_0_energy">    -79.17490472 </i>
   </energy>
  </scstep>
  <scstep>
   <time name="dav">    3.63    3.64</time>
   <time name="total">    4.11    4.13</time>
   <energy>
    <i name="e_fr_energy">    -79.17740731 </i>
    <i name="e_wo_entrp">    -79.17244189 </i>
    <i name="e_0_energy">    -79.17492460 </i>
   </energy>
  </scstep>
  <scstep>
   <time name="dav">    3.14    3.14</time>
   <time name="total">    3.62    3.63</time>
   <energy>
    <i name="e_fr_energy">    -79.17741939 </i>
    <i name="e_wo_entrp">    -79.17246399 </i>
    <i name="e_0_energy">    -79.17494169 </i>
   </energy>
  </scstep>
  <scstep>
   <time name="dav">    2.80    2.80</time>
   <time name="total">    3.27    3.28</time>
   <energy>
    <i name="e_fr_energy">    -79.17742769 </i>
    <i name="e_wo_entrp">    -79.17248006 </i>
    <i name="e_0_energy">    -79.17495388 </i>
   </energy>
  </scstep>
  <scstep>
   <time name="dav">    2.57    2.57</time>
   <time name="total">    3.05    3.06</time>
   <energy>
    <i name="e_fr_energy">    -79.17743324 </i>
    <i name="e_wo_entrp">    -79.17249232 </i>
    <i name="e_0_energy">    -79.17496278 </i>
   </energy>
  </scstep>
  <scstep>
   <time name="dav">    2.98    2.98</time>
   <time name="total">    3.45    3.47</time>
   <energy>
    <i name="e_fr_energy">    -79.17742232 </i>
    <i name="e_wo_entrp">    -79.17247603 </i>
    <i name="e_0_energy">    -79.17494917 </i>
   </energy>
  </scstep>
  <scstep>
   <time name="dav">    2.88    2.88</time>
   <time name="total">    3.35    3.36</time>
   <energy>
    <i name="e_fr_energy">    -79.17743519 </i>
    <i name="e_wo_entrp">    -79.17249927 </i>
    <i name="e_0_energy">    -79.17496723 </i>
   </energy>
  </scstep>
  <scstep>
   <time name="dav">    2.20    2.20</time>
   <time name="total">    2.67    2.68</time>
   <energy>
    <i name="e_fr_energy">    -79.17743940 </i>
    <i name="e_wo_entrp">    -79.17250830 </i>
    <i name="e_0_energy">    -79.17497385 </i>
   </energy>
  </scstep>
  <scstep>
   <time name="dav">    2.24    2.24</time>
   <time name="total">    2.72    2.73</time>
   <energy>
    <i name="e_fr_energy">    -79.17744201 </i>
    <i name="e_wo_entrp">    -79.17251617 </i>
    <i name="e_0_energy">    -79.17497909 </i>
   </energy>
  </scstep>
  <scstep>
   <time name="dav">    2.13    2.14</time>
   <time name="total">    2.61    2.63</time>
   <energy>
    <i name="e_fr_energy">    -79.17744432 </i>
    <i name="e_wo_entrp">    -79.17252321 </i>
    <i name="e_0_energy">    -79.17498376 </i>
   </energy>
  </scstep>
  <scstep>
   <time name="dav">    2.39    2.39</time>
   <time name="total">    2.87    2.89</time>
   <energy>
    <i name="e_fr_energy">    -79.17744579 </i>
    <i name="e_wo_entrp">    -79.17252756 </i>
    <i name="e_0_energy">    -79.17498667 </i>
   </energy>
  </scstep>
  <scstep>
   <time name="dav">    2.36    2.36</time>
   <time name="total">    2.54    2.55</time>
   <energy>
    <i name="alphaZ">    598.65364144 </i>
    <i name="ewald">  -8646.53739739 </i>
    <i name="hartreedc">  -3802.41972172 </i>
    <i name="XCdc">    543.43386748 </i>
    <i name="pawpsdc">  15556.15603430 </i>
    <i name="pawaedc"> -15921.60398967 </i>
    <i name="eentropy">     -0.00491708 </i>
    <i name="bandstr">   -801.86224589 </i>
    <i name="atom">  12395.00728236 </i>
    <i name="e_fr_energy">    -79.17744616 </i>
    <i name="e_wo_entrp">    -79.17252907 </i>
    <i name="e_0_energy">    -79.17498761 </i>
   </energy>
  </scstep>
  <structure>
   <crystal>
    <varray name="basis" >
     <v>       8.00000000       0.00000000       0.00000000 </v>
     <v>       0.00000000       4.00000000       0.00000000 </v>
     <v>      -4.00000000       0.00000000       8.00000000 </v>
    </varray>
    <i name="volume">    256.00000000 </i>
    <varray name="rec_basis" >
     <v>       0.12500000       0.00000000       0.06250000 </v>
     <v>       0.00000000       0.25000000       0.00000000 </v>
     <v>       0.00000000       0.00000000       0.12500000 </v>
    </varray>
   </crystal>
   <varray name="positions" >
    <v>       0.00000000       0.00000000       0.00000000 </v>
    <v>       0.75000000       0.00000000       0.50000000 </v>
    <v>       0.50000000       0.00000000       0.00000000 </v>
    <v>       0.25000000       0.00000000       0.50000000 </v>
    <v>       0.12500000       0.50000000       0.75000000 </v>
    <v>       0.87500000       0.50000000       0.25000000 </v>
    <v>       0.62500000       0.50000000       0.75000000 </v>
    <v>       0.37500000       0.50000000       0.25000000 </v>
    <v>       0.00000000       0.50000000       0.50000000 </v>
    <v>       0.75000000       0.50000000       0.00000000 </v>
    <v>       0.50000000       0.50000000       0.50000000 </v>
    <v>       0.12500000       0.00000000       0.75000000 </v>
    <v>       0.37500000       0.00000000       0.25000000 </v>
    <v>       0.62500000       0.50000000       0.25000000 </v>
    <v>       0.37500000       0.50000000       0.75000000 </v>
    <v>       0.12500000       0.50000000       0.25000000 </v>
   </varray>
  </structure>
  <varray name="forces" >
   <v>       0.23379473       0.00000000       1.44173118 </v>
   <v>      -0.10948957       0.00000000      -1.30821647 </v>
   <v>      -0.24189108       0.00000000       0.04313581 </v>
   <v>       0.10770419       0.00000000      -0.02983928 </v>
   <v>       0.83124106       0.00000000      -0.65134806 </v>
   <v>       0.00011117       0.00000000       0.39027577 </v>
   <v>      -0.93082175       0.00000000      -0.49805496 </v>
   <v>       0.02712973       0.00000000       0.34749379 </v>
   <v>      -0.55216625       0.00000000      -1.65140721 </v>
   <v>       0.69543212       0.00000000      -0.74253159 </v>
   <v>       0.66861227       0.00000000       3.20964326 </v>
   <v>      -1.25310025       0.00000000       1.25313498 </v>
   <v>      -0.04110770       0.00000000      -1.19636074 </v>
   <v>       0.77361686       0.00000000      -0.37092825 </v>
   <v>       0.47688155       0.00000000       0.59859927 </v>
   <v>      -0.68594708       0.00000000      -0.83532751 </v>
  </varray>
  <varray name="stress" >
   <v>     -78.77693079       0.00000000       7.99644550 </v>
   <v>       0.00000000    -113.33238751       0.00000000 </v>
   <v>       7.99644551       0.00000000     -89.63066057 </v>
  </varray>
  <energy>
   <i name="e_fr_energy">    -79.17744616 </i>
   <i name="e_wo_entrp">    -79.17498761 </i>
   <i name="e_0_energy">     -0.00491708 </i>
  </energy>
  <time name="totalsc">  132.15  132.67</time>
  <eigenvalues>
   <array>
    <dimension dim="1">band</dimension>
    <dimension dim="2">kpoint</dimension>
    <dimension dim="3">spin</dimension>
    <field>eigene</field>
    <field>occ</field>
    <set>
     <set comment="spin 1">
      <set comment="kpoint 1">
       <r>  -32.1112    1.0000 </r>
       <r>  -31.3833    1.0000 </r>
       <r>  -31.3058    1.0000 </r>
       <r>  -30.6933    1.0000 </r>
       <r>  -14.9584    1.0000 </r>
       <r>  -14.8374    1.0000 </r>
       <r>  -14.6280    1.0000 </r>
       <r>  -14.3737    1.0000 </r>
       <r>  -14.3203    1.0000 </r>
       <r>  -14.0215    1.0000 </r>
       <r>  -13.9253    1.0000 </r>
       <r>  -13.8328    1.0000 </r>
       <r>  -13.7192    1.0000 </r>
       <r>  -13.5561    1.0000 </r>
       <r>  -13.5341    1.0000 </r>
       <r>  -13.2540    1.0000 </r>
       <r>  -13.2444    1.0000 </r>
       <r>  -13.1755    1.0000 </r>
       <r>  -13.1649    1.0000 </r>
       <r>  -13.0079    1.0000 </r>
       <r>  -12.8625    1.0000 </r>
       <r>  -12.5309    1.0000 </r>
       <r>  -12.5241    1.0000 </r>
       <r>  -12.2974    1.0000 </r>
       <r>   -2.8508    1.0000 </r>
       <r>   -2.5111    1.0000 </r>
       <r>   -1.9462    1.0000 </r>
       <r>   -1.8739    1.0000 </r>
       <r>   -1.6986    1.0000 </r>
       <r>   -1.4205    1.0000 </r>
       <r>   -1.3349    1.0000 </r>
       <r>   -1.2488    1.0000 </r>
       <r>   -1.2374    1.0000 </r>
       <r>   -1.0279    1.0000 </r>
       <r>   -0.9142    1.0000 </r>
       <r>   -0.8767    1.0000 </r>
       <r>   -0.7722    1.0000 </r>
       <r>   -0.7224    1.0000 </r>
       <r>   -0.6759    1.0000 </r>
       <r>   -0.6322    1.0000 </r>
       <r>   -0.5556    1.0000 </r>
       <r>   -0.5205    1.0000 </r>
       <r>   -0.5023    1.0000 </r>
       <r>   -0.4326    1.0000 </r>
       <r>   -0.4121    1.0000 </r>
       <r>   -0.3936    1.0000 </r>
       <r>   -0.3017    1.0000 </r>
       <r>   -0.0912    1.0000 </r>
       <r>    0.3063    1.0000 </r>
       <r>    0.3811    1.0000 </r>
       <r>    0.5444    1.0000 </r>
       <r>    0.7108    1.0000 </r>
       <r>    0.7399    1.0000 </r>
       <r>    0.9773    1.0000 </r>
       <r>    1.0173    1.0000 </r>
       <r>    1.0337    1.0000 </r>
       <r>    1.1558    1.0000 </r>
       <r>    1.4220    1.0000 </r>
       <r>    1.5314    1.0000 </r>
       <r>    1.6467    1.0000 </r>
       <r>    1.7074    1.0000 </r>
       <r>    1.7266    1.0000 </r>
       <r>    1.7294    1.0000 </r>
       <r>    1.8799    1.0000 </r>
       <r>    1.9721    1.0000 </r>
       <r>    2.1178    1.0000 </r>
       <r>    2.5470    0.9534 </r>
       <r>    3.1185    0.0000 </r>
       <r>    3.5421    0.0000 </r>
       <r>    5.0025    0.0000 </r>
       <r>    5.5657    0.0000 </r>
       <r>    6.5337    0.0000 </r>
       <r>    7.1345    0.0000 </r>
       <r>    7.4652    0.0000 </r>
       <r>    7.6340    0.0000 </r>
       <r>    7.7868    0.0000 </r>
       <r>    7.9764    0.0000 </r>
       <r>    8.1759    0.0000 </r>
       <r>    8.3445    0.0000 </r>
       <r>    8.7900    0.0000 </r>
       <r>    8.8078    0.0000 </r>
       <r>    9.4697    0.0000 </r>
       <r>    9.4723    0.0000 </r>
       <r>    9.5331    0.0000 </r>
       <r>    9.6888    0.0000 </r>
       <r>    9.8370    0.0000 </r>
       <r>   10.0068    0.0000 </r>
       <r>   10.0092    0.0000 </r>
      </set>
      <set comment="kpoint 2">
       <r>  -32.1111    1.0000 </r>
       <r>  -31.3834    1.0000 </r>
       <r>  -31.3058    1.0000 </r>
       <r>  -30.6934    1.0000 </r>
       <r>  -14.9021    1.0000 </r>
       <r>  -14.8111    1.0000 </r>
       <r>  -14.6818    1.0000 </r>
       <r>  -14.4100    1.0000 </r>
       <r>  -14.2199    1.0000 </r>
       <r>  -14.0393    1.0000 </r>
       <r>  -14.0213    1.0000 </r>
       <r>  -13.9235    1.0000 </r>
       <r>  -13.7029    1.0000 </r>
       <r>  -13.5666    1.0000 </r>
       <r>  -13.4860    1.0000 </r>
       <r>  -13.2737    1.0000 </r>
       <r>  -13.2542    1.0000 </r>
       <r>  -13.1646    1.0000 </r>
       <r>  -13.1544    1.0000 </r>
       <r>  -12.9599    1.0000 </r>
       <r>  -12.8068    1.0000 </r>
       <r>  -12.5350    1.0000 </r>
       <r>  -12.5314    1.0000 </r>
       <r>  -12.3261    1.0000 </r>
       <r>   -2.7186    1.0000 </r>
       <r>   -2.3534    1.0000 </r>
       <r>   -1.9200    1.0000 </r>
       <r>   -1.8583    1.0000 </r>
       <r>   -1.7365    1.0000 </r>
       <r>   -1.5186    1.0000 </r>
       <r>   -1.3640    1.0000 </r>
       <r>   -1.2697    1.0000 </r>
       <r>   -1.2434    1.0000 </r>
       <r>   -1.1886    1.0000 </r>
       <r>   -1.0345    1.0000 </r>
       <r>   -0.9581    1.0000 </r>
       <r>   -0.9557    1.0000 </r>
       <r>   -0.8682    1.0000 </r>
       <r>   -0.6740    1.0000 </r>
       <r>   -0.6085    1.0000 </r>
       <r>   -0.5871    1.0000 </r>
       <r>   -0.5242    1.0000 </r>
       <r>   -0.4558    1.0000 </r>
       <r>   -0.4308    1.0000 </r>
       <r>   -0.4074    1.0000 </r>
       <r>   -0.3763    1.0000 </r>
       <r>   -0.1842    1.0000 </r>
       <r>    0.0126    1.0000 </r>
       <r>    0.3229    1.0000 </r>
       <r>    0.5570    1.0000 </r>
       <r>    0.6367    1.0000 </r>
       <r>    0.7464    1.0000 </r>
       <r>    0.7841    1.0000 </r>
       <r>    1.0290    1.0000 </r>
       <r>    1.0779    1.0000 </r>
       <r>    1.1798    1.0000 </r>
       <r>    1.1801    1.0000 </r>
       <r>    1.2959    1.0000 </r>
       <r>    1.5015    1.0000 </r>
       <r>    1.5385    1.0000 </r>
       <r>    1.6726    1.0000 </r>
       <r>    1.7534    1.0000 </r>
       <r>    1.7845    1.0000 </r>
       <r>    1.8533    1.0000 </r>
       <r>    1.8555    1.0000 </r>
       <r>    2.0087    1.0000 </r>
       <r>    2.5044    0.9980 </r>
       <r>    3.0719    0.0000 </r>
       <r>    3.9179    0.0000 </r>
       <r>    4.8138    0.0000 </r>
       <r>    5.9020    0.0000 </r>
       <r>    6.2683    0.0000 </r>
       <r>    7.1175    0.0000 </r>
       <r>    7.3633    0.0000 </r>
       <r>    7.6404    0.0000 </r>
       <r>    7.7910    0.0000 </r>
       <r>    8.1476    0.0000 </r>
       <r>    8.1675    0.0000 </r>
       <r>    8.4646    0.0000 </r>
       <r>    8.5823    0.0000 </r>
       <r>    8.8063    0.0000 </r>
       <r>    8.9414    0.0000 </r>
       <r>    9.4885    0.0000 </r>
       <r>    9.6214    0.0000 </r>
       <r>    9.6887    0.0000 </r>
       <r>    9.8078    0.0000 </r>
       <r>   10.0171    0.0000 </r>
       <r>   10.0744    0.0000 </r>
      </set>
      <set comment="kpoint 3">
       <r>  -32.1069    1.0000 </r>
       <r>  -31.3789    1.0000 </r>
       <r>  -31.3015    1.0000 </r>
       <r>  -30.6888    1.0000 </r>
       <r>  -14.9186    1.0000 </r>
       <r>  -14.7544    1.0000 </r>
       <r>  -14.6410    1.0000 </r>
       <r>  -14.3114    1.0000 </r>
       <r>  -14.2571    1.0000 </r>
       <r>  -14.1331    1.0000 </r>
       <r>  -13.9463    1.0000 </r>
       <r>  -13.8432    1.0000 </r>
       <r>  -13.7639    1.0000 </r>
       <r>  -13.6042    1.0000 </r>
       <r>  -13.5704    1.0000 </r>
       <r>  -13.3618    1.0000 </r>
       <r>  -13.2416    1.0000 </r>
       <r>  -13.1255    1.0000 </r>
       <r>  -13.0771    1.0000 </r>
       <r>  -13.0040    1.0000 </r>
       <r>  -12.8780    1.0000 </r>
       <r>  -12.6304    1.0000 </r>
       <r>  -12.4246    1.0000 </r>
       <r>  -12.3704    1.0000 </r>
       <r>   -2.8410    1.0000 </r>
       <r>   -2.5073    1.0000 </r>
       <r>   -1.9873    1.0000 </r>
       <r>   -1.8111    1.0000 </r>
       <r>   -1.7062    1.0000 </r>
       <r>   -1.6491    1.0000 </r>
       <r>   -1.5745    1.0000 </r>
       <r>   -1.5353    1.0000 </r>
       <r>   -1.3745    1.0000 </r>
       <r>   -1.3425    1.0000 </r>
       <r>   -1.2306    1.0000 </r>
       <r>   -1.1033    1.0000 </r>
       <r>   -1.0684    1.0000 </r>
       <r>   -0.9551    1.0000 </r>
       <r>   -0.9238    1.0000 </r>
       <r>   -0.8648    1.0000 </r>
       <r>   -0.6542    1.0000 </r>
       <r>   -0.6094    1.0000 </r>
       <r>   -0.5460    1.0000 </r>
       <r>   -0.5180    1.0000 </r>
       <r>   -0.4790    1.0000 </r>
       <r>   -0.3000    1.0000 </r>
       <r>    0.0462    1.0000 </r>
       <r>    0.1212    1.0000 </r>
       <r>    0.4374    1.0000 </r>
       <r>    0.6439    1.0000 </r>
       <r>    0.7008    1.0000 </r>
       <r>    0.8012    1.0000 </r>
       <r>    0.8920    1.0000 </r>
       <r>    1.0940    1.0000 </r>
       <r>    1.1483    1.0000 </r>
       <r>    1.2283    1.0000 </r>
       <r>    1.4017    1.0000 </r>
       <r>    1.4208    1.0000 </r>
       <r>    1.4695    1.0000 </r>
       <r>    1.5437    1.0000 </r>
       <r>    1.6777    1.0000 </r>
       <r>    1.7370    1.0000 </r>
       <r>    1.8343    1.0000 </r>
       <r>    1.9671    1.0000 </r>
       <r>    2.0228    1.0000 </r>
       <r>    2.2404    1.0000 </r>
       <r>    2.9289    0.0000 </r>
       <r>    3.2867    0.0000 </r>
       <r>    4.1209    0.0000 </r>
       <r>    5.0473    0.0000 </r>
       <r>    5.7477    0.0000 </r>
       <r>    6.3400    0.0000 </r>
       <r>    7.0564    0.0000 </r>
       <r>    7.4808    0.0000 </r>
       <r>    7.7890    0.0000 </r>
       <r>    7.9855    0.0000 </r>
       <r>    8.0833    0.0000 </r>
       <r>    8.4976    0.0000 </r>
       <r>    8.5084    0.0000 </r>
       <r>    8.7619    0.0000 </r>
       <r>    8.9040    0.0000 </r>
       <r>    9.2698    0.0000 </r>
       <r>    9.5473    0.0000 </r>
       <r>    9.6226    0.0000 </r>
       <r>    9.8310    0.0000 </r>
       <r>    9.9099    0.0000 </r>
       <r>   10.2091    0.0000 </r>
       <r>   10.3720    0.0000 </r>
      </set>
      <set comment="kpoint 4">
       <r>  -32.1069    1.0000 </r>
       <r>  -31.3790    1.0000 </r>
       <r>  -31.3014    1.0000 </r>
       <r>  -30.6888    1.0000 </r>
       <r>  -14.8818    1.0000 </r>
       <r>  -14.7277    1.0000 </r>
       <r>  -14.6578    1.0000 </r>
       <r>  -14.3669    1.0000 </r>
       <r>  -14.1912    1.0000 </r>
       <r>  -14.1146    1.0000 </r>
       <r>  -14.0197    1.0000 </r>
       <r>  -13.9389    1.0000 </r>
       <r>  -13.7034    1.0000 </r>
       <r>  -13.6208    1.0000 </r>
       <r>  -13.5531    1.0000 </r>
       <r>  -13.3930    1.0000 </r>
       <r>  -13.2014    1.0000 </r>
       <r>  -13.1191    1.0000 </r>
       <r>  -13.1136    1.0000 </r>
       <r>  -12.9766    1.0000 </r>
       <r>  -12.8569    1.0000 </r>
       <r>  -12.6228    1.0000 </r>
       <r>  -12.4194    1.0000 </r>
       <r>  -12.3799    1.0000 </r>
       <r>   -2.7028    1.0000 </r>
       <r>   -2.3543    1.0000 </r>
       <r>   -1.9324    1.0000 </r>
       <r>   -1.7984    1.0000 </r>
       <r>   -1.7802    1.0000 </r>
       <r>   -1.6739    1.0000 </r>
       <r>   -1.5515    1.0000 </r>
       <r>   -1.5268    1.0000 </r>
       <r>   -1.3891    1.0000 </r>
       <r>   -1.3397    1.0000 </r>
       <r>   -1.3092    1.0000 </r>
       <r>   -1.1875    1.0000 </r>
       <r>   -1.1201    1.0000 </r>
       <r>   -1.0756    1.0000 </r>
       <r>   -0.9827    1.0000 </r>
       <r>   -0.9329    1.0000 </r>
       <r>   -0.9109    1.0000 </r>
       <r>   -0.6764    1.0000 </r>
       <r>   -0.5886    1.0000 </r>
       <r>   -0.5651    1.0000 </r>
       <r>   -0.4596    1.0000 </r>
       <r>   -0.3032    1.0000 </r>
       <r>    0.2116    1.0000 </r>
       <r>    0.3321    1.0000 </r>
       <r>    0.5102    1.0000 </r>
       <r>    0.6373    1.0000 </r>
       <r>    0.7657    1.0000 </r>
       <r>    0.9067    1.0000 </r>
       <r>    0.9738    1.0000 </r>
       <r>    1.1237    1.0000 </r>
       <r>    1.2473    1.0000 </r>
       <r>    1.2787    1.0000 </r>
       <r>    1.3329    1.0000 </r>
       <r>    1.3858    1.0000 </r>
       <r>    1.4679    1.0000 </r>
       <r>    1.5169    1.0000 </r>
       <r>    1.5712    1.0000 </r>
       <r>    1.7273    1.0000 </r>
       <r>    1.8324    1.0000 </r>
       <r>    1.9076    1.0000 </r>
       <r>    2.0835    1.0000 </r>
       <r>    2.3877    1.0000 </r>
       <r>    2.8108    0.0000 </r>
       <r>    3.1771    0.0000 </r>
       <r>    4.2235    0.0000 </r>
       <r>    5.0071    0.0000 </r>
       <r>    5.8907    0.0000 </r>
       <r>    6.2201    0.0000 </r>
       <r>    7.1526    0.0000 </r>
       <r>    7.5195    0.0000 </r>
       <r>    7.8323    0.0000 </r>
       <r>    8.0070    0.0000 </r>
       <r>    8.2014    0.0000 </r>
       <r>    8.3799    0.0000 </r>
       <r>    8.5487    0.0000 </r>
       <r>    8.7004    0.0000 </r>
       <r>    8.9204    0.0000 </r>
       <r>    9.0675    0.0000 </r>
       <r>    9.3364    0.0000 </r>
       <r>    9.5616    0.0000 </r>
       <r>    9.7553    0.0000 </r>
       <r>    9.8269    0.0000 </r>
       <r>    9.9534    0.0000 </r>
       <r>   10.2627    0.0000 </r>
      </set>
      <set comment="kpoint 5">
       <r>  -32.1001    1.0000 </r>
       <r>  -31.3718    1.0000 </r>
       <r>  -31.2944    1.0000 </r>
       <r>  -30.6814    1.0000 </r>
       <r>  -15.0053    1.0000 </r>
       <r>  -14.5630    1.0000 </r>
       <r>  -14.5024    1.0000 </r>
       <r>  -14.3822    1.0000 </r>
       <r>  -14.2060    1.0000 </r>
       <r>  -14.0594    1.0000 </r>
       <r>  -13.9726    1.0000 </r>
       <r>  -13.8080    1.0000 </r>
       <r>  -13.7726    1.0000 </r>
       <r>  -13.7040    1.0000 </r>
       <r>  -13.6333    1.0000 </r>
       <r>  -13.4238    1.0000 </r>
       <r>  -13.3091    1.0000 </r>
       <r>  -13.2517    1.0000 </r>
       <r>  -13.0049    1.0000 </r>
       <r>  -12.9578    1.0000 </r>
       <r>  -12.8878    1.0000 </r>
       <r>  -12.7991    1.0000 </r>
       <r>  -12.4731    1.0000 </r>
       <r>  -12.2707    1.0000 </r>
       <r>   -2.9030    1.0000 </r>
       <r>   -2.6304    1.0000 </r>
       <r>   -2.5358    1.0000 </r>
       <r>   -2.3951    1.0000 </r>
       <r>   -1.8213    1.0000 </r>
       <r>   -1.7968    1.0000 </r>
       <r>   -1.7154    1.0000 </r>
       <r>   -1.7063    1.0000 </r>
       <r>   -1.6575    1.0000 </r>
       <r>   -1.4656    1.0000 </r>
       <r>   -1.3455    1.0000 </r>
       <r>   -1.3135    1.0000 </r>
       <r>   -1.2188    1.0000 </r>
       <r>   -1.1863    1.0000 </r>
       <r>   -0.9483    1.0000 </r>
       <r>   -0.9156    1.0000 </r>
       <r>   -0.7235    1.0000 </r>
       <r>   -0.6110    1.0000 </r>
       <r>   -0.5681    1.0000 </r>
       <r>   -0.4676    1.0000 </r>
       <r>   -0.3548    1.0000 </r>
       <r>   -0.1596    1.0000 </r>
       <r>   -0.0549    1.0000 </r>
       <r>    0.1667    1.0000 </r>
       <r>    0.6117    1.0000 </r>
       <r>    0.7234    1.0000 </r>
       <r>    0.8425    1.0000 </r>
       <r>    1.0509    1.0000 </r>
       <r>    1.0814    1.0000 </r>
       <r>    1.1768    1.0000 </r>
       <r>    1.2475    1.0000 </r>
       <r>    1.3141    1.0000 </r>
       <r>    1.3966    1.0000 </r>
       <r>    1.4284    1.0000 </r>
       <r>    1.5583    1.0000 </r>
       <r>    1.6224    1.0000 </r>
       <r>    1.6742    1.0000 </r>
       <r>    1.8877    1.0000 </r>
       <r>    1.9433    1.0000 </r>
       <r>    2.1675    1.0000 </r>
       <r>    2.2244    1.0000 </r>
       <r>    2.2873    1.0000 </r>
       <r>    3.0701    0.0000 </r>
       <r>    3.8316    0.0000 </r>
       <r>    4.7209    0.0000 </r>
       <r>    5.1821    0.0000 </r>
       <r>    5.6326    0.0000 </r>
       <r>    5.8608    0.0000 </r>
       <r>    7.1329    0.0000 </r>
       <r>    7.5211    0.0000 </r>
       <r>    8.0101    0.0000 </r>
       <r>    8.2485    0.0000 </r>
       <r>    8.5075    0.0000 </r>
       <r>    8.6327    0.0000 </r>
       <r>    8.9588    0.0000 </r>
       <r>    9.0839    0.0000 </r>
       <r>    9.4575    0.0000 </r>
       <r>    9.4976    0.0000 </r>
       <r>    9.6204    0.0000 </r>
       <r>    9.8858    0.0000 </r>
       <r>   10.0312    0.0000 </r>
       <r>   10.3306    0.0000 </r>
       <r>   10.4230    0.0000 </r>
       <r>   10.6430    0.0000 </r>
      </set>
      <set comment="kpoint 6">
       <r>  -32.1001    1.0000 </r>
       <r>  -31.3718    1.0000 </r>
       <r>  -31.2943    1.0000 </r>
       <r>  -30.6814    1.0000 </r>
       <r>  -14.9564    1.0000 </r>
       <r>  -14.5774    1.0000 </r>
       <r>  -14.5244    1.0000 </r>
       <r>  -14.3474    1.0000 </r>
       <r>  -14.2917    1.0000 </r>
       <r>  -14.0577    1.0000 </r>
       <r>  -13.9229    1.0000 </r>
       <r>  -13.8711    1.0000 </r>
       <r>  -13.8142    1.0000 </r>
       <r>  -13.6772    1.0000 </r>
       <r>  -13.5754    1.0000 </r>
       <r>  -13.4486    1.0000 </r>
       <r>  -13.3353    1.0000 </r>
       <r>  -13.1896    1.0000 </r>
       <r>  -13.0158    1.0000 </r>
       <r>  -12.9383    1.0000 </r>
       <r>  -12.8972    1.0000 </r>
       <r>  -12.7731    1.0000 </r>
       <r>  -12.4798    1.0000 </r>
       <r>  -12.2985    1.0000 </r>
       <r>   -2.8045    1.0000 </r>
       <r>   -2.6011    1.0000 </r>
       <r>   -2.4265    1.0000 </r>
       <r>   -2.2946    1.0000 </r>
       <r>   -1.8464    1.0000 </r>
       <r>   -1.7856    1.0000 </r>
       <r>   -1.7015    1.0000 </r>
       <r>   -1.6467    1.0000 </r>
       <r>   -1.5990    1.0000 </r>
       <r>   -1.4952    1.0000 </r>
       <r>   -1.4286    1.0000 </r>
       <r>   -1.3695    1.0000 </r>
       <r>   -1.3270    1.0000 </r>
       <r>   -1.1989    1.0000 </r>
       <r>   -1.1502    1.0000 </r>
       <r>   -1.0990    1.0000 </r>
       <r>   -0.9179    1.0000 </r>
       <r>   -0.7554    1.0000 </r>
       <r>   -0.6371    1.0000 </r>
       <r>   -0.5810    1.0000 </r>
       <r>   -0.2335    1.0000 </r>
       <r>   -0.0644    1.0000 </r>
       <r>    0.0818    1.0000 </r>
       <r>    0.4663    1.0000 </r>
       <r>    0.7275    1.0000 </r>
       <r>    0.7694    1.0000 </r>
       <r>    0.8091    1.0000 </r>
       <r>    1.0542    1.0000 </r>
       <r>    1.1467    1.0000 </r>
       <r>    1.2470    1.0000 </r>
       <r>    1.2637    1.0000 </r>
       <r>    1.3283    1.0000 </r>
       <r>    1.3881    1.0000 </r>
       <r>    1.4479    1.0000 </r>
       <r>    1.5526    1.0000 </r>
       <r>    1.6166    1.0000 </r>
       <r>    1.6654    1.0000 </r>
       <r>    1.8093    1.0000 </r>
       <r>    1.9001    1.0000 </r>
       <r>    2.0799    1.0000 </r>
       <r>    2.1421    1.0000 </r>
       <r>    2.7263    0.0003 </r>
       <r>    2.9125    0.0000 </r>
       <r>    3.5886    0.0000 </r>
       <r>    4.6046    0.0000 </r>
       <r>    5.2129    0.0000 </r>
       <r>    5.6113    0.0000 </r>
       <r>    6.0464    0.0000 </r>
       <r>    7.3542    0.0000 </r>
       <r>    7.8037    0.0000 </r>
       <r>    7.9536    0.0000 </r>
       <r>    8.2834    0.0000 </r>
       <r>    8.4625    0.0000 </r>
       <r>    8.5888    0.0000 </r>
       <r>    8.7519    0.0000 </r>
       <r>    9.0492    0.0000 </r>
       <r>    9.1513    0.0000 </r>
       <r>    9.3817    0.0000 </r>
       <r>    9.5127    0.0000 </r>
       <r>    9.8747    0.0000 </r>
       <r>   10.0466    0.0000 </r>
       <r>   10.2352    0.0000 </r>
       <r>   10.3890    0.0000 </r>
       <r>   10.5370    0.0000 </r>
      </set>
      <set comment="kpoint 7">
       <r>  -32.1112    1.0000 </r>
       <r>  -31.3833    1.0000 </r>
       <r>  -31.3058    1.0000 </r>
       <r>  -30.6933    1.0000 </r>
       <r>  -14.9493    1.0000 </r>
       <r>  -14.8138    1.0000 </r>
       <r>  -14.6710    1.0000 </r>
       <r>  -14.3882    1.0000 </r>
       <r>  -14.3064    1.0000 </r>
       <r>  -14.0215    1.0000 </r>
       <r>  -13.8592    1.0000 </r>
       <r>  -13.8251    1.0000 </r>
       <r>  -13.7765    1.0000 </r>
       <r>  -13.5791    1.0000 </r>
       <r>  -13.5242    1.0000 </r>
       <r>  -13.2907    1.0000 </r>
       <r>  -13.2540    1.0000 </r>
       <r>  -13.1649    1.0000 </r>
       <r>  -13.1468    1.0000 </r>
       <r>  -12.9836    1.0000 </r>
       <r>  -12.8629    1.0000 </r>
       <r>  -12.5309    1.0000 </r>
       <r>  -12.5160    1.0000 </r>
       <r>  -12.3033    1.0000 </r>
       <r>   -2.9242    1.0000 </r>
       <r>   -2.4688    1.0000 </r>
       <r>   -2.0094    1.0000 </r>
       <r>   -1.8835    1.0000 </r>
       <r>   -1.7246    1.0000 </r>
       <r>   -1.3411    1.0000 </r>
       <r>   -1.2844    1.0000 </r>
       <r>   -1.2423    1.0000 </r>
       <r>   -1.1486    1.0000 </r>
       <r>   -0.9472    1.0000 </r>
       <r>   -0.8927    1.0000 </r>
       <r>   -0.8846    1.0000 </r>
       <r>   -0.7753    1.0000 </r>
       <r>   -0.7720    1.0000 </r>
       <r>   -0.6869    1.0000 </r>
       <r>   -0.6331    1.0000 </r>
       <r>   -0.5732    1.0000 </r>
       <r>   -0.5192    1.0000 </r>
       <r>   -0.5032    1.0000 </r>
       <r>   -0.4396    1.0000 </r>
       <r>   -0.4314    1.0000 </r>
       <r>   -0.3936    1.0000 </r>
       <r>   -0.2361    1.0000 </r>
       <r>   -0.1069    1.0000 </r>
       <r>    0.2321    1.0000 </r>
       <r>    0.3799    1.0000 </r>
       <r>    0.5511    1.0000 </r>
       <r>    0.5566    1.0000 </r>
       <r>    0.7615    1.0000 </r>
       <r>    0.9707    1.0000 </r>
       <r>    1.0606    1.0000 </r>
       <r>    1.2619    1.0000 </r>
       <r>    1.2736    1.0000 </r>
       <r>    1.3554    1.0000 </r>
       <r>    1.4826    1.0000 </r>
       <r>    1.5677    1.0000 </r>
       <r>    1.6750    1.0000 </r>
       <r>    1.7440    1.0000 </r>
       <r>    1.7841    1.0000 </r>
       <r>    1.8145    1.0000 </r>
       <r>    1.8357    1.0000 </r>
       <r>    2.1213    1.0000 </r>
       <r>    2.2364    1.0000 </r>
       <r>    3.1444    0.0000 </r>
       <r>    4.0120    0.0000 </r>
       <r>    5.0879    0.0000 </r>
       <r>    5.4920    0.0000 </r>
       <r>    6.2632    0.0000 </r>
       <r>    7.1054    0.0000 </r>
       <r>    7.2662    0.0000 </r>
       <r>    7.5530    0.0000 </r>
       <r>    7.8732    0.0000 </r>
       <r>    8.0426    0.0000 </r>
       <r>    8.1447    0.0000 </r>
       <r>    8.6943    0.0000 </r>
       <r>    8.7836    0.0000 </r>
       <r>    8.8032    0.0000 </r>
       <r>    9.4149    0.0000 </r>
       <r>    9.4562    0.0000 </r>
       <r>    9.6483    0.0000 </r>
       <r>    9.6702    0.0000 </r>
       <r>    9.9891    0.0000 </r>
       <r>   10.0133    0.0000 </r>
       <r>   10.0856    0.0000 </r>
      </set>
      <set comment="kpoint 8">
       <r>  -32.1111    1.0000 </r>
       <r>  -31.3834    1.0000 </r>
       <r>  -31.3058    1.0000 </r>
       <r>  -30.6934    1.0000 </r>
       <r>  -14.9033    1.0000 </r>
       <r>  -14.7882    1.0000 </r>
       <r>  -14.6951    1.0000 </r>
       <r>  -14.4361    1.0000 </r>
       <r>  -14.2205    1.0000 </r>
       <r>  -14.0213    1.0000 </r>
       <r>  -13.9737    1.0000 </r>
       <r>  -13.9533    1.0000 </r>
       <r>  -13.7187    1.0000 </r>
       <r>  -13.5804    1.0000 </r>
       <r>  -13.4825    1.0000 </r>
       <r>  -13.2812    1.0000 </r>
       <r>  -13.2542    1.0000 </r>
       <r>  -13.1646    1.0000 </r>
       <r>  -13.1644    1.0000 </r>
       <r>  -12.9168    1.0000 </r>
       <r>  -12.8174    1.0000 </r>
       <r>  -12.5356    1.0000 </r>
       <r>  -12.5314    1.0000 </r>
       <r>  -12.3315    1.0000 </r>
       <r>   -2.7528    1.0000 </r>
       <r>   -2.3001    1.0000 </r>
       <r>   -1.9530    1.0000 </r>
       <r>   -1.8980    1.0000 </r>
       <r>   -1.7380    1.0000 </r>
       <r>   -1.5236    1.0000 </r>
       <r>   -1.2798    1.0000 </r>
       <r>   -1.2748    1.0000 </r>
       <r>   -1.2550    1.0000 </r>
       <r>   -1.1410    1.0000 </r>
       <r>   -1.0194    1.0000 </r>
       <r>   -0.9523    1.0000 </r>
       <r>   -0.9282    1.0000 </r>
       <r>   -0.8731    1.0000 </r>
       <r>   -0.6816    1.0000 </r>
       <r>   -0.6280    1.0000 </r>
       <r>   -0.5869    1.0000 </r>
       <r>   -0.5358    1.0000 </r>
       <r>   -0.4456    1.0000 </r>
       <r>   -0.4387    1.0000 </r>
       <r>   -0.4130    1.0000 </r>
       <r>   -0.3785    1.0000 </r>
       <r>   -0.1695    1.0000 </r>
       <r>   -0.0444    1.0000 </r>
       <r>    0.3118    1.0000 </r>
       <r>    0.5313    1.0000 </r>
       <r>    0.5783    1.0000 </r>
       <r>    0.6726    1.0000 </r>
       <r>    0.8816    1.0000 </r>
       <r>    1.0303    1.0000 </r>
       <r>    1.0745    1.0000 </r>
       <r>    1.2056    1.0000 </r>
       <r>    1.2732    1.0000 </r>
       <r>    1.3231    1.0000 </r>
       <r>    1.5029    1.0000 </r>
       <r>    1.5306    1.0000 </r>
       <r>    1.6248    1.0000 </r>
       <r>    1.6677    1.0000 </r>
       <r>    1.7557    1.0000 </r>
       <r>    1.8537    1.0000 </r>
       <r>    1.8841    1.0000 </r>
       <r>    2.0784    1.0000 </r>
       <r>    2.4052    1.0000 </r>
       <r>    3.0622    0.0000 </r>
       <r>    4.1018    0.0000 </r>
       <r>    4.9641    0.0000 </r>
       <r>    5.5702    0.0000 </r>
       <r>    6.3425    0.0000 </r>
       <r>    6.9433    0.0000 </r>
       <r>    7.3366    0.0000 </r>
       <r>    7.7380    0.0000 </r>
       <r>    7.8318    0.0000 </r>
       <r>    8.1496    0.0000 </r>
       <r>    8.3234    0.0000 </r>
       <r>    8.4715    0.0000 </r>
       <r>    8.5456    0.0000 </r>
       <r>    8.5822    0.0000 </r>
       <r>    9.0526    0.0000 </r>
       <r>    9.4047    0.0000 </r>
       <r>    9.5363    0.0000 </r>
       <r>    9.7498    0.0000 </r>
       <r>    9.8153    0.0000 </r>
       <r>   10.0603    0.0000 </r>
       <r>   10.0777    0.0000 </r>
      </set>
      <set comment="kpoint 9">
       <r>  -32.1111    1.0000 </r>
       <r>  -31.3834    1.0000 </r>
       <r>  -31.3058    1.0000 </r>
       <r>  -30.6934    1.0000 </r>
       <r>  -14.9172    1.0000 </r>
       <r>  -14.8052    1.0000 </r>
       <r>  -14.6477    1.0000 </r>
       <r>  -14.4309    1.0000 </r>
       <r>  -14.2491    1.0000 </r>
       <r>  -14.0213    1.0000 </r>
       <r>  -14.0211    1.0000 </r>
       <r>  -13.9038    1.0000 </r>
       <r>  -13.7118    1.0000 </r>
       <r>  -13.5733    1.0000 </r>
       <r>  -13.4891    1.0000 </r>
       <r>  -13.2672    1.0000 </r>
       <r>  -13.2542    1.0000 </r>
       <r>  -13.1823    1.0000 </r>
       <r>  -13.1646    1.0000 </r>
       <r>  -12.8993    1.0000 </r>
       <r>  -12.8239    1.0000 </r>
       <r>  -12.5478    1.0000 </r>
       <r>  -12.5314    1.0000 </r>
       <r>  -12.3298    1.0000 </r>
       <r>   -2.6768    1.0000 </r>
       <r>   -2.3567    1.0000 </r>
       <r>   -1.9563    1.0000 </r>
       <r>   -1.8094    1.0000 </r>
       <r>   -1.7019    1.0000 </r>
       <r>   -1.5292    1.0000 </r>
       <r>   -1.3960    1.0000 </r>
       <r>   -1.2787    1.0000 </r>
       <r>   -1.2653    1.0000 </r>
       <r>   -1.2456    1.0000 </r>
       <r>   -1.0377    1.0000 </r>
       <r>   -0.9630    1.0000 </r>
       <r>   -0.9515    1.0000 </r>
       <r>   -0.8729    1.0000 </r>
       <r>   -0.6780    1.0000 </r>
       <r>   -0.5860    1.0000 </r>
       <r>   -0.5628    1.0000 </r>
       <r>   -0.5296    1.0000 </r>
       <r>   -0.4460    1.0000 </r>
       <r>   -0.4261    1.0000 </r>
       <r>   -0.4117    1.0000 </r>
       <r>   -0.3750    1.0000 </r>
       <r>   -0.1619    1.0000 </r>
       <r>   -0.0505    1.0000 </r>
       <r>    0.2913    1.0000 </r>
       <r>    0.5128    1.0000 </r>
       <r>    0.6563    1.0000 </r>
       <r>    0.7087    1.0000 </r>
       <r>    0.8647    1.0000 </r>
       <r>    1.0272    1.0000 </r>
       <r>    1.0688    1.0000 </r>
       <r>    1.1306    1.0000 </r>
       <r>    1.1769    1.0000 </r>
       <r>    1.2729    1.0000 </r>
       <r>    1.5492    1.0000 </r>
       <r>    1.5941    1.0000 </r>
       <r>    1.6760    1.0000 </r>
       <r>    1.6904    1.0000 </r>
       <r>    1.7475    1.0000 </r>
       <r>    1.8647    1.0000 </r>
       <r>    1.9117    1.0000 </r>
       <r>    2.1585    1.0000 </r>
       <r>    2.5648    0.8798 </r>
       <r>    2.9939    0.0000 </r>
       <r>    3.9265    0.0000 </r>
       <r>    4.8445    0.0000 </r>
       <r>    5.6500    0.0000 </r>
       <r>    6.4959    0.0000 </r>
       <r>    6.9576    0.0000 </r>
       <r>    7.3176    0.0000 </r>
       <r>    7.6411    0.0000 </r>
       <r>    7.9771    0.0000 </r>
       <r>    8.1247    0.0000 </r>
       <r>    8.1755    0.0000 </r>
       <r>    8.4757    0.0000 </r>
       <r>    8.5819    0.0000 </r>
       <r>    8.6506    0.0000 </r>
       <r>    8.8921    0.0000 </r>
       <r>    9.4605    0.0000 </r>
       <r>    9.4928    0.0000 </r>
       <r>    9.7092    0.0000 </r>
       <r>    9.7758    0.0000 </r>
       <r>   10.1435    0.0000 </r>
       <r>   10.2335    0.0000 </r>
      </set>
      <set comment="kpoint 10">
       <r>  -32.1069    1.0000 </r>
       <r>  -31.3789    1.0000 </r>
       <r>  -31.3015    1.0000 </r>
       <r>  -30.6888    1.0000 </r>
       <r>  -14.9120    1.0000 </r>
       <r>  -14.7304    1.0000 </r>
       <r>  -14.6649    1.0000 </r>
       <r>  -14.3406    1.0000 </r>
       <r>  -14.2236    1.0000 </r>
       <r>  -14.1277    1.0000 </r>
       <r>  -13.9656    1.0000 </r>
       <r>  -13.8215    1.0000 </r>
       <r>  -13.7915    1.0000 </r>
       <r>  -13.6156    1.0000 </r>
       <r>  -13.5783    1.0000 </r>
       <r>  -13.3890    1.0000 </r>
       <r>  -13.2202    1.0000 </r>
       <r>  -13.1261    1.0000 </r>
       <r>  -13.0290    1.0000 </r>
       <r>  -12.9839    1.0000 </r>
       <r>  -12.9022    1.0000 </r>
       <r>  -12.6293    1.0000 </r>
       <r>  -12.4286    1.0000 </r>
       <r>  -12.3755    1.0000 </r>
       <r>   -2.9100    1.0000 </r>
       <r>   -2.4696    1.0000 </r>
       <r>   -1.9347    1.0000 </r>
       <r>   -1.8789    1.0000 </r>
       <r>   -1.7758    1.0000 </r>
       <r>   -1.6470    1.0000 </r>
       <r>   -1.5688    1.0000 </r>
       <r>   -1.5162    1.0000 </r>
       <r>   -1.3213    1.0000 </r>
       <r>   -1.2399    1.0000 </r>
       <r>   -1.1666    1.0000 </r>
       <r>   -1.1360    1.0000 </r>
       <r>   -1.0836    1.0000 </r>
       <r>   -0.9583    1.0000 </r>
       <r>   -0.9105    1.0000 </r>
       <r>   -0.8704    1.0000 </r>
       <r>   -0.7176    1.0000 </r>
       <r>   -0.6831    1.0000 </r>
       <r>   -0.5283    1.0000 </r>
       <r>   -0.5095    1.0000 </r>
       <r>   -0.4158    1.0000 </r>
       <r>   -0.3060    1.0000 </r>
       <r>    0.0718    1.0000 </r>
       <r>    0.2151    1.0000 </r>
       <r>    0.4037    1.0000 </r>
       <r>    0.6009    1.0000 </r>
       <r>    0.6889    1.0000 </r>
       <r>    0.7946    1.0000 </r>
       <r>    0.8913    1.0000 </r>
       <r>    1.1199    1.0000 </r>
       <r>    1.1698    1.0000 </r>
       <r>    1.2487    1.0000 </r>
       <r>    1.3661    1.0000 </r>
       <r>    1.4097    1.0000 </r>
       <r>    1.4557    1.0000 </r>
       <r>    1.5293    1.0000 </r>
       <r>    1.6682    1.0000 </r>
       <r>    1.6989    1.0000 </r>
       <r>    1.8108    1.0000 </r>
       <r>    1.9688    1.0000 </r>
       <r>    1.9875    1.0000 </r>
       <r>    2.1357    1.0000 </r>
       <r>    2.8832    0.0000 </r>
       <r>    3.3966    0.0000 </r>
       <r>    4.2953    0.0000 </r>
       <r>    5.1219    0.0000 </r>
       <r>    5.7258    0.0000 </r>
       <r>    6.1233    0.0000 </r>
       <r>    7.1868    0.0000 </r>
       <r>    7.4933    0.0000 </r>
       <r>    7.6454    0.0000 </r>
       <r>    7.8965    0.0000 </r>
       <r>    7.9543    0.0000 </r>
       <r>    8.4403    0.0000 </r>
       <r>    8.6745    0.0000 </r>
       <r>    8.8080    0.0000 </r>
       <r>    9.1119    0.0000 </r>
       <r>    9.3227    0.0000 </r>
       <r>    9.6019    0.0000 </r>
       <r>    9.6412    0.0000 </r>
       <r>    9.9610    0.0000 </r>
       <r>   10.0246    0.0000 </r>
       <r>   10.1313    0.0000 </r>
       <r>   10.3447    0.0000 </r>
      </set>
      <set comment="kpoint 11">
       <r>  -32.1069    1.0000 </r>
       <r>  -31.3790    1.0000 </r>
       <r>  -31.3014    1.0000 </r>
       <r>  -30.6888    1.0000 </r>
       <r>  -14.8876    1.0000 </r>
       <r>  -14.7110    1.0000 </r>
       <r>  -14.6501    1.0000 </r>
       <r>  -14.3912    1.0000 </r>
       <r>  -14.2034    1.0000 </r>
       <r>  -14.1047    1.0000 </r>
       <r>  -13.9900    1.0000 </r>
       <r>  -13.9377    1.0000 </r>
       <r>  -13.7615    1.0000 </r>
       <r>  -13.5991    1.0000 </r>
       <r>  -13.5532    1.0000 </r>
       <r>  -13.3918    1.0000 </r>
       <r>  -13.2268    1.0000 </r>
       <r>  -13.1459    1.0000 </r>
       <r>  -13.0322    1.0000 </r>
       <r>  -12.9781    1.0000 </r>
       <r>  -12.8645    1.0000 </r>
       <r>  -12.6229    1.0000 </r>
       <r>  -12.4206    1.0000 </r>
       <r>  -12.3860    1.0000 </r>
       <r>   -2.7285    1.0000 </r>
       <r>   -2.3041    1.0000 </r>
       <r>   -1.9734    1.0000 </r>
       <r>   -1.8390    1.0000 </r>
       <r>   -1.7793    1.0000 </r>
       <r>   -1.6749    1.0000 </r>
       <r>   -1.5593    1.0000 </r>
       <r>   -1.5134    1.0000 </r>
       <r>   -1.3866    1.0000 </r>
       <r>   -1.3121    1.0000 </r>
       <r>   -1.2634    1.0000 </r>
       <r>   -1.1556    1.0000 </r>
       <r>   -1.1027    1.0000 </r>
       <r>   -1.0635    1.0000 </r>
       <r>   -1.0016    1.0000 </r>
       <r>   -0.9614    1.0000 </r>
       <r>   -0.9221    1.0000 </r>
       <r>   -0.6576    1.0000 </r>
       <r>   -0.6104    1.0000 </r>
       <r>   -0.5563    1.0000 </r>
       <r>   -0.4523    1.0000 </r>
       <r>   -0.3073    1.0000 </r>
       <r>    0.1890    1.0000 </r>
       <r>    0.3023    1.0000 </r>
       <r>    0.4689    1.0000 </r>
       <r>    0.6630    1.0000 </r>
       <r>    0.7283    1.0000 </r>
       <r>    0.9535    1.0000 </r>
       <r>    1.0051    1.0000 </r>
       <r>    1.1260    1.0000 </r>
       <r>    1.2179    1.0000 </r>
       <r>    1.2609    1.0000 </r>
       <r>    1.3157    1.0000 </r>
       <r>    1.4167    1.0000 </r>
       <r>    1.4728    1.0000 </r>
       <r>    1.5201    1.0000 </r>
       <r>    1.5937    1.0000 </r>
       <r>    1.6934    1.0000 </r>
       <r>    1.8089    1.0000 </r>
       <r>    1.9348    1.0000 </r>
       <r>    2.1103    1.0000 </r>
       <r>    2.4064    1.0000 </r>
       <r>    2.7573    0.0000 </r>
       <r>    3.1718    0.0000 </r>
       <r>    4.3193    0.0000 </r>
       <r>    5.0840    0.0000 </r>
       <r>    5.7153    0.0000 </r>
       <r>    6.2316    0.0000 </r>
       <r>    7.1002    0.0000 </r>
       <r>    7.5635    0.0000 </r>
       <r>    7.7131    0.0000 </r>
       <r>    7.9315    0.0000 </r>
       <r>    8.2040    0.0000 </r>
       <r>    8.5270    0.0000 </r>
       <r>    8.6204    0.0000 </r>
       <r>    8.7696    0.0000 </r>
       <r>    8.9282    0.0000 </r>
       <r>    9.2102    0.0000 </r>
       <r>    9.2734    0.0000 </r>
       <r>    9.3352    0.0000 </r>
       <r>    9.8246    0.0000 </r>
       <r>    9.8905    0.0000 </r>
       <r>   10.0460    0.0000 </r>
       <r>   10.1786    0.0000 </r>
      </set>
      <set comment="kpoint 12">
       <r>  -32.1069    1.0000 </r>
       <r>  -31.3790    1.0000 </r>
       <r>  -31.3014    1.0000 </r>
       <r>  -30.6888    1.0000 </r>
       <r>  -14.8980    1.0000 </r>
       <r>  -14.7305    1.0000 </r>
       <r>  -14.6158    1.0000 </r>
       <r>  -14.3767    1.0000 </r>
       <r>  -14.2295    1.0000 </r>
       <r>  -14.0885    1.0000 </r>
       <r>  -14.0055    1.0000 </r>
       <r>  -13.9541    1.0000 </r>
       <r>  -13.7410    1.0000 </r>
       <r>  -13.5792    1.0000 </r>
       <r>  -13.5502    1.0000 </r>
       <r>  -13.3581    1.0000 </r>
       <r>  -13.2775    1.0000 </r>
       <r>  -13.1626    1.0000 </r>
       <r>  -13.0289    1.0000 </r>
       <r>  -12.9739    1.0000 </r>
       <r>  -12.8594    1.0000 </r>
       <r>  -12.6247    1.0000 </r>
       <r>  -12.4201    1.0000 </r>
       <r>  -12.3848    1.0000 </r>
       <r>   -2.6500    1.0000 </r>
       <r>   -2.3561    1.0000 </r>
       <r>   -2.0143    1.0000 </r>
       <r>   -1.7727    1.0000 </r>
       <r>   -1.7135    1.0000 </r>
       <r>   -1.6748    1.0000 </r>
       <r>   -1.5684    1.0000 </r>
       <r>   -1.5098    1.0000 </r>
       <r>   -1.4097    1.0000 </r>
       <r>   -1.3659    1.0000 </r>
       <r>   -1.3143    1.0000 </r>
       <r>   -1.2383    1.0000 </r>
       <r>   -1.1415    1.0000 </r>
       <r>   -1.0594    1.0000 </r>
       <r>   -0.9836    1.0000 </r>
       <r>   -0.9223    1.0000 </r>
       <r>   -0.9129    1.0000 </r>
       <r>   -0.6753    1.0000 </r>
       <r>   -0.5646    1.0000 </r>
       <r>   -0.5532    1.0000 </r>
       <r>   -0.4590    1.0000 </r>
       <r>   -0.3012    1.0000 </r>
       <r>    0.2389    1.0000 </r>
       <r>    0.2621    1.0000 </r>
       <r>    0.4496    1.0000 </r>
       <r>    0.5763    1.0000 </r>
       <r>    0.7733    1.0000 </r>
       <r>    0.9359    1.0000 </r>
       <r>    0.9773    1.0000 </r>
       <r>    1.1399    1.0000 </r>
       <r>    1.2218    1.0000 </r>
       <r>    1.2863    1.0000 </r>
       <r>    1.3456    1.0000 </r>
       <r>    1.3849    1.0000 </r>
       <r>    1.4629    1.0000 </r>
       <r>    1.5521    1.0000 </r>
       <r>    1.6046    1.0000 </r>
       <r>    1.7583    1.0000 </r>
       <r>    1.8613    1.0000 </r>
       <r>    1.9325    1.0000 </r>
       <r>    2.1622    1.0000 </r>
       <r>    2.3931    1.0000 </r>
       <r>    2.7792    0.0000 </r>
       <r>    3.1407    0.0000 </r>
       <r>    4.2571    0.0000 </r>
       <r>    4.9822    0.0000 </r>
       <r>    5.7187    0.0000 </r>
       <r>    6.3005    0.0000 </r>
       <r>    7.1637    0.0000 </r>
       <r>    7.4592    0.0000 </r>
       <r>    7.7571    0.0000 </r>
       <r>    8.0390    0.0000 </r>
       <r>    8.1573    0.0000 </r>
       <r>    8.4868    0.0000 </r>
       <r>    8.6845    0.0000 </r>
       <r>    8.7722    0.0000 </r>
       <r>    8.8319    0.0000 </r>
       <r>    9.0066    0.0000 </r>
       <r>    9.2504    0.0000 </r>
       <r>    9.6339    0.0000 </r>
       <r>    9.7154    0.0000 </r>
       <r>    9.7518    0.0000 </r>
       <r>    9.9628    0.0000 </r>
       <r>   10.3148    0.0000 </r>
      </set>
      <set comment="kpoint 13">
       <r>  -32.1001    1.0000 </r>
       <r>  -31.3718    1.0000 </r>
       <r>  -31.2944    1.0000 </r>
       <r>  -30.6814    1.0000 </r>
       <r>  -14.9700    1.0000 </r>
       <r>  -14.5919    1.0000 </r>
       <r>  -14.5360    1.0000 </r>
       <r>  -14.3735    1.0000 </r>
       <r>  -14.2744    1.0000 </r>
       <r>  -13.9949    1.0000 </r>
       <r>  -13.9178    1.0000 </r>
       <r>  -13.8426    1.0000 </r>
       <r>  -13.7813    1.0000 </r>
       <r>  -13.6665    1.0000 </r>
       <r>  -13.6221    1.0000 </r>
       <r>  -13.4411    1.0000 </r>
       <r>  -13.3574    1.0000 </r>
       <r>  -13.1721    1.0000 </r>
       <r>  -13.1032    1.0000 </r>
       <r>  -12.9800    1.0000 </r>
       <r>  -12.8276    1.0000 </r>
       <r>  -12.7938    1.0000 </r>
       <r>  -12.4663    1.0000 </r>
       <r>  -12.2724    1.0000 </r>
       <r>   -2.9610    1.0000 </r>
       <r>   -2.6397    1.0000 </r>
       <r>   -2.4922    1.0000 </r>
       <r>   -2.3732    1.0000 </r>
       <r>   -1.8681    1.0000 </r>
       <r>   -1.8399    1.0000 </r>
       <r>   -1.7701    1.0000 </r>
       <r>   -1.6490    1.0000 </r>
       <r>   -1.6105    1.0000 </r>
       <r>   -1.4424    1.0000 </r>
       <r>   -1.3699    1.0000 </r>
       <r>   -1.2999    1.0000 </r>
       <r>   -1.2107    1.0000 </r>
       <r>   -1.1535    1.0000 </r>
       <r>   -0.9468    1.0000 </r>
       <r>   -0.9282    1.0000 </r>
       <r>   -0.7818    1.0000 </r>
       <r>   -0.7242    1.0000 </r>
       <r>   -0.6021    1.0000 </r>
       <r>   -0.3350    1.0000 </r>
       <r>   -0.3085    1.0000 </r>
       <r>   -0.0992    1.0000 </r>
       <r>    0.0749    1.0000 </r>
       <r>    0.3524    1.0000 </r>
       <r>    0.4909    1.0000 </r>
       <r>    0.6206    1.0000 </r>
       <r>    0.7742    1.0000 </r>
       <r>    0.9996    1.0000 </r>
       <r>    1.0731    1.0000 </r>
       <r>    1.1553    1.0000 </r>
       <r>    1.2495    1.0000 </r>
       <r>    1.3473    1.0000 </r>
       <r>    1.3960    1.0000 </r>
       <r>    1.4775    1.0000 </r>
       <r>    1.5343    1.0000 </r>
       <r>    1.5871    1.0000 </r>
       <r>    1.6685    1.0000 </r>
       <r>    1.7844    1.0000 </r>
       <r>    1.8923    1.0000 </r>
       <r>    2.1219    1.0000 </r>
       <r>    2.2589    1.0000 </r>
       <r>    2.3715    1.0000 </r>
       <r>    3.2041    0.0000 </r>
       <r>    3.8423    0.0000 </r>
       <r>    4.6128    0.0000 </r>
       <r>    5.0356    0.0000 </r>
       <r>    5.7632    0.0000 </r>
       <r>    5.9044    0.0000 </r>
       <r>    7.1688    0.0000 </r>
       <r>    7.7456    0.0000 </r>
       <r>    7.8563    0.0000 </r>
       <r>    8.3816    0.0000 </r>
       <r>    8.4568    0.0000 </r>
       <r>    8.7153    0.0000 </r>
       <r>    8.8985    0.0000 </r>
       <r>    9.0643    0.0000 </r>
       <r>    9.2186    0.0000 </r>
       <r>    9.4248    0.0000 </r>
       <r>    9.7319    0.0000 </r>
       <r>   10.0153    0.0000 </r>
       <r>   10.1671    0.0000 </r>
       <r>   10.2586    0.0000 </r>
       <r>   10.5192    0.0000 </r>
       <r>   10.6599    0.0000 </r>
      </set>
      <set comment="kpoint 14">
       <r>  -32.1001    1.0000 </r>
       <r>  -31.3718    1.0000 </r>
       <r>  -31.2944    1.0000 </r>
       <r>  -30.6814    1.0000 </r>
       <r>  -14.9443    1.0000 </r>
       <r>  -14.5774    1.0000 </r>
       <r>  -14.5124    1.0000 </r>
       <r>  -14.4079    1.0000 </r>
       <r>  -14.2780    1.0000 </r>
       <r>  -14.0565    1.0000 </r>
       <r>  -13.9428    1.0000 </r>
       <r>  -13.8554    1.0000 </r>
       <r>  -13.7819    1.0000 </r>
       <r>  -13.6586    1.0000 </r>
       <r>  -13.5811    1.0000 </r>
       <r>  -13.4436    1.0000 </r>
       <r>  -13.3476    1.0000 </r>
       <r>  -13.1779    1.0000 </r>
       <r>  -13.0827    1.0000 </r>
       <r>  -12.9451    1.0000 </r>
       <r>  -12.8556    1.0000 </r>
       <r>  -12.7699    1.0000 </r>
       <r>  -12.4729    1.0000 </r>
       <r>  -12.2997    1.0000 </r>
       <r>   -2.7860    1.0000 </r>
       <r>   -2.6311    1.0000 </r>
       <r>   -2.4386    1.0000 </r>
       <r>   -2.2714    1.0000 </r>
       <r>   -1.8752    1.0000 </r>
       <r>   -1.8124    1.0000 </r>
       <r>   -1.7267    1.0000 </r>
       <r>   -1.6553    1.0000 </r>
       <r>   -1.5416    1.0000 </r>
       <r>   -1.4608    1.0000 </r>
       <r>   -1.4375    1.0000 </r>
       <r>   -1.4000    1.0000 </r>
       <r>   -1.3013    1.0000 </r>
       <r>   -1.2515    1.0000 </r>
       <r>   -1.0946    1.0000 </r>
       <r>   -1.0683    1.0000 </r>
       <r>   -0.9296    1.0000 </r>
       <r>   -0.7619    1.0000 </r>
       <r>   -0.6345    1.0000 </r>
       <r>   -0.6030    1.0000 </r>
       <r>   -0.2225    1.0000 </r>
       <r>   -0.0622    1.0000 </r>
       <r>    0.2054    1.0000 </r>
       <r>    0.4978    1.0000 </r>
       <r>    0.5389    1.0000 </r>
       <r>    0.6837    1.0000 </r>
       <r>    0.8665    1.0000 </r>
       <r>    1.0648    1.0000 </r>
       <r>    1.1236    1.0000 </r>
       <r>    1.1948    1.0000 </r>
       <r>    1.2878    1.0000 </r>
       <r>    1.3643    1.0000 </r>
       <r>    1.4072    1.0000 </r>
       <r>    1.4647    1.0000 </r>
       <r>    1.5466    1.0000 </r>
       <r>    1.5954    1.0000 </r>
       <r>    1.6699    1.0000 </r>
       <r>    1.8086    1.0000 </r>
       <r>    1.9335    1.0000 </r>
       <r>    2.1113    1.0000 </r>
       <r>    2.1691    1.0000 </r>
       <r>    2.7816    0.0000 </r>
       <r>    2.8942    0.0000 </r>
       <r>    3.5232    0.0000 </r>
       <r>    4.5949    0.0000 </r>
       <r>    5.1319    0.0000 </r>
       <r>    5.7428    0.0000 </r>
       <r>    5.9541    0.0000 </r>
       <r>    7.3325    0.0000 </r>
       <r>    7.8079    0.0000 </r>
       <r>    7.9396    0.0000 </r>
       <r>    8.4083    0.0000 </r>
       <r>    8.4871    0.0000 </r>
       <r>    8.6583    0.0000 </r>
       <r>    8.7927    0.0000 </r>
       <r>    8.9953    0.0000 </r>
       <r>    9.1386    0.0000 </r>
       <r>    9.4816    0.0000 </r>
       <r>    9.5462    0.0000 </r>
       <r>    9.7539    0.0000 </r>
       <r>   10.0273    0.0000 </r>
       <r>   10.2435    0.0000 </r>
       <r>   10.4084    0.0000 </r>
       <r>   10.5297    0.0000 </r>
      </set>
      <set comment="kpoint 15">
       <r>  -32.1001    1.0000 </r>
       <r>  -31.3718    1.0000 </r>
       <r>  -31.2943    1.0000 </r>
       <r>  -30.6814    1.0000 </r>
       <r>  -14.9724    1.0000 </r>
       <r>  -14.5332    1.0000 </r>
       <r>  -14.5192    1.0000 </r>
       <r>  -14.3630    1.0000 </r>
       <r>  -14.2200    1.0000 </r>
       <r>  -14.1890    1.0000 </r>
       <r>  -13.9505    1.0000 </r>
       <r>  -13.8608    1.0000 </r>
       <r>  -13.7470    1.0000 </r>
       <r>  -13.6884    1.0000 </r>
       <r>  -13.5721    1.0000 </r>
       <r>  -13.4096    1.0000 </r>
       <r>  -13.3287    1.0000 </r>
       <r>  -13.2393    1.0000 </r>
       <r>  -13.0371    1.0000 </r>
       <r>  -12.9511    1.0000 </r>
       <r>  -12.8491    1.0000 </r>
       <r>  -12.7897    1.0000 </r>
       <r>  -12.4730    1.0000 </r>
       <r>  -12.2991    1.0000 </r>
       <r>   -2.7064    1.0000 </r>
       <r>   -2.6118    1.0000 </r>
       <r>   -2.5093    1.0000 </r>
       <r>   -2.3040    1.0000 </r>
       <r>   -1.8252    1.0000 </r>
       <r>   -1.7884    1.0000 </r>
       <r>   -1.6929    1.0000 </r>
       <r>   -1.6543    1.0000 </r>
       <r>   -1.5919    1.0000 </r>
       <r>   -1.4896    1.0000 </r>
       <r>   -1.4426    1.0000 </r>
       <r>   -1.3697    1.0000 </r>
       <r>   -1.3310    1.0000 </r>
       <r>   -1.2163    1.0000 </r>
       <r>   -1.1953    1.0000 </r>
       <r>   -1.1017    1.0000 </r>
       <r>   -0.8938    1.0000 </r>
       <r>   -0.7560    1.0000 </r>
       <r>   -0.6362    1.0000 </r>
       <r>   -0.5539    1.0000 </r>
       <r>   -0.2219    1.0000 </r>
       <r>   -0.0741    1.0000 </r>
       <r>    0.1009    1.0000 </r>
       <r>    0.3561    1.0000 </r>
       <r>    0.6840    1.0000 </r>
       <r>    0.7649    1.0000 </r>
       <r>    0.8267    1.0000 </r>
       <r>    1.0599    1.0000 </r>
       <r>    1.1260    1.0000 </r>
       <r>    1.2244    1.0000 </r>
       <r>    1.2993    1.0000 </r>
       <r>    1.3520    1.0000 </r>
       <r>    1.3867    1.0000 </r>
       <r>    1.4850    1.0000 </r>
       <r>    1.5070    1.0000 </r>
       <r>    1.6298    1.0000 </r>
       <r>    1.6727    1.0000 </r>
       <r>    1.8975    1.0000 </r>
       <r>    1.9847    1.0000 </r>
       <r>    2.1367    1.0000 </r>
       <r>    2.1807    1.0000 </r>
       <r>    2.6432    0.1488 </r>
       <r>    2.8910    0.0000 </r>
       <r>    3.5488    0.0000 </r>
       <r>    4.6144    0.0000 </r>
       <r>    5.2178    0.0000 </r>
       <r>    5.7055    0.0000 </r>
       <r>    5.8099    0.0000 </r>
       <r>    7.3440    0.0000 </r>
       <r>    7.6790    0.0000 </r>
       <r>    7.9852    0.0000 </r>
       <r>    8.3670    0.0000 </r>
       <r>    8.4715    0.0000 </r>
       <r>    8.7331    0.0000 </r>
       <r>    8.8689    0.0000 </r>
       <r>    8.9389    0.0000 </r>
       <r>    9.1975    0.0000 </r>
       <r>    9.5025    0.0000 </r>
       <r>    9.6345    0.0000 </r>
       <r>    9.7138    0.0000 </r>
       <r>   10.0379    0.0000 </r>
       <r>   10.1328    0.0000 </r>
[...]
       <r>     1.8203    10.2169    62.2086 </r>
       <r>     1.9772     9.4349    63.6882 </r>
       <r>     2.1340     5.8031    64.5983 </r>
       <r>     2.2908     4.9801    65.3794 </r>
       <r>     2.4477     2.6690    65.7980 </r>
       <r>     2.6045     0.8959    65.9385 </r>
       <r>     2.7613     1.6988    66.2049 </r>
       <r>     2.9182     3.4425    66.7448 </r>
       <r>     3.0750     1.5913    66.9943 </r>
       <r>     3.2318     2.8413    67.4399 </r>
       <r>     3.3887     0.6861    67.5475 </r>
       <r>     3.5455     1.1533    67.7284 </r>
       <r>     3.7023     1.0229    67.8888 </r>
       <r>     3.8591     0.6305    67.9877 </r>
       <r>     4.0160     0.9412    68.1353 </r>
       <r>     4.1728     0.7173    68.2478 </r>
       <r>     4.3296     1.9211    68.5491 </r>
       <r>     4.4865     0.3255    68.6002 </r>
       <r>     4.6433     1.9167    68.9008 </r>
       <r>     4.8001     0.7579    69.0196 </r>
       <r>     4.9570     0.7623    69.1392 </r>
       <r>     5.1138     3.1570    69.6343 </r>
       <r>     5.2706     2.2627    69.9892 </r>
       <r>     5.4275     0.0787    70.0015 </r>
       <r>     5.5843     0.7168    70.1139 </r>
       <r>     5.7411     3.3814    70.6442 </r>
       <r>     5.8979     2.9559    71.1078 </r>
       <r>     6.0548     1.6464    71.3660 </r>
       <r>     6.2116     1.2107    71.5559 </r>
       <r>     6.3684     2.2647    71.9111 </r>
       <r>     6.5253     0.4254    71.9778 </r>
       <r>     6.6821     0.1417    72.0000 </r>
       <r>     6.8389     0.0006    72.0001 </r>
       <r>     6.9958     0.5205    72.0817 </r>
       <r>     7.1526     2.4263    72.4622 </r>
       <r>     7.3094     2.4741    72.8503 </r>
       <r>     7.4663     2.7689    73.2845 </r>
       <r>     7.6231     2.9581    73.7484 </r>
       <r>     7.7799     3.7662    74.3391 </r>
       <r>     7.9367     4.7825    75.0891 </r>
       <r>     8.0936     4.4993    75.7948 </r>
       <r>     8.2504     3.7148    76.3774 </r>
       <r>     8.4072     3.0220    76.8513 </r>
       <r>     8.5641     6.9175    77.9362 </r>
       <r>     8.7209     5.4828    78.7960 </r>
       <r>     8.8777     6.2636    79.7784 </r>
       <r>     9.0346     4.7072    80.5166 </r>
       <r>     9.1914     4.1057    81.1605 </r>
       <r>     9.3482     3.9321    81.7772 </r>
       <r>     9.5051     4.8430    82.5367 </r>
       <r>     9.6619     5.9116    83.4638 </r>
       <r>     9.8187     6.1658    84.4308 </r>
       <r>     9.9755     4.5117    85.1384 </r>
       <r>    10.1324     6.8143    86.2071 </r>
       <r>    10.2892     4.4857    86.9106 </r>
       <r>    10.4460     3.1920    87.4112 </r>
       <r>    10.6029     2.8686    87.8611 </r>
       <r>    10.7597     0.8842    87.9998 </r>
       <r>    10.9165     0.0015    88.0000 </r>
       <r>    11.0734     0.0000    88.0000 </r>
       <r>    11.2302     0.0000    88.0000 </r>
       <r>    11.3870     0.0000    88.0000 </r>
       <r>    11.5439     0.0000    88.0000 </r>
       <r>    11.7007     0.0000    88.0000 </r>
       <r>    11.8575     0.0000    88.0000 </r>
       <r>    12.0143     0.0000    88.0000 </r>
       <r>    12.1712     0.0000    88.0000 </r>
       <r>    12.3280     0.0000    88.0000 </r>
       <r>    12.4848     0.0000    88.0000 </r>
       <r>    12.6417     0.0000    88.0000 </r>
       <r>    12.7985     0.0000    88.0000 </r>
      </set>
      <set comment="spin 2">
       <r>   -34.2508     0.0000     0.0000 </r>
       <r>   -34.0939     0.0000     0.0000 </r>
       <r>   -33.9371     0.0000     0.0000 </r>
       <r>   -33.7803     0.0000     0.0000 </r>
       <r>   -33.6234     0.0000     0.0000 </r>
       <r>   -33.4666     0.0000     0.0000 </r>
       <r>   -33.3098     0.0000     0.0000 </r>
       <r>   -33.1529     0.0000     0.0000 </r>
       <r>   -32.9961     0.0000     0.0000 </r>
       <r>   -32.8393     0.0000     0.0000 </r>
       <r>   -32.6825     0.0000     0.0000 </r>
       <r>   -32.5256     0.0000     0.0000 </r>
       <r>   -32.3688     0.0000     0.0000 </r>
       <r>   -32.2120     0.0094     0.0015 </r>
       <r>   -32.0551     5.8789     0.9235 </r>
       <r>   -31.8983     0.4880     1.0000 </r>
       <r>   -31.7415     0.0000     1.0000 </r>
       <r>   -31.5846     0.0000     1.0000 </r>
       <r>   -31.4278     0.4778     1.0749 </r>
       <r>   -31.2710    10.9060     2.7853 </r>
       <r>   -31.1141     1.3689     3.0000 </r>
       <r>   -30.9573     0.0000     3.0000 </r>
       <r>   -30.8005     0.0043     3.0007 </r>
       <r>   -30.6437     5.6293     3.8835 </r>
       <r>   -30.4868     0.7427     4.0000 </r>
       <r>   -30.3300     0.0000     4.0000 </r>
       <r>   -30.1732     0.0000     4.0000 </r>
       <r>   -30.0163     0.0000     4.0000 </r>
       <r>   -29.8595     0.0000     4.0000 </r>
       <r>   -29.7027     0.0000     4.0000 </r>
       <r>   -29.5458     0.0000     4.0000 </r>
       <r>   -29.3890     0.0000     4.0000 </r>
       <r>   -29.2322     0.0000     4.0000 </r>
       <r>   -29.0753     0.0000     4.0000 </r>
       <r>   -28.9185     0.0000     4.0000 </r>
       <r>   -28.7617     0.0000     4.0000 </r>
       <r>   -28.6049     0.0000     4.0000 </r>
       <r>   -28.4480     0.0000     4.0000 </r>
       <r>   -28.2912     0.0000     4.0000 </r>
       <r>   -28.1344     0.0000     4.0000 </r>
       <r>   -27.9775     0.0000     4.0000 </r>
       <r>   -27.8207     0.0000     4.0000 </r>
       <r>   -27.6639     0.0000     4.0000 </r>
       <r>   -27.5070     0.0000     4.0000 </r>
       <r>   -27.3502     0.0000     4.0000 </r>
       <r>   -27.1934     0.0000     4.0000 </r>
       <r>   -27.0365     0.0000     4.0000 </r>
       <r>   -26.8797     0.0000     4.0000 </r>
       <r>   -26.7229     0.0000     4.0000 </r>
       <r>   -26.5661     0.0000     4.0000 </r>
       <r>   -26.4092     0.0000     4.0000 </r>
       <r>   -26.2524     0.0000     4.0000 </r>
       <r>   -26.0956     0.0000     4.0000 </r>
       <r>   -25.9387     0.0000     4.0000 </r>
       <r>   -25.7819     0.0000     4.0000 </r>
       <r>   -25.6251     0.0000     4.0000 </r>
       <r>   -25.4682     0.0000     4.0000 </r>
       <r>   -25.3114     0.0000     4.0000 </r>
       <r>   -25.1546     0.0000     4.0000 </r>
       <r>   -24.9977     0.0000     4.0000 </r>
       <r>   -24.8409     0.0000     4.0000 </r>
       <r>   -24.6841     0.0000     4.0000 </r>
       <r>   -24.5272     0.0000     4.0000 </r>
       <r>   -24.3704     0.0000     4.0000 </r>
       <r>   -24.2136     0.0000     4.0000 </r>
       <r>   -24.0568     0.0000     4.0000 </r>
       <r>   -23.8999     0.0000     4.0000 </r>
       <r>   -23.7431     0.0000     4.0000 </r>
       <r>   -23.5863     0.0000     4.0000 </r>
       <r>   -23.4294     0.0000     4.0000 </r>
       <r>   -23.2726     0.0000     4.0000 </r>
       <r>   -23.1158     0.0000     4.0000 </r>
       <r>   -22.9589     0.0000     4.0000 </r>
       <r>   -22.8021     0.0000     4.0000 </r>
       <r>   -22.6453     0.0000     4.0000 </r>
       <r>   -22.4884     0.0000     4.0000 </r>
       <r>   -22.3316     0.0000     4.0000 </r>
       <r>   -22.1748     0.0000     4.0000 </r>
       <r>   -22.0180     0.0000     4.0000 </r>
       <r>   -21.8611     0.0000     4.0000 </r>
       <r>   -21.7043     0.0000     4.0000 </r>
       <r>   -21.5475     0.0000     4.0000 </r>
       <r>   -21.3906     0.0000     4.0000 </r>
       <r>   -21.2338     0.0000     4.0000 </r>
       <r>   -21.0770     0.0000     4.0000 </r>
       <r>   -20.9201     0.0000     4.0000 </r>
       <r>   -20.7633     0.0000     4.0000 </r>
       <r>   -20.6065     0.0000     4.0000 </r>
       <r>   -20.4496     0.0000     4.0000 </r>
       <r>   -20.2928     0.0000     4.0000 </r>
       <r>   -20.1360     0.0000     4.0000 </r>
       <r>   -19.9792     0.0000     4.0000 </r>
       <r>   -19.8223     0.0000     4.0000 </r>
       <r>   -19.6655     0.0000     4.0000 </r>
       <r>   -19.5087     0.0000     4.0000 </r>
       <r>   -19.3518     0.0000     4.0000 </r>
       <r>   -19.1950     0.0000     4.0000 </r>
       <r>   -19.0382     0.0000     4.0000 </r>
       <r>   -18.8813     0.0000     4.0000 </r>
       <r>   -18.7245     0.0000     4.0000 </r>
       <r>   -18.5677     0.0000     4.0000 </r>
       <r>   -18.4108     0.0000     4.0000 </r>
       <r>   -18.2540     0.0000     4.0000 </r>
       <r>   -18.0972     0.0000     4.0000 </r>
       <r>   -17.9404     0.0000     4.0000 </r>
       <r>   -17.7835     0.0000     4.0000 </r>
       <r>   -17.6267     0.0000     4.0000 </r>
       <r>   -17.4699     0.0000     4.0000 </r>
       <r>   -17.3130     0.0000     4.0000 </r>
       <r>   -17.1562     0.0000     4.0000 </r>
       <r>   -16.9994     0.0000     4.0000 </r>
       <r>   -16.8425     0.0000     4.0000 </r>
       <r>   -16.6857     0.0000     4.0000 </r>
       <r>   -16.5289     0.0000     4.0000 </r>
       <r>   -16.3720     0.0000     4.0000 </r>
       <r>   -16.2152     0.0000     4.0000 </r>
       <r>   -16.0584     0.0000     4.0000 </r>
       <r>   -15.9015     0.0000     4.0000 </r>
       <r>   -15.7447     0.0000     4.0000 </r>
       <r>   -15.5879     0.0000     4.0000 </r>
       <r>   -15.4311     0.0000     4.0000 </r>
       <r>   -15.2742     0.0000     4.0000 </r>
       <r>   -15.1174     0.0005     4.0001 </r>
       <r>   -14.9606     2.2160     4.3476 </r>
       <r>   -14.8037     5.0165     5.1343 </r>
       <r>   -14.6469     5.9309     6.0645 </r>
       <r>   -14.4901     5.7155     6.9609 </r>
       <r>   -14.3332     6.1598     7.9269 </r>
       <r>   -14.1764     7.4936     9.1021 </r>
       <r>   -14.0196     6.7758    10.1648 </r>
       <r>   -13.8627    10.4645    11.8059 </r>
       <r>   -13.7059     7.5867    12.9958 </r>
       <r>   -13.5491     8.5930    14.3434 </r>
       <r>   -13.3923     7.5857    15.5331 </r>
       <r>   -13.2354     8.1856    16.8168 </r>
       <r>   -13.0786    10.5746    18.4753 </r>
       <r>   -12.9218     9.0312    19.8916 </r>
       <r>   -12.7649     8.8239    21.2755 </r>
       <r>   -12.6081     2.8489    21.7223 </r>
       <r>   -12.4513     5.4812    22.5819 </r>
       <r>   -12.2944     7.6768    23.7859 </r>
       <r>   -12.1376     1.3653    24.0000 </r>
       <r>   -11.9808     0.0000    24.0000 </r>
       <r>   -11.8239     0.0000    24.0000 </r>
       <r>   -11.6671     0.0000    24.0000 </r>
       <r>   -11.5103     0.0000    24.0000 </r>
       <r>   -11.3535     0.0000    24.0000 </r>
       <r>   -11.1966     0.0000    24.0000 </r>
       <r>   -11.0398     0.0000    24.0000 </r>
       <r>   -10.8830     0.0000    24.0000 </r>
       <r>   -10.7261     0.0000    24.0000 </r>
       <r>   -10.5693     0.0000    24.0000 </r>
       <r>   -10.4125     0.0000    24.0000 </r>
       <r>   -10.2556     0.0000    24.0000 </r>
       <r>   -10.0988     0.0000    24.0000 </r>
       <r>    -9.9420     0.0000    24.0000 </r>
       <r>    -9.7851     0.0000    24.0000 </r>
       <r>    -9.6283     0.0000    24.0000 </r>
       <r>    -9.4715     0.0000    24.0000 </r>
       <r>    -9.3147     0.0000    24.0000 </r>
       <r>    -9.1578     0.0000    24.0000 </r>
       <r>    -9.0010     0.0000    24.0000 </r>
       <r>    -8.8442     0.0000    24.0000 </r>
       <r>    -8.6873     0.0000    24.0000 </r>
       <r>    -8.5305     0.0000    24.0000 </r>
       <r>    -8.3737     0.0000    24.0000 </r>
       <r>    -8.2168     0.0000    24.0000 </r>
       <r>    -8.0600     0.0000    24.0000 </r>
       <r>    -7.9032     0.0000    24.0000 </r>
       <r>    -7.7463     0.0000    24.0000 </r>
       <r>    -7.5895     0.0000    24.0000 </r>
       <r>    -7.4327     0.0000    24.0000 </r>
       <r>    -7.2759     0.0000    24.0000 </r>
       <r>    -7.1190     0.0000    24.0000 </r>
       <r>    -6.9622     0.0000    24.0000 </r>
       <r>    -6.8054     0.0000    24.0000 </r>
       <r>    -6.6485     0.0000    24.0000 </r>
       <r>    -6.4917     0.0000    24.0000 </r>
       <r>    -6.3349     0.0000    24.0000 </r>
       <r>    -6.1780     0.0000    24.0000 </r>
       <r>    -6.0212     0.0000    24.0000 </r>
       <r>    -5.8644     0.0000    24.0000 </r>
       <r>    -5.7075     0.0000    24.0000 </r>
       <r>    -5.5507     0.0000    24.0000 </r>
       <r>    -5.3939     0.0000    24.0000 </r>
       <r>    -5.2370     0.0000    24.0000 </r>
       <r>    -5.0802     0.0000    24.0000 </r>
       <r>    -4.9234     0.0000    24.0000 </r>
       <r>    -4.7666     0.0000    24.0000 </r>
       <r>    -4.6097     0.0000    24.0000 </r>
       <r>    -4.4529     0.0000    24.0000 </r>
       <r>    -4.2961     0.0000    24.0000 </r>
       <r>    -4.1392     0.0000    24.0000 </r>
       <r>    -3.9824     0.0000    24.0000 </r>
       <r>    -3.8256     0.0000    24.0000 </r>
       <r>    -3.6687     0.0000    24.0000 </r>
       <r>    -3.5119     0.0000    24.0000 </r>
       <r>    -3.3551     0.0000    24.0000 </r>
       <r>    -3.1982     0.0000    24.0000 </r>
       <r>    -3.0414     0.0012    24.0002 </r>
       <r>    -2.8846     1.0626    24.1668 </r>
       <r>    -2.7278     4.2138    24.8277 </r>
       <r>    -2.5709     3.4942    25.3757 </r>
       <r>    -2.4141     2.5073    25.7689 </r>
       <r>    -2.2573     2.0308    26.0874 </r>
       <r>    -2.1004     4.7814    26.8373 </r>
       <r>    -1.9436     5.0168    27.6241 </r>
       <r>    -1.7868    10.7489    29.3098 </r>
       <r>    -1.6299     8.8662    30.7003 </r>
       <r>    -1.4731     6.1896    31.6710 </r>
       <r>    -1.3163    11.5506    33.4825 </r>
       <r>    -1.1594    16.9088    36.1343 </r>
       <r>    -1.0026     9.9322    37.6920 </r>
       <r>    -0.8458    13.1879    39.7603 </r>
       <r>    -0.6890     8.6378    41.1150 </r>
       <r>    -0.5321    14.0160    43.3131 </r>
       <r>    -0.3753     9.0947    44.7394 </r>
       <r>    -0.2185     6.2499    45.7196 </r>
       <r>    -0.0616     5.1016    46.5197 </r>
       <r>     0.0952     2.6247    46.9313 </r>
       <r>     0.2520     4.8915    47.6985 </r>
       <r>     0.4089     4.0919    48.3402 </r>
       <r>     0.5657     5.8321    49.2549 </r>
       <r>     0.7225     7.3595    50.4091 </r>
       <r>     0.8794     7.7879    51.6304 </r>
       <r>     1.0362     6.3872    52.6322 </r>
       <r>     1.1930    10.7573    54.3192 </r>
       <r>     1.3498    14.7077    56.6259 </r>
       <r>     1.5067    14.4366    58.8900 </r>
       <r>     1.6635    13.0112    60.9305 </r>
       <r>     1.8203     8.4308    62.2527 </r>
       <r>     1.9772     8.4067    63.5712 </r>
       <r>     2.1340     7.1204    64.6879 </r>
       <r>     2.2908     3.9073    65.3006 </r>
       <r>     2.4477     2.2008    65.6458 </r>
       <r>     2.6045     2.6044    66.0543 </r>
       <r>     2.7613     3.1578    66.5495 </r>
       <r>     2.9182     2.0657    66.8735 </r>
       <r>     3.0750     1.4185    67.0959 </r>
       <r>     3.2318     0.5998    67.1900 </r>
       <r>     3.3887     1.7191    67.4596 </r>
       <r>     3.5455     0.7571    67.5783 </r>
       <r>     3.7023     0.2798    67.6222 </r>
       <r>     3.8591     0.2135    67.6557 </r>
       <r>     4.0160     2.3626    68.0262 </r>
       <r>     4.1728     1.8364    68.3142 </r>
       <r>     4.3296     1.8158    68.5990 </r>
       <r>     4.4865     0.0328    68.6041 </r>
       <r>     4.6433     2.1728    68.9449 </r>
       <r>     4.8001     0.5878    69.0371 </r>
       <r>     4.9570     1.3472    69.2484 </r>
       <r>     5.1138     3.8662    69.8547 </r>
       <r>     5.2706     0.9265    70.0000 </r>
       <r>     5.4275     0.0220    70.0034 </r>
       <r>     5.5843     0.6976    70.1128 </r>
       <r>     5.7411     3.5724    70.6731 </r>
       <r>     5.8979     2.8670    71.1227 </r>
       <r>     6.0548     1.6439    71.3806 </r>
       <r>     6.2116     1.4150    71.6025 </r>
       <r>     6.3684     1.9819    71.9133 </r>
       <r>     6.5253     0.4170    71.9787 </r>
       <r>     6.6821     0.1359    72.0000 </r>
       <r>     6.8389     0.0011    72.0002 </r>
       <r>     6.9958     0.5522    72.0868 </r>
       <r>     7.1526     2.6519    72.5027 </r>
       <r>     7.3094     2.4002    72.8791 </r>
       <r>     7.4663     2.7356    73.3081 </r>
       <r>     7.6231     2.9075    73.7641 </r>
       <r>     7.7799     3.9097    74.3773 </r>
       <r>     7.9367     4.8196    75.1331 </r>
       <r>     8.0936     4.3403    75.8138 </r>
       <r>     8.2504     3.6551    76.3871 </r>
       <r>     8.4072     3.1024    76.8736 </r>
       <r>     8.5641     6.8303    77.9448 </r>
       <r>     8.7209     5.5564    78.8162 </r>
       <r>     8.8777     6.2393    79.7948 </r>
       <r>     9.0346     4.7523    80.5401 </r>
       <r>     9.1914     4.0230    81.1710 </r>
       <r>     9.3482     3.9545    81.7912 </r>
       <r>     9.5051     4.8998    82.5596 </r>
       <r>     9.6619     5.9138    83.4871 </r>
       <r>     9.8187     6.0906    84.4423 </r>
       <r>     9.9755     4.5140    85.1502 </r>
       <r>    10.1324     6.7962    86.2161 </r>
       <r>    10.2892     4.5544    86.9303 </r>
       <r>    10.4460     3.1386    87.4226 </r>
       <r>    10.6029     2.8493    87.8694 </r>
       <r>    10.7597     0.8312    87.9998 </r>
       <r>    10.9165     0.0013    88.0000 </r>
       <r>    11.0734     0.0000    88.0000 </r>
       <r>    11.2302     0.0000    88.0000 </r>
       <r>    11.3870     0.0000    88.0000 </r>
       <r>    11.5439     0.0000    88.0000 </r>
       <r>    11.7007     0.0000    88.0000 </r>
       <r>    11.8575     0.0000    88.0000 </r>
       <r>    12.0143     0.0000    88.0000 </r>
       <r>    12.1712     0.0000    88.0000 </r>
       <r>    12.3280     0.0000    88.0000 </r>
       <r>    12.4848     0.0000    88.0000 </r>
       <r>    12.6417     0.0000    88.0000 </r>
       <r>    12.7985     0.0000    88.0000 </r>
      </set>
     </set>
    </array>
   </total>
  </dos>
 </calculation>
 <structure name="finalpos" >
  <crystal>
   <varray name="basis" >
    <v>       8.00000000       0.00000000       0.00000000 </v>
    <v>       0.00000000       4.00000000       0.00000000 </v>
    <v>      -4.00000000       0.00000000       8.00000000 </v>
   </varray>
   <i name="volume">    256.00000000 </i>
   <varray name="rec_basis" >
    <v>       0.12500000       0.00000000       0.06250000 </v>
    <v>       0.00000000       0.25000000       0.00000000 </v>
    <v>       0.00000000       0.00000000       0.12500000 </v>
   </varray>
  </crystal>
  <varray name="positions" >
   <v>       0.00000000       0.00000000       0.00000000 </v>
   <v>       0.75000000       0.00000000       0.50000000 </v>
   <v>       0.50000000       0.00000000       0.00000000 </v>
   <v>       0.25000000       0.00000000       0.50000000 </v>
   <v>       0.12500000       0.50000000       0.75000000 </v>
   <v>       0.87500000       0.50000000       0.25000000 </v>
   <v>       0.62500000       0.50000000       0.75000000 </v>
   <v>       0.37500000       0.50000000       0.25000000 </v>
   <v>       0.00000000       0.50000000       0.50000000 </v>
   <v>       0.75000000       0.50000000       0.00000000 </v>
   <v>       0.50000000       0.50000000       0.50000000 </v>
   <v>       0.12500000       0.00000000       0.75000000 </v>
   <v>       0.37500000       0.00000000       0.25000000 </v>
   <v>       0.62500000       0.50000000       0.25000000 </v>
   <v>       0.37500000       0.50000000       0.75000000 </v>
   <v>       0.12500000       0.50000000       0.25000000 </v>
  </varray>
 </structure>
</modeling>
