<?xml version="1.0" encoding="ISO-8859-1"?>
<modeling>
 <generator>
  <i name="program" type="string">vasp </i>
  <i name="version" type="string">5.3.5  </i>
  <i name="subversion" type="string">31Mar14 (build Jun 20 2014 13:15:13) complex                          parallel </i>
  <i name="platform" type="string">LinuxIFC </i>
  <i name="date" type="string">2025 12 16 </i>
  <i name="time" type="string">16:09:24 </i>
 </generator>
 <incar>
  <i type="string" name="PREC">accurate</i>
  <i type="int" name="IALGO">    68</i>
  <i type="logical" name="ADDGRID"> T  </i>
  <i type="int" name="NELM">   100</i>
  <i type="int" name="NELMIN">     4</i>
  <i type="int" name="IBRION">     2</i>
  <i name="EDIFF">      0.00000100</i>
  <i name="EDIFFG">     -0.02000000</i>
  <i type="int" name="NSW">    30</i>
  <i type="int" name="ISIF">     3</i>
  <i name="ENCUT">    600.00000000</i>
  <i type="logical" name="LREAL"> F  </i>
  <i type="int" name="ISMEAR">     0</i>
  <i name="SIGMA">      0.10000000</i>
  <i type="logical" name="LWAVE"> F  </i>
  <i type="logical" name="LCHARG"> F  </i>
  <i type="int" name="NELM">   100</i>
 </incar>
 <kpoints>
  <generation param="Auto">
   <i name="subdivisionlength">     20.00000000 </i>
   <v type="int" name="divisions">       4        4        4 </v>
   <v name="usershift">      0.00000000       0.00000000       0.00000000 </v>
   <v name="genvec1">      0.25000000       0.00000000       0.00000000 </v>
   <v name="genvec2">      0.00000000       0.25000000       0.00000000 </v>
   <v name="genvec3">      0.00000000       0.00000000       0.25000000 </v>
   <v name="shift">      0.00000000       0.00000000       0.00000000 </v>
  </generation>
  <varray name="kpointlist" >
   <v>       0.00000000       0.00000000       0.00000000 </v>
   <v>       0.25000000       0.00000000       0.00000000 </v>
   <v>       0.50000000       0.00000000       0.00000000 </v>
   <v>       0.00000000       0.25000000       0.00000000 </v>
   <v>       0.25000000       0.25000000       0.00000000 </v>
   <v>       0.50000000       0.25000000       0.00000000 </v>
   <v>      -0.25000000       0.25000000       0.00000000 </v>
   <v>       0.00000000       0.50000000       0.00000000 </v>
   <v>       0.25000000       0.50000000       0.00000000 </v>
   <v>       0.50000000       0.50000000       0.00000000 </v>
   <v>       0.00000000       0.00000000       0.25000000 </v>
   <v>       0.25000000       0.00000000       0.25000000 </v>
   <v>       0.50000000       0.00000000       0.25000000 </v>
   <v>      -0.25000000       0.00000000       0.25000000 </v>
   <v>       0.00000000       0.25000000       0.25000000 </v>
   <v>       0.25000000       0.25000000       0.25000000 </v>
   <v>       0.50000000       0.25000000       0.25000000 </v>
   <v>      -0.25000000       0.25000000       0.25000000 </v>
   <v>       0.00000000       0.50000000       0.25000000 </v>
   <v>       0.25000000       0.50000000       0.25000000 </v>
   <v>       0.50000000       0.50000000       0.25000000 </v>
   <v>      -0.25000000       0.50000000       0.25000000 </v>
   <v>       0.00000000      -0.25000000       0.25000000 </v>
   <v>       0.25000000      -0.25000000       0.25000000 </v>
   <v>       0.50000000      -0.25000000       0.25000000 </v>
   <v>      -0.25000000      -0.25000000       0.25000000 </v>
   <v>       0.00000000       0.00000000       0.50000000 </v>
   <v>       0.25000000       0.00000000       0.50000000 </v>
   <v>       0.50000000       0.00000000       0.50000000 </v>
   <v>       0.00000000       0.25000000       0.50000000 </v>
   <v>       0.25000000       0.25000000       0.50000000 </v>
   <v>       0.50000000       0.25000000       0.50000000 </v>
   <v>      -0.25000000       0.25000000       0.50000000 </v>
   <v>       0.00000000       0.50000000       0.50000000 </v>
   <v>       0.25000000       0.50000000       0.50000000 </v>
   <v>       0.50000000       0.50000000       0.50000000 </v>
  </varray>
  <varray name="weights" >
   <v>       0.01562500 </v>
   <v>       0.03125000 </v>
   <v>       0.01562500 </v>
   <v>       0.03125000 </v>
   <v>       0.03125000 </v>
   <v>       0.03125000 </v>
   <v>       0.03125000 </v>
   <v>       0.01562500 </v>
   <v>       0.03125000 </v>
   <v>       0.01562500 </v>
   <v>       0.03125000 </v>
   <v>       0.03125000 </v>
   <v>       0.03125000 </v>
   <v>       0.03125000 </v>
   <v>       0.03125000 </v>
   <v>       0.03125000 </v>
   <v>       0.03125000 </v>
   <v>       0.03125000 </v>
   <v>       0.03125000 </v>
   <v>       0.03125000 </v>
   <v>       0.03125000 </v>
   <v>       0.03125000 </v>
   <v>       0.03125000 </v>
   <v>       0.03125000 </v>
   <v>       0.03125000 </v>
   <v>       0.03125000 </v>
   <v>       0.01562500 </v>
   <v>       0.03125000 </v>
   <v>       0.01562500 </v>
   <v>       0.03125000 </v>
   <v>       0.03125000 </v>
   <v>       0.03125000 </v>
   <v>       0.03125000 </v>
   <v>       0.01562500 </v>
   <v>       0.03125000 </v>
   <v>       0.01562500 </v>
  </varray>
 </kpoints>
 <parameters>
  <separator name="general" >
   <i type="string" name="SYSTEM">unknown system</i>
   <i type="logical" name="LCOMPAT"> F  </i>
  </separator>
  <separator name="electronic" >
   <i type="string" name="PREC">accura</i>
   <i name="ENMAX">    600.00000000</i>
   <i name="ENAUG">    644.87300000</i>
   <i name="EDIFF">      0.00000100</i>
   <i type="int" name="IALGO">    68</i>
   <i type="int" name="IWAVPR">    11</i>
   <i type="int" name="NBANDS">    32</i>
   <i name="NELECT">     48.00000000</i>
   <i type="int" name="TURBO">     0</i>
   <i type="int" name="IRESTART">     0</i>
   <i type="int" name="NREBOOT">     0</i>
   <i type="int" name="NMIN">     0</i>
   <i name="EREF">      0.00000000</i>
   <separator name="electronic smearing" >
    <i type="int" name="ISMEAR">     0</i>
    <i name="SIGMA">      0.10000000</i>
    <i name="KSPACING">      0.50000000</i>
    <i type="logical" name="KGAMMA"> T  </i>
   </separator>
   <separator name="electronic projectors" >
    <i type="logical" name="LREAL"> F  </i>
    <v name="ROPT">      0.00000000      0.00000000      0.00000000      0.00000000</v>
    <i type="int" name="LMAXPAW">  -100</i>
    <i type="int" name="LMAXMIX">     2</i>
    <i type="logical" name="NLSPLINE"> F  </i>
   </separator>
   <separator name="electronic startup" >
    <i type="int" name="ISTART">     0</i>
    <i type="int" name="ICHARG">     2</i>
    <i type="int" name="INIWAV">     1</i>
   </separator>
   <separator name="electronic spin" >
    <i type="int" name="ISPIN">     1</i>
    <i type="logical" name="LNONCOLLINEAR"> F  </i>
    <v name="MAGMOM">      1.00000000      1.00000000      1.00000000      1.00000000      1.00000000      1.00000000      1.00000000      1.00000000      1.00000000      1.00000000      1.00000000      1.00000000</v>
    <i name="NUPDOWN">     -1.00000000</i>
    <i type="logical" name="LSORBIT"> F  </i>
    <v name="SAXIS">      0.00000000      0.00000000      1.00000000</v>
    <i type="logical" name="LSPIRAL"> F  </i>
    <v name="QSPIRAL">      0.00000000      0.00000000      0.00000000</v>
    <i type="logical" name="LZEROZ"> F  </i>
   </separator>
   <separator name="electronic exchange-correlation" >
    <i type="logical" name="LASPH"> F  </i>
    <i type="logical" name="LMETAGGA"> F  </i>
   </separator>
   <separator name="electronic convergence" >
    <i type="int" name="NELM">   100</i>
    <i type="int" name="NELMDL">     0</i>
    <i type="int" name="NELMIN">     4</i>
    <i name="ENINI">    600.00000000</i>
    <separator name="electronic convergence detail" >
     <i type="logical" name="LDIAG"> T  </i>
     <i type="logical" name="LSUBROT"> F  </i>
     <i name="WEIMIN">      0.00100000</i>
     <i name="EBREAK">      0.00000001</i>
     <i name="DEPER">      0.30000000</i>
     <i type="int" name="NRMM">     4</i>
     <i name="TIME">      0.40000000</i>
    </separator>
   </separator>
   <separator name="electronic mixer" >
    <i name="AMIX">      0.40000000</i>
    <i name="BMIX">      1.00000000</i>
    <i name="AMIN">      0.10000000</i>
    <i name="AMIX_MAG">      1.60000000</i>
    <i name="BMIX_MAG">      1.00000000</i>
    <separator name="electronic mixer details" >
     <i type="int" name="IMIX">     4</i>
     <i type="int" name="MAXMIX">   -45</i>
     <i name="WC">    100.00000000</i>
     <i type="int" name="INIMIX">     1</i>
     <i type="int" name="MIXPRE">     1</i>
     <i type="int" name="MREMOVE">     5</i>
    </separator>
   </separator>
   <separator name="electronic dipolcorrection" >
    <i type="logical" name="LDIPOL"> F  </i>
    <i type="logical" name="LMONO"> F  </i>
    <i type="int" name="IDIPOL">     0</i>
    <i name="EPSILON">      1.00000000</i>
    <v name="DIPOL">   -100.00000000   -100.00000000   -100.00000000</v>
    <i name="EFIELD">      0.00000000</i>
   </separator>
  </separator>
  <separator name="grids" >
   <i type="int" name="NGX">    48</i>
   <i type="int" name="NGY">    48</i>
   <i type="int" name="NGZ">    48</i>
   <i type="int" name="NGXF">    96</i>
   <i type="int" name="NGYF">    96</i>
   <i type="int" name="NGZF">    96</i>
   <i type="logical" name="ADDGRID"> T  </i>
  </separator>
  <separator name="ionic" >
   <i type="int" name="NSW">    30</i>
   <i type="int" name="IBRION">     2</i>
   <i type="int" name="ISIF">     3</i>
   <i name="PSTRESS">      0.00000000</i>
   <i name="EDIFFG">     -0.02000000</i>
   <i type="int" name="NFREE">     1</i>
   <i name="POTIM">      0.50000000</i>
   <i name="SMASS">     -3.00000000</i>
   <i name="SCALEE">      1.00000000</i>
  </separator>
  <separator name="ionic md" >
   <i name="TEBEG">      0.00010000</i>
   <i name="TEEND">      0.00010000</i>
   <i type="int" name="NBLOCK">     1</i>
   <i type="int" name="KBLOCK">    30</i>
   <i type="int" name="NPACO">   256</i>
   <i name="APACO">     16.00000000</i>
  </separator>
  <separator name="symmetry" >
   <i type="int" name="ISYM">     2</i>
   <i name="SYMPREC">      0.00001000</i>
  </separator>
  <separator name="dos" >
   <i type="logical" name="LORBIT"> F  </i>
   <v name="RWIGS">     -1.00000000     -1.00000000     -1.00000000     -1.00000000</v>
   <i type="int" name="NEDOS">   301</i>
   <i name="EMIN">     10.00000000</i>
   <i name="EMAX">    -10.00000000</i>
   <i name="EFERMI">      0.00000000</i>
  </separator>
  <separator name="writing" >
   <i type="int" name="NWRITE">     2</i>
   <i type="logical" name="LWAVE"> F  </i>
   <i type="logical" name="LCHARG"> F  </i>
   <i type="logical" name="LPARD"> F  </i>
   <i type="logical" name="LVTOT"> F  </i>
   <i type="logical" name="LVHAR"> F  </i>
   <i type="logical" name="LELF"> F  </i>
   <i type="logical" name="LOPTICS"> F  </i>
   <v name="STM">      0.00000000      0.00000000      0.00000000      0.00000000      0.00000000      0.00000000      0.00000000</v>
  </separator>
  <separator name="performance" >
   <i type="int" name="NPAR">     4</i>
   <i type="int" name="NSIM">     4</i>
   <i type="int" name="NBLK">    -1</i>
   <i type="logical" name="LPLANE"> T  </i>
   <i type="logical" name="LSCALAPACK"> T  </i>
   <i type="logical" name="LSCAAWARE"> F  </i>
   <i type="logical" name="LSCALU"> F  </i>
   <i type="logical" name="LASYNC"> F  </i>
   <i type="logical" name="LORBITALREAL"> F  </i>
  </separator>
  <separator name="miscellaneous" >
   <i type="int" name="IDIOT">     3</i>
   <i type="logical" name="LMUSIC"> F  </i>
   <v name="POMASS">     28.08500000     26.98100000     12.01100000     14.00100000</v>
   <v name="DARWINR">      0.00000000      0.00000000      0.00000000      0.00000000</v>
   <v name="DARWINV">      1.00000000      1.00000000      1.00000000      1.00000000</v>
   <i type="logical" name="LCORR"> T  </i>
  </separator>
  <i type="logical" name="GGA_COMPAT"> T  </i>
  <i type="logical" name="LBERRY"> F  </i>
  <i type="int" name="ICORELEVEL">     0</i>
  <i type="logical" name="LDAU"> F  </i>
  <i type="int" name="I_CONSTRAINED_M">     0</i>
  <separator name="electronic exchange-correlation" >
   <i type="string" name="GGA">--</i>
   <i type="int" name="VOSKOWN">     0</i>
   <i type="logical" name="LHFCALC"> F  </i>
   <i type="string" name="PRECFOCK"></i>
   <i type="logical" name="LSYMGRAD"> F  </i>
   <i type="logical" name="LHFONE"> F  </i>
   <i type="logical" name="LRHFCALC"> F  </i>
   <i type="logical" name="LTHOMAS"> F  </i>
   <i type="logical" name="LMODELHF"> F  </i>
   <i name="ENCUT4O">     -1.00000000</i>
   <i type="int" name="EXXOEP">     0</i>
   <i type="int" name="FOURORBIT">     0</i>
   <i name="AEXX">      0.00000000</i>
   <i name="HFALPHA">      0.00000000</i>
   <i name="MCALPHA">      0.00000000</i>
   <i name="ALDAX">      1.00000000</i>
   <i name="AGGAX">      1.00000000</i>
   <i name="ALDAC">      1.00000000</i>
   <i name="AGGAC">      1.00000000</i>
   <i type="int" name="NKREDX">     1</i>
   <i type="int" name="NKREDY">     1</i>
   <i type="int" name="NKREDZ">     1</i>
   <i type="logical" name="SHIFTRED"> F  </i>
   <i type="logical" name="ODDONLY"> F  </i>
   <i type="logical" name="EVENONLY"> F  </i>
   <i type="int" name="LMAXFOCK">     0</i>
   <i type="int" name="NMAXFOCKAE">     0</i>
   <i type="logical" name="LFOCKAEDFT"> F  </i>
   <i name="HFSCREEN">      0.00000000</i>
   <i name="HFSCREENC">      0.00000000</i>
   <i type="int" name="NBANDSGWLOW">     0</i>
  </separator>
  <separator name="vdW DFT" >
   <i type="logical" name="LUSE_VDW"> F  </i>
   <i name="Zab_VDW">     -0.84910000</i>
   <i name="PARAM1">      0.12340000</i>
   <i name="PARAM2">      1.00000000</i>
   <i name="PARAM3">      0.00000000</i>
  </separator>
  <separator name="model GW" >
   <i type="int" name="MODEL_GW">     0</i>
   <i name="MODEL_EPS0">      6.38188390</i>
   <i name="MODEL_ALPHA">      1.00000000</i>
  </separator>
  <separator name="linear response parameters" >
   <i type="logical" name="LEPSILON"> F  </i>
   <i type="logical" name="LRPA"> F  </i>
   <i type="logical" name="LNABLA"> F  </i>
   <i type="logical" name="LVEL"> F  </i>
   <i type="int" name="KINTER">     0</i>
   <i name="CSHIFT">      0.10000000</i>
   <i name="OMEGAMAX">     -1.00000000</i>
   <i name="DEG_THRESHOLD">      0.00200000</i>
  </separator>
  <separator name="orbital magnetization" >
   <i type="logical" name="NUCIND"> F  </i>
   <v name="MAGPOS">      0.00000000      0.00000000      0.00000000</v>
   <i type="logical" name="LNICSALL"> T  </i>
   <i type="logical" name="ORBITALMAG"> F  </i>
   <i type="logical" name="LMAGBLOCH"> F  </i>
   <i type="logical" name="LCHIMAG"> F  </i>
   <i type="logical" name="LGAUGE"> T  </i>
   <i type="int" name="MAGATOM">     0</i>
   <v name="MAGDIPOL">      0.00000000      0.00000000      0.00000000</v>
   <v name="AVECCONST">      0.00000000      0.00000000      0.00000000</v>
  </separator>
  <separator name="response functions" >
   <i type="logical" name="LADDER"> F  </i>
   <i type="logical" name="LFXC"> F  </i>
   <i type="logical" name="LHARTREE"> T  </i>
   <i type="int" name="IBSE">     0</i>
   <i type="logical" name="LTCTE"> F  </i>
   <i type="logical" name="LTETE"> F  </i>
   <i type="logical" name="LTRIPLET"> F  </i>
   <i type="logical" name="LFXCEPS"> F  </i>
   <i type="logical" name="LFXHEG"> F  </i>
   <i type="logical" name="L2ORDER"> F  </i>
   <i type="logical" name="LUSEW"> F  </i>
   <i name="ENCUTGW">     -2.00000000</i>
   <i name="ENCUTGWSOFT">     -2.00000000</i>
   <i name="ENCUTLF">     -1.00000000</i>
   <i type="int" name="LMAXMP2">    -1</i>
   <i name="SCISSOR">      0.00000000</i>
   <i type="int" name="NOMEGA">     0</i>
   <i type="int" name="NOMEGAR">     0</i>
   <i type="int" name="NBANDSGW">    -1</i>
   <i type="int" name="NBANDSO">    -1</i>
   <i type="int" name="NBANDSV">    -1</i>
   <i type="int" name="NELM">   100</i>
   <i type="int" name="DIM">     3</i>
   <i type="int" name="ANTIRES">     0</i>
   <i name="OMEGAMAX">    -30.00000000</i>
   <i name="OMEGAMIN">    -30.00000000</i>
   <i name="OMEGATL">   -200.00000000</i>
   <i type="int" name="OMEGAGRID">     0</i>
   <i name="CSHIFT">     -0.10000000</i>
   <i type="logical" name="SELFENERGY"> F  </i>
   <i type="logical" name="LSPECTRAL"> F  </i>
   <i type="logical" name="ODDONLYGW"> F  </i>
   <i type="logical" name="EVENONLYGW"> F  </i>
   <i type="int" name="NKREDLFX">     1</i>
   <i type="int" name="NKREDLFY">     1</i>
   <i type="int" name="NKREDLFZ">     1</i>
   <i type="int" name="MAXMEM">  1800</i>
   <i type="int" name="TELESCOPE">     0</i>
   <i type="int" name="TAUPAR">     1</i>
  </separator>
  <separator name="External order field" >
   <i name="OFIELD_KAPPA">      0.00000000</i>
   <v name="OFIELD_K">      0.00000000      0.00000000      0.00000000</v>
   <i name="OFIELD_Q6_NEAR">      0.00000000</i>
   <i name="OFIELD_Q6_FAR">      0.00000000</i>
   <i name="OFIELD_A">      0.00000000</i>
  </separator>
 </parameters>
 <atominfo>
  <atoms>      12 </atoms>
  <types>       4 </types>
  <array name="atoms" >
   <dimension dim="1">ion</dimension>
   <field type="string">element</field>
   <field type="int">atomtype</field>
   <set>
    <rc><c>Si</c><c>   1</c></rc>
    <rc><c>Si</c><c>   1</c></rc>
    <rc><c>Si</c><c>   1</c></rc>
    <rc><c>Al</c><c>   2</c></rc>
    <rc><c>Al</c><c>   2</c></rc>
    <rc><c>Al</c><c>   2</c></rc>
    <rc><c>C </c><c>   3</c></rc>
    <rc><c>C </c><c>   3</c></rc>
    <rc><c>C </c><c>   3</c></rc>
    <rc><c>N </c><c>   4</c></rc>
    <rc><c>N </c><c>   4</c></rc>
    <rc><c>N </c><c>   4</c></rc>
   </set>
  </array>
  <array name="atomtypes" >
   <dimension dim="1">type</dimension>
   <field type="int">atomspertype</field>
   <field type="string">element</field>
   <field>mass</field>
   <field>valence</field>
   <field type="string">pseudopotential</field>
   <set>
    <rc><c>   3</c><c>Si</c><c>     28.08500000</c><c>      4.00000000</c><c>  PAW_PBE Si 05Jan2001                  </c></rc>
    <rc><c>   3</c><c>Al</c><c>     26.98100000</c><c>      3.00000000</c><c>  PAW_PBE Al 04Jan2001                  </c></rc>
    <rc><c>   3</c><c>C </c><c>     12.01100000</c><c>      4.00000000</c><c>  PAW_PBE C 08Apr2002                   </c></rc>
    <rc><c>   3</c><c>N </c><c>     14.00100000</c><c>      5.00000000</c><c>  PAW_PBE N_s 07Sep2000                 </c></rc>
   </set>
  </array>
 </atominfo>
 <structure name="initialpos" >
  <crystal>
   <varray name="basis" >
    <v>       5.37429179       0.00090903      -0.00149566 </v>
    <v>       2.68799292       4.73717793      -0.01079067 </v>
    <v>       2.68603926       1.56847054       5.00987389 </v>
   </varray>
   <i name="volume">    127.63767794 </i>
   <varray name="rec_basis" >
    <v>       0.18607036      -0.10573280      -0.06665906 </v>
    <v>      -0.00005406       0.21097643      -0.06602264 </v>
    <v>       0.00005543       0.00042285       0.19944372 </v>
   </varray>
  </crystal>
  <varray name="positions" >
   <v>       0.99958928       0.67958964       0.98954401 </v>
   <v>       0.49245726       0.83868938       0.49662329 </v>
   <v>       0.16272225       0.49462748       0.51915559 </v>
   <v>       0.66129334       0.33301208       0.99987787 </v>
   <v>       0.34903897       0.99919223       0.98164159 </v>
   <v>       0.83864936       0.16299103       0.49315104 </v>
   <v>       0.50518087       0.20554975       0.39329993 </v>
   <v>       0.73160184       0.02757681       0.87621500 </v>
   <v>       0.03781292       0.39058951       0.88692265 </v>
   <v>       0.22974838       0.84260738       0.37870207 </v>
   <v>       0.87454792       0.56763361       0.37437421 </v>
   <v>       0.36735761       0.70794111       0.86049274 </v>
  </varray>
 </structure>
 <calculation>
  <scstep>
   <time name="dav">    0.47    0.47</time>
   <time name="total">    0.53    0.54</time>
   <energy>
    <i name="alphaZ">     47.93322195 </i>
    <i name="ewald">  -1701.29847549 </i>
    <i name="hartreedc">   -272.07857696 </i>
    <i name="XCdc">     -4.07284135 </i>
    <i name="pawpsdc">   1403.35320608 </i>
    <i name="pawaedc">  -1259.97391932 </i>
    <i name="eentropy">     -0.01141996 </i>
    <i name="bandstr">    334.87820562 </i>
    <i name="atom">   1704.90733868 </i>
    <i name="e_fr_energy">    253.63673925 </i>
    <i name="e_wo_entrp">    253.64815921 </i>
    <i name="e_0_energy">    253.64244923 </i>
   </energy>
  </scstep>
  <scstep>
   <time name="dav">    0.56    0.56</time>
   <time name="total">    0.56    0.57</time>
   <energy>
    <i name="e_fr_energy">    -78.99782667 </i>
    <i name="e_wo_entrp">    -78.99782667 </i>
    <i name="e_0_energy">    -78.99782667 </i>
   </energy>
  </scstep>
  <scstep>
   <time name="dav">    0.56    0.56</time>
   <time name="total">    0.56    0.57</time>
   <energy>
    <i name="e_fr_energy">   -100.48316480 </i>
    <i name="e_wo_entrp">   -100.48316480 </i>
    <i name="e_0_energy">   -100.48316480 </i>
   </energy>
  </scstep>
  <scstep>
   <time name="dav">    0.58    0.58</time>
   <time name="total">    0.58    0.59</time>
   <energy>
    <i name="e_fr_energy">   -101.00805361 </i>
    <i name="e_wo_entrp">   -101.00805361 </i>
    <i name="e_0_energy">   -101.00805361 </i>
   </energy>
  </scstep>
  <scstep>
   <time name="dav">    0.55    0.55</time>
   <time name="total">    0.62    0.64</time>
   <energy>
    <i name="e_fr_energy">   -101.02404435 </i>
    <i name="e_wo_entrp">   -101.02404435 </i>
    <i name="e_0_energy">   -101.02404435 </i>
   </energy>
  </scstep>
  <scstep>
   <time name="diag">    0.12    0.12</time>
   <time name="diis">    0.36    0.36</time>
   <time name="orth">    0.02    0.02</time>
   <time name="total">    0.62    0.64</time>
   <energy>
    <i name="e_fr_energy">    -87.48159592 </i>
    <i name="e_wo_entrp">    -87.48159592 </i>
    <i name="e_0_energy">    -87.48159592 </i>
   </energy>
  </scstep>
  <scstep>
   <time name="diag">    0.12    0.12</time>
   <time name="diis">    0.32    0.32</time>
   <time name="orth">    0.02    0.02</time>
   <time name="total">    0.58    0.60</time>
   <energy>
    <i name="e_fr_energy">    -87.43681260 </i>
    <i name="e_wo_entrp">    -87.43681260 </i>
    <i name="e_0_energy">    -87.43681260 </i>
   </energy>
  </scstep>
  <scstep>
   <time name="diag">    0.12    0.12</time>
   <time name="diis">    0.29    0.29</time>
   <time name="orth">    0.02    0.02</time>
   <time name="total">    0.56    0.57</time>
   <energy>
    <i name="e_fr_energy">    -87.58263945 </i>
    <i name="e_wo_entrp">    -87.58263945 </i>
    <i name="e_0_energy">    -87.58263945 </i>
   </energy>
  </scstep>
  <scstep>
   <time name="diag">    0.12    0.12</time>
   <time name="diis">    0.29    0.29</time>
   <time name="orth">    0.02    0.02</time>
   <time name="total">    0.55    0.57</time>
   <energy>
    <i name="e_fr_energy">    -87.33512962 </i>
    <i name="e_wo_entrp">    -87.33512962 </i>
    <i name="e_0_energy">    -87.33512962 </i>
   </energy>
  </scstep>
  <scstep>
   <time name="diag">    0.12    0.12</time>
   <time name="diis">    0.32    0.32</time>
   <time name="orth">    0.02    0.02</time>
   <time name="total">    0.59    0.60</time>
   <energy>
    <i name="e_fr_energy">    -87.34016268 </i>
    <i name="e_wo_entrp">    -87.34016268 </i>
    <i name="e_0_energy">    -87.34016268 </i>
   </energy>
  </scstep>
  <scstep>
   <time name="diag">    0.12    0.12</time>
   <time name="diis">    0.29    0.29</time>
   <time name="orth">    0.02    0.02</time>
   <time name="total">    0.56    0.57</time>
   <energy>
    <i name="e_fr_energy">    -87.33909659 </i>
    <i name="e_wo_entrp">    -87.33909659 </i>
    <i name="e_0_energy">    -87.33909659 </i>
   </energy>
  </scstep>
  <scstep>
   <time name="diag">    0.12    0.12</time>
   <time name="diis">    0.29    0.29</time>
   <time name="orth">    0.02    0.02</time>
   <time name="total">    0.56    0.57</time>
   <energy>
    <i name="e_fr_energy">    -87.33891020 </i>
    <i name="e_wo_entrp">    -87.33891020 </i>
    <i name="e_0_energy">    -87.33891020 </i>
   </energy>
  </scstep>
  <scstep>
   <time name="diag">    0.12    0.12</time>
   <time name="diis">    0.29    0.29</time>
   <time name="orth">    0.02    0.02</time>
   <time name="total">    0.56    0.57</time>
   <energy>
    <i name="e_fr_energy">    -87.33891498 </i>
    <i name="e_wo_entrp">    -87.33891498 </i>
    <i name="e_0_energy">    -87.33891498 </i>
   </energy>
  </scstep>
  <scstep>
   <time name="diag">    0.12    0.12</time>
   <time name="diis">    0.29    0.29</time>
   <time name="orth">    0.02    0.02</time>
   <time name="total">    0.55    0.56</time>
   <energy>
    <i name="e_fr_energy">    -87.33891516 </i>
    <i name="e_wo_entrp">    -87.33891516 </i>
    <i name="e_0_energy">    -87.33891516 </i>
   </energy>
  </scstep>
  <scstep>
   <time name="diag">    0.12    0.12</time>
   <time name="diis">    0.23    0.23</time>
   <time name="orth">    0.02    0.02</time>
   <time name="total">    0.42    0.44</time>
   <energy>
    <i name="alphaZ">     47.93322195 </i>
    <i name="ewald">  -1701.29847549 </i>
    <i name="hartreedc">   -351.84864464 </i>
    <i name="XCdc">      3.08434902 </i>
    <i name="pawpsdc">   7693.87458399 </i>
    <i name="pawaedc">  -7553.61012290 </i>
    <i name="eentropy">      0.00000000 </i>
    <i name="bandstr">     69.61883382 </i>
    <i name="atom">   1704.90733868 </i>
    <i name="e_fr_energy">    -87.33891556 </i>
    <i name="e_wo_entrp">    -87.33891556 </i>
    <i name="e_0_energy">    -87.33891556 </i>
   </energy>
  </scstep>
  <structure>
   <crystal>
    <varray name="basis" >
     <v>       5.37429179       0.00090903      -0.00149566 </v>
     <v>       2.68799292       4.73717793      -0.01079067 </v>
     <v>       2.68603926       1.56847054       5.00987389 </v>
    </varray>
    <i name="volume">    127.63767794 </i>
    <varray name="rec_basis" >
     <v>       0.18607036      -0.10573280      -0.06665906 </v>
     <v>      -0.00005406       0.21097643      -0.06602264 </v>
     <v>       0.00005543       0.00042285       0.19944372 </v>
    </varray>
   </crystal>
   <varray name="positions" >
    <v>       0.99958928       0.67958964       0.98954401 </v>
    <v>       0.49245726       0.83868938       0.49662329 </v>
    <v>       0.16272225       0.49462748       0.51915559 </v>
    <v>       0.66129334       0.33301208       0.99987787 </v>
    <v>       0.34903897       0.99919223       0.98164159 </v>
    <v>       0.83864936       0.16299103       0.49315104 </v>
    <v>       0.50518087       0.20554975       0.39329993 </v>
    <v>       0.73160184       0.02757681       0.87621500 </v>
    <v>       0.03781292       0.39058951       0.88692265 </v>
    <v>       0.22974838       0.84260738       0.37870207 </v>
    <v>       0.87454792       0.56763361       0.37437421 </v>
    <v>       0.36735761       0.70794111       0.86049274 </v>
   </varray>
  </structure>
  <varray name="forces" >
   <v>      -0.00600346       0.00888962       0.00427525 </v>
   <v>       0.00433622      -0.00716282      -0.00544744 </v>
   <v>      -0.00246666      -0.00956110      -0.00214259 </v>
   <v>       0.00624989       0.00112646      -0.00219089 </v>
   <v>       0.00238910       0.00618575       0.00241923 </v>
   <v>      -0.00156565      -0.00109812      -0.00410565 </v>
   <v>      -0.00657005       0.00815442       0.00114771 </v>
   <v>      -0.00236919      -0.01175275       0.00538063 </v>
   <v>       0.00272167       0.00019801       0.00408491 </v>
   <v>      -0.00037119       0.00356023       0.00617357 </v>
   <v>      -0.00157814      -0.00000885       0.00034133 </v>
   <v>       0.00522745       0.00146914      -0.00993606 </v>
  </varray>
  <varray name="stress" >
   <v>      -0.62654091       0.38642957       0.13688525 </v>
   <v>       0.38642953      -0.37279678      -0.05877353 </v>
   <v>       0.13688519      -0.05877386      -0.10472169 </v>
  </varray>
  <energy>
   <i name="e_fr_energy">    -87.33891556 </i>
   <i name="e_wo_entrp">    -87.33891556 </i>
   <i name="e_0_energy">      0.00000000 </i>
  </energy>
  <time name="totalsc">    9.84   10.06</time>
  <eigenvalues>
   <array>
    <dimension dim="1">band</dimension>
    <dimension dim="2">kpoint</dimension>
    <dimension dim="3">spin</dimension>
    <field>eigene</field>
    <field>occ</field>
    <set>
     <set comment="spin 1">
      <set comment="kpoint 1">
       <r>   -9.3332    1.0000 </r>
       <r>   -7.3266    1.0000 </r>
       <r>   -7.2572    1.0000 </r>
       <r>   -3.8986    1.0000 </r>
       <r>   -3.0941    1.0000 </r>
       <r>   -2.2190    1.0000 </r>
       <r>   -0.8471    1.0000 </r>
       <r>   -0.2896    1.0000 </r>
       <r>    0.7223    1.0000 </r>
       <r>    1.2972    1.0000 </r>
       <r>    1.5444    1.0000 </r>
       <r>    2.0958    1.0000 </r>
       <r>    2.4289    1.0000 </r>
       <r>    3.1645    1.0000 </r>
       <r>    3.5884    1.0000 </r>
       <r>    4.2578    1.0000 </r>
       <r>    4.5578    1.0000 </r>
       <r>    5.3006    1.0000 </r>
       <r>    5.5826    1.0000 </r>
       <r>    6.1198    1.0000 </r>
       <r>    6.5093    1.0000 </r>
       <r>    7.2570    1.0000 </r>
       <r>    7.5239    1.0000 </r>
       <r>    7.8777    1.0000 </r>
       <r>   10.9658    0.0000 </r>
       <r>   11.9610    0.0000 </r>
       <r>   12.2899    0.0000 </r>
       <r>   12.6341    0.0000 </r>
       <r>   13.2094    0.0000 </r>
       <r>   13.9010    0.0000 </r>
       <r>   14.3654    0.0000 </r>
       <r>   14.7366    0.0000 </r>
      </set>
      <set comment="kpoint 2">
       <r>   -9.0851    1.0000 </r>
       <r>   -7.6384    1.0000 </r>
       <r>   -7.3042    1.0000 </r>
       <r>   -3.9280    1.0000 </r>
       <r>   -3.4632    1.0000 </r>
       <r>   -2.1582    1.0000 </r>
       <r>   -0.6921    1.0000 </r>
       <r>   -0.2119    1.0000 </r>
       <r>    0.6219    1.0000 </r>
       <r>    1.2638    1.0000 </r>
       <r>    1.8725    1.0000 </r>
       <r>    2.3073    1.0000 </r>
       <r>    3.0635    1.0000 </r>
       <r>    3.4290    1.0000 </r>
       <r>    4.2606    1.0000 </r>
       <r>    4.4066    1.0000 </r>
       <r>    4.5834    1.0000 </r>
       <r>    4.8626    1.0000 </r>
       <r>    5.3191    1.0000 </r>
       <r>    5.8743    1.0000 </r>
       <r>    6.2246    1.0000 </r>
       <r>    6.5568    1.0000 </r>
       <r>    7.1918    1.0000 </r>
       <r>    7.7950    1.0000 </r>
       <r>   11.5814    0.0000 </r>
       <r>   11.9764    0.0000 </r>
       <r>   12.2288    0.0000 </r>
       <r>   12.5552    0.0000 </r>
       <r>   13.3627    0.0000 </r>
       <r>   13.7805    0.0000 </r>
       <r>   14.1916    0.0000 </r>
       <r>   14.7683    0.0000 </r>
      </set>
      <set comment="kpoint 3">
       <r>   -8.5656    1.0000 </r>
       <r>   -8.2435    1.0000 </r>
       <r>   -7.3247    1.0000 </r>
       <r>   -4.0361    1.0000 </r>
       <r>   -3.6570    1.0000 </r>
       <r>   -2.2208    1.0000 </r>
       <r>   -0.6652    1.0000 </r>
       <r>    0.1576    1.0000 </r>
       <r>    0.7820    1.0000 </r>
       <r>    1.5050    1.0000 </r>
       <r>    1.8924    1.0000 </r>
       <r>    2.4419    1.0000 </r>
       <r>    3.1246    1.0000 </r>
       <r>    3.6649    1.0000 </r>
       <r>    3.9245    1.0000 </r>
       <r>    4.5928    1.0000 </r>
       <r>    4.7272    1.0000 </r>
       <r>    5.2048    1.0000 </r>
       <r>    5.5793    1.0000 </r>
       <r>    5.7545    1.0000 </r>
       <r>    5.9444    1.0000 </r>
       <r>    6.3355    1.0000 </r>
       <r>    6.9443    1.0000 </r>
       <r>    7.6274    1.0000 </r>
       <r>   10.7849    0.0000 </r>
       <r>   11.6467    0.0000 </r>
       <r>   12.5512    0.0000 </r>
       <r>   13.1012    0.0000 </r>
       <r>   13.3879    0.0000 </r>
       <r>   13.6121    0.0000 </r>
       <r>   14.0245    0.0000 </r>
       <r>   14.4318    0.0000 </r>
      </set>
      <set comment="kpoint 4">
       <r>   -9.1853    1.0000 </r>
       <r>   -7.4061    1.0000 </r>
       <r>   -7.2883    1.0000 </r>
       <r>   -4.3345    1.0000 </r>
       <r>   -3.2295    1.0000 </r>
       <r>   -2.3011    1.0000 </r>
       <r>   -0.7603    1.0000 </r>
       <r>   -0.2497    1.0000 </r>
       <r>    0.9198    1.0000 </r>
       <r>    1.3352    1.0000 </r>
       <r>    1.9546    1.0000 </r>
       <r>    2.4880    1.0000 </r>
       <r>    3.2180    1.0000 </r>
       <r>    3.4516    1.0000 </r>
       <r>    4.1133    1.0000 </r>
       <r>    4.2739    1.0000 </r>
       <r>    4.5221    1.0000 </r>
       <r>    4.7942    1.0000 </r>
       <r>    5.1751    1.0000 </r>
       <r>    5.4944    1.0000 </r>
       <r>    6.3333    1.0000 </r>
       <r>    6.7150    1.0000 </r>
       <r>    7.3248    1.0000 </r>
       <r>    7.7870    1.0000 </r>
       <r>   11.3390    0.0000 </r>
       <r>   11.7356    0.0000 </r>
       <r>   12.2288    0.0000 </r>
       <r>   12.8761    0.0000 </r>
       <r>   13.5380    0.0000 </r>
       <r>   13.6968    0.0000 </r>
       <r>   14.0379    0.0000 </r>
       <r>   14.3657    0.0000 </r>
      </set>
      <set comment="kpoint 5">
       <r>   -9.0528    1.0000 </r>
       <r>   -7.6161    1.0000 </r>
       <r>   -7.3444    1.0000 </r>
       <r>   -4.2023    1.0000 </r>
       <r>   -3.2358    1.0000 </r>
       <r>   -2.4973    1.0000 </r>
       <r>   -0.5488    1.0000 </r>
       <r>    0.1255    1.0000 </r>
       <r>    1.0282    1.0000 </r>
       <r>    1.2758    1.0000 </r>
       <r>    1.9410    1.0000 </r>
       <r>    2.5767    1.0000 </r>
       <r>    2.7914    1.0000 </r>
       <r>    3.4221    1.0000 </r>
       <r>    3.9418    1.0000 </r>
       <r>    4.2631    1.0000 </r>
       <r>    4.6005    1.0000 </r>
       <r>    4.8177    1.0000 </r>
       <r>    5.1377    1.0000 </r>
       <r>    5.7828    1.0000 </r>
       <r>    6.1991    1.0000 </r>
       <r>    6.5631    1.0000 </r>
       <r>    7.1061    1.0000 </r>
       <r>    7.6113    1.0000 </r>
       <r>   11.4868    0.0000 </r>
       <r>   12.1707    0.0000 </r>
       <r>   12.4828    0.0000 </r>
       <r>   12.6637    0.0000 </r>
       <r>   13.1743    0.0000 </r>
       <r>   13.7411    0.0000 </r>
       <r>   14.0839    0.0000 </r>
       <r>   14.5883    0.0000 </r>
      </set>
      <set comment="kpoint 6">
       <r>   -8.5385    1.0000 </r>
       <r>   -8.2060    1.0000 </r>
       <r>   -7.3654    1.0000 </r>
       <r>   -4.1924    1.0000 </r>
       <r>   -3.7227    1.0000 </r>
       <r>   -2.4545    1.0000 </r>
       <r>   -0.1753    1.0000 </r>
       <r>    0.5171    1.0000 </r>
       <r>    1.0198    1.0000 </r>
       <r>    1.5147    1.0000 </r>
       <r>    1.9610    1.0000 </r>
       <r>    2.4205    1.0000 </r>
       <r>    2.9449    1.0000 </r>
       <r>    3.4041    1.0000 </r>
       <r>    4.0466    1.0000 </r>
       <r>    4.4780    1.0000 </r>
       <r>    4.6774    1.0000 </r>
       <r>    5.0032    1.0000 </r>
       <r>    5.3651    1.0000 </r>
       <r>    5.5803    1.0000 </r>
       <r>    5.9293    1.0000 </r>
       <r>    6.3898    1.0000 </r>
       <r>    6.9186    1.0000 </r>
       <r>    7.6055    1.0000 </r>
       <r>   11.3138    0.0000 </r>
       <r>   11.7018    0.0000 </r>
       <r>   12.0491    0.0000 </r>
       <r>   12.2385    0.0000 </r>
       <r>   12.8704    0.0000 </r>
       <r>   13.6644    0.0000 </r>
       <r>   13.9977    0.0000 </r>
       <r>   14.5794    0.0000 </r>
      </set>
      <set comment="kpoint 7">
       <r>   -8.8780    1.0000 </r>
       <r>   -7.7822    1.0000 </r>
       <r>   -7.3177    1.0000 </r>
       <r>   -4.3949    1.0000 </r>
       <r>   -3.5692    1.0000 </r>
       <r>   -2.4083    1.0000 </r>
       <r>   -0.3775    1.0000 </r>
       <r>    0.0576    1.0000 </r>
       <r>    1.0159    1.0000 </r>
       <r>    1.6375    1.0000 </r>
       <r>    1.9789    1.0000 </r>
       <r>    2.5562    1.0000 </r>
       <r>    2.9997    1.0000 </r>
       <r>    3.6927    1.0000 </r>
       <r>    4.0495    1.0000 </r>
       <r>    4.4443    1.0000 </r>
       <r>    4.6810    1.0000 </r>
       <r>    4.9553    1.0000 </r>
       <r>    5.2720    1.0000 </r>
       <r>    5.7117    1.0000 </r>
       <r>    5.7831    1.0000 </r>
       <r>    6.4025    1.0000 </r>
       <r>    7.4106    1.0000 </r>
       <r>    7.6233    1.0000 </r>
       <r>   10.9750    0.0000 </r>
       <r>   11.3547    0.0000 </r>
       <r>   11.9719    0.0000 </r>
       <r>   12.7337    0.0000 </r>
       <r>   12.9072    0.0000 </r>
       <r>   13.5932    0.0000 </r>
       <r>   14.1317    0.0000 </r>
       <r>   14.2422    0.0000 </r>
      </set>
      <set comment="kpoint 8">
       <r>   -9.0061    1.0000 </r>
       <r>   -7.5306    1.0000 </r>
       <r>   -7.3025    1.0000 </r>
       <r>   -4.7414    1.0000 </r>
       <r>   -3.1855    1.0000 </r>
       <r>   -2.6207    1.0000 </r>
       <r>   -0.5381    1.0000 </r>
       <r>   -0.1530    1.0000 </r>
       <r>    0.9570    1.0000 </r>
       <r>    1.9621    1.0000 </r>
       <r>    2.4206    1.0000 </r>
       <r>    2.7813    1.0000 </r>
       <r>    3.1340    1.0000 </r>
       <r>    3.5706    1.0000 </r>
       <r>    4.1294    1.0000 </r>
       <r>    4.2356    1.0000 </r>
       <r>    4.6999    1.0000 </r>
       <r>    4.9272    1.0000 </r>
       <r>    5.0471    1.0000 </r>
       <r>    5.5583    1.0000 </r>
       <r>    5.7218    1.0000 </r>
       <r>    6.4252    1.0000 </r>
       <r>    7.2250    1.0000 </r>
       <r>    7.5875    1.0000 </r>
       <r>   10.7735    0.0000 </r>
       <r>   11.4260    0.0000 </r>
       <r>   12.7741    0.0000 </r>
       <r>   12.8515    0.0000 </r>
       <r>   13.3395    0.0000 </r>
       <r>   13.6078    0.0000 </r>
       <r>   13.8809    0.0000 </r>
       <r>   14.1368    0.0000 </r>
      </set>
      <set comment="kpoint 9">
       <r>   -8.8374    1.0000 </r>
       <r>   -7.7665    1.0000 </r>
       <r>   -7.3578    1.0000 </r>
       <r>   -4.6000    1.0000 </r>
       <r>   -3.4365    1.0000 </r>
       <r>   -2.6264    1.0000 </r>
       <r>   -0.1462    1.0000 </r>
       <r>    0.2372    1.0000 </r>
       <r>    1.2629    1.0000 </r>
       <r>    1.7069    1.0000 </r>
       <r>    2.2952    1.0000 </r>
       <r>    2.6901    1.0000 </r>
       <r>    2.9820    1.0000 </r>
       <r>    3.3958    1.0000 </r>
       <r>    3.7254    1.0000 </r>
       <r>    4.3402    1.0000 </r>
       <r>    4.5933    1.0000 </r>
       <r>    4.7655    1.0000 </r>
       <r>    5.2307    1.0000 </r>
       <r>    5.5015    1.0000 </r>
       <r>    6.0969    1.0000 </r>
       <r>    6.3027    1.0000 </r>
       <r>    7.2315    1.0000 </r>
       <r>    7.5435    1.0000 </r>
       <r>   10.9808    0.0000 </r>
       <r>   11.4894    0.0000 </r>
       <r>   12.2687    0.0000 </r>
       <r>   12.5468    0.0000 </r>
       <r>   12.9133    0.0000 </r>
       <r>   13.4424    0.0000 </r>
       <r>   13.8839    0.0000 </r>
       <r>   14.6540    0.0000 </r>
      </set>
      <set comment="kpoint 10">
       <r>   -8.4653    1.0000 </r>
       <r>   -8.2262    1.0000 </r>
       <r>   -7.4039    1.0000 </r>
       <r>   -4.3459    1.0000 </r>
       <r>   -3.5635    1.0000 </r>
       <r>   -2.8643    1.0000 </r>
       <r>    0.0798    1.0000 </r>
       <r>    0.8390    1.0000 </r>
       <r>    1.1673    1.0000 </r>
       <r>    1.8307    1.0000 </r>
       <r>    2.3162    1.0000 </r>
       <r>    2.6291    1.0000 </r>
       <r>    2.7885    1.0000 </r>
       <r>    3.4693    1.0000 </r>
       <r>    3.9027    1.0000 </r>
       <r>    4.1135    1.0000 </r>
       <r>    4.6400    1.0000 </r>
       <r>    4.7294    1.0000 </r>
       <r>    5.0420    1.0000 </r>
       <r>    5.2736    1.0000 </r>
       <r>    5.6135    1.0000 </r>
       <r>    6.6293    1.0000 </r>
       <r>    6.6317    1.0000 </r>
       <r>    7.5607    1.0000 </r>
       <r>   11.0723    0.0000 </r>
       <r>   12.2154    0.0000 </r>
       <r>   12.4567    0.0000 </r>
       <r>   12.7891    0.0000 </r>
       <r>   13.1185    0.0000 </r>
       <r>   13.4990    0.0000 </r>
       <r>   14.3045    0.0000 </r>
       <r>   14.5770    0.0000 </r>
      </set>
      <set comment="kpoint 11">
       <r>   -9.1559    1.0000 </r>
       <r>   -7.6478    1.0000 </r>
       <r>   -7.2372    1.0000 </r>
       <r>   -4.0426    1.0000 </r>
       <r>   -3.2986    1.0000 </r>
       <r>   -2.0672    1.0000 </r>
       <r>   -0.6326    1.0000 </r>
       <r>    0.2300    1.0000 </r>
       <r>    1.0391    1.0000 </r>
       <r>    1.2677    1.0000 </r>
       <r>    1.5670    1.0000 </r>
       <r>    2.3381    1.0000 </r>
       <r>    2.5575    1.0000 </r>
       <r>    3.3540    1.0000 </r>
       <r>    3.5943    1.0000 </r>
       <r>    3.8457    1.0000 </r>
       <r>    4.1773    1.0000 </r>
       <r>    5.0636    1.0000 </r>
       <r>    5.6130    1.0000 </r>
       <r>    5.7658    1.0000 </r>
       <r>    6.3665    1.0000 </r>
       <r>    6.8784    1.0000 </r>
       <r>    7.4255    1.0000 </r>
       <r>    7.5859    1.0000 </r>
       <r>   10.9715    0.0000 </r>
       <r>   11.6958    0.0000 </r>
       <r>   12.6931    0.0000 </r>
       <r>   12.9449    0.0000 </r>
       <r>   13.2472    0.0000 </r>
       <r>   14.0528    0.0000 </r>
       <r>   14.1992    0.0000 </r>
       <r>   14.6528    0.0000 </r>
      </set>
      <set comment="kpoint 12">
       <r>   -9.0628    1.0000 </r>
       <r>   -7.6411    1.0000 </r>
       <r>   -7.2806    1.0000 </r>
       <r>   -4.1967    1.0000 </r>
       <r>   -3.4312    1.0000 </r>
       <r>   -2.3810    1.0000 </r>
       <r>   -0.4006    1.0000 </r>
       <r>    0.1024    1.0000 </r>
       <r>    0.9627    1.0000 </r>
       <r>    1.1906    1.0000 </r>
       <r>    2.0363    1.0000 </r>
       <r>    2.5660    1.0000 </r>
       <r>    3.0944    1.0000 </r>
       <r>    3.3767    1.0000 </r>
       <r>    3.6465    1.0000 </r>
       <r>    4.2330    1.0000 </r>
       <r>    4.3779    1.0000 </r>
       <r>    4.9960    1.0000 </r>
       <r>    5.3483    1.0000 </r>
       <r>    5.6065    1.0000 </r>
       <r>    6.2104    1.0000 </r>
       <r>    6.4842    1.0000 </r>
       <r>    7.2104    1.0000 </r>
       <r>    7.6270    1.0000 </r>
       <r>   11.6395    0.0000 </r>
       <r>   12.0275    0.0000 </r>
       <r>   12.2616    0.0000 </r>
       <r>   12.8924    0.0000 </r>
       <r>   13.2766    0.0000 </r>
       <r>   13.5570    0.0000 </r>
       <r>   14.2337    0.0000 </r>
       <r>   14.9246    0.0000 </r>
      </set>
      <set comment="kpoint 13">
       <r>   -8.5818    1.0000 </r>
       <r>   -8.1618    1.0000 </r>
       <r>   -7.3472    1.0000 </r>
       <r>   -4.2408    1.0000 </r>
       <r>   -3.6839    1.0000 </r>
       <r>   -2.4842    1.0000 </r>
       <r>   -0.3484    1.0000 </r>
       <r>    0.4938    1.0000 </r>
       <r>    1.0619    1.0000 </r>
       <r>    1.6267    1.0000 </r>
       <r>    2.2645    1.0000 </r>
       <r>    2.6338    1.0000 </r>
       <r>    2.9529    1.0000 </r>
       <r>    3.4752    1.0000 </r>
       <r>    3.8275    1.0000 </r>
       <r>    4.1308    1.0000 </r>
       <r>    4.5756    1.0000 </r>
       <r>    5.0030    1.0000 </r>
       <r>    5.3156    1.0000 </r>
       <r>    5.5784    1.0000 </r>
       <r>    6.0224    1.0000 </r>
       <r>    6.4174    1.0000 </r>
       <r>    7.0022    1.0000 </r>
       <r>    7.3745    1.0000 </r>
       <r>   10.9218    0.0000 </r>
       <r>   11.8108    0.0000 </r>
       <r>   12.4493    0.0000 </r>
       <r>   12.8868    0.0000 </r>
       <r>   13.2534    0.0000 </r>
       <r>   13.7402    0.0000 </r>
       <r>   14.1256    0.0000 </r>
       <r>   14.5070    0.0000 </r>
      </set>
      <set comment="kpoint 14">
       <r>   -8.8019    1.0000 </r>
       <r>   -7.9908    1.0000 </r>
       <r>   -7.3555    1.0000 </r>
       <r>   -4.0042    1.0000 </r>
       <r>   -3.6782    1.0000 </r>
       <r>   -2.1477    1.0000 </r>
       <r>   -0.5330    1.0000 </r>
       <r>    0.5602    1.0000 </r>
       <r>    1.0495    1.0000 </r>
       <r>    1.5758    1.0000 </r>
       <r>    1.7577    1.0000 </r>
       <r>    2.2883    1.0000 </r>
       <r>    2.8063    1.0000 </r>
       <r>    3.4274    1.0000 </r>
       <r>    3.9119    1.0000 </r>
       <r>    4.3819    1.0000 </r>
       <r>    4.5117    1.0000 </r>
       <r>    5.0024    1.0000 </r>
       <r>    5.2094    1.0000 </r>
       <r>    5.7223    1.0000 </r>
       <r>    5.8902    1.0000 </r>
       <r>    6.4436    1.0000 </r>
       <r>    6.7319    1.0000 </r>
       <r>    7.4127    1.0000 </r>
       <r>   11.3886    0.0000 </r>
       <r>   11.7029    0.0000 </r>
       <r>   12.7285    0.0000 </r>
       <r>   12.9978    0.0000 </r>
       <r>   13.4859    0.0000 </r>
       <r>   14.0240    0.0000 </r>
       <r>   14.3824    0.0000 </r>
       <r>   14.6962    0.0000 </r>
      </set>
      <set comment="kpoint 15">
       <r>   -9.0726    1.0000 </r>
       <r>   -7.6041    1.0000 </r>
       <r>   -7.3278    1.0000 </r>
       <r>   -4.0977    1.0000 </r>
       <r>   -3.4621    1.0000 </r>
       <r>   -2.3184    1.0000 </r>
       <r>   -0.6522    1.0000 </r>
       <r>    0.1497    1.0000 </r>
       <r>    0.8996    1.0000 </r>
       <r>    1.5085    1.0000 </r>
       <r>    1.8854    1.0000 </r>
       <r>    2.2579    1.0000 </r>
       <r>    3.1584    1.0000 </r>
       <r>    3.3057    1.0000 </r>
       <r>    3.9269    1.0000 </r>
       <r>    4.2308    1.0000 </r>
       <r>    4.4710    1.0000 </r>
       <r>    4.9893    1.0000 </r>
       <r>    5.2506    1.0000 </r>
       <r>    5.7358    1.0000 </r>
       <r>    6.1823    1.0000 </r>
       <r>    6.6149    1.0000 </r>
       <r>    7.3126    1.0000 </r>
       <r>    7.4996    1.0000 </r>
       <r>   11.3197    0.0000 </r>
       <r>   11.8025    0.0000 </r>
       <r>   12.5758    0.0000 </r>
       <r>   12.6919    0.0000 </r>
       <r>   13.0732    0.0000 </r>
       <r>   13.8264    0.0000 </r>
       <r>   14.0778    0.0000 </r>
       <r>   14.7360    0.0000 </r>
      </set>
      <set comment="kpoint 16">
       <r>   -9.1036    1.0000 </r>
       <r>   -7.5797    1.0000 </r>
       <r>   -7.3051    1.0000 </r>
       <r>   -4.2554    1.0000 </r>
       <r>   -3.1151    1.0000 </r>
       <r>   -2.2308    1.0000 </r>
       <r>   -0.8490    1.0000 </r>
       <r>    0.0902    1.0000 </r>
       <r>    0.7814    1.0000 </r>
       <r>    1.0420    1.0000 </r>
       <r>    1.7269    1.0000 </r>
       <r>    2.4220    1.0000 </r>
       <r>    3.2659    1.0000 </r>
       <r>    3.5417    1.0000 </r>
       <r>    3.7576    1.0000 </r>
       <r>    4.4181    1.0000 </r>
       <r>    4.6194    1.0000 </r>
       <r>    4.8181    1.0000 </r>
       <r>    5.2054    1.0000 </r>
       <r>    5.7415    1.0000 </r>
       <r>    6.6340    1.0000 </r>
       <r>    6.7942    1.0000 </r>
       <r>    7.1127    1.0000 </r>
       <r>    7.6210    1.0000 </r>
       <r>   11.3849    0.0000 </r>
       <r>   12.1399    0.0000 </r>
       <r>   12.2348    0.0000 </r>
       <r>   12.6329    0.0000 </r>
       <r>   13.3233    0.0000 </r>
       <r>   13.7356    0.0000 </r>
       <r>   14.0534    0.0000 </r>
       <r>   14.6405    0.0000 </r>
      </set>
      <set comment="kpoint 17">
       <r>   -8.7057    1.0000 </r>
       <r>   -8.0120    1.0000 </r>
       <r>   -7.3783    1.0000 </r>
       <r>   -4.3258    1.0000 </r>
       <r>   -3.2734    1.0000 </r>
       <r>   -2.6071    1.0000 </r>
       <r>   -0.3011    1.0000 </r>
       <r>    0.2452    1.0000 </r>
       <r>    0.8573    1.0000 </r>
       <r>    1.4901    1.0000 </r>
       <r>    1.9662    1.0000 </r>
       <r>    2.3896    1.0000 </r>
       <r>    3.1311    1.0000 </r>
       <r>    3.4558    1.0000 </r>
       <r>    3.7769    1.0000 </r>
       <r>    4.4109    1.0000 </r>
       <r>    4.6002    1.0000 </r>
       <r>    5.0428    1.0000 </r>
       <r>    5.5536    1.0000 </r>
       <r>    5.9036    1.0000 </r>
       <r>    6.2326    1.0000 </r>
       <r>    6.5584    1.0000 </r>
       <r>    6.9333    1.0000 </r>
       <r>    7.5746    1.0000 </r>
       <r>   11.1833    0.0000 </r>
       <r>   11.6416    0.0000 </r>
       <r>   12.0406    0.0000 </r>
       <r>   12.4069    0.0000 </r>
       <r>   12.8657    0.0000 </r>
       <r>   13.6725    0.0000 </r>
       <r>   14.1025    0.0000 </r>
       <r>   14.3218    0.0000 </r>
      </set>
      <set comment="kpoint 18">
       <r>   -8.6345    1.0000 </r>
       <r>   -8.0729    1.0000 </r>
       <r>   -7.4034    1.0000 </r>
       <r>   -4.2070    1.0000 </r>
       <r>   -3.5850    1.0000 </r>
       <r>   -2.6123    1.0000 </r>
       <r>   -0.0458    1.0000 </r>
       <r>    0.3612    1.0000 </r>
       <r>    1.0163    1.0000 </r>
       <r>    1.5406    1.0000 </r>
       <r>    2.0741    1.0000 </r>
       <r>    2.3226    1.0000 </r>
       <r>    2.9485    1.0000 </r>
       <r>    3.5479    1.0000 </r>
       <r>    3.8907    1.0000 </r>
       <r>    4.2702    1.0000 </r>
       <r>    4.5145    1.0000 </r>
       <r>    5.1982    1.0000 </r>
       <r>    5.4573    1.0000 </r>
       <r>    5.7296    1.0000 </r>
       <r>    6.1316    1.0000 </r>
       <r>    6.3180    1.0000 </r>
       <r>    7.0572    1.0000 </r>
       <r>    7.4309    1.0000 </r>
       <r>   11.0228    0.0000 </r>
       <r>   11.5103    0.0000 </r>
       <r>   12.1259    0.0000 </r>
       <r>   12.4753    0.0000 </r>
       <r>   12.9398    0.0000 </r>
       <r>   13.3799    0.0000 </r>
       <r>   14.1129    0.0000 </r>
       <r>   14.5567    0.0000 </r>
      </set>
      <set comment="kpoint 19">
       <r>   -8.8645    1.0000 </r>
       <r>   -7.7166    1.0000 </r>
       <r>   -7.3820    1.0000 </r>
       <r>   -4.5947    1.0000 </r>
       <r>   -3.2555    1.0000 </r>
       <r>   -2.7604    1.0000 </r>
       <r>   -0.4054    1.0000 </r>
       <r>    0.1372    1.0000 </r>
       <r>    1.3436    1.0000 </r>
       <r>    1.9770    1.0000 </r>
       <r>    2.2676    1.0000 </r>
       <r>    2.8705    1.0000 </r>
       <r>    2.9532    1.0000 </r>
       <r>    3.2526    1.0000 </r>
       <r>    4.0689    1.0000 </r>
       <r>    4.3020    1.0000 </r>
       <r>    4.4508    1.0000 </r>
       <r>    4.9117    1.0000 </r>
       <r>    5.1868    1.0000 </r>
       <r>    5.4585    1.0000 </r>
       <r>    5.9372    1.0000 </r>
       <r>    6.2837    1.0000 </r>
       <r>    7.1977    1.0000 </r>
       <r>    7.3119    1.0000 </r>
       <r>   10.6442    0.0000 </r>
       <r>   11.4136    0.0000 </r>
       <r>   12.5020    0.0000 </r>
       <r>   12.9653    0.0000 </r>
       <r>   13.4625    0.0000 </r>
       <r>   13.7456    0.0000 </r>
       <r>   14.1475    0.0000 </r>
       <r>   14.5632    0.0000 </r>
      </set>
      <set comment="kpoint 20">
       <r>   -8.9074    1.0000 </r>
       <r>   -7.7046    1.0000 </r>
       <r>   -7.3248    1.0000 </r>
       <r>   -4.6140    1.0000 </r>
       <r>   -3.3444    1.0000 </r>
       <r>   -2.4855    1.0000 </r>
       <r>   -0.4756    1.0000 </r>
       <r>    0.3008    1.0000 </r>
       <r>    1.0924    1.0000 </r>
       <r>    1.5407    1.0000 </r>
       <r>    2.0039    1.0000 </r>
       <r>    2.4272    1.0000 </r>
       <r>    3.2662    1.0000 </r>
       <r>    3.6212    1.0000 </r>
       <r>    3.9887    1.0000 </r>
       <r>    4.0913    1.0000 </r>
       <r>    4.6178    1.0000 </r>
       <r>    4.8369    1.0000 </r>
       <r>    5.3657    1.0000 </r>
       <r>    5.6364    1.0000 </r>
       <r>    6.1813    1.0000 </r>
       <r>    6.6763    1.0000 </r>
       <r>    7.2225    1.0000 </r>
       <r>    7.5406    1.0000 </r>
       <r>   10.8074    0.0000 </r>
       <r>   11.4750    0.0000 </r>
       <r>   12.0321    0.0000 </r>
       <r>   12.4472    0.0000 </r>
       <r>   13.1036    0.0000 </r>
       <r>   13.5199    0.0000 </r>
       <r>   14.0606    0.0000 </r>
       <r>   14.4127    0.0000 </r>
      </set>
      <set comment="kpoint 21">
       <r>   -8.6360    1.0000 </r>
       <r>   -8.0465    1.0000 </r>
       <r>   -7.4048    1.0000 </r>
       <r>   -4.4448    1.0000 </r>
       <r>   -3.3588    1.0000 </r>
       <r>   -2.5917    1.0000 </r>
       <r>   -0.4878    1.0000 </r>
       <r>    0.6832    1.0000 </r>
       <r>    1.3426    1.0000 </r>
       <r>    1.4572    1.0000 </r>
       <r>    2.0824    1.0000 </r>
       <r>    2.4898    1.0000 </r>
       <r>    2.9880    1.0000 </r>
       <r>    3.4872    1.0000 </r>
       <r>    3.9446    1.0000 </r>
       <r>    4.1413    1.0000 </r>
       <r>    4.5950    1.0000 </r>
       <r>    4.9588    1.0000 </r>
       <r>    5.2401    1.0000 </r>
       <r>    5.4831    1.0000 </r>
       <r>    6.1965    1.0000 </r>
       <r>    6.6774    1.0000 </r>
       <r>    6.8024    1.0000 </r>
       <r>    7.2883    1.0000 </r>
       <r>   10.8793    0.0000 </r>
       <r>   11.8405    0.0000 </r>
       <r>   12.5370    0.0000 </r>
       <r>   13.0053    0.0000 </r>
       <r>   13.2475    0.0000 </r>
       <r>   13.5412    0.0000 </r>
       <r>   14.0113    0.0000 </r>
       <r>   14.2937    0.0000 </r>
      </set>
      <set comment="kpoint 22">
       <r>   -8.5640    1.0000 </r>
       <r>   -8.0895    1.0000 </r>
       <r>   -7.4460    1.0000 </r>
       <r>   -4.4523    1.0000 </r>
       <r>   -3.4344    1.0000 </r>
       <r>   -2.7216    1.0000 </r>
       <r>   -0.0046    1.0000 </r>
       <r>    0.5932    1.0000 </r>
       <r>    1.3011    1.0000 </r>
       <r>    1.7309    1.0000 </r>
       <r>    2.2330    1.0000 </r>
       <r>    2.4281    1.0000 </r>
       <r>    2.8435    1.0000 </r>
       <r>    3.3635    1.0000 </r>
       <r>    3.7667    1.0000 </r>
       <r>    4.2274    1.0000 </r>
       <r>    4.4418    1.0000 </r>
       <r>    5.1129    1.0000 </r>
       <r>    5.3878    1.0000 </r>
       <r>    5.5590    1.0000 </r>
       <r>    5.9030    1.0000 </r>
       <r>    6.2581    1.0000 </r>
       <r>    6.9929    1.0000 </r>
       <r>    7.3502    1.0000 </r>
       <r>   11.1518    0.0000 </r>
       <r>   11.5517    0.0000 </r>
       <r>   12.2298    0.0000 </r>
       <r>   12.4525    0.0000 </r>
       <r>   12.7691    0.0000 </r>
       <r>   13.3989    0.0000 </r>
       <r>   14.4211    0.0000 </r>
       <r>   14.8074    0.0000 </r>
      </set>
      <set comment="kpoint 23">
       <r>   -8.9725    1.0000 </r>
       <r>   -7.7220    1.0000 </r>
       <r>   -7.3071    1.0000 </r>
       <r>   -4.4772    1.0000 </r>
       <r>   -3.2960    1.0000 </r>
       <r>   -2.4003    1.0000 </r>
       <r>   -0.4518    1.0000 </r>
       <r>    0.2714    1.0000 </r>
       <r>    1.3987    1.0000 </r>
       <r>    1.6125    1.0000 </r>
       <r>    2.0305    1.0000 </r>
       <r>    2.6508    1.0000 </r>
       <r>    2.9170    1.0000 </r>
       <r>    3.3341    1.0000 </r>
       <r>    3.8137    1.0000 </r>
       <r>    4.1788    1.0000 </r>
       <r>    4.2857    1.0000 </r>
       <r>    4.7997    1.0000 </r>
       <r>    5.2203    1.0000 </r>
       <r>    5.5274    1.0000 </r>
       <r>    5.9353    1.0000 </r>
       <r>    6.1808    1.0000 </r>
       <r>    7.2323    1.0000 </r>
       <r>    7.3852    1.0000 </r>
       <r>   11.3460    0.0000 </r>
       <r>   11.7324    0.0000 </r>
       <r>   12.6252    0.0000 </r>
       <r>   12.8506    0.0000 </r>
       <r>   13.4661    0.0000 </r>
       <r>   13.9621    0.0000 </r>
       <r>   14.3008    0.0000 </r>
       <r>   14.9219    0.0000 </r>
      </set>
      <set comment="kpoint 24">
       <r>   -8.8525    1.0000 </r>
       <r>   -7.7737    1.0000 </r>
       <r>   -7.3047    1.0000 </r>
       <r>   -4.6069    1.0000 </r>
       <r>   -3.5971    1.0000 </r>
       <r>   -2.5151    1.0000 </r>
       <r>   -0.0183    1.0000 </r>
       <r>    0.1796    1.0000 </r>
       <r>    1.2715    1.0000 </r>
       <r>    1.6102    1.0000 </r>
       <r>    2.2930    1.0000 </r>
       <r>    2.8161    1.0000 </r>
       <r>    3.1523    1.0000 </r>
       <r>    3.5445    1.0000 </r>
       <r>    3.6141    1.0000 </r>
       <r>    4.0377    1.0000 </r>
       <r>    4.3714    1.0000 </r>
       <r>    4.8336    1.0000 </r>
       <r>    5.1016    1.0000 </r>
       <r>    5.6750    1.0000 </r>
       <r>    6.0600    1.0000 </r>
       <r>    6.4847    1.0000 </r>
       <r>    7.3093    1.0000 </r>
       <r>    7.4459    1.0000 </r>
       <r>   11.1282    0.0000 </r>
       <r>   11.4434    0.0000 </r>
       <r>   12.1067    0.0000 </r>
       <r>   12.4334    0.0000 </r>
       <r>   12.7919    0.0000 </r>
       <r>   13.4937    0.0000 </r>
       <r>   14.1728    0.0000 </r>
       <r>   14.5744    0.0000 </r>
      </set>
      <set comment="kpoint 25">
       <r>   -8.4971    1.0000 </r>
       <r>   -8.1998    1.0000 </r>
       <r>   -7.3768    1.0000 </r>
       <r>   -4.3616    1.0000 </r>
       <r>   -3.8742    1.0000 </r>
       <r>   -2.3270    1.0000 </r>
       <r>   -0.2838    1.0000 </r>
       <r>    0.7423    1.0000 </r>
       <r>    1.5077    1.0000 </r>
       <r>    1.8841    1.0000 </r>
       <r>    2.1250    1.0000 </r>
       <r>    2.6291    1.0000 </r>
       <r>    2.8112    1.0000 </r>
       <r>    3.1193    1.0000 </r>
       <r>    3.7754    1.0000 </r>
       <r>    4.0760    1.0000 </r>
       <r>    4.4697    1.0000 </r>
       <r>    4.9244    1.0000 </r>
       <r>    5.0862    1.0000 </r>
       <r>    5.6816    1.0000 </r>
       <r>    6.1738    1.0000 </r>
       <r>    6.3538    1.0000 </r>
       <r>    6.8934    1.0000 </r>
       <r>    7.3776    1.0000 </r>
       <r>   11.4062    0.0000 </r>
       <r>   11.7579    0.0000 </r>
       <r>   11.9874    0.0000 </r>
       <r>   12.3939    0.0000 </r>
       <r>   12.8797    0.0000 </r>
       <r>   13.2128    0.0000 </r>
       <r>   14.5089    0.0000 </r>
       <r>   14.6330    0.0000 </r>
      </set>
      <set comment="kpoint 26">
       <r>   -8.7466    1.0000 </r>
       <r>   -8.0065    1.0000 </r>
       <r>   -7.3870    1.0000 </r>
       <r>   -4.2492    1.0000 </r>
       <r>   -3.5234    1.0000 </r>
       <r>   -2.3841    1.0000 </r>
       <r>   -0.2825    1.0000 </r>
       <r>    0.8374    1.0000 </r>
       <r>    1.1535    1.0000 </r>
       <r>    1.8276    1.0000 </r>
       <r>    1.9394    1.0000 </r>
       <r>    2.3404    1.0000 </r>
       <r>    2.7657    1.0000 </r>
       <r>    3.3884    1.0000 </r>
       <r>    3.8290    1.0000 </r>
       <r>    4.1208    1.0000 </r>
       <r>    4.5107    1.0000 </r>
       <r>    4.8734    1.0000 </r>
       <r>    5.0524    1.0000 </r>
       <r>    5.5104    1.0000 </r>
       <r>    5.6648    1.0000 </r>
       <r>    6.2016    1.0000 </r>
       <r>    6.9624    1.0000 </r>
       <r>    7.2884    1.0000 </r>
       <r>   11.5035    0.0000 </r>
       <r>   12.0121    0.0000 </r>
       <r>   12.7869    0.0000 </r>
       <r>   13.1763    0.0000 </r>
       <r>   13.4778    0.0000 </r>
       <r>   13.7387    0.0000 </r>
       <r>   14.3015    0.0000 </r>
       <r>   14.8344    0.0000 </r>
      </set>
      <set comment="kpoint 27">
       <r>   -8.8805    1.0000 </r>
       <r>   -8.0348    1.0000 </r>
       <r>   -7.2454    1.0000 </r>
       <r>   -4.1790    1.0000 </r>
       <r>   -3.4032    1.0000 </r>
       <r>   -2.0309    1.0000 </r>
       <r>   -0.3496    1.0000 </r>
       <r>    0.9803    1.0000 </r>
       <r>    1.1360    1.0000 </r>
       <r>    1.2773    1.0000 </r>
       <r>    1.8438    1.0000 </r>
       <r>    2.2542    1.0000 </r>
       <r>    2.7055    1.0000 </r>
       <r>    3.0226    1.0000 </r>
       <r>    3.5669    1.0000 </r>
       <r>    3.7586    1.0000 </r>
       <r>    4.3397    1.0000 </r>
       <r>    4.9702    1.0000 </r>
       <r>    5.3764    1.0000 </r>
       <r>    5.7087    1.0000 </r>
       <r>    5.9067    1.0000 </r>
       <r>    6.2076    1.0000 </r>
       <r>    7.2754    1.0000 </r>
       <r>    7.3744    1.0000 </r>
       <r>   11.2249    0.0000 </r>
       <r>   11.2676    0.0000 </r>
       <r>   12.2788    0.0000 </r>
       <r>   13.9439    0.0000 </r>
       <r>   14.0992    0.0000 </r>
       <r>   14.3712    0.0000 </r>
       <r>   14.5206    0.0000 </r>
       <r>   15.1100    0.0000 </r>
      </set>
      <set comment="kpoint 28">
       <r>   -8.7666    1.0000 </r>
       <r>   -8.0003    1.0000 </r>
       <r>   -7.3445    1.0000 </r>
       <r>   -4.2859    1.0000 </r>
       <r>   -3.5882    1.0000 </r>
       <r>   -2.3507    1.0000 </r>
       <r>   -0.2159    1.0000 </r>
       <r>    0.6983    1.0000 </r>
       <r>    1.3628    1.0000 </r>
       <r>    1.7823    1.0000 </r>
       <r>    2.0030    1.0000 </r>
       <r>    2.5009    1.0000 </r>
       <r>    2.8123    1.0000 </r>
       <r>    3.1857    1.0000 </r>
       <r>    3.7560    1.0000 </r>
       <r>    3.9856    1.0000 </r>
       <r>    4.2461    1.0000 </r>
       <r>    4.9596    1.0000 </r>
       <r>    5.0733    1.0000 </r>
       <r>    5.3848    1.0000 </r>
       <r>    6.0227    1.0000 </r>
       <r>    6.4819    1.0000 </r>
       <r>    6.8397    1.0000 </r>
       <r>    7.1425    1.0000 </r>
       <r>   11.5819    0.0000 </r>
       <r>   11.9861    0.0000 </r>
       <r>   12.7938    0.0000 </r>
       <r>   12.9771    0.0000 </r>
       <r>   13.3662    0.0000 </r>
       <r>   13.7825    0.0000 </r>
       <r>   14.4379    0.0000 </r>
       <r>   14.8186    0.0000 </r>
      </set>
      <set comment="kpoint 29">
       <r>   -8.5609    1.0000 </r>
       <r>   -8.1524    1.0000 </r>
       <r>   -7.3214    1.0000 </r>
       <r>   -4.4027    1.0000 </r>
       <r>   -3.7605    1.0000 </r>
       <r>   -2.7379    1.0000 </r>
       <r>    0.2127    1.0000 </r>
       <r>    0.7278    1.0000 </r>
       <r>    1.4201    1.0000 </r>
       <r>    1.9603    1.0000 </r>
       <r>    2.1965    1.0000 </r>
       <r>    2.5295    1.0000 </r>
       <r>    3.0500    1.0000 </r>
       <r>    3.4595    1.0000 </r>
       <r>    3.6923    1.0000 </r>
       <r>    3.9025    1.0000 </r>
       <r>    4.1708    1.0000 </r>
       <r>    4.6798    1.0000 </r>
       <r>    5.1733    1.0000 </r>
       <r>    5.3289    1.0000 </r>
       <r>    5.9872    1.0000 </r>
       <r>    6.5113    1.0000 </r>
       <r>    7.0220    1.0000 </r>
       <r>    7.3128    1.0000 </r>
       <r>   11.1810    0.0000 </r>
       <r>   12.0549    0.0000 </r>
       <r>   12.4941    0.0000 </r>
       <r>   12.6221    0.0000 </r>
       <r>   12.9553    0.0000 </r>
       <r>   13.7892    0.0000 </r>
       <r>   14.1389    0.0000 </r>
       <r>   14.5349    0.0000 </r>
      </set>
      <set comment="kpoint 30">
       <r>   -8.7744    1.0000 </r>
       <r>   -8.0141    1.0000 </r>
       <r>   -7.3304    1.0000 </r>
       <r>   -4.3040    1.0000 </r>
       <r>   -3.4236    1.0000 </r>
       <r>   -2.4680    1.0000 </r>
       <r>   -0.2149    1.0000 </r>
       <r>    0.6377    1.0000 </r>
       <r>    1.3981    1.0000 </r>
       <r>    1.7620    1.0000 </r>
       <r>    2.0091    1.0000 </r>
       <r>    2.3388    1.0000 </r>
       <r>    2.7514    1.0000 </r>
       <r>    3.1601    1.0000 </r>
       <r>    3.6432    1.0000 </r>
       <r>    4.0314    1.0000 </r>
       <r>    4.6592    1.0000 </r>
       <r>    4.7632    1.0000 </r>
       <r>    5.3110    1.0000 </r>
       <r>    5.7380    1.0000 </r>
       <r>    5.8719    1.0000 </r>
       <r>    6.3763    1.0000 </r>
       <r>    6.6773    1.0000 </r>
       <r>    7.2132    1.0000 </r>
       <r>   11.2582    0.0000 </r>
       <r>   12.1540    0.0000 </r>
       <r>   12.3825    0.0000 </r>
       <r>   12.9885    0.0000 </r>
       <r>   13.4903    0.0000 </r>
       <r>   13.9927    0.0000 </r>
       <r>   14.2655    0.0000 </r>
       <r>   14.7079    0.0000 </r>
      </set>
      <set comment="kpoint 31">
       <r>   -8.8422    1.0000 </r>
       <r>   -7.9015    1.0000 </r>
       <r>   -7.3734    1.0000 </r>
       <r>   -4.3059    1.0000 </r>
       <r>   -3.3876    1.0000 </r>
       <r>   -2.1765    1.0000 </r>
       <r>   -0.6391    1.0000 </r>
       <r>    0.8190    1.0000 </r>
       <r>    1.0417    1.0000 </r>
       <r>    1.5619    1.0000 </r>
       <r>    1.8569    1.0000 </r>
       <r>    2.3898    1.0000 </r>
       <r>    2.8196    1.0000 </r>
       <r>    3.2375    1.0000 </r>
       <r>    3.5548    1.0000 </r>
       <r>    4.2484    1.0000 </r>
       <r>    4.5080    1.0000 </r>
       <r>    5.0350    1.0000 </r>
       <r>    5.2776    1.0000 </r>
       <r>    5.7462    1.0000 </r>
       <r>    6.2891    1.0000 </r>
       <r>    6.3201    1.0000 </r>
       <r>    6.9601    1.0000 </r>
       <r>    7.1193    1.0000 </r>
       <r>   11.4469    0.0000 </r>
       <r>   11.6193    0.0000 </r>
       <r>   12.6927    0.0000 </r>
       <r>   13.0251    0.0000 </r>
       <r>   13.5556    0.0000 </r>
       <r>   14.0756    0.0000 </r>
       <r>   14.2497    0.0000 </r>
       <r>   14.7598    0.0000 </r>
      </set>
      <set comment="kpoint 32">
       <r>   -8.6605    1.0000 </r>
       <r>   -8.0515    1.0000 </r>
       <r>   -7.3326    1.0000 </r>
       <r>   -4.5001    1.0000 </r>
       <r>   -3.5352    1.0000 </r>
       <r>   -2.4501    1.0000 </r>
       <r>   -0.2431    1.0000 </r>
       <r>    0.7562    1.0000 </r>
       <r>    1.1576    1.0000 </r>
       <r>    1.5686    1.0000 </r>
       <r>    2.0070    1.0000 </r>
       <r>    2.2866    1.0000 </r>
       <r>    2.9544    1.0000 </r>
       <r>    3.4669    1.0000 </r>
       <r>    3.8400    1.0000 </r>
       <r>    3.9870    1.0000 </r>
       <r>    4.5425    1.0000 </r>
       <r>    4.9699    1.0000 </r>
       <r>    5.4292    1.0000 </r>
       <r>    5.7988    1.0000 </r>
       <r>    6.2744    1.0000 </r>
       <r>    6.5559    1.0000 </r>
       <r>    7.0368    1.0000 </r>
       <r>    7.2554    1.0000 </r>
       <r>   11.1863    0.0000 </r>
       <r>   11.7438    0.0000 </r>
       <r>   12.0083    0.0000 </r>
       <r>   12.5866    0.0000 </r>
       <r>   12.7931    0.0000 </r>
       <r>   13.3154    0.0000 </r>
       <r>   13.9540    0.0000 </r>
       <r>   14.6520    0.0000 </r>
      </set>
      <set comment="kpoint 33">
       <r>   -8.5956    1.0000 </r>
       <r>   -8.0758    1.0000 </r>
       <r>   -7.3953    1.0000 </r>
       <r>   -4.5270    1.0000 </r>
       <r>   -3.4356    1.0000 </r>
       <r>   -2.7105    1.0000 </r>
       <r>    0.0934    1.0000 </r>
       <r>    0.3791    1.0000 </r>
       <r>    1.5652    1.0000 </r>
       <r>    1.9038    1.0000 </r>
       <r>    2.2424    1.0000 </r>
       <r>    2.5064    1.0000 </r>
       <r>    2.7401    1.0000 </r>
       <r>    3.1446    1.0000 </r>
       <r>    3.6733    1.0000 </r>
       <r>    4.1300    1.0000 </r>
       <r>    4.2426    1.0000 </r>
       <r>    5.1252    1.0000 </r>
       <r>    5.4168    1.0000 </r>
       <r>    5.6784    1.0000 </r>
       <r>    6.2868    1.0000 </r>
       <r>    6.3772    1.0000 </r>
       <r>    6.6870    1.0000 </r>
       <r>    7.3423    1.0000 </r>
       <r>   11.1314    0.0000 </r>
       <r>   11.5844    0.0000 </r>
       <r>   12.1111    0.0000 </r>
       <r>   12.5149    0.0000 </r>
       <r>   12.7901    0.0000 </r>
       <r>   13.3696    0.0000 </r>
       <r>   14.1158    0.0000 </r>
       <r>   14.9107    0.0000 </r>
      </set>
      <set comment="kpoint 34">
       <r>   -8.6286    1.0000 </r>
       <r>   -8.0468    1.0000 </r>
       <r>   -7.4047    1.0000 </r>
       <r>   -4.3453    1.0000 </r>
       <r>   -3.3899    1.0000 </r>
       <r>   -3.0308    1.0000 </r>
       <r>   -0.0850    1.0000 </r>
       <r>    0.7234    1.0000 </r>
       <r>    1.5465    1.0000 </r>
       <r>    1.8742    1.0000 </r>
       <r>    2.0754    1.0000 </r>
       <r>    2.6385    1.0000 </r>
       <r>    3.0991    1.0000 </r>
       <r>    3.2210    1.0000 </r>
       <r>    3.5272    1.0000 </r>
       <r>    4.1305    1.0000 </r>
       <r>    4.4129    1.0000 </r>
       <r>    4.8336    1.0000 </r>
       <r>    5.3973    1.0000 </r>
       <r>    5.5770    1.0000 </r>
       <r>    5.9313    1.0000 </r>
       <r>    6.5629    1.0000 </r>
       <r>    6.7341    1.0000 </r>
       <r>    7.1808    1.0000 </r>
       <r>   10.8108    0.0000 </r>
       <r>   11.8369    0.0000 </r>
       <r>   12.2821    0.0000 </r>
       <r>   12.8163    0.0000 </r>
       <r>   13.4975    0.0000 </r>
       <r>   13.5313    0.0000 </r>
       <r>   14.0925    0.0000 </r>
       <r>   14.3377    0.0000 </r>
      </set>
      <set comment="kpoint 35">
       <r>   -8.6981    1.0000 </r>
       <r>   -7.9565    1.0000 </r>
       <r>   -7.4214    1.0000 </r>
       <r>   -4.4719    1.0000 </r>
       <r>   -3.2161    1.0000 </r>
       <r>   -2.7731    1.0000 </r>
       <r>   -0.2481    1.0000 </r>
       <r>    0.6741    1.0000 </r>
       <r>    1.0234    1.0000 </r>
       <r>    1.7380    1.0000 </r>
       <r>    1.9905    1.0000 </r>
       <r>    2.4982    1.0000 </r>
       <r>    2.8911    1.0000 </r>
       <r>    3.3089    1.0000 </r>
       <r>    3.6611    1.0000 </r>
       <r>    4.0842    1.0000 </r>
       <r>    4.4956    1.0000 </r>
       <r>    5.0325    1.0000 </r>
       <r>    5.7105    1.0000 </r>
       <r>    5.9194    1.0000 </r>
       <r>    6.2446    1.0000 </r>
       <r>    6.5735    1.0000 </r>
       <r>    6.8908    1.0000 </r>
       <r>    7.2967    1.0000 </r>
       <r>   11.1847    0.0000 </r>
       <r>   11.4467    0.0000 </r>
       <r>   11.8607    0.0000 </r>
       <r>   12.5840    0.0000 </r>
       <r>   12.7536    0.0000 </r>
       <r>   13.5705    0.0000 </r>
       <r>   13.9930    0.0000 </r>
       <r>   14.8084    0.0000 </r>
      </set>
      <set comment="kpoint 36">
       <r>   -8.7177    1.0000 </r>
       <r>   -8.0152    1.0000 </r>
       <r>   -7.3308    1.0000 </r>
       <r>   -4.5335    1.0000 </r>
       <r>   -3.1529    1.0000 </r>
       <r>   -2.3374    1.0000 </r>
       <r>   -0.7646    1.0000 </r>
       <r>    0.3784    1.0000 </r>
       <r>    1.0364    1.0000 </r>
       <r>    1.3716    1.0000 </r>
       <r>    1.8909    1.0000 </r>
       <r>    2.7381    1.0000 </r>
       <r>    2.8813    1.0000 </r>
       <r>    3.6219    1.0000 </r>
       <r>    3.9859    1.0000 </r>
       <r>    4.1345    1.0000 </r>
       <r>    4.2972    1.0000 </r>
       <r>    4.9907    1.0000 </r>
       <r>    5.7284    1.0000 </r>
       <r>    6.0252    1.0000 </r>
       <r>    6.4946    1.0000 </r>
       <r>    6.6589    1.0000 </r>
       <r>    6.9048    1.0000 </r>
       <r>    7.1912    1.0000 </r>
       <r>   10.8126    0.0000 </r>
       <r>   11.5790    0.0000 </r>
       <r>   12.8265    0.0000 </r>
       <r>   13.0027    0.0000 </r>
       <r>   13.0650    0.0000 </r>
       <r>   13.4586    0.0000 </r>
       <r>   13.7786    0.0000 </r>
       <r>   14.1735    0.0000 </r>
      </set>
     </set>
    </set>
   </array>
  </eigenvalues>
  <separator name="orbital magnetization" >
   <v name="MAGDIPOLOUT">      0.00000000      0.00000000      0.00000000</v>
  </separator>
  <dos>
   <i name="efermi">      8.35693320 </i>
   <total>
    <array>
     <dimension dim="1">gridpoints</dimension>
     <dimension dim="2">spin</dimension>
     <field>energy</field>
     <field>total</field>
     <field>integrated</field>
     <set>
      <set comment="spin 1">
       <r>   -10.5553     0.0000     0.0000 </r>
       <r>   -10.4657     0.0000     0.0000 </r>
       <r>   -10.3761     0.0000     0.0000 </r>
       <r>   -10.2865     0.0000     0.0000 </r>
       <r>   -10.1968     0.0000     0.0000 </r>
       <r>   -10.1072     0.0000     0.0000 </r>
       <r>   -10.0176     0.0000     0.0000 </r>
       <r>    -9.9280     0.0000     0.0000 </r>
       <r>    -9.8383     0.0000     0.0000 </r>
       <r>    -9.7487     0.0000     0.0000 </r>
       <r>    -9.6591     0.0000     0.0000 </r>
       <r>    -9.5695     0.0001     0.0000 </r>
       <r>    -9.4798     0.0065     0.0006 </r>
       <r>    -9.3902     0.0682     0.0067 </r>
       <r>    -9.3006     0.2151     0.0260 </r>
       <r>    -9.2110     0.5573     0.0759 </r>
       <r>    -9.1213     1.5029     0.2106 </r>
       <r>    -9.0317     2.2079     0.4085 </r>
       <r>    -8.9421     2.0150     0.5891 </r>
       <r>    -8.8525     2.6476     0.8264 </r>
       <r>    -8.7628     3.2288     1.1158 </r>
       <r>    -8.6732     3.1301     1.3963 </r>
       <r>    -8.5836     3.1561     1.6792 </r>
       <r>    -8.4940     2.4252     1.8965 </r>
       <r>    -8.4043     0.9852     1.9848 </r>
       <r>    -8.3147     0.3457     2.0158 </r>
       <r>    -8.2251     0.9765     2.1033 </r>
       <r>    -8.1355     2.1057     2.2920 </r>
       <r>    -8.0458     3.4625     2.6024 </r>
       <r>    -7.9562     3.7133     2.9352 </r>
       <r>    -7.8666     1.9550     3.1104 </r>
       <r>    -7.7770     1.6126     3.2549 </r>
       <r>    -7.6873     2.5581     3.4842 </r>
       <r>    -7.5977     2.7605     3.7316 </r>
       <r>    -7.5081     2.2020     3.9290 </r>
       <r>    -7.4185     4.4146     4.3246 </r>
       <r>    -7.3288     8.9540     5.1271 </r>
       <r>    -7.2392     7.2732     5.7790 </r>
       <r>    -7.1496     2.2120     5.9772 </r>
       <r>    -7.0600     0.2449     5.9992 </r>
       <r>    -6.9703     0.0090     6.0000 </r>
       <r>    -6.8807     0.0001     6.0000 </r>
       <r>    -6.7911     0.0000     6.0000 </r>
       <r>    -6.7015     0.0000     6.0000 </r>
       <r>    -6.6118     0.0000     6.0000 </r>
       <r>    -6.5222     0.0000     6.0000 </r>
       <r>    -6.4326     0.0000     6.0000 </r>
       <r>    -6.3430     0.0000     6.0000 </r>
       <r>    -6.2533     0.0000     6.0000 </r>
       <r>    -6.1637     0.0000     6.0000 </r>
       <r>    -6.0741     0.0000     6.0000 </r>
       <r>    -5.9845     0.0000     6.0000 </r>
       <r>    -5.8948     0.0000     6.0000 </r>
       <r>    -5.8052     0.0000     6.0000 </r>
       <r>    -5.7156     0.0000     6.0000 </r>
       <r>    -5.6260     0.0000     6.0000 </r>
       <r>    -5.5363     0.0000     6.0000 </r>
       <r>    -5.4467     0.0000     6.0000 </r>
       <r>    -5.3571     0.0000     6.0000 </r>
       <r>    -5.2675     0.0000     6.0000 </r>
       <r>    -5.1778     0.0000     6.0000 </r>
       <r>    -5.0882     0.0000     6.0000 </r>
       <r>    -4.9986     0.0000     6.0000 </r>
       <r>    -4.9090     0.0031     6.0003 </r>
       <r>    -4.8193     0.0475     6.0045 </r>
       <r>    -4.7297     0.2568     6.0275 </r>
       <r>    -4.6401     0.9628     6.1138 </r>
       <r>    -4.5505     2.1254     6.3043 </r>
       <r>    -4.4608     2.8123     6.5564 </r>
       <r>    -4.3712     3.1931     6.8426 </r>
       <r>    -4.2816     3.7613     7.1797 </r>
       <r>    -4.1920     3.6342     7.5054 </r>
       <r>    -4.1023     2.2909     7.7107 </r>
       <r>    -4.0127     1.4568     7.8413 </r>
       <r>    -3.9231     1.2531     7.9536 </r>
       <r>    -3.8335     1.0040     8.0436 </r>
       <r>    -3.7438     0.9935     8.1326 </r>
       <r>    -3.6542     1.7672     8.2910 </r>
       <r>    -3.5646     2.6628     8.5296 </r>
       <r>    -3.4750     3.3787     8.8325 </r>
       <r>    -3.3853     3.9292     9.1846 </r>
       <r>    -3.2957     3.4964     9.4980 </r>
       <r>    -3.2061     2.8967     9.7576 </r>
       <r>    -3.1165     1.8491     9.9233 </r>
       <r>    -3.0268     0.8850    10.0026 </r>
       <r>    -2.9372     0.3439    10.0335 </r>
       <r>    -2.8476     0.4252    10.0716 </r>
       <r>    -2.7580     1.2269    10.1815 </r>
       <r>    -2.6683     1.9741    10.3585 </r>
       <r>    -2.5787     2.3479    10.5689 </r>
       <r>    -2.4891     2.9562    10.8339 </r>
       <r>    -2.3995     3.6605    11.1619 </r>
       <r>    -2.3098     3.3307    11.4604 </r>
       <r>    -2.2202     2.4094    11.6764 </r>
       <r>    -2.1306     1.8783    11.8447 </r>
       <r>    -2.0410     1.1850    11.9509 </r>
       <r>    -1.9513     0.4630    11.9924 </r>
       <r>    -1.8617     0.0803    11.9996 </r>
       <r>    -1.7721     0.0042    12.0000 </r>
       <r>    -1.6825     0.0001    12.0000 </r>
       <r>    -1.5928     0.0000    12.0000 </r>
       <r>    -1.5032     0.0000    12.0000 </r>
       <r>    -1.4136     0.0000    12.0000 </r>
       <r>    -1.3240     0.0000    12.0000 </r>
       <r>    -1.2343     0.0000    12.0000 </r>
       <r>    -1.1447     0.0000    12.0000 </r>
       <r>    -1.0551     0.0018    12.0002 </r>
       <r>    -0.9655     0.0514    12.0048 </r>
       <r>    -0.8758     0.3723    12.0381 </r>
       <r>    -0.7862     0.9266    12.1212 </r>
       <r>    -0.6966     1.4656    12.2525 </r>
       <r>    -0.6070     1.9581    12.4280 </r>
       <r>    -0.5173     2.1045    12.6167 </r>
       <r>    -0.4277     2.4048    12.8322 </r>
       <r>    -0.3381     2.8371    13.0865 </r>
       <r>    -0.2485     3.5809    13.4074 </r>
       <r>    -0.1588     3.3551    13.7081 </r>
       <r>    -0.0692     2.0829    13.8948 </r>
       <r>     0.0204     1.9678    14.0711 </r>
       <r>     0.1100     2.8654    14.3280 </r>
       <r>     0.1997     3.3105    14.6247 </r>
       <r>     0.2893     2.7526    14.8714 </r>
       <r>     0.3789     1.8933    15.0411 </r>
       <r>     0.4685     1.3124    15.1587 </r>
       <r>     0.5582     1.5591    15.2984 </r>
       <r>     0.6478     2.3511    15.5091 </r>
       <r>     0.7374     3.0871    15.7858 </r>
       <r>     0.8270     3.0919    16.0629 </r>
       <r>     0.9167     2.8347    16.3170 </r>
       <r>     1.0063     3.8404    16.6612 </r>
       <r>     1.0959     4.5809    17.0717 </r>
       <r>     1.1855     3.3730    17.3740 </r>
       <r>     1.2752     3.5015    17.6879 </r>
       <r>     1.3648     4.0783    18.0534 </r>
       <r>     1.4544     3.7545    18.3899 </r>
       <r>     1.5440     4.6824    18.8096 </r>
       <r>     1.6337     4.8577    19.2449 </r>
       <r>     1.7233     3.5921    19.5669 </r>
       <r>     1.8129     3.6652    19.8954 </r>
       <r>     1.9025     4.8139    20.3268 </r>
       <r>     1.9922     6.1594    20.8788 </r>
       <r>     2.0818     5.0699    21.3332 </r>
       <r>     2.1714     2.8938    21.5926 </r>
       <r>     2.2610     3.7007    21.9243 </r>
       <r>     2.3507     5.4603    22.4136 </r>
       <r>     2.4403     5.2075    22.8804 </r>
       <r>     2.5299     4.6410    23.2963 </r>
       <r>     2.6195     3.8983    23.6457 </r>
       <r>     2.7092     3.4747    23.9571 </r>
       <r>     2.7988     4.2460    24.3377 </r>
       <r>     2.8884     4.7159    24.7603 </r>
       <r>     2.9780     4.4397    25.1582 </r>
       <r>     3.0677     3.9618    25.5133 </r>
       <r>     3.1573     4.2881    25.8976 </r>
       <r>     3.2469     4.4289    26.2946 </r>
       <r>     3.3365     4.2891    26.6790 </r>
       <r>     3.4262     5.0836    27.1346 </r>
       <r>     3.5158     5.3204    27.6115 </r>
       <r>     3.6054     4.9566    28.0557 </r>
       <r>     3.6950     4.7594    28.4822 </r>
       <r>     3.7847     4.5814    28.8929 </r>
       <r>     3.8743     4.4855    29.2949 </r>
       <r>     3.9639     4.5050    29.6986 </r>
       <r>     4.0535     5.1441    30.1597 </r>
       <r>     4.1432     5.9840    30.6960 </r>
       <r>     4.2328     6.2326    31.2546 </r>
       <r>     4.3224     5.9883    31.7913 </r>
       <r>     4.4120     5.4320    32.2781 </r>
       <r>     4.5017     6.1282    32.8274 </r>
       <r>     4.5913     6.2369    33.3864 </r>
       <r>     4.6809     5.0889    33.8424 </r>
       <r>     4.7705     4.0040    34.2013 </r>
       <r>     4.8602     4.2916    34.5859 </r>
       <r>     4.9498     5.0648    35.0399 </r>
       <r>     5.0394     6.3367    35.6078 </r>
       <r>     5.1290     5.9268    36.1390 </r>
       <r>     5.2187     5.4129    36.6241 </r>
       <r>     5.3083     5.4845    37.1157 </r>
       <r>     5.3979     5.1168    37.5743 </r>
       <r>     5.4875     4.7814    38.0028 </r>
       <r>     5.5772     5.0949    38.4594 </r>
       <r>     5.6668     5.6850    38.9689 </r>
       <r>     5.7564     6.2622    39.5302 </r>
       <r>     5.8460     5.0821    39.9857 </r>
       <r>     5.9357     4.3524    40.3758 </r>
       <r>     6.0253     3.5937    40.6978 </r>
       <r>     6.1149     3.1290    40.9783 </r>
       <r>     6.2045     4.8526    41.4132 </r>
       <r>     6.2942     6.2737    41.9755 </r>
       <r>     6.3838     5.7900    42.4944 </r>
       <r>     6.4734     4.6930    42.9150 </r>
       <r>     6.5630     4.3023    43.3006 </r>
       <r>     6.6527     4.2427    43.6809 </r>
       <r>     6.7423     3.6145    44.0048 </r>
       <r>     6.8319     2.8125    44.2569 </r>
       <r>     6.9215     3.2422    44.5475 </r>
       <r>     7.0112     3.5222    44.8631 </r>
       <r>     7.1008     3.2173    45.1515 </r>
       <r>     7.1904     4.1266    45.5213 </r>
       <r>     7.2800     5.8034    46.0415 </r>
       <r>     7.3697     6.0679    46.5853 </r>
       <r>     7.4593     4.6701    47.0039 </r>
       <r>     7.5489     3.6737    47.3331 </r>
       <r>     7.6385     3.6488    47.6601 </r>
       <r>     7.7282     2.0354    47.8426 </r>
       <r>     7.8178     0.9747    47.9299 </r>
       <r>     7.9074     0.5943    47.9832 </r>
       <r>     7.9970     0.1691    47.9983 </r>
       <r>     8.0867     0.0179    47.9999 </r>
       <r>     8.1763     0.0006    48.0000 </r>
       <r>     8.2659     0.0000    48.0000 </r>
       <r>     8.3555     0.0000    48.0000 </r>
       <r>     8.4452     0.0000    48.0000 </r>
       <r>     8.5348     0.0000    48.0000 </r>
       <r>     8.6244     0.0000    48.0000 </r>
       <r>     8.7140     0.0000    48.0000 </r>
       <r>     8.8037     0.0000    48.0000 </r>
       <r>     8.8933     0.0000    48.0000 </r>
       <r>     8.9829     0.0000    48.0000 </r>
       <r>     9.0725     0.0000    48.0000 </r>
       <r>     9.1622     0.0000    48.0000 </r>
       <r>     9.2518     0.0000    48.0000 </r>
       <r>     9.3414     0.0000    48.0000 </r>
       <r>     9.4310     0.0000    48.0000 </r>
       <r>     9.5207     0.0000    48.0000 </r>
       <r>     9.6103     0.0000    48.0000 </r>
       <r>     9.6999     0.0000    48.0000 </r>
       <r>     9.7895     0.0000    48.0000 </r>
       <r>     9.8792     0.0000    48.0000 </r>
       <r>     9.9688     0.0000    48.0000 </r>
       <r>    10.0584     0.0000    48.0000 </r>
       <r>    10.1480     0.0000    48.0000 </r>
       <r>    10.2377     0.0000    48.0000 </r>
       <r>    10.3273     0.0000    48.0000 </r>
       <r>    10.4169     0.0005    48.0000 </r>
       <r>    10.5065     0.0176    48.0016 </r>
       <r>    10.5962     0.1606    48.0160 </r>
       <r>    10.6858     0.4488    48.0562 </r>
       <r>    10.7754     0.8896    48.1360 </r>
       <r>    10.8650     1.4907    48.2696 </r>
       <r>    10.9547     1.9191    48.4416 </r>
       <r>    11.0443     2.0831    48.6283 </r>
       <r>    11.1339     2.1958    48.8251 </r>
       <r>    11.2235     2.7704    49.0734 </r>
       <r>    11.3132     3.0133    49.3434 </r>
       <r>    11.4028     4.0170    49.7034 </r>
       <r>    11.4924     4.5823    50.1141 </r>
       <r>    11.5820     4.1375    50.4850 </r>
       <r>    11.6717     3.8215    50.8275 </r>
       <r>    11.7613     3.6598    51.1555 </r>
       <r>    11.8509     2.9082    51.4161 </r>
       <r>    11.9405     2.5062    51.6407 </r>
       <r>    12.0302     3.7788    51.9794 </r>
       <r>    12.1198     4.1331    52.3498 </r>
       <r>    12.2094     3.9635    52.7051 </r>
       <r>    12.2990     3.7215    53.0386 </r>
       <r>    12.3887     3.0279    53.3100 </r>
       <r>    12.4783     4.1253    53.6797 </r>
       <r>    12.5679     4.8514    54.1145 </r>
       <r>    12.6575     4.5248    54.5200 </r>
       <r>    12.7472     4.7908    54.9494 </r>
       <r>    12.8368     5.7515    55.4649 </r>
       <r>    12.9264     5.8984    55.9935 </r>
       <r>    13.0160     4.8639    56.4295 </r>
       <r>    13.1057     3.2772    56.7232 </r>
       <r>    13.1953     2.7110    56.9662 </r>
       <r>    13.2849     3.2323    57.2559 </r>
       <r>    13.3745     3.8654    57.6023 </r>
       <r>    13.4642     4.7290    58.0261 </r>
       <r>    13.5538     5.2383    58.4956 </r>
       <r>    13.6434     4.0436    58.8580 </r>
       <r>    13.7330     3.5981    59.1805 </r>
       <r>    13.8227     3.5084    59.4949 </r>
       <r>    13.9123     2.7646    59.7427 </r>
       <r>    14.0019     4.0508    60.1058 </r>
       <r>    14.0915     6.1283    60.6550 </r>
       <r>    14.1812     5.9635    61.1895 </r>
       <r>    14.2708     4.6672    61.6078 </r>
       <r>    14.3604     4.0792    61.9734 </r>
       <r>    14.4500     3.4274    62.2806 </r>
       <r>    14.5397     3.3699    62.5826 </r>
       <r>    14.6293     4.0627    62.9467 </r>
       <r>    14.7189     3.9219    63.2982 </r>
       <r>    14.8085     3.3214    63.5959 </r>
       <r>    14.8982     2.4558    63.8160 </r>
       <r>    14.9878     1.3454    63.9366 </r>
       <r>    15.0774     0.4440    63.9764 </r>
       <r>    15.1670     0.1898    63.9934 </r>
       <r>    15.2567     0.0671    63.9994 </r>
       <r>    15.3463     0.0065    64.0000 </r>
       <r>    15.4359     0.0001    64.0000 </r>
       <r>    15.5255     0.0000    64.0000 </r>
       <r>    15.6152     0.0000    64.0000 </r>
       <r>    15.7048     0.0000    64.0000 </r>
       <r>    15.7944     0.0000    64.0000 </r>
       <r>    15.8840     0.0000    64.0000 </r>
       <r>    15.9737     0.0000    64.0000 </r>
       <r>    16.0633     0.0000    64.0000 </r>
       <r>    16.1529     0.0000    64.0000 </r>
       <r>    16.2425     0.0000    64.0000 </r>
       <r>    16.3322     0.0000    64.0000 </r>
      </set>
     </set>
    </array>
   </total>
  </dos>
 </calculation>
 <structure name="finalpos" >
  <crystal>
   <varray name="basis" >
    <v>       5.37429179       0.00090903      -0.00149566 </v>
    <v>       2.68799292       4.73717793      -0.01079067 </v>
    <v>       2.68603926       1.56847054       5.00987389 </v>
   </varray>
   <i name="volume">    127.63767794 </i>
   <varray name="rec_basis" >
    <v>       0.18607036      -0.10573280      -0.06665906 </v>
    <v>      -0.00005406       0.21097643      -0.06602264 </v>
    <v>       0.00005543       0.00042285       0.19944372 </v>
   </varray>
  </crystal>
  <varray name="positions" >
   <v>       0.99958928       0.67958964       0.98954401 </v>
   <v>       0.49245726       0.83868938       0.49662329 </v>
   <v>       0.16272225       0.49462748       0.51915559 </v>
   <v>       0.66129334       0.33301208       0.99987787 </v>
   <v>       0.34903897       0.99919223       0.98164159 </v>
   <v>       0.83864936       0.16299103       0.49315104 </v>
   <v>       0.50518087       0.20554975       0.39329993 </v>
   <v>       0.73160184       0.02757681       0.87621500 </v>
   <v>       0.03781292       0.39058951       0.88692265 </v>
   <v>       0.22974838       0.84260738       0.37870207 </v>
   <v>       0.87454792       0.56763361       0.37437421 </v>
   <v>       0.36735761       0.70794111       0.86049274 </v>
  </varray>
 </structure>
</modeling>
