<?xml version="1.0" encoding="ISO-8859-1"?>
<modeling>
 <generator>
  <i name="program" type="string">vasp </i>
  <i name="version" type="string">5.3.5  </i>
  <i name="subversion" type="string">31Mar14 (build Jun 20 2014 13:15:13) complex                          parallel </i>
  <i name="platform" type="string">LinuxIFC </i>
  <i name="date" type="string">2025 11 21 </i>
  <i name="time" type="string">10:42:47 </i>
 </generator>
 <incar>
  <i type="string" name="PREC">accurate</i>
  <i type="int" name="IALGO">    68</i>
  <i type="logical" name="ADDGRID"> T  </i>
  <i type="int" name="NELM">   100</i>
  <i type="int" name="NELMIN">     4</i>
  <i type="int" name="IBRION">     2</i>
  <i name="EDIFF">      0.00000100</i>
  <i name="EDIFFG">     -0.02000000</i>
  <i type="int" name="NSW">    30</i>
  <i type="int" name="ISIF">     3</i>
  <i name="ENCUT">    500.00000000</i>
  <i type="logical" name="LREAL"> F  </i>
  <i type="int" name="ISMEAR">     1</i>
  <i name="SIGMA">      0.30000000</i>
  <i type="logical" name="LWAVE"> F  </i>
  <i type="logical" name="LCHARG"> F  </i>
  <i type="int" name="NELM">   100</i>
 </incar>
 <kpoints>
  <generation param="Auto">
   <i name="subdivisionlength">     70.00000000 </i>
   <v type="int" name="divisions">      25       17       10 </v>
   <v name="usershift">      0.00000000       0.00000000       0.00000000 </v>
   <v name="genvec1">      0.04000000       0.00000000       0.00000000 </v>
   <v name="genvec2">      0.00000000       0.05882353       0.00000000 </v>
   <v name="genvec3">      0.00000000       0.00000000       0.10000000 </v>
   <v name="shift">      0.00000000       0.00000000       0.00000000 </v>
  </generation>
  <varray name="kpointlist" >
   <v>       0.00000000       0.00000000       0.00000000 </v>
   <v>       0.04000000       0.00000000       0.00000000 </v>
   <v>       0.08000000       0.00000000       0.00000000 </v>
   <v>       0.12000000       0.00000000       0.00000000 </v>
   <v>       0.16000000       0.00000000       0.00000000 </v>
   <v>       0.20000000       0.00000000       0.00000000 </v>
   <v>       0.24000000       0.00000000       0.00000000 </v>
   <v>       0.28000000       0.00000000       0.00000000 </v>
   <v>       0.32000000       0.00000000       0.00000000 </v>
   <v>       0.36000000       0.00000000       0.00000000 </v>
   <v>       0.40000000       0.00000000       0.00000000 </v>
   <v>       0.44000000       0.00000000       0.00000000 </v>
   <v>       0.48000000       0.00000000       0.00000000 </v>
   <v>       0.00000000       0.05882353       0.00000000 </v>
   <v>       0.04000000       0.05882353       0.00000000 </v>
   <v>       0.08000000       0.05882353       0.00000000 </v>
   <v>       0.12000000       0.05882353       0.00000000 </v>
   <v>       0.16000000       0.05882353       0.00000000 </v>
   <v>       0.20000000       0.05882353       0.00000000 </v>
   <v>       0.24000000       0.05882353       0.00000000 </v>
   <v>       0.28000000       0.05882353       0.00000000 </v>
   <v>       0.32000000       0.05882353       0.00000000 </v>
   <v>       0.36000000       0.05882353       0.00000000 </v>
   <v>       0.40000000       0.05882353       0.00000000 </v>
   <v>       0.44000000       0.05882353       0.00000000 </v>
   <v>       0.48000000       0.05882353       0.00000000 </v>
   <v>      -0.48000000       0.05882353       0.00000000 </v>
   <v>      -0.44000000       0.05882353       0.00000000 </v>
   <v>      -0.40000000       0.05882353       0.00000000 </v>
   <v>      -0.36000000       0.05882353       0.00000000 </v>
   <v>      -0.32000000       0.05882353       0.00000000 </v>
   <v>      -0.28000000       0.05882353       0.00000000 </v>
   <v>      -0.24000000       0.05882353       0.00000000 </v>
   <v>      -0.20000000       0.05882353       0.00000000 </v>
   <v>      -0.16000000       0.05882353       0.00000000 </v>
   <v>      -0.12000000       0.05882353       0.00000000 </v>
   <v>      -0.08000000       0.05882353       0.00000000 </v>
   <v>      -0.04000000       0.05882353       0.00000000 </v>
   <v>       0.00000000       0.11764706       0.00000000 </v>
   <v>       0.04000000       0.11764706       0.00000000 </v>
   <v>       0.08000000       0.11764706       0.00000000 </v>
   <v>       0.12000000       0.11764706       0.00000000 </v>
   <v>       0.16000000       0.11764706       0.00000000 </v>
   <v>       0.20000000       0.11764706       0.00000000 </v>
   <v>       0.24000000       0.11764706       0.00000000 </v>
   <v>       0.28000000       0.11764706       0.00000000 </v>
   <v>       0.32000000       0.11764706       0.00000000 </v>
   <v>       0.36000000       0.11764706       0.00000000 </v>
   <v>       0.40000000       0.11764706       0.00000000 </v>
   <v>       0.44000000       0.11764706       0.00000000 </v>
   <v>       0.48000000       0.11764706       0.00000000 </v>
   <v>      -0.48000000       0.11764706       0.00000000 </v>
   <v>      -0.44000000       0.11764706       0.00000000 </v>
   <v>      -0.40000000       0.11764706       0.00000000 </v>
   <v>      -0.36000000       0.11764706       0.00000000 </v>
   <v>      -0.32000000       0.11764706       0.00000000 </v>
   <v>      -0.28000000       0.11764706       0.00000000 </v>
   <v>      -0.24000000       0.11764706       0.00000000 </v>
   <v>      -0.20000000       0.11764706       0.00000000 </v>
   <v>      -0.16000000       0.11764706       0.00000000 </v>
   <v>      -0.12000000       0.11764706       0.00000000 </v>
   <v>      -0.08000000       0.11764706       0.00000000 </v>
   <v>      -0.04000000       0.11764706       0.00000000 </v>
   <v>       0.00000000       0.17647059       0.00000000 </v>
   <v>       0.04000000       0.17647059       0.00000000 </v>
   <v>       0.08000000       0.17647059       0.00000000 </v>
   <v>       0.12000000       0.17647059       0.00000000 </v>
   <v>       0.16000000       0.17647059       0.00000000 </v>
   <v>       0.20000000       0.17647059       0.00000000 </v>
   <v>       0.24000000       0.17647059       0.00000000 </v>
   <v>       0.28000000       0.17647059       0.00000000 </v>
   <v>       0.32000000       0.17647059       0.00000000 </v>
   <v>       0.36000000       0.17647059       0.00000000 </v>
   <v>       0.40000000       0.17647059       0.00000000 </v>
   <v>       0.44000000       0.17647059       0.00000000 </v>
   <v>       0.48000000       0.17647059       0.00000000 </v>
   <v>      -0.48000000       0.17647059       0.00000000 </v>
   <v>      -0.44000000       0.17647059       0.00000000 </v>
   <v>      -0.40000000       0.17647059       0.00000000 </v>
   <v>      -0.36000000       0.17647059       0.00000000 </v>
   <v>      -0.32000000       0.17647059       0.00000000 </v>
   <v>      -0.28000000       0.17647059       0.00000000 </v>
   <v>      -0.24000000       0.17647059       0.00000000 </v>
   <v>      -0.20000000       0.17647059       0.00000000 </v>
   <v>      -0.16000000       0.17647059       0.00000000 </v>
   <v>      -0.12000000       0.17647059       0.00000000 </v>
   <v>      -0.08000000       0.17647059       0.00000000 </v>
   <v>      -0.04000000       0.17647059       0.00000000 </v>
   <v>       0.00000000       0.23529412       0.00000000 </v>
   <v>       0.04000000       0.23529412       0.00000000 </v>
   <v>       0.08000000       0.23529412       0.00000000 </v>
   <v>       0.12000000       0.23529412       0.00000000 </v>
   <v>       0.16000000       0.23529412       0.00000000 </v>
   <v>       0.20000000       0.23529412       0.00000000 </v>
   <v>       0.24000000       0.23529412       0.00000000 </v>
   <v>       0.28000000       0.23529412       0.00000000 </v>
   <v>       0.32000000       0.23529412       0.00000000 </v>
   <v>       0.36000000       0.23529412       0.00000000 </v>
   <v>       0.40000000       0.23529412       0.00000000 </v>
   <v>       0.44000000       0.23529412       0.00000000 </v>
   <v>       0.48000000       0.23529412       0.00000000 </v>
   <v>      -0.48000000       0.23529412       0.00000000 </v>
   <v>      -0.44000000       0.23529412       0.00000000 </v>
   <v>      -0.40000000       0.23529412       0.00000000 </v>
   <v>      -0.36000000       0.23529412       0.00000000 </v>
   <v>      -0.32000000       0.23529412       0.00000000 </v>
   <v>      -0.28000000       0.23529412       0.00000000 </v>
   <v>      -0.24000000       0.23529412       0.00000000 </v>
   <v>      -0.20000000       0.23529412       0.00000000 </v>
   <v>      -0.16000000       0.23529412       0.00000000 </v>
   <v>      -0.12000000       0.23529412       0.00000000 </v>
   <v>      -0.08000000       0.23529412       0.00000000 </v>
   <v>      -0.04000000       0.23529412       0.00000000 </v>
   <v>       0.00000000       0.29411765       0.00000000 </v>
   <v>       0.04000000       0.29411765       0.00000000 </v>
   <v>       0.08000000       0.29411765       0.00000000 </v>
   <v>       0.12000000       0.29411765       0.00000000 </v>
   <v>       0.16000000       0.29411765       0.00000000 </v>
   <v>       0.20000000       0.29411765       0.00000000 </v>
   <v>       0.24000000       0.29411765       0.00000000 </v>
   <v>       0.28000000       0.29411765       0.00000000 </v>
   <v>       0.32000000       0.29411765       0.00000000 </v>
   <v>       0.36000000       0.29411765       0.00000000 </v>
   <v>       0.40000000       0.29411765       0.00000000 </v>
   <v>       0.44000000       0.29411765       0.00000000 </v>
   <v>       0.48000000       0.29411765       0.00000000 </v>
   <v>      -0.48000000       0.29411765       0.00000000 </v>
   <v>      -0.44000000       0.29411765       0.00000000 </v>
   <v>      -0.40000000       0.29411765       0.00000000 </v>
   <v>      -0.36000000       0.29411765       0.00000000 </v>
   <v>      -0.32000000       0.29411765       0.00000000 </v>
   <v>      -0.28000000       0.29411765       0.00000000 </v>
   <v>      -0.24000000       0.29411765       0.00000000 </v>
   <v>      -0.20000000       0.29411765       0.00000000 </v>
   <v>      -0.16000000       0.29411765       0.00000000 </v>
   <v>      -0.12000000       0.29411765       0.00000000 </v>
   <v>      -0.08000000       0.29411765       0.00000000 </v>
   <v>      -0.04000000       0.29411765       0.00000000 </v>
   <v>       0.00000000       0.35294118       0.00000000 </v>
   <v>       0.04000000       0.35294118       0.00000000 </v>
   <v>       0.08000000       0.35294118       0.00000000 </v>
   <v>       0.12000000       0.35294118       0.00000000 </v>
   <v>       0.16000000       0.35294118       0.00000000 </v>
   <v>       0.20000000       0.35294118       0.00000000 </v>
   <v>       0.24000000       0.35294118       0.00000000 </v>
   <v>       0.28000000       0.35294118       0.00000000 </v>
   <v>       0.32000000       0.35294118       0.00000000 </v>
   <v>       0.36000000       0.35294118       0.00000000 </v>
   <v>       0.40000000       0.35294118       0.00000000 </v>
   <v>       0.44000000       0.35294118       0.00000000 </v>
   <v>       0.48000000       0.35294118       0.00000000 </v>
   <v>      -0.48000000       0.35294118       0.00000000 </v>
   <v>      -0.44000000       0.35294118       0.00000000 </v>
   <v>      -0.40000000       0.35294118       0.00000000 </v>
   <v>      -0.36000000       0.35294118       0.00000000 </v>
   <v>      -0.32000000       0.35294118       0.00000000 </v>
   <v>      -0.28000000       0.35294118       0.00000000 </v>
   <v>      -0.24000000       0.35294118       0.00000000 </v>
   <v>      -0.20000000       0.35294118       0.00000000 </v>
   <v>      -0.16000000       0.35294118       0.00000000 </v>
   <v>      -0.12000000       0.35294118       0.00000000 </v>
   <v>      -0.08000000       0.35294118       0.00000000 </v>
   <v>      -0.04000000       0.35294118       0.00000000 </v>
   <v>       0.00000000       0.41176471       0.00000000 </v>
   <v>       0.04000000       0.41176471       0.00000000 </v>
   <v>       0.08000000       0.41176471       0.00000000 </v>
   <v>       0.12000000       0.41176471       0.00000000 </v>
   <v>       0.16000000       0.41176471       0.00000000 </v>
   <v>       0.20000000       0.41176471       0.00000000 </v>
   <v>       0.24000000       0.41176471       0.00000000 </v>
   <v>       0.28000000       0.41176471       0.00000000 </v>
   <v>       0.32000000       0.41176471       0.00000000 </v>
   <v>       0.36000000       0.41176471       0.00000000 </v>
   <v>       0.40000000       0.41176471       0.00000000 </v>
   <v>       0.44000000       0.41176471       0.00000000 </v>
   <v>       0.48000000       0.41176471       0.00000000 </v>
   <v>      -0.48000000       0.41176471       0.00000000 </v>
   <v>      -0.44000000       0.41176471       0.00000000 </v>
   <v>      -0.40000000       0.41176471       0.00000000 </v>
   <v>      -0.36000000       0.41176471       0.00000000 </v>
   <v>      -0.32000000       0.41176471       0.00000000 </v>
   <v>      -0.28000000       0.41176471       0.00000000 </v>
   <v>      -0.24000000       0.41176471       0.00000000 </v>
   <v>      -0.20000000       0.41176471       0.00000000 </v>
   <v>      -0.16000000       0.41176471       0.00000000 </v>
   <v>      -0.12000000       0.41176471       0.00000000 </v>
   <v>      -0.08000000       0.41176471       0.00000000 </v>
   <v>      -0.04000000       0.41176471       0.00000000 </v>
   <v>       0.00000000       0.47058824       0.00000000 </v>
   <v>       0.04000000       0.47058824       0.00000000 </v>
   <v>       0.08000000       0.47058824       0.00000000 </v>
   <v>       0.12000000       0.47058824       0.00000000 </v>
   <v>       0.16000000       0.47058824       0.00000000 </v>
   <v>       0.20000000       0.47058824       0.00000000 </v>
   <v>       0.24000000       0.47058824       0.00000000 </v>
   <v>       0.28000000       0.47058824       0.00000000 </v>
   <v>       0.32000000       0.47058824       0.00000000 </v>
   <v>       0.36000000       0.47058824       0.00000000 </v>
   <v>       0.40000000       0.47058824       0.00000000 </v>
   <v>       0.44000000       0.47058824       0.00000000 </v>
   <v>       0.48000000       0.47058824       0.00000000 </v>
   <v>      -0.48000000       0.47058824       0.00000000 </v>
   <v>      -0.44000000       0.47058824       0.00000000 </v>
   <v>      -0.40000000       0.47058824       0.00000000 </v>
   <v>      -0.36000000       0.47058824       0.00000000 </v>
   <v>      -0.32000000       0.47058824       0.00000000 </v>
   <v>      -0.28000000       0.47058824       0.00000000 </v>
   <v>      -0.24000000       0.47058824       0.00000000 </v>
   <v>      -0.20000000       0.47058824       0.00000000 </v>
   <v>      -0.16000000       0.47058824       0.00000000 </v>
   <v>      -0.12000000       0.47058824       0.00000000 </v>
   <v>      -0.08000000       0.47058824       0.00000000 </v>
   <v>      -0.04000000       0.47058824       0.00000000 </v>
   <v>       0.00000000       0.00000000       0.10000000 </v>
   <v>       0.04000000       0.00000000       0.10000000 </v>
   <v>       0.08000000       0.00000000       0.10000000 </v>
   <v>       0.12000000       0.00000000       0.10000000 </v>
   <v>       0.16000000       0.00000000       0.10000000 </v>
   <v>       0.20000000       0.00000000       0.10000000 </v>
   <v>       0.24000000       0.00000000       0.10000000 </v>
   <v>       0.28000000       0.00000000       0.10000000 </v>
   <v>       0.32000000       0.00000000       0.10000000 </v>
   <v>       0.36000000       0.00000000       0.10000000 </v>
   <v>       0.40000000       0.00000000       0.10000000 </v>
   <v>       0.44000000       0.00000000       0.10000000 </v>
   <v>       0.48000000       0.00000000       0.10000000 </v>
   <v>      -0.48000000       0.00000000       0.10000000 </v>
   <v>      -0.44000000       0.00000000       0.10000000 </v>
   <v>      -0.40000000       0.00000000       0.10000000 </v>
   <v>      -0.36000000       0.00000000       0.10000000 </v>
   <v>      -0.32000000       0.00000000       0.10000000 </v>
   <v>      -0.28000000       0.00000000       0.10000000 </v>
   <v>      -0.24000000       0.00000000       0.10000000 </v>
   <v>      -0.20000000       0.00000000       0.10000000 </v>
   <v>      -0.16000000       0.00000000       0.10000000 </v>
   <v>      -0.12000000       0.00000000       0.10000000 </v>
   <v>      -0.08000000       0.00000000       0.10000000 </v>
   <v>      -0.04000000       0.00000000       0.10000000 </v>
   <v>       0.00000000       0.05882353       0.10000000 </v>
   <v>       0.04000000       0.05882353       0.10000000 </v>
   <v>       0.08000000       0.05882353       0.10000000 </v>
   <v>       0.12000000       0.05882353       0.10000000 </v>
   <v>       0.16000000       0.05882353       0.10000000 </v>
   <v>       0.20000000       0.05882353       0.10000000 </v>
   <v>       0.24000000       0.05882353       0.10000000 </v>
   <v>       0.28000000       0.05882353       0.10000000 </v>
   <v>       0.32000000       0.05882353       0.10000000 </v>
   <v>       0.36000000       0.05882353       0.10000000 </v>
   <v>       0.40000000       0.05882353       0.10000000 </v>
   <v>       0.44000000       0.05882353       0.10000000 </v>
   <v>       0.48000000       0.05882353       0.10000000 </v>
   <v>      -0.48000000       0.05882353       0.10000000 </v>
   <v>      -0.44000000       0.05882353       0.10000000 </v>
   <v>      -0.40000000       0.05882353       0.10000000 </v>
   <v>      -0.36000000       0.05882353       0.10000000 </v>
   <v>      -0.32000000       0.05882353       0.10000000 </v>
   <v>      -0.28000000       0.05882353       0.10000000 </v>
   <v>      -0.24000000       0.05882353       0.10000000 </v>
   <v>      -0.20000000       0.05882353       0.10000000 </v>
   <v>      -0.16000000       0.05882353       0.10000000 </v>
   <v>      -0.12000000       0.05882353       0.10000000 </v>
   <v>      -0.08000000       0.05882353       0.10000000 </v>
   <v>      -0.04000000       0.05882353       0.10000000 </v>
   <v>       0.00000000       0.11764706       0.10000000 </v>
   <v>       0.04000000       0.11764706       0.10000000 </v>
   <v>       0.08000000       0.11764706       0.10000000 </v>
   <v>       0.12000000       0.11764706       0.10000000 </v>
   <v>       0.16000000       0.11764706       0.10000000 </v>
   <v>       0.20000000       0.11764706       0.10000000 </v>
   <v>       0.24000000       0.11764706       0.10000000 </v>
   <v>       0.28000000       0.11764706       0.10000000 </v>
   <v>       0.32000000       0.11764706       0.10000000 </v>
   <v>       0.36000000       0.11764706       0.10000000 </v>
   <v>       0.40000000       0.11764706       0.10000000 </v>
   <v>       0.44000000       0.11764706       0.10000000 </v>
   <v>       0.48000000       0.11764706       0.10000000 </v>
   <v>      -0.48000000       0.11764706       0.10000000 </v>
   <v>      -0.44000000       0.11764706       0.10000000 </v>
   <v>      -0.40000000       0.11764706       0.10000000 </v>
   <v>      -0.36000000       0.11764706       0.10000000 </v>
   <v>      -0.32000000       0.11764706       0.10000000 </v>
   <v>      -0.28000000       0.11764706       0.10000000 </v>
   <v>      -0.24000000       0.11764706       0.10000000 </v>
   <v>      -0.20000000       0.11764706       0.10000000 </v>
   <v>      -0.16000000       0.11764706       0.10000000 </v>
   <v>      -0.12000000       0.11764706       0.10000000 </v>
   <v>      -0.08000000       0.11764706       0.10000000 </v>
   <v>      -0.04000000       0.11764706       0.10000000 </v>
   <v>       0.00000000       0.17647059       0.10000000 </v>
   <v>       0.04000000       0.17647059       0.10000000 </v>
   <v>       0.08000000       0.17647059       0.10000000 </v>
   <v>       0.12000000       0.17647059       0.10000000 </v>
   <v>       0.16000000       0.17647059       0.10000000 </v>
   <v>       0.20000000       0.17647059       0.10000000 </v>
   <v>       0.24000000       0.17647059       0.10000000 </v>
   <v>       0.28000000       0.17647059       0.10000000 </v>
   <v>       0.32000000       0.17647059       0.10000000 </v>
   <v>       0.36000000       0.17647059       0.10000000 </v>
   <v>       0.40000000       0.17647059       0.10000000 </v>
   <v>       0.44000000       0.17647059       0.10000000 </v>
   <v>       0.48000000       0.17647059       0.10000000 </v>
   <v>      -0.48000000       0.17647059       0.10000000 </v>
   <v>      -0.44000000       0.17647059       0.10000000 </v>
   <v>      -0.40000000       0.17647059       0.10000000 </v>
   <v>      -0.36000000       0.17647059       0.10000000 </v>
   <v>      -0.32000000       0.17647059       0.10000000 </v>
   <v>      -0.28000000       0.17647059       0.10000000 </v>
   <v>      -0.24000000       0.17647059       0.10000000 </v>
   <v>      -0.20000000       0.17647059       0.10000000 </v>
   <v>      -0.16000000       0.17647059       0.10000000 </v>
   <v>      -0.12000000       0.17647059       0.10000000 </v>
   <v>      -0.08000000       0.17647059       0.10000000 </v>
   <v>      -0.04000000       0.17647059       0.10000000 </v>
   <v>       0.00000000       0.23529412       0.10000000 </v>
   <v>       0.04000000       0.23529412       0.10000000 </v>
   <v>       0.08000000       0.23529412       0.10000000 </v>
   <v>       0.12000000       0.23529412       0.10000000 </v>
   <v>       0.16000000       0.23529412       0.10000000 </v>
   <v>       0.20000000       0.23529412       0.10000000 </v>
   <v>       0.24000000       0.23529412       0.10000000 </v>
   <v>       0.28000000       0.23529412       0.10000000 </v>
   <v>       0.32000000       0.23529412       0.10000000 </v>
   <v>       0.36000000       0.23529412       0.10000000 </v>
   <v>       0.40000000       0.23529412       0.10000000 </v>
   <v>       0.44000000       0.23529412       0.10000000 </v>
   <v>       0.48000000       0.23529412       0.10000000 </v>
   <v>      -0.48000000       0.23529412       0.10000000 </v>
   <v>      -0.44000000       0.23529412       0.10000000 </v>
   <v>      -0.40000000       0.23529412       0.10000000 </v>
   <v>      -0.36000000       0.23529412       0.10000000 </v>
   <v>      -0.32000000       0.23529412       0.10000000 </v>
   <v>      -0.28000000       0.23529412       0.10000000 </v>
   <v>      -0.24000000       0.23529412       0.10000000 </v>
   <v>      -0.20000000       0.23529412       0.10000000 </v>
   <v>      -0.16000000       0.23529412       0.10000000 </v>
   <v>      -0.12000000       0.23529412       0.10000000 </v>
   <v>      -0.08000000       0.23529412       0.10000000 </v>
   <v>      -0.04000000       0.23529412       0.10000000 </v>
   <v>       0.00000000       0.29411765       0.10000000 </v>
   <v>       0.04000000       0.29411765       0.10000000 </v>
   <v>       0.08000000       0.29411765       0.10000000 </v>
   <v>       0.12000000       0.29411765       0.10000000 </v>
   <v>       0.16000000       0.29411765       0.10000000 </v>
   <v>       0.20000000       0.29411765       0.10000000 </v>
   <v>       0.24000000       0.29411765       0.10000000 </v>
   <v>       0.28000000       0.29411765       0.10000000 </v>
   <v>       0.32000000       0.29411765       0.10000000 </v>
   <v>       0.36000000       0.29411765       0.10000000 </v>
   <v>       0.40000000       0.29411765       0.10000000 </v>
   <v>       0.44000000       0.29411765       0.10000000 </v>
   <v>       0.48000000       0.29411765       0.10000000 </v>
   <v>      -0.48000000       0.29411765       0.10000000 </v>
   <v>      -0.44000000       0.29411765       0.10000000 </v>
   <v>      -0.40000000       0.29411765       0.10000000 </v>
   <v>      -0.36000000       0.29411765       0.10000000 </v>
   <v>      -0.32000000       0.29411765       0.10000000 </v>
   <v>      -0.28000000       0.29411765       0.10000000 </v>
   <v>      -0.24000000       0.29411765       0.10000000 </v>
   <v>      -0.20000000       0.29411765       0.10000000 </v>
   <v>      -0.16000000       0.29411765       0.10000000 </v>
   <v>      -0.12000000       0.29411765       0.10000000 </v>
   <v>      -0.08000000       0.29411765       0.10000000 </v>
   <v>      -0.04000000       0.29411765       0.10000000 </v>
   <v>       0.00000000       0.35294118       0.10000000 </v>
   <v>       0.04000000       0.35294118       0.10000000 </v>
   <v>       0.08000000       0.35294118       0.10000000 </v>
   <v>       0.12000000       0.35294118       0.10000000 </v>
   <v>       0.16000000       0.35294118       0.10000000 </v>
   <v>       0.20000000       0.35294118       0.10000000 </v>
   <v>       0.24000000       0.35294118       0.10000000 </v>
   <v>       0.28000000       0.35294118       0.10000000 </v>
   <v>       0.32000000       0.35294118       0.10000000 </v>
   <v>       0.36000000       0.35294118       0.10000000 </v>
   <v>       0.40000000       0.35294118       0.10000000 </v>
   <v>       0.44000000       0.35294118       0.10000000 </v>
   <v>       0.48000000       0.35294118       0.10000000 </v>
   <v>      -0.48000000       0.35294118       0.10000000 </v>
   <v>      -0.44000000       0.35294118       0.10000000 </v>
   <v>      -0.40000000       0.35294118       0.10000000 </v>
   <v>      -0.36000000       0.35294118       0.10000000 </v>
   <v>      -0.32000000       0.35294118       0.10000000 </v>
   <v>      -0.28000000       0.35294118       0.10000000 </v>
   <v>      -0.24000000       0.35294118       0.10000000 </v>
   <v>      -0.20000000       0.35294118       0.10000000 </v>
   <v>      -0.16000000       0.35294118       0.10000000 </v>
   <v>      -0.12000000       0.35294118       0.10000000 </v>
   <v>      -0.08000000       0.35294118       0.10000000 </v>
   <v>      -0.04000000       0.35294118       0.10000000 </v>
   <v>       0.00000000       0.41176471       0.10000000 </v>
   <v>       0.04000000       0.41176471       0.10000000 </v>
   <v>       0.08000000       0.41176471       0.10000000 </v>
   <v>       0.12000000       0.41176471       0.10000000 </v>
   <v>       0.16000000       0.41176471       0.10000000 </v>
   <v>       0.20000000       0.41176471       0.10000000 </v>
   <v>       0.24000000       0.41176471       0.10000000 </v>
   <v>       0.28000000       0.41176471       0.10000000 </v>
   <v>       0.32000000       0.41176471       0.10000000 </v>
   <v>       0.36000000       0.41176471       0.10000000 </v>
   <v>       0.40000000       0.41176471       0.10000000 </v>
   <v>       0.44000000       0.41176471       0.10000000 </v>
   <v>       0.48000000       0.41176471       0.10000000 </v>
   <v>      -0.48000000       0.41176471       0.10000000 </v>
   <v>      -0.44000000       0.41176471       0.10000000 </v>
   <v>      -0.40000000       0.41176471       0.10000000 </v>
   <v>      -0.36000000       0.41176471       0.10000000 </v>
   <v>      -0.32000000       0.41176471       0.10000000 </v>
   <v>      -0.28000000       0.41176471       0.10000000 </v>
   <v>      -0.24000000       0.41176471       0.10000000 </v>
   <v>      -0.20000000       0.41176471       0.10000000 </v>
   <v>      -0.16000000       0.41176471       0.10000000 </v>
   <v>      -0.12000000       0.41176471       0.10000000 </v>
   <v>      -0.08000000       0.41176471       0.10000000 </v>
   <v>      -0.04000000       0.41176471       0.10000000 </v>
   <v>       0.00000000       0.47058824       0.10000000 </v>
   <v>       0.04000000       0.47058824       0.10000000 </v>
   <v>       0.08000000       0.47058824       0.10000000 </v>
   <v>       0.12000000       0.47058824       0.10000000 </v>
   <v>       0.16000000       0.47058824       0.10000000 </v>
   <v>       0.20000000       0.47058824       0.10000000 </v>
   <v>       0.24000000       0.47058824       0.10000000 </v>
   <v>       0.28000000       0.47058824       0.10000000 </v>
   <v>       0.32000000       0.47058824       0.10000000 </v>
   <v>       0.36000000       0.47058824       0.10000000 </v>
   <v>       0.40000000       0.47058824       0.10000000 </v>
   <v>       0.44000000       0.47058824       0.10000000 </v>
   <v>       0.48000000       0.47058824       0.10000000 </v>
   <v>      -0.48000000       0.47058824       0.10000000 </v>
   <v>      -0.44000000       0.47058824       0.10000000 </v>
   <v>      -0.40000000       0.47058824       0.10000000 </v>
   <v>      -0.36000000       0.47058824       0.10000000 </v>
   <v>      -0.32000000       0.47058824       0.10000000 </v>
   <v>      -0.28000000       0.47058824       0.10000000 </v>
   <v>      -0.24000000       0.47058824       0.10000000 </v>
   <v>      -0.20000000       0.47058824       0.10000000 </v>
   <v>      -0.16000000       0.47058824       0.10000000 </v>
   <v>      -0.12000000       0.47058824       0.10000000 </v>
   <v>      -0.08000000       0.47058824       0.10000000 </v>
   <v>      -0.04000000       0.47058824       0.10000000 </v>
   <v>       0.00000000      -0.47058824       0.10000000 </v>
   <v>       0.04000000      -0.47058824       0.10000000 </v>
   <v>       0.08000000      -0.47058824       0.10000000 </v>
   <v>       0.12000000      -0.47058824       0.10000000 </v>
   <v>       0.16000000      -0.47058824       0.10000000 </v>
   <v>       0.20000000      -0.47058824       0.10000000 </v>
   <v>       0.24000000      -0.47058824       0.10000000 </v>
   <v>       0.28000000      -0.47058824       0.10000000 </v>
   <v>       0.32000000      -0.47058824       0.10000000 </v>
   <v>       0.36000000      -0.47058824       0.10000000 </v>
   <v>       0.40000000      -0.47058824       0.10000000 </v>
   <v>       0.44000000      -0.47058824       0.10000000 </v>
   <v>       0.48000000      -0.47058824       0.10000000 </v>
   <v>      -0.48000000      -0.47058824       0.10000000 </v>
   <v>      -0.44000000      -0.47058824       0.10000000 </v>
   <v>      -0.40000000      -0.47058824       0.10000000 </v>
   <v>      -0.36000000      -0.47058824       0.10000000 </v>
   <v>      -0.32000000      -0.47058824       0.10000000 </v>
   <v>      -0.28000000      -0.47058824       0.10000000 </v>
   <v>      -0.24000000      -0.47058824       0.10000000 </v>
   <v>      -0.16000000      -0.47058824       0.10000000 </v>
   <v>      -0.12000000      -0.47058824       0.10000000 </v>
   <v>      -0.08000000      -0.47058824       0.10000000 </v>
   <v>      -0.04000000      -0.47058824       0.10000000 </v>
   <v>       0.00000000      -0.41176471       0.10000000 </v>
   <v>       0.04000000      -0.41176471       0.10000000 </v>
   <v>       0.08000000      -0.41176471       0.10000000 </v>
   <v>       0.12000000      -0.41176471       0.10000000 </v>
   <v>       0.16000000      -0.41176471       0.10000000 </v>
   <v>       0.20000000      -0.41176471       0.10000000 </v>
   <v>       0.24000000      -0.41176471       0.10000000 </v>
   <v>       0.28000000      -0.41176471       0.10000000 </v>
   <v>       0.32000000      -0.41176471       0.10000000 </v>
   <v>       0.36000000      -0.41176471       0.10000000 </v>
   <v>       0.40000000      -0.41176471       0.10000000 </v>
   <v>       0.44000000      -0.41176471       0.10000000 </v>
   <v>       0.48000000      -0.41176471       0.10000000 </v>
   <v>      -0.48000000      -0.41176471       0.10000000 </v>
   <v>      -0.44000000      -0.41176471       0.10000000 </v>
   <v>      -0.40000000      -0.41176471       0.10000000 </v>
   <v>      -0.36000000      -0.41176471       0.10000000 </v>
   <v>      -0.32000000      -0.41176471       0.10000000 </v>
   <v>      -0.28000000      -0.41176471       0.10000000 </v>
   <v>      -0.24000000      -0.41176471       0.10000000 </v>
   <v>      -0.16000000      -0.41176471       0.10000000 </v>
   <v>      -0.12000000      -0.41176471       0.10000000 </v>
   <v>      -0.08000000      -0.41176471       0.10000000 </v>
   <v>      -0.04000000      -0.41176471       0.10000000 </v>
   <v>       0.00000000      -0.35294118       0.10000000 </v>
   <v>       0.04000000      -0.35294118       0.10000000 </v>
   <v>       0.08000000      -0.35294118       0.10000000 </v>
   <v>       0.12000000      -0.35294118       0.10000000 </v>
   <v>       0.16000000      -0.35294118       0.10000000 </v>
   <v>       0.20000000      -0.35294118       0.10000000 </v>
   <v>       0.24000000      -0.35294118       0.10000000 </v>
   <v>       0.28000000      -0.35294118       0.10000000 </v>
   <v>       0.32000000      -0.35294118       0.10000000 </v>
   <v>       0.36000000      -0.35294118       0.10000000 </v>
   <v>       0.40000000      -0.35294118       0.10000000 </v>
   <v>       0.44000000      -0.35294118       0.10000000 </v>
   <v>       0.48000000      -0.35294118       0.10000000 </v>
   <v>      -0.48000000      -0.35294118       0.10000000 </v>
   <v>      -0.44000000      -0.35294118       0.10000000 </v>
   <v>      -0.40000000      -0.35294118       0.10000000 </v>
   <v>      -0.36000000      -0.35294118       0.10000000 </v>
   <v>      -0.32000000      -0.35294118       0.10000000 </v>
   <v>      -0.28000000      -0.35294118       0.10000000 </v>
   <v>      -0.24000000      -0.35294118       0.10000000 </v>
   <v>      -0.16000000      -0.35294118       0.10000000 </v>
   <v>      -0.12000000      -0.35294118       0.10000000 </v>
   <v>      -0.08000000      -0.35294118       0.10000000 </v>
   <v>      -0.04000000      -0.35294118       0.10000000 </v>
   <v>       0.00000000      -0.29411765       0.10000000 </v>
   <v>       0.04000000      -0.29411765       0.10000000 </v>
   <v>       0.08000000      -0.29411765       0.10000000 </v>
   <v>       0.12000000      -0.29411765       0.10000000 </v>
   <v>       0.16000000      -0.29411765       0.10000000 </v>
   <v>       0.20000000      -0.29411765       0.10000000 </v>
   <v>       0.24000000      -0.29411765       0.10000000 </v>
   <v>       0.28000000      -0.29411765       0.10000000 </v>
   <v>       0.32000000      -0.29411765       0.10000000 </v>
   <v>       0.36000000      -0.29411765       0.10000000 </v>
   <v>       0.40000000      -0.29411765       0.10000000 </v>
   <v>       0.44000000      -0.29411765       0.10000000 </v>
   <v>       0.48000000      -0.29411765       0.10000000 </v>
   <v>      -0.48000000      -0.29411765       0.10000000 </v>
   <v>      -0.44000000      -0.29411765       0.10000000 </v>
   <v>      -0.40000000      -0.29411765       0.10000000 </v>
   <v>      -0.36000000      -0.29411765       0.10000000 </v>
   <v>      -0.32000000      -0.29411765       0.10000000 </v>
   <v>      -0.28000000      -0.29411765       0.10000000 </v>
   <v>      -0.24000000      -0.29411765       0.10000000 </v>
   <v>      -0.16000000      -0.29411765       0.10000000 </v>
   <v>      -0.12000000      -0.29411765       0.10000000 </v>
   <v>      -0.08000000      -0.29411765       0.10000000 </v>
   <v>      -0.04000000      -0.29411765       0.10000000 </v>
   <v>       0.00000000      -0.23529412       0.10000000 </v>
   <v>       0.04000000      -0.23529412       0.10000000 </v>
   <v>       0.08000000      -0.23529412       0.10000000 </v>
   <v>       0.12000000      -0.23529412       0.10000000 </v>
   <v>       0.16000000      -0.23529412       0.10000000 </v>
   <v>       0.20000000      -0.23529412       0.10000000 </v>
   <v>       0.24000000      -0.23529412       0.10000000 </v>
   <v>       0.28000000      -0.23529412       0.10000000 </v>
   <v>       0.32000000      -0.23529412       0.10000000 </v>
   <v>       0.36000000      -0.23529412       0.10000000 </v>
   <v>       0.40000000      -0.23529412       0.10000000 </v>
   <v>       0.44000000      -0.23529412       0.10000000 </v>
   <v>       0.48000000      -0.23529412       0.10000000 </v>
   <v>      -0.48000000      -0.23529412       0.10000000 </v>
   <v>      -0.44000000      -0.23529412       0.10000000 </v>
   <v>      -0.40000000      -0.23529412       0.10000000 </v>
   <v>      -0.36000000      -0.23529412       0.10000000 </v>
   <v>      -0.32000000      -0.23529412       0.10000000 </v>
   <v>      -0.28000000      -0.23529412       0.10000000 </v>
   <v>      -0.24000000      -0.23529412       0.10000000 </v>
   <v>      -0.16000000      -0.23529412       0.10000000 </v>
   <v>      -0.12000000      -0.23529412       0.10000000 </v>
   <v>      -0.08000000      -0.23529412       0.10000000 </v>
   <v>      -0.04000000      -0.23529412       0.10000000 </v>
   <v>       0.00000000      -0.17647059       0.10000000 </v>
   <v>       0.04000000      -0.17647059       0.10000000 </v>
   <v>       0.08000000      -0.17647059       0.10000000 </v>
   <v>       0.12000000      -0.17647059       0.10000000 </v>
   <v>       0.16000000      -0.17647059       0.10000000 </v>
   <v>       0.20000000      -0.17647059       0.10000000 </v>
   <v>       0.24000000      -0.17647059       0.10000000 </v>
   <v>       0.28000000      -0.17647059       0.10000000 </v>
   <v>       0.32000000      -0.17647059       0.10000000 </v>
   <v>       0.36000000      -0.17647059       0.10000000 </v>
   <v>       0.40000000      -0.17647059       0.10000000 </v>
   <v>       0.44000000      -0.17647059       0.10000000 </v>
   <v>       0.48000000      -0.17647059       0.10000000 </v>
   <v>      -0.48000000      -0.17647059       0.10000000 </v>
   <v>      -0.44000000      -0.17647059       0.10000000 </v>
   <v>      -0.40000000      -0.17647059       0.10000000 </v>
   <v>      -0.36000000      -0.17647059       0.10000000 </v>
   <v>      -0.32000000      -0.17647059       0.10000000 </v>
   <v>      -0.28000000      -0.17647059       0.10000000 </v>
   <v>      -0.24000000      -0.17647059       0.10000000 </v>
   <v>      -0.16000000      -0.17647059       0.10000000 </v>
   <v>      -0.12000000      -0.17647059       0.10000000 </v>
   <v>      -0.08000000      -0.17647059       0.10000000 </v>
   <v>      -0.04000000      -0.17647059       0.10000000 </v>
   <v>       0.00000000      -0.11764706       0.10000000 </v>
   <v>       0.04000000      -0.11764706       0.10000000 </v>
   <v>       0.08000000      -0.11764706       0.10000000 </v>
   <v>       0.12000000      -0.11764706       0.10000000 </v>
   <v>       0.16000000      -0.11764706       0.10000000 </v>
   <v>       0.20000000      -0.11764706       0.10000000 </v>
   <v>       0.24000000      -0.11764706       0.10000000 </v>
   <v>       0.28000000      -0.11764706       0.10000000 </v>
   <v>       0.32000000      -0.11764706       0.10000000 </v>
   <v>       0.36000000      -0.11764706       0.10000000 </v>
   <v>       0.40000000      -0.11764706       0.10000000 </v>
   <v>       0.44000000      -0.11764706       0.10000000 </v>
   <v>       0.48000000      -0.11764706       0.10000000 </v>
   <v>      -0.48000000      -0.11764706       0.10000000 </v>
   <v>      -0.44000000      -0.11764706       0.10000000 </v>
   <v>      -0.40000000      -0.11764706       0.10000000 </v>
   <v>      -0.36000000      -0.11764706       0.10000000 </v>
   <v>      -0.32000000      -0.11764706       0.10000000 </v>
   <v>      -0.28000000      -0.11764706       0.10000000 </v>
   <v>      -0.24000000      -0.11764706       0.10000000 </v>
   <v>      -0.16000000      -0.11764706       0.10000000 </v>
   <v>      -0.12000000      -0.11764706       0.10000000 </v>
   <v>      -0.08000000      -0.11764706       0.10000000 </v>
   <v>      -0.04000000      -0.11764706       0.10000000 </v>
   <v>       0.00000000      -0.05882353       0.10000000 </v>
   <v>       0.04000000      -0.05882353       0.10000000 </v>
   <v>       0.08000000      -0.05882353       0.10000000 </v>
   <v>       0.12000000      -0.05882353       0.10000000 </v>
   <v>       0.16000000      -0.05882353       0.10000000 </v>
   <v>       0.20000000      -0.05882353       0.10000000 </v>
   <v>       0.24000000      -0.05882353       0.10000000 </v>
   <v>       0.28000000      -0.05882353       0.10000000 </v>
   <v>       0.32000000      -0.05882353       0.10000000 </v>
   <v>       0.36000000      -0.05882353       0.10000000 </v>
   <v>       0.40000000      -0.05882353       0.10000000 </v>
   <v>       0.44000000      -0.05882353       0.10000000 </v>
   <v>       0.48000000      -0.05882353       0.10000000 </v>
   <v>      -0.48000000      -0.05882353       0.10000000 </v>
   <v>      -0.44000000      -0.05882353       0.10000000 </v>
   <v>      -0.40000000      -0.05882353       0.10000000 </v>
   <v>      -0.36000000      -0.05882353       0.10000000 </v>
   <v>      -0.32000000      -0.05882353       0.10000000 </v>
   <v>      -0.28000000      -0.05882353       0.10000000 </v>
   <v>      -0.24000000      -0.05882353       0.10000000 </v>
   <v>      -0.16000000      -0.05882353       0.10000000 </v>
   <v>      -0.12000000      -0.05882353       0.10000000 </v>
   <v>      -0.08000000      -0.05882353       0.10000000 </v>
   <v>      -0.04000000      -0.05882353       0.10000000 </v>
   <v>       0.00000000       0.00000000       0.20000000 </v>
   <v>       0.04000000       0.00000000       0.20000000 </v>
   <v>       0.08000000       0.00000000       0.20000000 </v>
   <v>       0.12000000       0.00000000       0.20000000 </v>
   <v>       0.16000000       0.00000000       0.20000000 </v>
   <v>       0.20000000       0.00000000       0.20000000 </v>
   <v>       0.24000000       0.00000000       0.20000000 </v>
   <v>       0.28000000       0.00000000       0.20000000 </v>
   <v>       0.32000000       0.00000000       0.20000000 </v>
   <v>       0.36000000       0.00000000       0.20000000 </v>
   <v>       0.40000000       0.00000000       0.20000000 </v>
   <v>       0.44000000       0.00000000       0.20000000 </v>
   <v>       0.48000000       0.00000000       0.20000000 </v>
   <v>      -0.48000000       0.00000000       0.20000000 </v>
   <v>      -0.44000000       0.00000000       0.20000000 </v>
   <v>      -0.40000000       0.00000000       0.20000000 </v>
   <v>      -0.36000000       0.00000000       0.20000000 </v>
   <v>      -0.32000000       0.00000000       0.20000000 </v>
   <v>      -0.28000000       0.00000000       0.20000000 </v>
   <v>      -0.24000000       0.00000000       0.20000000 </v>
   <v>      -0.16000000       0.00000000       0.20000000 </v>
   <v>      -0.12000000       0.00000000       0.20000000 </v>
   <v>      -0.08000000       0.00000000       0.20000000 </v>
   <v>      -0.04000000       0.00000000       0.20000000 </v>
   <v>       0.00000000       0.05882353       0.20000000 </v>
   <v>       0.04000000       0.05882353       0.20000000 </v>
   <v>       0.08000000       0.05882353       0.20000000 </v>
   <v>       0.12000000       0.05882353       0.20000000 </v>
   <v>       0.16000000       0.05882353       0.20000000 </v>
   <v>       0.20000000       0.05882353       0.20000000 </v>
   <v>       0.24000000       0.05882353       0.20000000 </v>
   <v>       0.28000000       0.05882353       0.20000000 </v>
   <v>       0.32000000       0.05882353       0.20000000 </v>
   <v>       0.36000000       0.05882353       0.20000000 </v>
   <v>       0.40000000       0.05882353       0.20000000 </v>
   <v>       0.44000000       0.05882353       0.20000000 </v>
   <v>       0.48000000       0.05882353       0.20000000 </v>
   <v>      -0.48000000       0.05882353       0.20000000 </v>
   <v>      -0.44000000       0.05882353       0.20000000 </v>
   <v>      -0.40000000       0.05882353       0.20000000 </v>
   <v>      -0.36000000       0.05882353       0.20000000 </v>
   <v>      -0.32000000       0.05882353       0.20000000 </v>
   <v>      -0.28000000       0.05882353       0.20000000 </v>
   <v>      -0.24000000       0.05882353       0.20000000 </v>
   <v>      -0.16000000       0.05882353       0.20000000 </v>
   <v>      -0.12000000       0.05882353       0.20000000 </v>
   <v>      -0.08000000       0.05882353       0.20000000 </v>
   <v>      -0.04000000       0.05882353       0.20000000 </v>
   <v>       0.00000000       0.11764706       0.20000000 </v>
   <v>       0.04000000       0.11764706       0.20000000 </v>
   <v>       0.08000000       0.11764706       0.20000000 </v>
   <v>       0.12000000       0.11764706       0.20000000 </v>
   <v>       0.16000000       0.11764706       0.20000000 </v>
   <v>       0.20000000       0.11764706       0.20000000 </v>
   <v>       0.24000000       0.11764706       0.20000000 </v>
   <v>       0.28000000       0.11764706       0.20000000 </v>
   <v>       0.32000000       0.11764706       0.20000000 </v>
   <v>       0.36000000       0.11764706       0.20000000 </v>
   <v>       0.40000000       0.11764706       0.20000000 </v>
   <v>       0.44000000       0.11764706       0.20000000 </v>
   <v>       0.48000000       0.11764706       0.20000000 </v>
   <v>      -0.48000000       0.11764706       0.20000000 </v>
   <v>      -0.44000000       0.11764706       0.20000000 </v>
   <v>      -0.40000000       0.11764706       0.20000000 </v>
   <v>      -0.36000000       0.11764706       0.20000000 </v>
   <v>      -0.32000000       0.11764706       0.20000000 </v>
   <v>      -0.28000000       0.11764706       0.20000000 </v>
   <v>      -0.24000000       0.11764706       0.20000000 </v>
   <v>      -0.16000000       0.11764706       0.20000000 </v>
   <v>      -0.12000000       0.11764706       0.20000000 </v>
   <v>      -0.08000000       0.11764706       0.20000000 </v>
   <v>      -0.04000000       0.11764706       0.20000000 </v>
   <v>       0.00000000       0.17647059       0.20000000 </v>
   <v>       0.04000000       0.17647059       0.20000000 </v>
   <v>       0.08000000       0.17647059       0.20000000 </v>
   <v>       0.12000000       0.17647059       0.20000000 </v>
   <v>       0.16000000       0.17647059       0.20000000 </v>
   <v>       0.20000000       0.17647059       0.20000000 </v>
   <v>       0.24000000       0.17647059       0.20000000 </v>
   <v>       0.28000000       0.17647059       0.20000000 </v>
   <v>       0.32000000       0.17647059       0.20000000 </v>
   <v>       0.36000000       0.17647059       0.20000000 </v>
   <v>       0.40000000       0.17647059       0.20000000 </v>
   <v>       0.44000000       0.17647059       0.20000000 </v>
   <v>       0.48000000       0.17647059       0.20000000 </v>
   <v>      -0.48000000       0.17647059       0.20000000 </v>
   <v>      -0.44000000       0.17647059       0.20000000 </v>
   <v>      -0.40000000       0.17647059       0.20000000 </v>
   <v>      -0.36000000       0.17647059       0.20000000 </v>
   <v>      -0.32000000       0.17647059       0.20000000 </v>
   <v>      -0.28000000       0.17647059       0.20000000 </v>
   <v>      -0.24000000       0.17647059       0.20000000 </v>
   <v>      -0.16000000       0.17647059       0.20000000 </v>
   <v>      -0.12000000       0.17647059       0.20000000 </v>
   <v>      -0.08000000       0.17647059       0.20000000 </v>
   <v>      -0.04000000       0.17647059       0.20000000 </v>
   <v>       0.00000000       0.23529412       0.20000000 </v>
   <v>       0.04000000       0.23529412       0.20000000 </v>
   <v>       0.08000000       0.23529412       0.20000000 </v>
   <v>       0.12000000       0.23529412       0.20000000 </v>
   <v>       0.16000000       0.23529412       0.20000000 </v>
   <v>       0.20000000       0.23529412       0.20000000 </v>
   <v>       0.24000000       0.23529412       0.20000000 </v>
   <v>       0.28000000       0.23529412       0.20000000 </v>
   <v>       0.32000000       0.23529412       0.20000000 </v>
   <v>       0.36000000       0.23529412       0.20000000 </v>
   <v>       0.40000000       0.23529412       0.20000000 </v>
   <v>       0.44000000       0.23529412       0.20000000 </v>
   <v>       0.48000000       0.23529412       0.20000000 </v>
   <v>      -0.48000000       0.23529412       0.20000000 </v>
   <v>      -0.44000000       0.23529412       0.20000000 </v>
   <v>      -0.40000000       0.23529412       0.20000000 </v>
   <v>      -0.36000000       0.23529412       0.20000000 </v>
   <v>      -0.32000000       0.23529412       0.20000000 </v>
   <v>      -0.28000000       0.23529412       0.20000000 </v>
   <v>      -0.24000000       0.23529412       0.20000000 </v>
   <v>      -0.16000000       0.23529412       0.20000000 </v>
   <v>      -0.12000000       0.23529412       0.20000000 </v>
   <v>      -0.08000000       0.23529412       0.20000000 </v>
   <v>      -0.04000000       0.23529412       0.20000000 </v>
   <v>       0.00000000       0.29411765       0.20000000 </v>
   <v>       0.04000000       0.29411765       0.20000000 </v>
   <v>       0.08000000       0.29411765       0.20000000 </v>
   <v>       0.12000000       0.29411765       0.20000000 </v>
   <v>       0.16000000       0.29411765       0.20000000 </v>
   <v>       0.20000000       0.29411765       0.20000000 </v>
   <v>       0.24000000       0.29411765       0.20000000 </v>
   <v>       0.28000000       0.29411765       0.20000000 </v>
   <v>       0.32000000       0.29411765       0.20000000 </v>
   <v>       0.36000000       0.29411765       0.20000000 </v>
   <v>       0.40000000       0.29411765       0.20000000 </v>
   <v>       0.44000000       0.29411765       0.20000000 </v>
   <v>       0.48000000       0.29411765       0.20000000 </v>
   <v>      -0.48000000       0.29411765       0.20000000 </v>
   <v>      -0.44000000       0.29411765       0.20000000 </v>
   <v>      -0.40000000       0.29411765       0.20000000 </v>
   <v>      -0.36000000       0.29411765       0.20000000 </v>
   <v>      -0.32000000       0.29411765       0.20000000 </v>
   <v>      -0.28000000       0.29411765       0.20000000 </v>
   <v>      -0.24000000       0.29411765       0.20000000 </v>
   <v>      -0.16000000       0.29411765       0.20000000 </v>
   <v>      -0.12000000       0.29411765       0.20000000 </v>
   <v>      -0.08000000       0.29411765       0.20000000 </v>
   <v>      -0.04000000       0.29411765       0.20000000 </v>
   <v>       0.00000000       0.35294118       0.20000000 </v>
   <v>       0.04000000       0.35294118       0.20000000 </v>
   <v>       0.08000000       0.35294118       0.20000000 </v>
   <v>       0.12000000       0.35294118       0.20000000 </v>
   <v>       0.16000000       0.35294118       0.20000000 </v>
   <v>       0.20000000       0.35294118       0.20000000 </v>
   <v>       0.24000000       0.35294118       0.20000000 </v>
   <v>       0.28000000       0.35294118       0.20000000 </v>
   <v>       0.32000000       0.35294118       0.20000000 </v>
   <v>       0.36000000       0.35294118       0.20000000 </v>
   <v>       0.40000000       0.35294118       0.20000000 </v>
   <v>       0.44000000       0.35294118       0.20000000 </v>
   <v>       0.48000000       0.35294118       0.20000000 </v>
   <v>      -0.48000000       0.35294118       0.20000000 </v>
   <v>      -0.44000000       0.35294118       0.20000000 </v>
   <v>      -0.40000000       0.35294118       0.20000000 </v>
   <v>      -0.36000000       0.35294118       0.20000000 </v>
   <v>      -0.32000000       0.35294118       0.20000000 </v>
   <v>      -0.28000000       0.35294118       0.20000000 </v>
   <v>      -0.24000000       0.35294118       0.20000000 </v>
   <v>      -0.16000000       0.35294118       0.20000000 </v>
   <v>      -0.12000000       0.35294118       0.20000000 </v>
   <v>      -0.08000000       0.35294118       0.20000000 </v>
   <v>      -0.04000000       0.35294118       0.20000000 </v>
   <v>       0.00000000       0.41176471       0.20000000 </v>
   <v>       0.04000000       0.41176471       0.20000000 </v>
   <v>       0.08000000       0.41176471       0.20000000 </v>
   <v>       0.12000000       0.41176471       0.20000000 </v>
   <v>       0.16000000       0.41176471       0.20000000 </v>
   <v>       0.20000000       0.41176471       0.20000000 </v>
   <v>       0.24000000       0.41176471       0.20000000 </v>
   <v>       0.28000000       0.41176471       0.20000000 </v>
   <v>       0.32000000       0.41176471       0.20000000 </v>
   <v>       0.36000000       0.41176471       0.20000000 </v>
   <v>       0.40000000       0.41176471       0.20000000 </v>
   <v>       0.44000000       0.41176471       0.20000000 </v>
   <v>       0.48000000       0.41176471       0.20000000 </v>
   <v>      -0.48000000       0.41176471       0.20000000 </v>
   <v>      -0.44000000       0.41176471       0.20000000 </v>
   <v>      -0.40000000       0.41176471       0.20000000 </v>
   <v>      -0.36000000       0.41176471       0.20000000 </v>
   <v>      -0.32000000       0.41176471       0.20000000 </v>
   <v>      -0.28000000       0.41176471       0.20000000 </v>
   <v>      -0.24000000       0.41176471       0.20000000 </v>
   <v>      -0.16000000       0.41176471       0.20000000 </v>
   <v>      -0.12000000       0.41176471       0.20000000 </v>
   <v>      -0.08000000       0.41176471       0.20000000 </v>
   <v>      -0.04000000       0.41176471       0.20000000 </v>
   <v>       0.00000000       0.47058824       0.20000000 </v>
   <v>       0.04000000       0.47058824       0.20000000 </v>
   <v>       0.08000000       0.47058824       0.20000000 </v>
   <v>       0.12000000       0.47058824       0.20000000 </v>
   <v>       0.16000000       0.47058824       0.20000000 </v>
   <v>       0.20000000       0.47058824       0.20000000 </v>
   <v>       0.24000000       0.47058824       0.20000000 </v>
   <v>       0.28000000       0.47058824       0.20000000 </v>
   <v>       0.32000000       0.47058824       0.20000000 </v>
   <v>       0.36000000       0.47058824       0.20000000 </v>
   <v>       0.40000000       0.47058824       0.20000000 </v>
   <v>       0.44000000       0.47058824       0.20000000 </v>
   <v>       0.48000000       0.47058824       0.20000000 </v>
   <v>      -0.48000000       0.47058824       0.20000000 </v>
   <v>      -0.44000000       0.47058824       0.20000000 </v>
   <v>      -0.40000000       0.47058824       0.20000000 </v>
   <v>      -0.36000000       0.47058824       0.20000000 </v>
   <v>      -0.32000000       0.47058824       0.20000000 </v>
   <v>      -0.28000000       0.47058824       0.20000000 </v>
   <v>      -0.24000000       0.47058824       0.20000000 </v>
   <v>      -0.16000000       0.47058824       0.20000000 </v>
   <v>      -0.12000000       0.47058824       0.20000000 </v>
   <v>      -0.08000000       0.47058824       0.20000000 </v>
   <v>      -0.04000000       0.47058824       0.20000000 </v>
   <v>       0.00000000      -0.47058824       0.20000000 </v>
   <v>       0.04000000      -0.47058824       0.20000000 </v>
   <v>       0.08000000      -0.47058824       0.20000000 </v>
   <v>       0.12000000      -0.47058824       0.20000000 </v>
   <v>       0.16000000      -0.47058824       0.20000000 </v>
   <v>       0.20000000      -0.47058824       0.20000000 </v>
   <v>       0.24000000      -0.47058824       0.20000000 </v>
   <v>       0.28000000      -0.47058824       0.20000000 </v>
   <v>       0.32000000      -0.47058824       0.20000000 </v>
   <v>       0.36000000      -0.47058824       0.20000000 </v>
   <v>       0.40000000      -0.47058824       0.20000000 </v>
   <v>       0.44000000      -0.47058824       0.20000000 </v>
   <v>       0.48000000      -0.47058824       0.20000000 </v>
   <v>      -0.48000000      -0.47058824       0.20000000 </v>
   <v>      -0.44000000      -0.47058824       0.20000000 </v>
   <v>      -0.36000000      -0.47058824       0.20000000 </v>
   <v>      -0.32000000      -0.47058824       0.20000000 </v>
   <v>      -0.28000000      -0.47058824       0.20000000 </v>
   <v>      -0.24000000      -0.47058824       0.20000000 </v>
   <v>      -0.16000000      -0.47058824       0.20000000 </v>
   <v>      -0.12000000      -0.47058824       0.20000000 </v>
   <v>      -0.08000000      -0.47058824       0.20000000 </v>
   <v>      -0.04000000      -0.47058824       0.20000000 </v>
   <v>       0.00000000      -0.41176471       0.20000000 </v>
   <v>       0.04000000      -0.41176471       0.20000000 </v>
   <v>       0.08000000      -0.41176471       0.20000000 </v>
   <v>       0.12000000      -0.41176471       0.20000000 </v>
   <v>       0.16000000      -0.41176471       0.20000000 </v>
   <v>       0.20000000      -0.41176471       0.20000000 </v>
   <v>       0.24000000      -0.41176471       0.20000000 </v>
   <v>       0.28000000      -0.41176471       0.20000000 </v>
   <v>       0.32000000      -0.41176471       0.20000000 </v>
   <v>       0.36000000      -0.41176471       0.20000000 </v>
   <v>       0.40000000      -0.41176471       0.20000000 </v>
   <v>       0.44000000      -0.41176471       0.20000000 </v>
   <v>       0.48000000      -0.41176471       0.20000000 </v>
   <v>      -0.48000000      -0.41176471       0.20000000 </v>
   <v>      -0.44000000      -0.41176471       0.20000000 </v>
   <v>      -0.36000000      -0.41176471       0.20000000 </v>
   <v>      -0.32000000      -0.41176471       0.20000000 </v>
   <v>      -0.28000000      -0.41176471       0.20000000 </v>
   <v>      -0.24000000      -0.41176471       0.20000000 </v>
   <v>      -0.16000000      -0.41176471       0.20000000 </v>
   <v>      -0.12000000      -0.41176471       0.20000000 </v>
   <v>      -0.08000000      -0.41176471       0.20000000 </v>
   <v>      -0.04000000      -0.41176471       0.20000000 </v>
   <v>       0.00000000      -0.35294118       0.20000000 </v>
   <v>       0.04000000      -0.35294118       0.20000000 </v>
   <v>       0.08000000      -0.35294118       0.20000000 </v>
   <v>       0.12000000      -0.35294118       0.20000000 </v>
   <v>       0.16000000      -0.35294118       0.20000000 </v>
   <v>       0.20000000      -0.35294118       0.20000000 </v>
   <v>       0.24000000      -0.35294118       0.20000000 </v>
   <v>       0.28000000      -0.35294118       0.20000000 </v>
   <v>       0.32000000      -0.35294118       0.20000000 </v>
   <v>       0.36000000      -0.35294118       0.20000000 </v>
   <v>       0.40000000      -0.35294118       0.20000000 </v>
   <v>       0.44000000      -0.35294118       0.20000000 </v>
   <v>       0.48000000      -0.35294118       0.20000000 </v>
   <v>      -0.48000000      -0.35294118       0.20000000 </v>
   <v>      -0.44000000      -0.35294118       0.20000000 </v>
   <v>      -0.36000000      -0.35294118       0.20000000 </v>
   <v>      -0.32000000      -0.35294118       0.20000000 </v>
   <v>      -0.28000000      -0.35294118       0.20000000 </v>
   <v>      -0.24000000      -0.35294118       0.20000000 </v>
   <v>      -0.16000000      -0.35294118       0.20000000 </v>
   <v>      -0.12000000      -0.35294118       0.20000000 </v>
   <v>      -0.08000000      -0.35294118       0.20000000 </v>
   <v>      -0.04000000      -0.35294118       0.20000000 </v>
   <v>       0.00000000      -0.29411765       0.20000000 </v>
   <v>       0.04000000      -0.29411765       0.20000000 </v>
   <v>       0.08000000      -0.29411765       0.20000000 </v>
   <v>       0.12000000      -0.29411765       0.20000000 </v>
   <v>       0.16000000      -0.29411765       0.20000000 </v>
   <v>       0.20000000      -0.29411765       0.20000000 </v>
   <v>       0.24000000      -0.29411765       0.20000000 </v>
   <v>       0.28000000      -0.29411765       0.20000000 </v>
   <v>       0.32000000      -0.29411765       0.20000000 </v>
   <v>       0.36000000      -0.29411765       0.20000000 </v>
   <v>       0.40000000      -0.29411765       0.20000000 </v>
   <v>       0.44000000      -0.29411765       0.20000000 </v>
   <v>       0.48000000      -0.29411765       0.20000000 </v>
   <v>      -0.48000000      -0.29411765       0.20000000 </v>
   <v>      -0.44000000      -0.29411765       0.20000000 </v>
   <v>      -0.36000000      -0.29411765       0.20000000 </v>
   <v>      -0.32000000      -0.29411765       0.20000000 </v>
   <v>      -0.28000000      -0.29411765       0.20000000 </v>
   <v>      -0.24000000      -0.29411765       0.20000000 </v>
   <v>      -0.16000000      -0.29411765       0.20000000 </v>
   <v>      -0.12000000      -0.29411765       0.20000000 </v>
   <v>      -0.08000000      -0.29411765       0.20000000 </v>
   <v>      -0.04000000      -0.29411765       0.20000000 </v>
   <v>       0.00000000      -0.23529412       0.20000000 </v>
   <v>       0.04000000      -0.23529412       0.20000000 </v>
   <v>       0.08000000      -0.23529412       0.20000000 </v>
   <v>       0.12000000      -0.23529412       0.20000000 </v>
   <v>       0.16000000      -0.23529412       0.20000000 </v>
   <v>       0.20000000      -0.23529412       0.20000000 </v>
   <v>       0.24000000      -0.23529412       0.20000000 </v>
   <v>       0.28000000      -0.23529412       0.20000000 </v>
   <v>       0.32000000      -0.23529412       0.20000000 </v>
   <v>       0.36000000      -0.23529412       0.20000000 </v>
   <v>       0.40000000      -0.23529412       0.20000000 </v>
   <v>       0.44000000      -0.23529412       0.20000000 </v>
   <v>       0.48000000      -0.23529412       0.20000000 </v>
   <v>      -0.48000000      -0.23529412       0.20000000 </v>
   <v>      -0.44000000      -0.23529412       0.20000000 </v>
   <v>      -0.36000000      -0.23529412       0.20000000 </v>
   <v>      -0.32000000      -0.23529412       0.20000000 </v>
   <v>      -0.28000000      -0.23529412       0.20000000 </v>
   <v>      -0.24000000      -0.23529412       0.20000000 </v>
   <v>      -0.16000000      -0.23529412       0.20000000 </v>
   <v>      -0.12000000      -0.23529412       0.20000000 </v>
   <v>      -0.08000000      -0.23529412       0.20000000 </v>
   <v>      -0.04000000      -0.23529412       0.20000000 </v>
   <v>       0.00000000      -0.17647059       0.20000000 </v>
   <v>       0.04000000      -0.17647059       0.20000000 </v>
   <v>       0.08000000      -0.17647059       0.20000000 </v>
   <v>       0.12000000      -0.17647059       0.20000000 </v>
   <v>       0.16000000      -0.17647059       0.20000000 </v>
   <v>       0.20000000      -0.17647059       0.20000000 </v>
   <v>       0.24000000      -0.17647059       0.20000000 </v>
   <v>       0.28000000      -0.17647059       0.20000000 </v>
   <v>       0.32000000      -0.17647059       0.20000000 </v>
   <v>       0.36000000      -0.17647059       0.20000000 </v>
   <v>       0.40000000      -0.17647059       0.20000000 </v>
   <v>       0.44000000      -0.17647059       0.20000000 </v>
   <v>       0.48000000      -0.17647059       0.20000000 </v>
   <v>      -0.48000000      -0.17647059       0.20000000 </v>
   <v>      -0.44000000      -0.17647059       0.20000000 </v>
   <v>      -0.36000000      -0.17647059       0.20000000 </v>
   <v>      -0.32000000      -0.17647059       0.20000000 </v>
   <v>      -0.28000000      -0.17647059       0.20000000 </v>
   <v>      -0.24000000      -0.17647059       0.20000000 </v>
   <v>      -0.16000000      -0.17647059       0.20000000 </v>
   <v>      -0.12000000      -0.17647059       0.20000000 </v>
   <v>      -0.08000000      -0.17647059       0.20000000 </v>
   <v>      -0.04000000      -0.17647059       0.20000000 </v>
   <v>       0.00000000      -0.11764706       0.20000000 </v>
   <v>       0.04000000      -0.11764706       0.20000000 </v>
   <v>       0.08000000      -0.11764706       0.20000000 </v>
   <v>       0.12000000      -0.11764706       0.20000000 </v>
   <v>       0.16000000      -0.11764706       0.20000000 </v>
   <v>       0.20000000      -0.11764706       0.20000000 </v>
   <v>       0.24000000      -0.11764706       0.20000000 </v>
   <v>       0.28000000      -0.11764706       0.20000000 </v>
   <v>       0.32000000      -0.11764706       0.20000000 </v>
   <v>       0.36000000      -0.11764706       0.20000000 </v>
   <v>       0.40000000      -0.11764706       0.20000000 </v>
   <v>       0.44000000      -0.11764706       0.20000000 </v>
   <v>       0.48000000      -0.11764706       0.20000000 </v>
   <v>      -0.48000000      -0.11764706       0.20000000 </v>
   <v>      -0.44000000      -0.11764706       0.20000000 </v>
   <v>      -0.36000000      -0.11764706       0.20000000 </v>
   <v>      -0.32000000      -0.11764706       0.20000000 </v>
   <v>      -0.28000000      -0.11764706       0.20000000 </v>
   <v>      -0.24000000      -0.11764706       0.20000000 </v>
   <v>      -0.16000000      -0.11764706       0.20000000 </v>
   <v>      -0.12000000      -0.11764706       0.20000000 </v>
   <v>      -0.08000000      -0.11764706       0.20000000 </v>
   <v>      -0.04000000      -0.11764706       0.20000000 </v>
   <v>       0.00000000      -0.05882353       0.20000000 </v>
   <v>       0.04000000      -0.05882353       0.20000000 </v>
   <v>       0.08000000      -0.05882353       0.20000000 </v>
   <v>       0.12000000      -0.05882353       0.20000000 </v>
   <v>       0.16000000      -0.05882353       0.20000000 </v>
   <v>       0.20000000      -0.05882353       0.20000000 </v>
   <v>       0.24000000      -0.05882353       0.20000000 </v>
   <v>       0.28000000      -0.05882353       0.20000000 </v>
   <v>       0.32000000      -0.05882353       0.20000000 </v>
   <v>       0.36000000      -0.05882353       0.20000000 </v>
   <v>       0.40000000      -0.05882353       0.20000000 </v>
   <v>       0.44000000      -0.05882353       0.20000000 </v>
   <v>       0.48000000      -0.05882353       0.20000000 </v>
   <v>      -0.48000000      -0.05882353       0.20000000 </v>
   <v>      -0.44000000      -0.05882353       0.20000000 </v>
   <v>      -0.36000000      -0.05882353       0.20000000 </v>
   <v>      -0.32000000      -0.05882353       0.20000000 </v>
   <v>      -0.28000000      -0.05882353       0.20000000 </v>
   <v>      -0.24000000      -0.05882353       0.20000000 </v>
   <v>      -0.16000000      -0.05882353       0.20000000 </v>
   <v>      -0.12000000      -0.05882353       0.20000000 </v>
   <v>      -0.08000000      -0.05882353       0.20000000 </v>
   <v>      -0.04000000      -0.05882353       0.20000000 </v>
   <v>       0.00000000       0.00000000       0.30000000 </v>
   <v>       0.04000000       0.00000000       0.30000000 </v>
   <v>       0.08000000       0.00000000       0.30000000 </v>
   <v>       0.12000000       0.00000000       0.30000000 </v>
   <v>       0.16000000       0.00000000       0.30000000 </v>
   <v>       0.20000000       0.00000000       0.30000000 </v>
   <v>       0.24000000       0.00000000       0.30000000 </v>
   <v>       0.28000000       0.00000000       0.30000000 </v>
   <v>       0.32000000       0.00000000       0.30000000 </v>
   <v>       0.36000000       0.00000000       0.30000000 </v>
   <v>       0.40000000       0.00000000       0.30000000 </v>
   <v>       0.44000000       0.00000000       0.30000000 </v>
   <v>       0.48000000       0.00000000       0.30000000 </v>
   <v>      -0.48000000       0.00000000       0.30000000 </v>
   <v>      -0.44000000       0.00000000       0.30000000 </v>
   <v>      -0.36000000       0.00000000       0.30000000 </v>
   <v>      -0.32000000       0.00000000       0.30000000 </v>
   <v>      -0.28000000       0.00000000       0.30000000 </v>
   <v>      -0.24000000       0.00000000       0.30000000 </v>
   <v>      -0.16000000       0.00000000       0.30000000 </v>
   <v>      -0.12000000       0.00000000       0.30000000 </v>
   <v>      -0.08000000       0.00000000       0.30000000 </v>
   <v>      -0.04000000       0.00000000       0.30000000 </v>
   <v>       0.00000000       0.05882353       0.30000000 </v>
   <v>       0.04000000       0.05882353       0.30000000 </v>
   <v>       0.08000000       0.05882353       0.30000000 </v>
   <v>       0.12000000       0.05882353       0.30000000 </v>
   <v>       0.16000000       0.05882353       0.30000000 </v>
   <v>       0.20000000       0.05882353       0.30000000 </v>
   <v>       0.24000000       0.05882353       0.30000000 </v>
   <v>       0.28000000       0.05882353       0.30000000 </v>
   <v>       0.32000000       0.05882353       0.30000000 </v>
   <v>       0.36000000       0.05882353       0.30000000 </v>
   <v>       0.40000000       0.05882353       0.30000000 </v>
   <v>       0.44000000       0.05882353       0.30000000 </v>
   <v>       0.48000000       0.05882353       0.30000000 </v>
   <v>      -0.48000000       0.05882353       0.30000000 </v>
   <v>      -0.44000000       0.05882353       0.30000000 </v>
   <v>      -0.36000000       0.05882353       0.30000000 </v>
   <v>      -0.32000000       0.05882353       0.30000000 </v>
   <v>      -0.28000000       0.05882353       0.30000000 </v>
   <v>      -0.24000000       0.05882353       0.30000000 </v>
   <v>      -0.16000000       0.05882353       0.30000000 </v>
   <v>      -0.12000000       0.05882353       0.30000000 </v>
   <v>      -0.08000000       0.05882353       0.30000000 </v>
   <v>      -0.04000000       0.05882353       0.30000000 </v>
   <v>       0.00000000       0.11764706       0.30000000 </v>
   <v>       0.04000000       0.11764706       0.30000000 </v>
   <v>       0.08000000       0.11764706       0.30000000 </v>
   <v>       0.12000000       0.11764706       0.30000000 </v>
   <v>       0.16000000       0.11764706       0.30000000 </v>
   <v>       0.20000000       0.11764706       0.30000000 </v>
   <v>       0.24000000       0.11764706       0.30000000 </v>
   <v>       0.28000000       0.11764706       0.30000000 </v>
   <v>       0.32000000       0.11764706       0.30000000 </v>
   <v>       0.36000000       0.11764706       0.30000000 </v>
   <v>       0.40000000       0.11764706       0.30000000 </v>
   <v>       0.44000000       0.11764706       0.30000000 </v>
   <v>       0.48000000       0.11764706       0.30000000 </v>
   <v>      -0.48000000       0.11764706       0.30000000 </v>
   <v>      -0.44000000       0.11764706       0.30000000 </v>
   <v>      -0.36000000       0.11764706       0.30000000 </v>
   <v>      -0.32000000       0.11764706       0.30000000 </v>
   <v>      -0.28000000       0.11764706       0.30000000 </v>
   <v>      -0.24000000       0.11764706       0.30000000 </v>
   <v>      -0.16000000       0.11764706       0.30000000 </v>
   <v>      -0.12000000       0.11764706       0.30000000 </v>
   <v>      -0.08000000       0.11764706       0.30000000 </v>
   <v>      -0.04000000       0.11764706       0.30000000 </v>
   <v>       0.00000000       0.17647059       0.30000000 </v>
   <v>       0.04000000       0.17647059       0.30000000 </v>
   <v>       0.08000000       0.17647059       0.30000000 </v>
   <v>       0.12000000       0.17647059       0.30000000 </v>
   <v>       0.16000000       0.17647059       0.30000000 </v>
   <v>       0.20000000       0.17647059       0.30000000 </v>
   <v>       0.24000000       0.17647059       0.30000000 </v>
   <v>       0.28000000       0.17647059       0.30000000 </v>
   <v>       0.32000000       0.17647059       0.30000000 </v>
   <v>       0.36000000       0.17647059       0.30000000 </v>
   <v>       0.40000000       0.17647059       0.30000000 </v>
   <v>       0.44000000       0.17647059       0.30000000 </v>
   <v>       0.48000000       0.17647059       0.30000000 </v>
   <v>      -0.48000000       0.17647059       0.30000000 </v>
   <v>      -0.44000000       0.17647059       0.30000000 </v>
   <v>      -0.36000000       0.17647059       0.30000000 </v>
   <v>      -0.32000000       0.17647059       0.30000000 </v>
   <v>      -0.28000000       0.17647059       0.30000000 </v>
   <v>      -0.24000000       0.17647059       0.30000000 </v>
   <v>      -0.16000000       0.17647059       0.30000000 </v>
   <v>      -0.12000000       0.17647059       0.30000000 </v>
   <v>      -0.08000000       0.17647059       0.30000000 </v>
   <v>      -0.04000000       0.17647059       0.30000000 </v>
   <v>       0.00000000       0.23529412       0.30000000 </v>
   <v>       0.04000000       0.23529412       0.30000000 </v>
   <v>       0.08000000       0.23529412       0.30000000 </v>
   <v>       0.12000000       0.23529412       0.30000000 </v>
   <v>       0.16000000       0.23529412       0.30000000 </v>
   <v>       0.20000000       0.23529412       0.30000000 </v>
   <v>       0.24000000       0.23529412       0.30000000 </v>
   <v>       0.28000000       0.23529412       0.30000000 </v>
   <v>       0.32000000       0.23529412       0.30000000 </v>
   <v>       0.36000000       0.23529412       0.30000000 </v>
   <v>       0.40000000       0.23529412       0.30000000 </v>
   <v>       0.44000000       0.23529412       0.30000000 </v>
   <v>       0.48000000       0.23529412       0.30000000 </v>
   <v>      -0.48000000       0.23529412       0.30000000 </v>
   <v>      -0.44000000       0.23529412       0.30000000 </v>
   <v>      -0.36000000       0.23529412       0.30000000 </v>
   <v>      -0.32000000       0.23529412       0.30000000 </v>
   <v>      -0.28000000       0.23529412       0.30000000 </v>
   <v>      -0.24000000       0.23529412       0.30000000 </v>
   <v>      -0.16000000       0.23529412       0.30000000 </v>
   <v>      -0.12000000       0.23529412       0.30000000 </v>
   <v>      -0.08000000       0.23529412       0.30000000 </v>
   <v>      -0.04000000       0.23529412       0.30000000 </v>
   <v>       0.00000000       0.29411765       0.30000000 </v>
   <v>       0.04000000       0.29411765       0.30000000 </v>
   <v>       0.08000000       0.29411765       0.30000000 </v>
   <v>       0.12000000       0.29411765       0.30000000 </v>
   <v>       0.16000000       0.29411765       0.30000000 </v>
   <v>       0.20000000       0.29411765       0.30000000 </v>
   <v>       0.24000000       0.29411765       0.30000000 </v>
   <v>       0.28000000       0.29411765       0.30000000 </v>
   <v>       0.32000000       0.29411765       0.30000000 </v>
   <v>       0.36000000       0.29411765       0.30000000 </v>
   <v>       0.40000000       0.29411765       0.30000000 </v>
   <v>       0.44000000       0.29411765       0.30000000 </v>
   <v>       0.48000000       0.29411765       0.30000000 </v>
   <v>      -0.48000000       0.29411765       0.30000000 </v>
   <v>      -0.44000000       0.29411765       0.30000000 </v>
   <v>      -0.36000000       0.29411765       0.30000000 </v>
   <v>      -0.32000000       0.29411765       0.30000000 </v>
   <v>      -0.28000000       0.29411765       0.30000000 </v>
   <v>      -0.24000000       0.29411765       0.30000000 </v>
   <v>      -0.16000000       0.29411765       0.30000000 </v>
   <v>      -0.12000000       0.29411765       0.30000000 </v>
   <v>      -0.08000000       0.29411765       0.30000000 </v>
   <v>      -0.04000000       0.29411765       0.30000000 </v>
   <v>       0.00000000       0.35294118       0.30000000 </v>
   <v>       0.04000000       0.35294118       0.30000000 </v>
   <v>       0.08000000       0.35294118       0.30000000 </v>
   <v>       0.12000000       0.35294118       0.30000000 </v>
   <v>       0.16000000       0.35294118       0.30000000 </v>
   <v>       0.20000000       0.35294118       0.30000000 </v>
   <v>       0.24000000       0.35294118       0.30000000 </v>
   <v>       0.28000000       0.35294118       0.30000000 </v>
   <v>       0.32000000       0.35294118       0.30000000 </v>
   <v>       0.36000000       0.35294118       0.30000000 </v>
   <v>       0.40000000       0.35294118       0.30000000 </v>
   <v>       0.44000000       0.35294118       0.30000000 </v>
   <v>       0.48000000       0.35294118       0.30000000 </v>
   <v>      -0.48000000       0.35294118       0.30000000 </v>
   <v>      -0.44000000       0.35294118       0.30000000 </v>
   <v>      -0.36000000       0.35294118       0.30000000 </v>
   <v>      -0.32000000       0.35294118       0.30000000 </v>
   <v>      -0.28000000       0.35294118       0.30000000 </v>
   <v>      -0.24000000       0.35294118       0.30000000 </v>
   <v>      -0.16000000       0.35294118       0.30000000 </v>
   <v>      -0.12000000       0.35294118       0.30000000 </v>
   <v>      -0.08000000       0.35294118       0.30000000 </v>
   <v>      -0.04000000       0.35294118       0.30000000 </v>
   <v>       0.00000000       0.41176471       0.30000000 </v>
   <v>       0.04000000       0.41176471       0.30000000 </v>
   <v>       0.08000000       0.41176471       0.30000000 </v>
   <v>       0.12000000       0.41176471       0.30000000 </v>
   <v>       0.16000000       0.41176471       0.30000000 </v>
   <v>       0.20000000       0.41176471       0.30000000 </v>
   <v>       0.24000000       0.41176471       0.30000000 </v>
   <v>       0.28000000       0.41176471       0.30000000 </v>
   <v>       0.32000000       0.41176471       0.30000000 </v>
   <v>       0.36000000       0.41176471       0.30000000 </v>
   <v>       0.40000000       0.41176471       0.30000000 </v>
   <v>       0.44000000       0.41176471       0.30000000 </v>
   <v>       0.48000000       0.41176471       0.30000000 </v>
   <v>      -0.48000000       0.41176471       0.30000000 </v>
   <v>      -0.44000000       0.41176471       0.30000000 </v>
   <v>      -0.36000000       0.41176471       0.30000000 </v>
   <v>      -0.32000000       0.41176471       0.30000000 </v>
   <v>      -0.28000000       0.41176471       0.30000000 </v>
   <v>      -0.24000000       0.41176471       0.30000000 </v>
   <v>      -0.16000000       0.41176471       0.30000000 </v>
   <v>      -0.12000000       0.41176471       0.30000000 </v>
   <v>      -0.08000000       0.41176471       0.30000000 </v>
   <v>      -0.04000000       0.41176471       0.30000000 </v>
   <v>       0.00000000       0.47058824       0.30000000 </v>
   <v>       0.04000000       0.47058824       0.30000000 </v>
   <v>       0.08000000       0.47058824       0.30000000 </v>
   <v>       0.12000000       0.47058824       0.30000000 </v>
   <v>       0.16000000       0.47058824       0.30000000 </v>
   <v>       0.20000000       0.47058824       0.30000000 </v>
   <v>       0.24000000       0.47058824       0.30000000 </v>
   <v>       0.28000000       0.47058824       0.30000000 </v>
   <v>       0.32000000       0.47058824       0.30000000 </v>
   <v>       0.36000000       0.47058824       0.30000000 </v>
   <v>       0.40000000       0.47058824       0.30000000 </v>
   <v>       0.44000000       0.47058824       0.30000000 </v>
   <v>       0.48000000       0.47058824       0.30000000 </v>
   <v>      -0.48000000       0.47058824       0.30000000 </v>
   <v>      -0.44000000       0.47058824       0.30000000 </v>
   <v>      -0.36000000       0.47058824       0.30000000 </v>
   <v>      -0.32000000       0.47058824       0.30000000 </v>
   <v>      -0.28000000       0.47058824       0.30000000 </v>
   <v>      -0.24000000       0.47058824       0.30000000 </v>
   <v>      -0.16000000       0.47058824       0.30000000 </v>
   <v>      -0.12000000       0.47058824       0.30000000 </v>
   <v>      -0.08000000       0.47058824       0.30000000 </v>
   <v>      -0.04000000       0.47058824       0.30000000 </v>
   <v>       0.00000000      -0.47058824       0.30000000 </v>
   <v>       0.04000000      -0.47058824       0.30000000 </v>
   <v>       0.08000000      -0.47058824       0.30000000 </v>
   <v>       0.12000000      -0.47058824       0.30000000 </v>
   <v>       0.16000000      -0.47058824       0.30000000 </v>
[...]
       <r>    3.4404    1.0000 </r>
       <r>    3.4788    1.0000 </r>
       <r>    3.5152    1.0000 </r>
       <r>    3.6346    1.0000 </r>
       <r>    3.7531    1.0000 </r>
       <r>    3.8312    1.0000 </r>
       <r>    3.8602    1.0000 </r>
       <r>    3.9391    1.0000 </r>
       <r>    4.0585    1.0000 </r>
       <r>    4.2915    1.0000 </r>
       <r>    4.4271    1.0000 </r>
       <r>    4.5419    1.0000 </r>
       <r>    4.6164    1.0000 </r>
       <r>    4.9031    1.0000 </r>
       <r>    4.9602    1.0000 </r>
       <r>    5.0572    1.0000 </r>
       <r>    5.2490    1.0000 </r>
       <r>    5.4914    1.0000 </r>
       <r>    5.8214    1.0000 </r>
       <r>    5.9144    1.0000 </r>
       <r>    6.6458    1.0000 </r>
       <r>    7.5703    1.0069 </r>
       <r>    8.6972   -0.0181 </r>
       <r>   11.3926    0.0000 </r>
       <r>   13.9695    0.0000 </r>
       <r>   16.0696    0.0000 </r>
       <r>   19.6301    0.0000 </r>
       <r>   19.8782    0.0000 </r>
       <r>   20.7823    0.0000 </r>
      </set>
      <set comment="kpoint 1957">
       <r>    1.5478    1.0000 </r>
       <r>    1.6873    1.0000 </r>
       <r>    2.2244    1.0000 </r>
       <r>    2.3831    1.0000 </r>
       <r>    2.4830    1.0000 </r>
       <r>    2.7604    1.0000 </r>
       <r>    2.9602    1.0000 </r>
       <r>    3.4595    1.0000 </r>
       <r>    3.5333    1.0000 </r>
       <r>    3.5673    1.0000 </r>
       <r>    3.6089    1.0000 </r>
       <r>    3.7881    1.0000 </r>
       <r>    3.8656    1.0000 </r>
       <r>    3.9247    1.0000 </r>
       <r>    3.9560    1.0000 </r>
       <r>    4.0840    1.0000 </r>
       <r>    4.3443    1.0000 </r>
       <r>    4.4069    1.0000 </r>
       <r>    4.6204    1.0000 </r>
       <r>    4.7373    1.0000 </r>
       <r>    4.9337    1.0000 </r>
       <r>    5.0950    1.0000 </r>
       <r>    5.1522    1.0000 </r>
       <r>    5.3719    1.0000 </r>
       <r>    5.4525    1.0000 </r>
       <r>    5.7299    1.0000 </r>
       <r>    5.8326    1.0000 </r>
       <r>    6.4168    1.0000 </r>
       <r>    7.1962    1.0000 </r>
       <r>    8.2445    0.3333 </r>
       <r>   11.3382    0.0000 </r>
       <r>   14.0357    0.0000 </r>
       <r>   15.7340    0.0000 </r>
       <r>   20.0304    0.0000 </r>
       <r>   20.5284    0.0000 </r>
       <r>   21.1373    0.0000 </r>
      </set>
      <set comment="kpoint 1958">
       <r>    1.4466    1.0000 </r>
       <r>    1.5955    1.0000 </r>
       <r>    2.1570    1.0000 </r>
       <r>    2.3082    1.0000 </r>
       <r>    2.4104    1.0000 </r>
       <r>    2.7533    1.0000 </r>
       <r>    2.9413    1.0000 </r>
       <r>    3.4621    1.0000 </r>
       <r>    3.5285    1.0000 </r>
       <r>    3.6014    1.0000 </r>
       <r>    3.6145    1.0000 </r>
       <r>    3.8048    1.0000 </r>
       <r>    3.8639    1.0000 </r>
       <r>    3.9780    1.0000 </r>
       <r>    4.0210    1.0000 </r>
       <r>    4.1795    1.0000 </r>
       <r>    4.3324    1.0000 </r>
       <r>    4.3828    1.0000 </r>
       <r>    4.5869    1.0000 </r>
       <r>    4.8666    1.0000 </r>
       <r>    4.9897    1.0000 </r>
       <r>    5.1404    1.0000 </r>
       <r>    5.2343    1.0000 </r>
       <r>    5.2850    1.0000 </r>
       <r>    5.6664    1.0000 </r>
       <r>    5.7177    1.0000 </r>
       <r>    5.8652    1.0000 </r>
       <r>    6.1928    1.0000 </r>
       <r>    6.8998    1.0000 </r>
       <r>    7.8915    1.0224 </r>
       <r>   11.3191    0.0000 </r>
       <r>   14.1534    0.0000 </r>
       <r>   15.4498    0.0000 </r>
       <r>   20.2173    0.0000 </r>
       <r>   20.3920    0.0000 </r>
       <r>   21.9815    0.0000 </r>
      </set>
     </set>
    </set>
   </array>
  </eigenvalues>
  <separator name="orbital magnetization" >
   <v name="MAGDIPOLOUT">      0.00000000      0.00000000      0.00000000</v>
  </separator>
  <dos>
   <i name="efermi">      8.18409181 </i>
   <total>
    <array>
     <dimension dim="1">gridpoints</dimension>
     <dimension dim="2">spin</dimension>
     <field>energy</field>
     <field>total</field>
     <field>integrated</field>
     <set>
      <set comment="spin 1">
       <r>    -3.2326     0.0000     0.0000 </r>
       <r>    -3.1357     0.0000     0.0000 </r>
       <r>    -3.0387     0.0000     0.0000 </r>
       <r>    -2.9418     0.0000     0.0000 </r>
       <r>    -2.8448     0.0000     0.0000 </r>
       <r>    -2.7479     0.0000     0.0000 </r>
       <r>    -2.6509     0.0000     0.0000 </r>
       <r>    -2.5540     0.0000     0.0000 </r>
       <r>    -2.4570     0.0000     0.0000 </r>
       <r>    -2.3601     0.0000     0.0000 </r>
       <r>    -2.2631     0.0000     0.0000 </r>
       <r>    -2.1662     0.0000     0.0000 </r>
       <r>    -2.0692     0.0000     0.0000 </r>
       <r>    -1.9723     0.0000     0.0000 </r>
       <r>    -1.8753     0.0000     0.0000 </r>
       <r>    -1.7784     0.0000     0.0000 </r>
       <r>    -1.6814     0.0000     0.0000 </r>
       <r>    -1.5845     0.0000     0.0000 </r>
       <r>    -1.4875     0.0000     0.0000 </r>
       <r>    -1.3906     0.0000     0.0000 </r>
       <r>    -1.2936     0.0000     0.0000 </r>
       <r>    -1.1967     0.0000     0.0000 </r>
       <r>    -1.0997     0.0000     0.0000 </r>
       <r>    -1.0028     0.0000     0.0000 </r>
       <r>    -0.9058    -0.0002     0.0000 </r>
       <r>    -0.8089    -0.0008    -0.0001 </r>
       <r>    -0.7119    -0.0025    -0.0003 </r>
       <r>    -0.6150    -0.0054    -0.0009 </r>
       <r>    -0.5180    -0.0085    -0.0017 </r>
       <r>    -0.4211    -0.0064    -0.0023 </r>
       <r>    -0.3241     0.0101    -0.0013 </r>
       <r>    -0.2272     0.0500     0.0035 </r>
       <r>    -0.1302     0.1155     0.0147 </r>
       <r>    -0.0333     0.1991     0.0340 </r>
       <r>     0.0637     0.2869     0.0618 </r>
       <r>     0.1606     0.3649     0.0972 </r>
       <r>     0.2576     0.4234     0.1382 </r>
       <r>     0.3545     0.4600     0.1828 </r>
       <r>     0.4515     0.4796     0.2293 </r>
       <r>     0.5484     0.4906     0.2769 </r>
       <r>     0.6454     0.4998     0.3254 </r>
       <r>     0.7423     0.5102     0.3748 </r>
       <r>     0.8393     0.5228     0.4255 </r>
       <r>     0.9362     0.5386     0.4777 </r>
       <r>     1.0332     0.5605     0.5321 </r>
       <r>     1.1301     0.5945     0.5897 </r>
       <r>     1.2270     0.6494     0.6527 </r>
       <r>     1.3240     0.7335     0.7238 </r>
       <r>     1.4209     0.8607     0.8072 </r>
       <r>     1.5179     1.0664     0.9106 </r>
       <r>     1.6148     1.4128     1.0476 </r>
       <r>     1.7118     1.9696     1.2385 </r>
       <r>     1.8087     2.7801     1.5081 </r>
       <r>     1.9057     3.8503     1.8813 </r>
       <r>     2.0026     5.1747     2.3830 </r>
       <r>     2.0996     6.7639     3.0388 </r>
       <r>     2.1965     8.6090     3.8734 </r>
       <r>     2.2935    10.5746     4.8986 </r>
       <r>     2.3904    12.3271     6.0937 </r>
       <r>     2.4874    13.4345     7.3962 </r>
       <r>     2.5843    13.6151     8.7162 </r>
       <r>     2.6813    12.9344     9.9702 </r>
       <r>     2.7782    11.7996    11.1141 </r>
       <r>     2.8752    10.7820    12.1594 </r>
       <r>     2.9721    10.3563    13.1635 </r>
       <r>     3.0691    10.6523    14.1962 </r>
       <r>     3.1660    11.3921    15.3007 </r>
       <r>     3.2630    12.1315    16.4768 </r>
       <r>     3.3599    12.6442    17.7027 </r>
       <r>     3.4569    13.1151    18.9742 </r>
       <r>     3.5538    13.9546    20.3271 </r>
       <r>     3.6508    15.3521    21.8155 </r>
       <r>     3.7477    16.9277    23.4566 </r>
       <r>     3.8447    17.8635    25.1884 </r>
       <r>     3.9416    17.5257    26.8876 </r>
       <r>     4.0386    16.0342    28.4421 </r>
       <r>     4.1355    14.1970    29.8185 </r>
       <r>     4.2325    12.8869    31.0678 </r>
       <r>     4.3294    12.4815    32.2779 </r>
       <r>     4.4264    12.7861    33.5175 </r>
       <r>     4.5233    13.3157    34.8085 </r>
       <r>     4.6203    13.6196    36.1289 </r>
       <r>     4.7172    13.4919    37.4369 </r>
       <r>     4.8142    13.0397    38.7011 </r>
       <r>     4.9111    12.5651    39.9193 </r>
       <r>     5.0081    12.2958    41.1114 </r>
       <r>     5.1050    12.1850    42.2927 </r>
       <r>     5.2020    12.0051    43.4566 </r>
       <r>     5.2989    11.6347    44.5846 </r>
       <r>     5.3959    11.1953    45.6699 </r>
       <r>     5.4928    10.8968    46.7264 </r>
       <r>     5.5898    10.8096    47.7744 </r>
       <r>     5.6867    10.7820    48.8197 </r>
       <r>     5.7837    10.4761    49.8353 </r>
       <r>     5.8806     9.5028    50.7566 </r>
       <r>     5.9776     7.7067    51.5038 </r>
       <r>     6.0745     5.4131    52.0286 </r>
       <r>     6.1715     3.2914    52.3477 </r>
       <r>     6.2684     1.8812    52.5301 </r>
       <r>     6.3654     1.2585    52.6521 </r>
       <r>     6.4623     1.1314    52.7618 </r>
       <r>     6.5593     1.1676    52.8749 </r>
       <r>     6.6562     1.2049    52.9918 </r>
       <r>     6.7532     1.2336    53.1114 </r>
       <r>     6.8501     1.2771    53.2352 </r>
       <r>     6.9471     1.3221    53.3633 </r>
       <r>     7.0440     1.3331    53.4926 </r>
       <r>     7.1410     1.2990    53.6185 </r>
       <r>     7.2379     1.2503    53.7397 </r>
       <r>     7.3349     1.2335    53.8593 </r>
       <r>     7.4318     1.2696    53.9824 </r>
       <r>     7.5288     1.3351    54.1118 </r>
       <r>     7.6257     1.3842    54.2460 </r>
       <r>     7.7227     1.3896    54.3808 </r>
       <r>     7.8196     1.3607    54.5127 </r>
       <r>     7.9166     1.3270    54.6413 </r>
       <r>     8.0135     1.3155    54.7689 </r>
       <r>     8.1105     1.3379    54.8986 </r>
       <r>     8.2074     1.3833    55.0327 </r>
       <r>     8.3044     1.4198    55.1703 </r>
       <r>     8.4013     1.4189    55.3079 </r>
       <r>     8.4983     1.3806    55.4417 </r>
       <r>     8.5952     1.3326    55.5709 </r>
       <r>     8.6922     1.3048    55.6974 </r>
       <r>     8.7891     1.3095    55.8244 </r>
       <r>     8.8861     1.3382    55.9541 </r>
       <r>     8.9830     1.3698    56.0870 </r>
       <r>     9.0800     1.3838    56.2211 </r>
       <r>     9.1769     1.3718    56.3541 </r>
       <r>     9.2739     1.3415    56.4842 </r>
       <r>     9.3708     1.3110    56.6113 </r>
       <r>     9.4678     1.2979    56.7371 </r>
       <r>     9.5647     1.3059    56.8637 </r>
       <r>     9.6617     1.3220    56.9919 </r>
       <r>     9.7586     1.3292    57.1207 </r>
       <r>     9.8556     1.3228    57.2490 </r>
       <r>     9.9525     1.3096    57.3759 </r>
       <r>    10.0495     1.2972    57.5017 </r>
       <r>    10.1464     1.2862    57.6264 </r>
       <r>    10.2434     1.2717    57.7497 </r>
       <r>    10.3403     1.2496    57.8708 </r>
       <r>    10.4373     1.2213    57.9893 </r>
       <r>    10.5342     1.1945    58.1051 </r>
       <r>    10.6312     1.1778    58.2192 </r>
       <r>    10.7281     1.1802    58.3337 </r>
       <r>    10.8251     1.2099    58.4510 </r>
       <r>    10.9220     1.2672    58.5738 </r>
       <r>    11.0190     1.3331    58.7031 </r>
       <r>    11.1159     1.3780    58.8366 </r>
       <r>    11.2129     1.3881    58.9712 </r>
       <r>    11.3098     1.3826    59.1053 </r>
       <r>    11.4068     1.3957    59.2406 </r>
       <r>    11.5037     1.4454    59.3807 </r>
       <r>    11.6007     1.5209    59.5282 </r>
       <r>    11.6976     1.5964    59.6829 </r>
       <r>    11.7946     1.6488    59.8428 </r>
       <r>    11.8915     1.6661    60.0043 </r>
       <r>    11.9885     1.6497    60.1642 </r>
       <r>    12.0854     1.6128    60.3206 </r>
       <r>    12.1824     1.5735    60.4731 </r>
       <r>    12.2793     1.5482    60.6232 </r>
       <r>    12.3763     1.5476    60.7733 </r>
       <r>    12.4732     1.5697    60.9255 </r>
       <r>    12.5702     1.5942    61.0800 </r>
       <r>    12.6671     1.5970    61.2349 </r>
       <r>    12.7641     1.5728    61.3873 </r>
       <r>    12.8610     1.5390    61.5365 </r>
       <r>    12.9580     1.5148    61.6834 </r>
       <r>    13.0549     1.5051    61.8293 </r>
       <r>    13.1519     1.5042    61.9752 </r>
       <r>    13.2488     1.5054    62.1211 </r>
       <r>    13.3458     1.5051    62.2670 </r>
       <r>    13.4427     1.5039    62.4128 </r>
       <r>    13.5397     1.5087    62.5591 </r>
       <r>    13.6366     1.5286    62.7073 </r>
       <r>    13.7336     1.5625    62.8588 </r>
       <r>    13.8305     1.5966    63.0136 </r>
       <r>    13.9275     1.6179    63.1704 </r>
       <r>    14.0244     1.6288    63.3283 </r>
       <r>    14.1214     1.6394    63.4873 </r>
       <r>    14.2183     1.6523    63.6475 </r>
       <r>    14.3152     1.6627    63.8087 </r>
       <r>    14.4122     1.6697    63.9706 </r>
       <r>    14.5091     1.6745    64.1329 </r>
       <r>    14.6061     1.6701    64.2948 </r>
       <r>    14.7030     1.6449    64.4543 </r>
       <r>    14.8000     1.6033    64.6097 </r>
       <r>    14.8969     1.5762    64.7625 </r>
       <r>    14.9939     1.6061    64.9182 </r>
       <r>    15.0908     1.7122    65.0842 </r>
       <r>    15.1878     1.8648    65.2650 </r>
       <r>    15.2847     1.9957    65.4585 </r>
       <r>    15.3817     2.0449    65.6568 </r>
       <r>    15.4786     2.0043    65.8511 </r>
       <r>    15.5756     1.9201    66.0372 </r>
       <r>    15.6725     1.8554    66.2171 </r>
       <r>    15.7695     1.8419    66.3957 </r>
       <r>    15.8664     1.8638    66.5764 </r>
       <r>    15.9634     1.8846    66.7591 </r>
       <r>    16.0603     1.8886    66.9422 </r>
       <r>    16.1573     1.8871    67.1251 </r>
       <r>    16.2542     1.8902    67.3084 </r>
       <r>    16.3512     1.8879    67.4914 </r>
       <r>    16.4481     1.8666    67.6724 </r>
       <r>    16.5451     1.8342    67.8502 </r>
       <r>    16.6420     1.8138    68.0261 </r>
       <r>    16.7390     1.8131    68.2018 </r>
       <r>    16.8359     1.8113    68.3774 </r>
       <r>    16.9329     1.7861    68.5506 </r>
       <r>    17.0298     1.7473    68.7200 </r>
       <r>    17.1268     1.7283    68.8876 </r>
       <r>    17.2237     1.7477    69.0570 </r>
       <r>    17.3207     1.7880    69.2304 </r>
       <r>    17.4176     1.8097    69.4058 </r>
       <r>    17.5146     1.7780    69.5782 </r>
       <r>    17.6115     1.6840    69.7414 </r>
       <r>    17.7085     1.5488    69.8916 </r>
       <r>    17.8054     1.4061    70.0279 </r>
       <r>    17.9024     1.2781    70.1518 </r>
       <r>    17.9993     1.1703    70.2653 </r>
       <r>    18.0963     1.0831    70.3703 </r>
       <r>    18.1932     1.0183    70.4690 </r>
       <r>    18.2902     0.9727    70.5633 </r>
       <r>    18.3871     0.9351    70.6540 </r>
       <r>    18.4841     0.8947    70.7407 </r>
       <r>    18.5810     0.8489    70.8230 </r>
       <r>    18.6780     0.7999    70.9006 </r>
       <r>    18.7749     0.7497    70.9733 </r>
       <r>    18.8719     0.7011    71.0412 </r>
       <r>    18.9688     0.6590    71.1051 </r>
       <r>    19.0658     0.6246    71.1657 </r>
       <r>    19.1627     0.5937    71.2232 </r>
       <r>    19.2597     0.5630    71.2778 </r>
       <r>    19.3566     0.5339    71.3296 </r>
       <r>    19.4536     0.5089    71.3789 </r>
       <r>    19.5505     0.4853    71.4260 </r>
       <r>    19.6475     0.4582    71.4704 </r>
       <r>    19.7444     0.4264    71.5117 </r>
       <r>    19.8414     0.3929    71.5498 </r>
       <r>    19.9383     0.3622    71.5849 </r>
       <r>    20.0353     0.3364    71.6175 </r>
       <r>    20.1322     0.3134    71.6479 </r>
       <r>    20.2292     0.2893    71.6760 </r>
       <r>    20.3261     0.2638    71.7016 </r>
       <r>    20.4231     0.2440    71.7252 </r>
       <r>    20.5200     0.2375    71.7482 </r>
       <r>    20.6170     0.2419    71.7717 </r>
       <r>    20.7139     0.2431    71.7953 </r>
       <r>    20.8109     0.2278    71.8173 </r>
       <r>    20.9078     0.1965    71.8364 </r>
       <r>    21.0048     0.1630    71.8522 </r>
       <r>    21.1017     0.1419    71.8659 </r>
       <r>    21.1987     0.1354    71.8791 </r>
       <r>    21.2956     0.1344    71.8921 </r>
       <r>    21.3926     0.1282    71.9045 </r>
       <r>    21.4895     0.1138    71.9156 </r>
       <r>    21.5865     0.0976    71.9250 </r>
       <r>    21.6834     0.0897    71.9337 </r>
       <r>    21.7804     0.0930    71.9427 </r>
       <r>    21.8773     0.1002    71.9525 </r>
       <r>    21.9743     0.0995    71.9621 </r>
       <r>    22.0712     0.0866    71.9705 </r>
       <r>    22.1682     0.0677    71.9771 </r>
       <r>    22.2651     0.0524    71.9821 </r>
       <r>    22.3621     0.0435    71.9864 </r>
       <r>    22.4590     0.0377    71.9900 </r>
       <r>    22.5560     0.0314    71.9931 </r>
       <r>    22.6529     0.0247    71.9955 </r>
       <r>    22.7499     0.0190    71.9973 </r>
       <r>    22.8468     0.0143    71.9987 </r>
       <r>    22.9438     0.0095    71.9996 </r>
       <r>    23.0407     0.0047    72.0001 </r>
       <r>    23.1377     0.0012    72.0002 </r>
       <r>    23.2346    -0.0005    72.0001 </r>
       <r>    23.3316    -0.0007    72.0001 </r>
       <r>    23.4285    -0.0005    72.0000 </r>
       <r>    23.5255    -0.0002    72.0000 </r>
       <r>    23.6224    -0.0001    72.0000 </r>
       <r>    23.7194     0.0000    72.0000 </r>
       <r>    23.8163     0.0000    72.0000 </r>
       <r>    23.9133     0.0000    72.0000 </r>
       <r>    24.0102     0.0000    72.0000 </r>
       <r>    24.1072     0.0000    72.0000 </r>
       <r>    24.2041     0.0000    72.0000 </r>
       <r>    24.3011     0.0000    72.0000 </r>
       <r>    24.3980     0.0000    72.0000 </r>
       <r>    24.4950     0.0000    72.0000 </r>
       <r>    24.5919     0.0000    72.0000 </r>
       <r>    24.6889     0.0000    72.0000 </r>
       <r>    24.7858     0.0000    72.0000 </r>
       <r>    24.8828     0.0000    72.0000 </r>
       <r>    24.9797     0.0000    72.0000 </r>
       <r>    25.0767     0.0000    72.0000 </r>
       <r>    25.1736     0.0000    72.0000 </r>
       <r>    25.2706     0.0000    72.0000 </r>
       <r>    25.3675     0.0000    72.0000 </r>
       <r>    25.4645     0.0000    72.0000 </r>
       <r>    25.5614     0.0000    72.0000 </r>
       <r>    25.6584     0.0000    72.0000 </r>
       <r>    25.7553     0.0000    72.0000 </r>
       <r>    25.8523     0.0000    72.0000 </r>
      </set>
     </set>
    </array>
   </total>
  </dos>
 </calculation>
 <structure name="finalpos" >
  <crystal>
   <varray name="basis" >
    <v>       0.00000000      -2.05955917      -2.05955917 </v>
    <v>      -4.17133890       0.00000000       0.00000000 </v>
    <v>       2.08566945       6.21770454      -4.15814537 </v>
   </varray>
   <i name="volume">     89.14016431 </i>
   <varray name="rec_basis" >
    <v>       0.00000000      -0.19458157      -0.29095922 </v>
    <v>      -0.23973118       0.04818882      -0.04818882 </v>
    <v>       0.00000000       0.09637765      -0.09637765 </v>
   </varray>
  </crystal>
  <varray name="positions" >
   <v>       0.20038759       0.20038759       0.40077518 </v>
   <v>       0.80000000       0.80000000       0.60000000 </v>
   <v>       0.39961241       0.39961241       0.79922482 </v>
   <v>       0.99869726       0.99869726       0.99739452 </v>
   <v>       0.60130274       0.60130274       0.20260548 </v>
  </varray>
 </structure>
</modeling>
