<?xml version="1.0" encoding="ISO-8859-1"?>
<modeling>
 <generator>
  <i name="program" type="string">vasp </i>
  <i name="version" type="string">5.3.5  </i>
  <i name="subversion" type="string">31Mar14 (build Jun 20 2014 13:15:13) complex                          parallel </i>
  <i name="platform" type="string">LinuxIFC </i>
  <i name="date" type="string">2025 12 16 </i>
  <i name="time" type="string">16:54:12 </i>
 </generator>
 <incar>
  <i type="string" name="PREC">accurate</i>
  <i type="int" name="IALGO">    68</i>
  <i type="logical" name="ADDGRID"> T  </i>
  <i type="int" name="NELM">   100</i>
  <i type="int" name="NELMIN">     4</i>
  <i type="int" name="IBRION">     2</i>
  <i name="EDIFF">      0.00000100</i>
  <i name="EDIFFG">     -0.02000000</i>
  <i type="int" name="NSW">    30</i>
  <i type="int" name="ISIF">     3</i>
  <i name="ENCUT">    600.00000000</i>
  <i type="logical" name="LREAL"> F  </i>
  <i type="int" name="ISMEAR">     0</i>
  <i name="SIGMA">      0.10000000</i>
  <i type="logical" name="LWAVE"> F  </i>
  <i type="logical" name="LCHARG"> F  </i>
  <i type="int" name="NELM">   100</i>
 </incar>
 <kpoints>
  <generation param="Auto">
   <i name="subdivisionlength">     20.00000000 </i>
   <v type="int" name="divisions">       2        6        2 </v>
   <v name="usershift">      0.00000000       0.00000000       0.00000000 </v>
   <v name="genvec1">      0.50000000       0.00000000       0.00000000 </v>
   <v name="genvec2">      0.00000000       0.16666667       0.00000000 </v>
   <v name="genvec3">      0.00000000       0.00000000       0.50000000 </v>
   <v name="shift">      0.00000000       0.00000000       0.00000000 </v>
  </generation>
  <varray name="kpointlist" >
   <v>       0.00000000       0.00000000       0.00000000 </v>
   <v>       0.50000000       0.00000000       0.00000000 </v>
   <v>       0.00000000       0.16666667       0.00000000 </v>
   <v>       0.50000000       0.16666667       0.00000000 </v>
   <v>       0.00000000       0.33333333       0.00000000 </v>
   <v>       0.50000000       0.33333333       0.00000000 </v>
   <v>       0.00000000       0.50000000       0.00000000 </v>
   <v>       0.50000000       0.50000000       0.00000000 </v>
   <v>       0.00000000       0.00000000       0.50000000 </v>
   <v>       0.50000000       0.00000000       0.50000000 </v>
   <v>       0.00000000       0.16666667       0.50000000 </v>
   <v>       0.50000000       0.16666667       0.50000000 </v>
   <v>       0.00000000       0.33333333       0.50000000 </v>
   <v>       0.50000000       0.33333333       0.50000000 </v>
   <v>       0.00000000       0.50000000       0.50000000 </v>
   <v>       0.50000000       0.50000000       0.50000000 </v>
  </varray>
  <varray name="weights" >
   <v>       0.04166667 </v>
   <v>       0.04166667 </v>
   <v>       0.08333333 </v>
   <v>       0.08333333 </v>
   <v>       0.08333333 </v>
   <v>       0.08333333 </v>
   <v>       0.04166667 </v>
   <v>       0.04166667 </v>
   <v>       0.04166667 </v>
   <v>       0.04166667 </v>
   <v>       0.08333333 </v>
   <v>       0.08333333 </v>
   <v>       0.08333333 </v>
   <v>       0.08333333 </v>
   <v>       0.04166667 </v>
   <v>       0.04166667 </v>
  </varray>
 </kpoints>
 <parameters>
  <separator name="general" >
   <i type="string" name="SYSTEM">unknown system</i>
   <i type="logical" name="LCOMPAT"> F  </i>
  </separator>
  <separator name="electronic" >
   <i type="string" name="PREC">accura</i>
   <i name="ENMAX">    600.00000000</i>
   <i name="ENAUG">    644.87300000</i>
   <i name="EDIFF">      0.00000100</i>
   <i type="int" name="IALGO">    68</i>
   <i type="int" name="IWAVPR">    11</i>
   <i type="int" name="NBANDS">    84</i>
   <i name="NELECT">    128.00000000</i>
   <i type="int" name="TURBO">     0</i>
   <i type="int" name="IRESTART">     0</i>
   <i type="int" name="NREBOOT">     0</i>
   <i type="int" name="NMIN">     0</i>
   <i name="EREF">      0.00000000</i>
   <separator name="electronic smearing" >
    <i type="int" name="ISMEAR">     0</i>
    <i name="SIGMA">      0.10000000</i>
    <i name="KSPACING">      0.50000000</i>
    <i type="logical" name="KGAMMA"> T  </i>
   </separator>
   <separator name="electronic projectors" >
    <i type="logical" name="LREAL"> F  </i>
    <v name="ROPT">      0.00000000      0.00000000      0.00000000      0.00000000</v>
    <i type="int" name="LMAXPAW">  -100</i>
    <i type="int" name="LMAXMIX">     2</i>
    <i type="logical" name="NLSPLINE"> F  </i>
   </separator>
   <separator name="electronic startup" >
    <i type="int" name="ISTART">     0</i>
    <i type="int" name="ICHARG">     2</i>
    <i type="int" name="INIWAV">     1</i>
   </separator>
   <separator name="electronic spin" >
    <i type="int" name="ISPIN">     1</i>
    <i type="logical" name="LNONCOLLINEAR"> F  </i>
    <v name="MAGMOM">      1.00000000      1.00000000      1.00000000      1.00000000      1.00000000      1.00000000      1.00000000      1.00000000      1.00000000      1.00000000      1.00000000      1.00000000      1.00000000      1.00000000      1.00000000      1.00000000      1.00000000      1.00000000      1.00000000      1.00000000
      1.00000000      1.00000000      1.00000000      1.00000000      1.00000000      1.00000000      1.00000000      1.00000000      1.00000000      1.00000000      1.00000000      1.00000000</v>
    <i name="NUPDOWN">     -1.00000000</i>
    <i type="logical" name="LSORBIT"> F  </i>
    <v name="SAXIS">      0.00000000      0.00000000      1.00000000</v>
    <i type="logical" name="LSPIRAL"> F  </i>
    <v name="QSPIRAL">      0.00000000      0.00000000      0.00000000</v>
    <i type="logical" name="LZEROZ"> F  </i>
   </separator>
   <separator name="electronic exchange-correlation" >
    <i type="logical" name="LASPH"> F  </i>
    <i type="logical" name="LMETAGGA"> F  </i>
   </separator>
   <separator name="electronic convergence" >
    <i type="int" name="NELM">   100</i>
    <i type="int" name="NELMDL">     0</i>
    <i type="int" name="NELMIN">     4</i>
    <i name="ENINI">    600.00000000</i>
    <separator name="electronic convergence detail" >
     <i type="logical" name="LDIAG"> T  </i>
     <i type="logical" name="LSUBROT"> F  </i>
     <i name="WEIMIN">      0.00100000</i>
     <i name="EBREAK">      0.00000000</i>
     <i name="DEPER">      0.30000000</i>
     <i type="int" name="NRMM">     4</i>
     <i name="TIME">      0.40000000</i>
    </separator>
   </separator>
   <separator name="electronic mixer" >
    <i name="AMIX">      0.40000000</i>
    <i name="BMIX">      1.00000000</i>
    <i name="AMIN">      0.10000000</i>
    <i name="AMIX_MAG">      1.60000000</i>
    <i name="BMIX_MAG">      1.00000000</i>
    <separator name="electronic mixer details" >
     <i type="int" name="IMIX">     4</i>
     <i type="int" name="MAXMIX">   -45</i>
     <i name="WC">    100.00000000</i>
     <i type="int" name="INIMIX">     1</i>
     <i type="int" name="MIXPRE">     1</i>
     <i type="int" name="MREMOVE">     5</i>
    </separator>
   </separator>
   <separator name="electronic dipolcorrection" >
    <i type="logical" name="LDIPOL"> F  </i>
    <i type="logical" name="LMONO"> F  </i>
    <i type="int" name="IDIPOL">     0</i>
    <i name="EPSILON">      1.00000000</i>
    <v name="DIPOL">   -100.00000000   -100.00000000   -100.00000000</v>
    <i name="EFIELD">      0.00000000</i>
   </separator>
  </separator>
  <separator name="grids" >
   <i type="int" name="NGX">    96</i>
   <i type="int" name="NGY">    28</i>
   <i type="int" name="NGZ">    90</i>
   <i type="int" name="NGXF">   192</i>
   <i type="int" name="NGYF">    56</i>
   <i type="int" name="NGZF">   180</i>
   <i type="logical" name="ADDGRID"> T  </i>
  </separator>
  <separator name="ionic" >
   <i type="int" name="NSW">    30</i>
   <i type="int" name="IBRION">     2</i>
   <i type="int" name="ISIF">     3</i>
   <i name="PSTRESS">      0.00000000</i>
   <i name="EDIFFG">     -0.02000000</i>
   <i type="int" name="NFREE">     1</i>
   <i name="POTIM">      0.50000000</i>
   <i name="SMASS">     -3.00000000</i>
   <i name="SCALEE">      1.00000000</i>
  </separator>
  <separator name="ionic md" >
   <i name="TEBEG">      0.00010000</i>
   <i name="TEEND">      0.00010000</i>
   <i type="int" name="NBLOCK">     1</i>
   <i type="int" name="KBLOCK">    30</i>
   <i type="int" name="NPACO">   256</i>
   <i name="APACO">     16.00000000</i>
  </separator>
  <separator name="symmetry" >
   <i type="int" name="ISYM">     2</i>
   <i name="SYMPREC">      0.00001000</i>
  </separator>
  <separator name="dos" >
   <i type="logical" name="LORBIT"> F  </i>
   <v name="RWIGS">     -1.00000000     -1.00000000     -1.00000000     -1.00000000</v>
   <i type="int" name="NEDOS">   301</i>
   <i name="EMIN">     10.00000000</i>
   <i name="EMAX">    -10.00000000</i>
   <i name="EFERMI">      0.00000000</i>
  </separator>
  <separator name="writing" >
   <i type="int" name="NWRITE">     2</i>
   <i type="logical" name="LWAVE"> F  </i>
   <i type="logical" name="LCHARG"> F  </i>
   <i type="logical" name="LPARD"> F  </i>
   <i type="logical" name="LVTOT"> F  </i>
   <i type="logical" name="LVHAR"> F  </i>
   <i type="logical" name="LELF"> F  </i>
   <i type="logical" name="LOPTICS"> F  </i>
   <v name="STM">      0.00000000      0.00000000      0.00000000      0.00000000      0.00000000      0.00000000      0.00000000</v>
  </separator>
  <separator name="performance" >
   <i type="int" name="NPAR">     4</i>
   <i type="int" name="NSIM">     4</i>
   <i type="int" name="NBLK">    -1</i>
   <i type="logical" name="LPLANE"> T  </i>
   <i type="logical" name="LSCALAPACK"> T  </i>
   <i type="logical" name="LSCAAWARE"> F  </i>
   <i type="logical" name="LSCALU"> F  </i>
   <i type="logical" name="LASYNC"> F  </i>
   <i type="logical" name="LORBITALREAL"> F  </i>
  </separator>
  <separator name="miscellaneous" >
   <i type="int" name="IDIOT">     3</i>
   <i type="logical" name="LMUSIC"> F  </i>
   <v name="POMASS">     28.08500000     26.98100000     12.01100000     14.00100000</v>
   <v name="DARWINR">      0.00000000      0.00000000      0.00000000      0.00000000</v>
   <v name="DARWINV">      1.00000000      1.00000000      1.00000000      1.00000000</v>
   <i type="logical" name="LCORR"> T  </i>
  </separator>
  <i type="logical" name="GGA_COMPAT"> T  </i>
  <i type="logical" name="LBERRY"> F  </i>
  <i type="int" name="ICORELEVEL">     0</i>
  <i type="logical" name="LDAU"> F  </i>
  <i type="int" name="I_CONSTRAINED_M">     0</i>
  <separator name="electronic exchange-correlation" >
   <i type="string" name="GGA">--</i>
   <i type="int" name="VOSKOWN">     0</i>
   <i type="logical" name="LHFCALC"> F  </i>
   <i type="string" name="PRECFOCK"></i>
   <i type="logical" name="LSYMGRAD"> F  </i>
   <i type="logical" name="LHFONE"> F  </i>
   <i type="logical" name="LRHFCALC"> F  </i>
   <i type="logical" name="LTHOMAS"> F  </i>
   <i type="logical" name="LMODELHF"> F  </i>
   <i name="ENCUT4O">     -1.00000000</i>
   <i type="int" name="EXXOEP">     0</i>
   <i type="int" name="FOURORBIT">     0</i>
   <i name="AEXX">      0.00000000</i>
   <i name="HFALPHA">      0.00000000</i>
   <i name="MCALPHA">      0.00000000</i>
   <i name="ALDAX">      1.00000000</i>
   <i name="AGGAX">      1.00000000</i>
   <i name="ALDAC">      1.00000000</i>
   <i name="AGGAC">      1.00000000</i>
   <i type="int" name="NKREDX">     1</i>
   <i type="int" name="NKREDY">     1</i>
   <i type="int" name="NKREDZ">     1</i>
   <i type="logical" name="SHIFTRED"> F  </i>
   <i type="logical" name="ODDONLY"> F  </i>
   <i type="logical" name="EVENONLY"> F  </i>
   <i type="int" name="LMAXFOCK">     0</i>
   <i type="int" name="NMAXFOCKAE">     0</i>
   <i type="logical" name="LFOCKAEDFT"> F  </i>
   <i name="HFSCREEN">      0.00000000</i>
   <i name="HFSCREENC">      0.00000000</i>
   <i type="int" name="NBANDSGWLOW">     0</i>
  </separator>
  <separator name="vdW DFT" >
   <i type="logical" name="LUSE_VDW"> F  </i>
   <i name="Zab_VDW">     -0.84910000</i>
   <i name="PARAM1">      0.12340000</i>
   <i name="PARAM2">      1.00000000</i>
   <i name="PARAM3">      0.00000000</i>
  </separator>
  <separator name="model GW" >
   <i type="int" name="MODEL_GW">     0</i>
   <i name="MODEL_EPS0">      6.43981426</i>
   <i name="MODEL_ALPHA">      1.00000000</i>
  </separator>
  <separator name="linear response parameters" >
   <i type="logical" name="LEPSILON"> F  </i>
   <i type="logical" name="LRPA"> F  </i>
   <i type="logical" name="LNABLA"> F  </i>
   <i type="logical" name="LVEL"> F  </i>
   <i type="int" name="KINTER">     0</i>
   <i name="CSHIFT">      0.10000000</i>
   <i name="OMEGAMAX">     -1.00000000</i>
   <i name="DEG_THRESHOLD">      0.00200000</i>
  </separator>
  <separator name="orbital magnetization" >
   <i type="logical" name="NUCIND"> F  </i>
   <v name="MAGPOS">      0.00000000      0.00000000      0.00000000</v>
   <i type="logical" name="LNICSALL"> T  </i>
   <i type="logical" name="ORBITALMAG"> F  </i>
   <i type="logical" name="LMAGBLOCH"> F  </i>
   <i type="logical" name="LCHIMAG"> F  </i>
   <i type="logical" name="LGAUGE"> T  </i>
   <i type="int" name="MAGATOM">     0</i>
   <v name="MAGDIPOL">      0.00000000      0.00000000      0.00000000</v>
   <v name="AVECCONST">      0.00000000      0.00000000      0.00000000</v>
  </separator>
  <separator name="response functions" >
   <i type="logical" name="LADDER"> F  </i>
   <i type="logical" name="LFXC"> F  </i>
   <i type="logical" name="LHARTREE"> T  </i>
   <i type="int" name="IBSE">     0</i>
   <i type="logical" name="LTCTE"> F  </i>
   <i type="logical" name="LTETE"> F  </i>
   <i type="logical" name="LTRIPLET"> F  </i>
   <i type="logical" name="LFXCEPS"> F  </i>
   <i type="logical" name="LFXHEG"> F  </i>
   <i type="logical" name="L2ORDER"> F  </i>
   <i type="logical" name="LUSEW"> F  </i>
   <i name="ENCUTGW">     -2.00000000</i>
   <i name="ENCUTGWSOFT">     -2.00000000</i>
   <i name="ENCUTLF">     -1.00000000</i>
   <i type="int" name="LMAXMP2">    -1</i>
   <i name="SCISSOR">      0.00000000</i>
   <i type="int" name="NOMEGA">     0</i>
   <i type="int" name="NOMEGAR">     0</i>
   <i type="int" name="NBANDSGW">    -1</i>
   <i type="int" name="NBANDSO">    -1</i>
   <i type="int" name="NBANDSV">    -1</i>
   <i type="int" name="NELM">   100</i>
   <i type="int" name="DIM">     3</i>
   <i type="int" name="ANTIRES">     0</i>
   <i name="OMEGAMAX">    -30.00000000</i>
   <i name="OMEGAMIN">    -30.00000000</i>
   <i name="OMEGATL">   -200.00000000</i>
   <i type="int" name="OMEGAGRID">     0</i>
   <i name="CSHIFT">     -0.10000000</i>
   <i type="logical" name="SELFENERGY"> F  </i>
   <i type="logical" name="LSPECTRAL"> F  </i>
   <i type="logical" name="ODDONLYGW"> F  </i>
   <i type="logical" name="EVENONLYGW"> F  </i>
   <i type="int" name="NKREDLFX">     1</i>
   <i type="int" name="NKREDLFY">     1</i>
   <i type="int" name="NKREDLFZ">     1</i>
   <i type="int" name="MAXMEM">  1800</i>
   <i type="int" name="TELESCOPE">     0</i>
   <i type="int" name="TAUPAR">     1</i>
  </separator>
  <separator name="External order field" >
   <i name="OFIELD_KAPPA">      0.00000000</i>
   <v name="OFIELD_K">      0.00000000      0.00000000      0.00000000</v>
   <i name="OFIELD_Q6_NEAR">      0.00000000</i>
   <i name="OFIELD_Q6_FAR">      0.00000000</i>
   <i name="OFIELD_A">      0.00000000</i>
  </separator>
 </parameters>
 <atominfo>
  <atoms>      32 </atoms>
  <types>       4 </types>
  <array name="atoms" >
   <dimension dim="1">ion</dimension>
   <field type="string">element</field>
   <field type="int">atomtype</field>
   <set>
    <rc><c>Si</c><c>   1</c></rc>
    <rc><c>Si</c><c>   1</c></rc>
    <rc><c>Si</c><c>   1</c></rc>
    <rc><c>Si</c><c>   1</c></rc>
    <rc><c>Al</c><c>   2</c></rc>
    <rc><c>Al</c><c>   2</c></rc>
    <rc><c>Al</c><c>   2</c></rc>
    <rc><c>Al</c><c>   2</c></rc>
    <rc><c>Al</c><c>   2</c></rc>
    <rc><c>Al</c><c>   2</c></rc>
    <rc><c>Al</c><c>   2</c></rc>
    <rc><c>Al</c><c>   2</c></rc>
    <rc><c>Al</c><c>   2</c></rc>
    <rc><c>Al</c><c>   2</c></rc>
    <rc><c>Al</c><c>   2</c></rc>
    <rc><c>Al</c><c>   2</c></rc>
    <rc><c>C </c><c>   3</c></rc>
    <rc><c>C </c><c>   3</c></rc>
    <rc><c>C </c><c>   3</c></rc>
    <rc><c>C </c><c>   3</c></rc>
    <rc><c>N </c><c>   4</c></rc>
    <rc><c>N </c><c>   4</c></rc>
    <rc><c>N </c><c>   4</c></rc>
    <rc><c>N </c><c>   4</c></rc>
    <rc><c>N </c><c>   4</c></rc>
    <rc><c>N </c><c>   4</c></rc>
    <rc><c>N </c><c>   4</c></rc>
    <rc><c>N </c><c>   4</c></rc>
    <rc><c>N </c><c>   4</c></rc>
    <rc><c>N </c><c>   4</c></rc>
    <rc><c>N </c><c>   4</c></rc>
    <rc><c>N </c><c>   4</c></rc>
   </set>
  </array>
  <array name="atomtypes" >
   <dimension dim="1">type</dimension>
   <field type="int">atomspertype</field>
   <field type="string">element</field>
   <field>mass</field>
   <field>valence</field>
   <field type="string">pseudopotential</field>
   <set>
    <rc><c>   4</c><c>Si</c><c>     28.08500000</c><c>      4.00000000</c><c>  PAW_PBE Si 05Jan2001                  </c></rc>
    <rc><c>  12</c><c>Al</c><c>     26.98100000</c><c>      3.00000000</c><c>  PAW_PBE Al 04Jan2001                  </c></rc>
    <rc><c>   4</c><c>C </c><c>     12.01100000</c><c>      4.00000000</c><c>  PAW_PBE C 08Apr2002                   </c></rc>
    <rc><c>  12</c><c>N </c><c>     14.00100000</c><c>      5.00000000</c><c>  PAW_PBE N_s 07Sep2000                 </c></rc>
   </set>
  </array>
 </atominfo>
 <structure name="initialpos" >
  <crystal>
   <varray name="basis" >
    <v>      11.51429596       0.00000000       0.06726015 </v>
    <v>       0.00000000       3.13228987       0.00000000 </v>
    <v>      -5.16058549       0.00000000       9.49283171 </v>
   </varray>
   <i name="volume">    343.45676041 </i>
   <varray name="rec_basis" >
    <v>       0.08657364       0.00000000       0.04706400 </v>
    <v>       0.00000000       0.31925525       0.00000000 </v>
    <v>      -0.00061341       0.00000000       0.10500918 </v>
   </varray>
  </crystal>
  <varray name="positions" >
   <v>       0.25590578       0.50000000       0.54491304 </v>
   <v>       0.25269642       0.00000000       0.79447020 </v>
   <v>       0.75590578       0.00000000       0.54491304 </v>
   <v>       0.75269642       0.50000000       0.79447020 </v>
   <v>       0.99538043       0.00000000       0.82919420 </v>
   <v>       0.00080440       0.50000000       0.08833600 </v>
   <v>       0.99314405       0.00000000       0.32865101 </v>
   <v>       0.99381742       0.50000000       0.57717298 </v>
   <v>       0.75076702       0.00000000       0.04419641 </v>
   <v>       0.75321847       0.50000000       0.28977241 </v>
   <v>       0.49538043       0.50000000       0.82919420 </v>
   <v>       0.50080440       0.00000000       0.08833600 </v>
   <v>       0.49314405       0.50000000       0.32865101 </v>
   <v>       0.49381742       0.00000000       0.57717298 </v>
   <v>       0.25076702       0.50000000       0.04419641 </v>
   <v>       0.25321847       0.00000000       0.28977241 </v>
   <v>       0.68856253       0.00000000       0.17864412 </v>
   <v>       0.93219922       0.00000000       0.63065174 </v>
   <v>       0.18856253       0.50000000       0.17864412 </v>
   <v>       0.43219922       0.50000000       0.63065174 </v>
   <v>       0.18853983       0.00000000       0.91293995 </v>
   <v>       0.18944076       0.00000000       0.44568678 </v>
   <v>       0.19823027       0.50000000       0.68419241 </v>
   <v>       0.93532067       0.00000000       0.13252653 </v>
   <v>       0.94535036       0.50000000       0.38674607 </v>
   <v>       0.42662238       0.00000000       0.88190613 </v>
   <v>       0.68853983       0.50000000       0.91293995 </v>
   <v>       0.68944076       0.50000000       0.44568678 </v>
   <v>       0.69823027       0.00000000       0.68419241 </v>
   <v>       0.43532067       0.50000000       0.13252653 </v>
   <v>       0.44535036       0.00000000       0.38674607 </v>
   <v>       0.92662238       0.50000000       0.88190613 </v>
  </varray>
 </structure>
 <calculation>
  <scstep>
   <time name="dav">    1.88    1.88</time>
   <time name="total">    1.99    2.00</time>
   <energy>
    <i name="alphaZ">    103.68773660 </i>
    <i name="ewald">  -4561.06288214 </i>
    <i name="hartreedc">   -894.06315764 </i>
    <i name="XCdc">    -53.28886316 </i>
    <i name="pawpsdc">   4040.24605637 </i>
    <i name="pawaedc">  -3602.91991744 </i>
    <i name="eentropy">     -0.01850207 </i>
    <i name="bandstr">    954.58419220 </i>
    <i name="atom">   4817.89457624 </i>
    <i name="e_fr_energy">    805.05923896 </i>
    <i name="e_wo_entrp">    805.07774104 </i>
    <i name="e_0_energy">    805.06849000 </i>
   </energy>
  </scstep>
  <scstep>
   <time name="dav">    2.07    2.07</time>
   <time name="total">    2.07    2.08</time>
   <energy>
    <i name="e_fr_energy">   -185.90973950 </i>
    <i name="e_wo_entrp">   -185.90973950 </i>
    <i name="e_0_energy">   -185.90973950 </i>
   </energy>
  </scstep>
  <scstep>
   <time name="dav">    2.23    2.23</time>
   <time name="total">    2.23    2.25</time>
   <energy>
    <i name="e_fr_energy">   -269.54845990 </i>
    <i name="e_wo_entrp">   -269.54845990 </i>
    <i name="e_0_energy">   -269.54845990 </i>
   </energy>
  </scstep>
  <scstep>
   <time name="dav">    2.13    2.14</time>
   <time name="total">    2.14    2.15</time>
   <energy>
    <i name="e_fr_energy">   -271.78848191 </i>
    <i name="e_wo_entrp">   -271.78848191 </i>
    <i name="e_0_energy">   -271.78848191 </i>
   </energy>
  </scstep>
  <scstep>
   <time name="dav">    2.12    2.12</time>
   <time name="total">    2.32    2.34</time>
   <energy>
    <i name="e_fr_energy">   -271.85515552 </i>
    <i name="e_wo_entrp">   -271.85515552 </i>
    <i name="e_0_energy">   -271.85515552 </i>
   </energy>
  </scstep>
  <scstep>
   <time name="diag">    0.39    0.39</time>
   <time name="diis">    1.48    1.48</time>
   <time name="orth">    0.06    0.06</time>
   <time name="total">    2.23    2.24</time>
   <energy>
    <i name="e_fr_energy">   -232.61674943 </i>
    <i name="e_wo_entrp">   -232.61674943 </i>
    <i name="e_0_energy">   -232.61674943 </i>
   </energy>
  </scstep>
  <scstep>
   <time name="diag">    0.33    0.33</time>
   <time name="diis">    1.45    1.45</time>
   <time name="orth">    0.06    0.06</time>
   <time name="total">    2.14    2.15</time>
   <energy>
    <i name="e_fr_energy">   -232.62555960 </i>
    <i name="e_wo_entrp">   -232.62555960 </i>
    <i name="e_0_energy">   -232.62555960 </i>
   </energy>
  </scstep>
  <scstep>
   <time name="diag">    0.33    0.33</time>
   <time name="diis">    1.47    1.47</time>
   <time name="orth">    0.06    0.06</time>
   <time name="total">    2.16    2.17</time>
   <energy>
    <i name="e_fr_energy">   -237.56201115 </i>
    <i name="e_wo_entrp">   -237.56201115 </i>
    <i name="e_0_energy">   -237.56201115 </i>
   </energy>
  </scstep>
  <scstep>
   <time name="diag">    0.32    0.32</time>
   <time name="diis">    1.47    1.47</time>
   <time name="orth">    0.06    0.06</time>
   <time name="total">    2.16    2.18</time>
   <energy>
    <i name="e_fr_energy">   -232.22262902 </i>
    <i name="e_wo_entrp">   -232.22262902 </i>
    <i name="e_0_energy">   -232.22262902 </i>
   </energy>
  </scstep>
  <scstep>
   <time name="diag">    0.32    0.32</time>
   <time name="diis">    1.41    1.41</time>
   <time name="orth">    0.06    0.06</time>
   <time name="total">    2.09    2.11</time>
   <energy>
    <i name="e_fr_energy">   -232.17365760 </i>
    <i name="e_wo_entrp">   -232.17365760 </i>
    <i name="e_0_energy">   -232.17365760 </i>
   </energy>
  </scstep>
  <scstep>
   <time name="diag">    0.32    0.32</time>
   <time name="diis">    1.47    1.48</time>
   <time name="orth">    0.06    0.06</time>
   <time name="total">    2.16    2.17</time>
   <energy>
    <i name="e_fr_energy">   -232.19203124 </i>
    <i name="e_wo_entrp">   -232.19203124 </i>
    <i name="e_0_energy">   -232.19203124 </i>
   </energy>
  </scstep>
  <scstep>
   <time name="diag">    0.32    0.33</time>
   <time name="diis">    1.44    1.44</time>
   <time name="orth">    0.06    0.06</time>
   <time name="total">    2.13    2.15</time>
   <energy>
    <i name="e_fr_energy">   -232.19191645 </i>
    <i name="e_wo_entrp">   -232.19191645 </i>
    <i name="e_0_energy">   -232.19191645 </i>
   </energy>
  </scstep>
  <scstep>
   <time name="diag">    0.32    0.32</time>
   <time name="diis">    1.44    1.44</time>
   <time name="orth">    0.06    0.06</time>
   <time name="total">    2.13    2.14</time>
   <energy>
    <i name="e_fr_energy">   -232.19251020 </i>
    <i name="e_wo_entrp">   -232.19251020 </i>
    <i name="e_0_energy">   -232.19251020 </i>
   </energy>
  </scstep>
  <scstep>
   <time name="diag">    0.33    0.33</time>
   <time name="diis">    1.48    1.48</time>
   <time name="orth">    0.06    0.06</time>
   <time name="total">    2.16    2.18</time>
   <energy>
    <i name="e_fr_energy">   -232.19139658 </i>
    <i name="e_wo_entrp">   -232.19139658 </i>
    <i name="e_0_energy">   -232.19139658 </i>
   </energy>
  </scstep>
  <scstep>
   <time name="diag">    0.33    0.33</time>
   <time name="diis">    1.46    1.46</time>
   <time name="orth">    0.06    0.06</time>
   <time name="total">    2.16    2.17</time>
   <energy>
    <i name="e_fr_energy">   -232.19142253 </i>
    <i name="e_wo_entrp">   -232.19142253 </i>
    <i name="e_0_energy">   -232.19142253 </i>
   </energy>
  </scstep>
  <scstep>
   <time name="diag">    0.33    0.33</time>
   <time name="diis">    1.41    1.41</time>
   <time name="orth">    0.06    0.06</time>
   <time name="total">    2.11    2.12</time>
   <energy>
    <i name="e_fr_energy">   -232.19142704 </i>
    <i name="e_wo_entrp">   -232.19142704 </i>
    <i name="e_0_energy">   -232.19142704 </i>
   </energy>
  </scstep>
  <scstep>
   <time name="diag">    0.33    0.33</time>
   <time name="diis">    1.05    1.05</time>
   <time name="orth">    0.06    0.06</time>
   <time name="total">    1.74    1.75</time>
   <energy>
    <i name="e_fr_energy">   -232.19142599 </i>
    <i name="e_wo_entrp">   -232.19142599 </i>
    <i name="e_0_energy">   -232.19142599 </i>
   </energy>
  </scstep>
  <scstep>
   <time name="diag">    0.32    0.32</time>
   <time name="diis">    0.97    0.98</time>
   <time name="orth">    0.06    0.06</time>
   <time name="total">    1.46    1.48</time>
   <energy>
    <i name="alphaZ">    103.68773660 </i>
    <i name="ewald">  -4561.06288214 </i>
    <i name="hartreedc">  -1132.43586484 </i>
    <i name="XCdc">    -32.53661628 </i>
    <i name="pawpsdc">  22046.45683230 </i>
    <i name="pawaedc"> -21620.46516942 </i>
    <i name="eentropy">      0.00000000 </i>
    <i name="bandstr">    146.26996143 </i>
    <i name="atom">   4817.89457624 </i>
    <i name="e_fr_energy">   -232.19142612 </i>
    <i name="e_wo_entrp">   -232.19142612 </i>
    <i name="e_0_energy">   -232.19142612 </i>
   </energy>
  </scstep>
  <structure>
   <crystal>
    <varray name="basis" >
     <v>      11.51429596       0.00000000       0.06726015 </v>
     <v>       0.00000000       3.13228987       0.00000000 </v>
     <v>      -5.16058549       0.00000000       9.49283171 </v>
    </varray>
    <i name="volume">    343.45676041 </i>
    <varray name="rec_basis" >
     <v>       0.08657364       0.00000000       0.04706400 </v>
     <v>       0.00000000       0.31925525       0.00000000 </v>
     <v>      -0.00061341       0.00000000       0.10500918 </v>
    </varray>
   </crystal>
   <varray name="positions" >
    <v>       0.25590578       0.50000000       0.54491304 </v>
    <v>       0.25269642       0.00000000       0.79447020 </v>
    <v>       0.75590578       0.00000000       0.54491304 </v>
    <v>       0.75269642       0.50000000       0.79447020 </v>
    <v>       0.99538043       0.00000000       0.82919420 </v>
    <v>       0.00080440       0.50000000       0.08833600 </v>
    <v>       0.99314405       0.00000000       0.32865101 </v>
    <v>       0.99381742       0.50000000       0.57717298 </v>
    <v>       0.75076702       0.00000000       0.04419641 </v>
    <v>       0.75321847       0.50000000       0.28977241 </v>
    <v>       0.49538043       0.50000000       0.82919420 </v>
    <v>       0.50080440       0.00000000       0.08833600 </v>
    <v>       0.49314405       0.50000000       0.32865101 </v>
    <v>       0.49381742       0.00000000       0.57717298 </v>
    <v>       0.25076702       0.50000000       0.04419641 </v>
    <v>       0.25321847       0.00000000       0.28977241 </v>
    <v>       0.68856253       0.00000000       0.17864412 </v>
    <v>       0.93219922       0.00000000       0.63065174 </v>
    <v>       0.18856253       0.50000000       0.17864412 </v>
    <v>       0.43219922       0.50000000       0.63065174 </v>
    <v>       0.18853983       0.00000000       0.91293995 </v>
    <v>       0.18944076       0.00000000       0.44568678 </v>
    <v>       0.19823027       0.50000000       0.68419241 </v>
    <v>       0.93532067       0.00000000       0.13252653 </v>
    <v>       0.94535036       0.50000000       0.38674607 </v>
    <v>       0.42662238       0.00000000       0.88190613 </v>
    <v>       0.68853983       0.50000000       0.91293995 </v>
    <v>       0.68944076       0.50000000       0.44568678 </v>
    <v>       0.69823027       0.00000000       0.68419241 </v>
    <v>       0.43532067       0.50000000       0.13252653 </v>
    <v>       0.44535036       0.00000000       0.38674607 </v>
    <v>       0.92662238       0.50000000       0.88190613 </v>
   </varray>
  </structure>
  <varray name="forces" >
   <v>       0.00256963       0.00000000      -0.00370019 </v>
   <v>      -0.00279672       0.00000000      -0.01130076 </v>
   <v>       0.00256963       0.00000000      -0.00370019 </v>
   <v>      -0.00279672       0.00000000      -0.01130076 </v>
   <v>      -0.00126662       0.00000000       0.01027113 </v>
   <v>       0.00326422       0.00000000      -0.00182764 </v>
   <v>       0.01284630       0.00000000      -0.00017196 </v>
   <v>       0.00051567       0.00000000       0.00006140 </v>
   <v>      -0.01189796       0.00000000       0.00043962 </v>
   <v>      -0.00642954       0.00000000       0.00080399 </v>
   <v>      -0.00126662       0.00000000       0.01027113 </v>
   <v>       0.00326422       0.00000000      -0.00182764 </v>
   <v>       0.01284630       0.00000000      -0.00017196 </v>
   <v>       0.00051567       0.00000000       0.00006140 </v>
   <v>      -0.01189796       0.00000000       0.00043962 </v>
   <v>      -0.00642954       0.00000000       0.00080399 </v>
   <v>      -0.00630982       0.00000000       0.01088827 </v>
   <v>       0.00836987       0.00000000       0.00488063 </v>
   <v>      -0.00630982       0.00000000       0.01088827 </v>
   <v>       0.00836987       0.00000000       0.00488063 </v>
   <v>      -0.00167514       0.00000000       0.00012037 </v>
   <v>       0.00415982       0.00000000      -0.00139795 </v>
   <v>      -0.00301248       0.00000000      -0.00645689 </v>
   <v>      -0.00235888       0.00000000      -0.00169272 </v>
   <v>       0.00048994       0.00000000      -0.00636443 </v>
   <v>       0.00353171       0.00000000       0.00544715 </v>
   <v>      -0.00167514       0.00000000       0.00012037 </v>
   <v>       0.00415982       0.00000000      -0.00139795 </v>
   <v>      -0.00301248       0.00000000      -0.00645689 </v>
   <v>      -0.00235888       0.00000000      -0.00169272 </v>
   <v>       0.00048994       0.00000000      -0.00636443 </v>
   <v>       0.00353171       0.00000000       0.00544715 </v>
  </varray>
  <varray name="stress" >
   <v>       0.65041902       0.00000000       0.11209145 </v>
   <v>       0.00000000      -0.07609445       0.00000000 </v>
   <v>       0.11209097       0.00000000      -0.11053748 </v>
  </varray>
  <energy>
   <i name="e_fr_energy">   -232.19142612 </i>
   <i name="e_wo_entrp">   -232.19142612 </i>
   <i name="e_0_energy">      0.00000000 </i>
  </energy>
  <time name="totalsc">   41.43   41.72</time>
  <eigenvalues>
   <array>
    <dimension dim="1">band</dimension>
    <dimension dim="2">kpoint</dimension>
    <dimension dim="3">spin</dimension>
    <field>eigene</field>
    <field>occ</field>
    <set>
     <set comment="spin 1">
      <set comment="kpoint 1">
       <r>  -10.0962    1.0000 </r>
       <r>   -9.9685    1.0000 </r>
       <r>   -8.7096    1.0000 </r>
       <r>   -8.6016    1.0000 </r>
       <r>   -8.0746    1.0000 </r>
       <r>   -8.0448    1.0000 </r>
       <r>   -7.7545    1.0000 </r>
       <r>   -7.5234    1.0000 </r>
       <r>   -7.2063    1.0000 </r>
       <r>   -7.0567    1.0000 </r>
       <r>   -6.5933    1.0000 </r>
       <r>   -6.4985    1.0000 </r>
       <r>   -3.7946    1.0000 </r>
       <r>   -3.7003    1.0000 </r>
       <r>   -2.7465    1.0000 </r>
       <r>   -2.5282    1.0000 </r>
       <r>   -0.8898    1.0000 </r>
       <r>   -0.3641    1.0000 </r>
       <r>   -0.2986    1.0000 </r>
       <r>    0.7793    1.0000 </r>
       <r>    0.7868    1.0000 </r>
       <r>    1.2807    1.0000 </r>
       <r>    1.4767    1.0000 </r>
       <r>    1.7767    1.0000 </r>
       <r>    1.8611    1.0000 </r>
       <r>    1.9680    1.0000 </r>
       <r>    2.4327    1.0000 </r>
       <r>    2.4805    1.0000 </r>
       <r>    2.6234    1.0000 </r>
       <r>    2.6798    1.0000 </r>
       <r>    2.8541    1.0000 </r>
       <r>    2.9401    1.0000 </r>
       <r>    3.2384    1.0000 </r>
       <r>    3.3583    1.0000 </r>
       <r>    3.4427    1.0000 </r>
       <r>    3.4568    1.0000 </r>
       <r>    3.4914    1.0000 </r>
       <r>    3.8654    1.0000 </r>
       <r>    4.0080    1.0000 </r>
       <r>    4.1263    1.0000 </r>
       <r>    4.3224    1.0000 </r>
       <r>    4.3821    1.0000 </r>
       <r>    4.6265    1.0000 </r>
       <r>    4.7967    1.0000 </r>
       <r>    4.8785    1.0000 </r>
       <r>    4.9294    1.0000 </r>
       <r>    5.2280    1.0000 </r>
       <r>    5.3307    1.0000 </r>
       <r>    5.3372    1.0000 </r>
       <r>    5.3496    1.0000 </r>
       <r>    5.6352    1.0000 </r>
       <r>    5.8161    1.0000 </r>
       <r>    5.8224    1.0000 </r>
       <r>    5.9671    1.0000 </r>
       <r>    6.1210    1.0000 </r>
       <r>    6.4500    1.0000 </r>
       <r>    6.5852    1.0000 </r>
       <r>    6.6769    1.0000 </r>
       <r>    6.7455    1.0000 </r>
       <r>    7.3738    1.0000 </r>
       <r>    7.6599    1.0000 </r>
       <r>    7.6601    1.0000 </r>
       <r>    8.4426    1.0000 </r>
       <r>    8.5043    1.0000 </r>
       <r>    9.7869    0.0000 </r>
       <r>    9.9425    0.0000 </r>
       <r>    9.9805    0.0000 </r>
       <r>   10.7535    0.0000 </r>
       <r>   11.1702    0.0000 </r>
       <r>   11.6595    0.0000 </r>
       <r>   11.6910    0.0000 </r>
       <r>   11.9656    0.0000 </r>
       <r>   12.2021    0.0000 </r>
       <r>   12.2399    0.0000 </r>
       <r>   12.8003    0.0000 </r>
       <r>   12.9535    0.0000 </r>
       <r>   13.2592    0.0000 </r>
       <r>   13.3747    0.0000 </r>
       <r>   13.7315    0.0000 </r>
       <r>   13.8805    0.0000 </r>
       <r>   14.1642    0.0000 </r>
       <r>   14.3358    0.0000 </r>
       <r>   14.3902    0.0000 </r>
       <r>   14.5107    0.0000 </r>
      </set>
      <set comment="kpoint 2">
       <r>  -10.0350    1.0000 </r>
       <r>  -10.0350    1.0000 </r>
       <r>   -8.6708    1.0000 </r>
       <r>   -8.6708    1.0000 </r>
       <r>   -8.0082    1.0000 </r>
       <r>   -8.0082    1.0000 </r>
       <r>   -7.6812    1.0000 </r>
       <r>   -7.6812    1.0000 </r>
       <r>   -7.1247    1.0000 </r>
       <r>   -7.1247    1.0000 </r>
       <r>   -6.5480    1.0000 </r>
       <r>   -6.5480    1.0000 </r>
       <r>   -3.7560    1.0000 </r>
       <r>   -3.7560    1.0000 </r>
       <r>   -2.6310    1.0000 </r>
       <r>   -2.6310    1.0000 </r>
       <r>   -0.6707    1.0000 </r>
       <r>   -0.6707    1.0000 </r>
       <r>    0.2771    1.0000 </r>
       <r>    0.2771    1.0000 </r>
       <r>    1.0869    1.0000 </r>
       <r>    1.0869    1.0000 </r>
       <r>    1.4173    1.0000 </r>
       <r>    1.4173    1.0000 </r>
       <r>    1.9640    1.0000 </r>
       <r>    1.9640    1.0000 </r>
       <r>    2.4562    1.0000 </r>
       <r>    2.4562    1.0000 </r>
       <r>    2.5002    1.0000 </r>
       <r>    2.5002    1.0000 </r>
       <r>    2.7790    1.0000 </r>
       <r>    2.7790    1.0000 </r>
       <r>    3.4494    1.0000 </r>
       <r>    3.4494    1.0000 </r>
       <r>    3.5846    1.0000 </r>
       <r>    3.5846    1.0000 </r>
       <r>    3.8428    1.0000 </r>
       <r>    3.8428    1.0000 </r>
       <r>    4.0981    1.0000 </r>
       <r>    4.0981    1.0000 </r>
       <r>    4.6828    1.0000 </r>
       <r>    4.6828    1.0000 </r>
       <r>    4.7180    1.0000 </r>
       <r>    4.7180    1.0000 </r>
       <r>    4.8536    1.0000 </r>
       <r>    4.8536    1.0000 </r>
       <r>    5.1067    1.0000 </r>
       <r>    5.1067    1.0000 </r>
       <r>    5.3403    1.0000 </r>
       <r>    5.3403    1.0000 </r>
       <r>    5.5772    1.0000 </r>
       <r>    5.5772    1.0000 </r>
       <r>    5.8201    1.0000 </r>
       <r>    5.8201    1.0000 </r>
       <r>    6.4164    1.0000 </r>
       <r>    6.4164    1.0000 </r>
       <r>    6.6084    1.0000 </r>
       <r>    6.6084    1.0000 </r>
       <r>    6.8660    1.0000 </r>
       <r>    6.8660    1.0000 </r>
       <r>    7.6587    1.0000 </r>
       <r>    7.6587    1.0000 </r>
       <r>    8.4749    1.0000 </r>
       <r>    8.4749    1.0000 </r>
       <r>    9.8028    0.0000 </r>
       <r>    9.8028    0.0000 </r>
       <r>   10.4943    0.0000 </r>
       <r>   10.4943    0.0000 </r>
       <r>   11.3976    0.0000 </r>
       <r>   11.3976    0.0000 </r>
       <r>   11.7071    0.0000 </r>
       <r>   11.7071    0.0000 </r>
       <r>   12.4388    0.0000 </r>
       <r>   12.4388    0.0000 </r>
       <r>   12.8565    0.0000 </r>
       <r>   12.8567    0.0000 </r>
       <r>   13.2826    0.0000 </r>
       <r>   13.2830    0.0000 </r>
       <r>   13.8378    0.0000 </r>
       <r>   13.8403    0.0000 </r>
       <r>   14.2038    0.0000 </r>
       <r>   14.2165    0.0000 </r>
       <r>   14.3793    0.0000 </r>
       <r>   14.4354    0.0000 </r>
      </set>
      <set comment="kpoint 3">
       <r>   -9.8355    1.0000 </r>
       <r>   -9.7156    1.0000 </r>
       <r>   -8.4944    1.0000 </r>
       <r>   -8.3864    1.0000 </r>
       <r>   -7.8985    1.0000 </r>
       <r>   -7.8963    1.0000 </r>
       <r>   -7.6470    1.0000 </r>
       <r>   -7.4015    1.0000 </r>
       <r>   -7.0419    1.0000 </r>
       <r>   -6.9072    1.0000 </r>
       <r>   -6.4695    1.0000 </r>
       <r>   -6.3858    1.0000 </r>
       <r>   -3.6224    1.0000 </r>
       <r>   -3.4995    1.0000 </r>
       <r>   -2.5060    1.0000 </r>
       <r>   -2.3000    1.0000 </r>
       <r>   -0.7552    1.0000 </r>
       <r>   -0.2709    1.0000 </r>
       <r>   -0.0958    1.0000 </r>
       <r>    0.6411    1.0000 </r>
       <r>    0.9893    1.0000 </r>
       <r>    1.0865    1.0000 </r>
       <r>    1.1477    1.0000 </r>
       <r>    1.5252    1.0000 </r>
       <r>    1.5566    1.0000 </r>
       <r>    1.8146    1.0000 </r>
       <r>    1.9800    1.0000 </r>
       <r>    2.1769    1.0000 </r>
       <r>    2.3434    1.0000 </r>
       <r>    2.4307    1.0000 </r>
       <r>    2.7231    1.0000 </r>
       <r>    2.8082    1.0000 </r>
       <r>    2.9975    1.0000 </r>
       <r>    3.1485    1.0000 </r>
       <r>    3.2005    1.0000 </r>
       <r>    3.2034    1.0000 </r>
       <r>    3.4942    1.0000 </r>
       <r>    3.6965    1.0000 </r>
       <r>    3.7244    1.0000 </r>
       <r>    3.8995    1.0000 </r>
       <r>    3.9219    1.0000 </r>
       <r>    4.0405    1.0000 </r>
       <r>    4.2351    1.0000 </r>
       <r>    4.2566    1.0000 </r>
       <r>    4.5429    1.0000 </r>
       <r>    4.6899    1.0000 </r>
       <r>    4.6983    1.0000 </r>
       <r>    4.9280    1.0000 </r>
       <r>    5.0497    1.0000 </r>
       <r>    5.1424    1.0000 </r>
       <r>    5.1505    1.0000 </r>
       <r>    5.4859    1.0000 </r>
       <r>    5.5171    1.0000 </r>
       <r>    6.0213    1.0000 </r>
       <r>    6.1950    1.0000 </r>
       <r>    6.3864    1.0000 </r>
       <r>    6.3956    1.0000 </r>
       <r>    6.4415    1.0000 </r>
       <r>    6.6892    1.0000 </r>
       <r>    6.6922    1.0000 </r>
       <r>    6.7470    1.0000 </r>
       <r>    7.1553    1.0000 </r>
       <r>    7.3629    1.0000 </r>
       <r>    7.5171    1.0000 </r>
       <r>   10.9518    0.0000 </r>
       <r>   11.1042    0.0000 </r>
       <r>   11.1624    0.0000 </r>
       <r>   11.6637    0.0000 </r>
       <r>   12.0006    0.0000 </r>
       <r>   12.1079    0.0000 </r>
       <r>   12.4389    0.0000 </r>
       <r>   12.4487    0.0000 </r>
       <r>   12.6786    0.0000 </r>
       <r>   12.7080    0.0000 </r>
       <r>   12.8381    0.0000 </r>
       <r>   13.1021    0.0000 </r>
       <r>   13.1522    0.0000 </r>
       <r>   13.4114    0.0000 </r>
       <r>   13.5125    0.0000 </r>
       <r>   13.6065    0.0000 </r>
       <r>   13.9199    0.0000 </r>
       <r>   14.0516    0.0000 </r>
       <r>   14.1682    0.0000 </r>
       <r>   14.5539    0.0000 </r>
      </set>
      <set comment="kpoint 4">
       <r>   -9.7778    1.0000 </r>
       <r>   -9.7778    1.0000 </r>
       <r>   -8.4553    1.0000 </r>
       <r>   -8.4553    1.0000 </r>
       <r>   -7.8568    1.0000 </r>
       <r>   -7.8568    1.0000 </r>
       <r>   -7.5542    1.0000 </r>
       <r>   -7.5542    1.0000 </r>
       <r>   -6.9680    1.0000 </r>
       <r>   -6.9680    1.0000 </r>
       <r>   -6.4305    1.0000 </r>
       <r>   -6.4305    1.0000 </r>
       <r>   -3.5696    1.0000 </r>
       <r>   -3.5696    1.0000 </r>
       <r>   -2.4031    1.0000 </r>
       <r>   -2.4031    1.0000 </r>
       <r>   -0.5303    1.0000 </r>
       <r>   -0.5303    1.0000 </r>
       <r>    0.3892    1.0000 </r>
       <r>    0.3892    1.0000 </r>
       <r>    1.0488    1.0000 </r>
       <r>    1.0488    1.0000 </r>
       <r>    1.2094    1.0000 </r>
       <r>    1.2094    1.0000 </r>
       <r>    1.7695    1.0000 </r>
       <r>    1.7695    1.0000 </r>
       <r>    1.8146    1.0000 </r>
       <r>    1.8146    1.0000 </r>
       <r>    2.3628    1.0000 </r>
       <r>    2.3628    1.0000 </r>
       <r>    2.7763    1.0000 </r>
       <r>    2.7763    1.0000 </r>
       <r>    2.8901    1.0000 </r>
       <r>    2.8901    1.0000 </r>
       <r>    3.3856    1.0000 </r>
       <r>    3.3856    1.0000 </r>
       <r>    3.5955    1.0000 </r>
       <r>    3.5955    1.0000 </r>
       <r>    3.9593    1.0000 </r>
       <r>    3.9593    1.0000 </r>
       <r>    4.2895    1.0000 </r>
       <r>    4.2895    1.0000 </r>
       <r>    4.3413    1.0000 </r>
       <r>    4.3413    1.0000 </r>
       <r>    4.6386    1.0000 </r>
       <r>    4.6386    1.0000 </r>
       <r>    4.8179    1.0000 </r>
       <r>    4.8179    1.0000 </r>
       <r>    5.0169    1.0000 </r>
       <r>    5.0169    1.0000 </r>
       <r>    5.1811    1.0000 </r>
       <r>    5.1811    1.0000 </r>
       <r>    5.5988    1.0000 </r>
       <r>    5.5988    1.0000 </r>
       <r>    6.3643    1.0000 </r>
       <r>    6.3643    1.0000 </r>
       <r>    6.4771    1.0000 </r>
       <r>    6.4771    1.0000 </r>
       <r>    6.6377    1.0000 </r>
       <r>    6.6377    1.0000 </r>
       <r>    6.9196    1.0000 </r>
       <r>    6.9196    1.0000 </r>
       <r>    7.3264    1.0000 </r>
       <r>    7.3264    1.0000 </r>
       <r>   10.9844    0.0000 </r>
       <r>   10.9844    0.0000 </r>
       <r>   11.5504    0.0000 </r>
       <r>   11.5505    0.0000 </r>
       <r>   12.1842    0.0000 </r>
       <r>   12.1843    0.0000 </r>
       <r>   12.3860    0.0000 </r>
       <r>   12.3862    0.0000 </r>
       <r>   12.6136    0.0000 </r>
       <r>   12.6138    0.0000 </r>
       <r>   12.9123    0.0000 </r>
       <r>   12.9131    0.0000 </r>
       <r>   13.4251    0.0000 </r>
       <r>   13.4283    0.0000 </r>
       <r>   13.5763    0.0000 </r>
       <r>   13.5801    0.0000 </r>
       <r>   14.0878    0.0000 </r>
       <r>   14.1239    0.0000 </r>
       <r>   14.3798    0.0000 </r>
       <r>   14.4531    0.0000 </r>
      </set>
      <set comment="kpoint 5">
       <r>   -9.1348    1.0000 </r>
       <r>   -9.0453    1.0000 </r>
       <r>   -8.0305    1.0000 </r>
       <r>   -7.9215    1.0000 </r>
       <r>   -7.6266    1.0000 </r>
       <r>   -7.5308    1.0000 </r>
       <r>   -7.4696    1.0000 </r>
       <r>   -7.1610    1.0000 </r>
       <r>   -6.6268    1.0000 </r>
       <r>   -6.5472    1.0000 </r>
       <r>   -6.2292    1.0000 </r>
       <r>   -6.1911    1.0000 </r>
       <r>   -3.3088    1.0000 </r>
       <r>   -3.1202    1.0000 </r>
       <r>   -1.9054    1.0000 </r>
       <r>   -1.8228    1.0000 </r>
       <r>   -1.0391    1.0000 </r>
       <r>   -0.8606    1.0000 </r>
       <r>   -0.3976    1.0000 </r>
       <r>   -0.3873    1.0000 </r>
       <r>    0.6707    1.0000 </r>
       <r>    0.7818    1.0000 </r>
       <r>    1.0654    1.0000 </r>
       <r>    1.3787    1.0000 </r>
       <r>    1.5053    1.0000 </r>
       <r>    1.5536    1.0000 </r>
       <r>    1.6905    1.0000 </r>
       <r>    1.8045    1.0000 </r>
       <r>    1.9300    1.0000 </r>
       <r>    2.0986    1.0000 </r>
       <r>    2.1460    1.0000 </r>
       <r>    2.3557    1.0000 </r>
       <r>    2.5791    1.0000 </r>
       <r>    2.7160    1.0000 </r>
       <r>    2.8509    1.0000 </r>
       <r>    2.8971    1.0000 </r>
       <r>    3.1051    1.0000 </r>
       <r>    3.1160    1.0000 </r>
       <r>    3.3134    1.0000 </r>
       <r>    3.3471    1.0000 </r>
       <r>    3.6156    1.0000 </r>
       <r>    3.6535    1.0000 </r>
       <r>    3.6653    1.0000 </r>
       <r>    3.9123    1.0000 </r>
       <r>    4.1287    1.0000 </r>
       <r>    4.3594    1.0000 </r>
       <r>    4.4301    1.0000 </r>
       <r>    4.4731    1.0000 </r>
       <r>    4.7254    1.0000 </r>
       <r>    4.8660    1.0000 </r>
       <r>    5.0509    1.0000 </r>
       <r>    5.1172    1.0000 </r>
       <r>    5.3124    1.0000 </r>
       <r>    5.4867    1.0000 </r>
       <r>    5.6504    1.0000 </r>
       <r>    5.7006    1.0000 </r>
       <r>    5.9152    1.0000 </r>
       <r>    5.9934    1.0000 </r>
       <r>    6.1141    1.0000 </r>
       <r>    6.3002    1.0000 </r>
       <r>    6.3575    1.0000 </r>
       <r>    6.5128    1.0000 </r>
       <r>    6.6280    1.0000 </r>
       <r>    7.2753    1.0000 </r>
       <r>   10.7165    0.0000 </r>
       <r>   11.0714    0.0000 </r>
       <r>   11.2310    0.0000 </r>
       <r>   11.4837    0.0000 </r>
       <r>   11.5613    0.0000 </r>
       <r>   12.2741    0.0000 </r>
       <r>   12.3438    0.0000 </r>
       <r>   12.4533    0.0000 </r>
       <r>   12.5072    0.0000 </r>
       <r>   12.7920    0.0000 </r>
       <r>   12.9433    0.0000 </r>
       <r>   13.0900    0.0000 </r>
       <r>   13.1241    0.0000 </r>
       <r>   13.2460    0.0000 </r>
       <r>   13.3892    0.0000 </r>
       <r>   13.6593    0.0000 </r>
       <r>   13.8364    0.0000 </r>
       <r>   13.8866    0.0000 </r>
       <r>   14.0995    0.0000 </r>
       <r>   14.6084    0.0000 </r>
      </set>
      <set comment="kpoint 6">
       <r>   -9.0912    1.0000 </r>
       <r>   -9.0912    1.0000 </r>
       <r>   -7.9890    1.0000 </r>
       <r>   -7.9890    1.0000 </r>
       <r>   -7.5890    1.0000 </r>
       <r>   -7.5890    1.0000 </r>
       <r>   -7.2930    1.0000 </r>
       <r>   -7.2930    1.0000 </r>
       <r>   -6.5825    1.0000 </r>
       <r>   -6.5825    1.0000 </r>
       <r>   -6.2129    1.0000 </r>
       <r>   -6.2129    1.0000 </r>
       <r>   -3.2233    1.0000 </r>
       <r>   -3.2233    1.0000 </r>
       <r>   -1.8705    1.0000 </r>
       <r>   -1.8705    1.0000 </r>
       <r>   -0.9390    1.0000 </r>
       <r>   -0.9390    1.0000 </r>
       <r>   -0.3477    1.0000 </r>
       <r>   -0.3477    1.0000 </r>
       <r>    0.7555    1.0000 </r>
       <r>    0.7555    1.0000 </r>
       <r>    1.1830    1.0000 </r>
       <r>    1.1830    1.0000 </r>
       <r>    1.4058    1.0000 </r>
       <r>    1.4058    1.0000 </r>
       <r>    1.8045    1.0000 </r>
       <r>    1.8045    1.0000 </r>
       <r>    2.0063    1.0000 </r>
       <r>    2.0063    1.0000 </r>
       <r>    2.3170    1.0000 </r>
       <r>    2.3170    1.0000 </r>
       <r>    2.4621    1.0000 </r>
       <r>    2.4621    1.0000 </r>
       <r>    2.8779    1.0000 </r>
       <r>    2.8779    1.0000 </r>
       <r>    3.0649    1.0000 </r>
       <r>    3.0649    1.0000 </r>
       <r>    3.4806    1.0000 </r>
       <r>    3.4806    1.0000 </r>
       <r>    3.5303    1.0000 </r>
       <r>    3.5303    1.0000 </r>
       <r>    3.9899    1.0000 </r>
       <r>    3.9899    1.0000 </r>
       <r>    4.3586    1.0000 </r>
       <r>    4.3586    1.0000 </r>
       <r>    4.4711    1.0000 </r>
       <r>    4.4711    1.0000 </r>
       <r>    4.8652    1.0000 </r>
       <r>    4.8652    1.0000 </r>
       <r>    5.0796    1.0000 </r>
       <r>    5.0796    1.0000 </r>
       <r>    5.2359    1.0000 </r>
       <r>    5.2359    1.0000 </r>
       <r>    5.6364    1.0000 </r>
       <r>    5.6364    1.0000 </r>
       <r>    5.8395    1.0000 </r>
       <r>    5.8395    1.0000 </r>
       <r>    6.2001    1.0000 </r>
       <r>    6.2001    1.0000 </r>
       <r>    6.4661    1.0000 </r>
       <r>    6.4661    1.0000 </r>
       <r>    6.9173    1.0000 </r>
       <r>    6.9173    1.0000 </r>
       <r>   11.3636    0.0000 </r>
       <r>   11.3636    0.0000 </r>
       <r>   11.4757    0.0000 </r>
       <r>   11.4757    0.0000 </r>
       <r>   11.8605    0.0000 </r>
       <r>   11.8605    0.0000 </r>
       <r>   11.9837    0.0000 </r>
       <r>   11.9838    0.0000 </r>
       <r>   12.4642    0.0000 </r>
       <r>   12.4643    0.0000 </r>
       <r>   12.8289    0.0000 </r>
       <r>   12.8297    0.0000 </r>
       <r>   13.2606    0.0000 </r>
       <r>   13.2630    0.0000 </r>
       <r>   13.7351    0.0000 </r>
       <r>   13.8070    0.0000 </r>
       <r>   14.0338    0.0000 </r>
       <r>   14.1361    0.0000 </r>
       <r>   14.3297    0.0000 </r>
       <r>   14.4916    0.0000 </r>
      </set>
      <set comment="kpoint 7">
       <r>   -8.4436    1.0000 </r>
       <r>   -8.4436    1.0000 </r>
       <r>   -8.0248    1.0000 </r>
       <r>   -8.0248    1.0000 </r>
       <r>   -7.4117    1.0000 </r>
       <r>   -7.4117    1.0000 </r>
       <r>   -7.1295    1.0000 </r>
       <r>   -7.1295    1.0000 </r>
       <r>   -6.2588    1.0000 </r>
       <r>   -6.2588    1.0000 </r>
       <r>   -6.2047    1.0000 </r>
       <r>   -6.2047    1.0000 </r>
       <r>   -3.1372    1.0000 </r>
       <r>   -3.1372    1.0000 </r>
       <r>   -1.6517    1.0000 </r>
       <r>   -1.6517    1.0000 </r>
       <r>   -1.3014    1.0000 </r>
       <r>   -1.3014    1.0000 </r>
       <r>   -0.7957    1.0000 </r>
       <r>   -0.7957    1.0000 </r>
       <r>    0.7013    1.0000 </r>
       <r>    0.7013    1.0000 </r>
       <r>    1.0379    1.0000 </r>
       <r>    1.0379    1.0000 </r>
       <r>    1.3503    1.0000 </r>
       <r>    1.3503    1.0000 </r>
       <r>    1.5261    1.0000 </r>
       <r>    1.5261    1.0000 </r>
       <r>    1.8512    1.0000 </r>
       <r>    1.8512    1.0000 </r>
       <r>    2.1578    1.0000 </r>
       <r>    2.1578    1.0000 </r>
       <r>    2.5236    1.0000 </r>
       <r>    2.5236    1.0000 </r>
       <r>    2.5883    1.0000 </r>
       <r>    2.5883    1.0000 </r>
       <r>    2.9168    1.0000 </r>
       <r>    2.9168    1.0000 </r>
       <r>    3.0583    1.0000 </r>
       <r>    3.0583    1.0000 </r>
       <r>    3.6207    1.0000 </r>
       <r>    3.6207    1.0000 </r>
       <r>    3.8422    1.0000 </r>
       <r>    3.8422    1.0000 </r>
       <r>    4.0158    1.0000 </r>
       <r>    4.0158    1.0000 </r>
       <r>    4.4842    1.0000 </r>
       <r>    4.4842    1.0000 </r>
       <r>    4.6660    1.0000 </r>
       <r>    4.6660    1.0000 </r>
       <r>    4.8812    1.0000 </r>
       <r>    4.8812    1.0000 </r>
       <r>    5.2287    1.0000 </r>
       <r>    5.2287    1.0000 </r>
       <r>    5.4289    1.0000 </r>
       <r>    5.4289    1.0000 </r>
       <r>    5.6978    1.0000 </r>
       <r>    5.6978    1.0000 </r>
       <r>    6.1387    1.0000 </r>
       <r>    6.1387    1.0000 </r>
       <r>    6.4824    1.0000 </r>
       <r>    6.4824    1.0000 </r>
       <r>    6.8658    1.0000 </r>
       <r>    6.8658    1.0000 </r>
       <r>   10.4676    0.0000 </r>
       <r>   10.4676    0.0000 </r>
       <r>   10.7631    0.0000 </r>
       <r>   10.7631    0.0000 </r>
       <r>   11.7206    0.0000 </r>
       <r>   11.7206    0.0000 </r>
       <r>   11.7656    0.0000 </r>
       <r>   11.7656    0.0000 </r>
       <r>   11.8921    0.0000 </r>
       <r>   11.8921    0.0000 </r>
       <r>   12.6006    0.0000 </r>
       <r>   12.6012    0.0000 </r>
       <r>   12.7706    0.0000 </r>
       <r>   12.7709    0.0000 </r>
       <r>   14.1178    0.0000 </r>
       <r>   14.1293    0.0000 </r>
       <r>   14.2778    0.0000 </r>
       <r>   14.3428    0.0000 </r>
       <r>   14.5261    0.0000 </r>
       <r>   14.6775    0.0000 </r>
      </set>
      <set comment="kpoint 8">
       <r>   -8.4430    1.0000 </r>
       <r>   -8.4430    1.0000 </r>
       <r>   -8.0256    1.0000 </r>
       <r>   -8.0256    1.0000 </r>
       <r>   -7.4118    1.0000 </r>
       <r>   -7.4118    1.0000 </r>
       <r>   -7.1296    1.0000 </r>
       <r>   -7.1296    1.0000 </r>
       <r>   -6.2561    1.0000 </r>
       <r>   -6.2561    1.0000 </r>
       <r>   -6.2067    1.0000 </r>
       <r>   -6.2067    1.0000 </r>
       <r>   -3.1370    1.0000 </r>
       <r>   -3.1370    1.0000 </r>
       <r>   -1.6149    1.0000 </r>
       <r>   -1.6149    1.0000 </r>
       <r>   -1.3798    1.0000 </r>
       <r>   -1.3798    1.0000 </r>
       <r>   -0.7286    1.0000 </r>
       <r>   -0.7286    1.0000 </r>
       <r>    0.6538    1.0000 </r>
       <r>    0.6538    1.0000 </r>
       <r>    0.8746    1.0000 </r>
       <r>    0.8746    1.0000 </r>
       <r>    1.5114    1.0000 </r>
       <r>    1.5114    1.0000 </r>
       <r>    1.6921    1.0000 </r>
       <r>    1.6921    1.0000 </r>
       <r>    1.8825    1.0000 </r>
       <r>    1.8825    1.0000 </r>
       <r>    1.9960    1.0000 </r>
       <r>    1.9960    1.0000 </r>
       <r>    2.4651    1.0000 </r>
       <r>    2.4651    1.0000 </r>
       <r>    2.4999    1.0000 </r>
       <r>    2.4999    1.0000 </r>
       <r>    3.0091    1.0000 </r>
       <r>    3.0091    1.0000 </r>
       <r>    3.1441    1.0000 </r>
       <r>    3.1441    1.0000 </r>
       <r>    3.6838    1.0000 </r>
       <r>    3.6838    1.0000 </r>
       <r>    3.8037    1.0000 </r>
       <r>    3.8037    1.0000 </r>
       <r>    4.2006    1.0000 </r>
       <r>    4.2006    1.0000 </r>
       <r>    4.3535    1.0000 </r>
       <r>    4.3535    1.0000 </r>
       <r>    4.6707    1.0000 </r>
       <r>    4.6707    1.0000 </r>
       <r>    4.7040    1.0000 </r>
       <r>    4.7040    1.0000 </r>
       <r>    5.2782    1.0000 </r>
       <r>    5.2782    1.0000 </r>
       <r>    5.4577    1.0000 </r>
       <r>    5.4577    1.0000 </r>
       <r>    5.6366    1.0000 </r>
       <r>    5.6366    1.0000 </r>
       <r>    6.0776    1.0000 </r>
       <r>    6.0776    1.0000 </r>
       <r>    6.4966    1.0000 </r>
       <r>    6.4966    1.0000 </r>
       <r>    6.8531    1.0000 </r>
       <r>    6.8531    1.0000 </r>
       <r>   10.7501    0.0000 </r>
       <r>   10.7501    0.0000 </r>
       <r>   10.9655    0.0000 </r>
       <r>   10.9655    0.0000 </r>
       <r>   11.3592    0.0000 </r>
       <r>   11.3592    0.0000 </r>
       <r>   11.8731    0.0000 </r>
       <r>   11.8731    0.0000 </r>
       <r>   12.2481    0.0000 </r>
       <r>   12.2482    0.0000 </r>
       <r>   12.4565    0.0000 </r>
       <r>   12.4566    0.0000 </r>
       <r>   13.2832    0.0000 </r>
       <r>   13.2848    0.0000 </r>
       <r>   13.3197    0.0000 </r>
       <r>   13.3255    0.0000 </r>
       <r>   13.9640    0.0000 </r>
       <r>   14.0144    0.0000 </r>
       <r>   14.1567    0.0000 </r>
       <r>   14.2509    0.0000 </r>
      </set>
      <set comment="kpoint 9">
       <r>  -10.0856    1.0000 </r>
       <r>   -9.9752    1.0000 </r>
       <r>   -8.8056    1.0000 </r>
       <r>   -8.5432    1.0000 </r>
       <r>   -8.0718    1.0000 </r>
       <r>   -7.8837    1.0000 </r>
       <r>   -7.8299    1.0000 </r>
       <r>   -7.5221    1.0000 </r>
       <r>   -7.2529    1.0000 </r>
       <r>   -7.1259    1.0000 </r>
       <r>   -6.5099    1.0000 </r>
       <r>   -6.5054    1.0000 </r>
       <r>   -3.8597    1.0000 </r>
       <r>   -3.7276    1.0000 </r>
       <r>   -2.6824    1.0000 </r>
       <r>   -2.5937    1.0000 </r>
       <r>   -0.6448    1.0000 </r>
       <r>   -0.3118    1.0000 </r>
       <r>   -0.1896    1.0000 </r>
       <r>    0.9479    1.0000 </r>
       <r>    1.0462    1.0000 </r>
       <r>    1.1674    1.0000 </r>
       <r>    1.2724    1.0000 </r>
       <r>    1.3413    1.0000 </r>
       <r>    1.6205    1.0000 </r>
       <r>    1.8145    1.0000 </r>
       <r>    2.0875    1.0000 </r>
       <r>    2.4356    1.0000 </r>
       <r>    2.4788    1.0000 </r>
       <r>    2.4845    1.0000 </r>
       <r>    2.5383    1.0000 </r>
       <r>    2.9871    1.0000 </r>
       <r>    3.4307    1.0000 </r>
       <r>    3.4623    1.0000 </r>
       <r>    3.5022    1.0000 </r>
       <r>    3.8586    1.0000 </r>
       <r>    3.9582    1.0000 </r>
       <r>    4.0222    1.0000 </r>
       <r>    4.0661    1.0000 </r>
       <r>    4.6410    1.0000 </r>
       <r>    4.6448    1.0000 </r>
       <r>    4.6544    1.0000 </r>
       <r>    4.8025    1.0000 </r>
       <r>    4.8177    1.0000 </r>
       <r>    4.8991    1.0000 </r>
       <r>    4.9237    1.0000 </r>
       <r>    5.1704    1.0000 </r>
       <r>    5.2326    1.0000 </r>
       <r>    5.3043    1.0000 </r>
       <r>    5.3392    1.0000 </r>
       <r>    5.3981    1.0000 </r>
       <r>    5.8225    1.0000 </r>
       <r>    5.8430    1.0000 </r>
       <r>    5.8608    1.0000 </r>
       <r>    6.0139    1.0000 </r>
       <r>    6.0684    1.0000 </r>
       <r>    6.3299    1.0000 </r>
       <r>    6.3414    1.0000 </r>
       <r>    6.5974    1.0000 </r>
       <r>    7.3510    1.0000 </r>
       <r>    7.6473    1.0000 </r>
       <r>    7.6561    1.0000 </r>
       <r>    8.4509    1.0000 </r>
       <r>    8.4992    1.0000 </r>
       <r>    9.7096    0.0000 </r>
       <r>    9.9681    0.0000 </r>
       <r>   10.6716    0.0000 </r>
       <r>   10.8200    0.0000 </r>
       <r>   10.9193    0.0000 </r>
       <r>   11.6249    0.0000 </r>
       <r>   11.9033    0.0000 </r>
       <r>   12.0428    0.0000 </r>
       <r>   12.2617    0.0000 </r>
       <r>   12.3668    0.0000 </r>
       <r>   12.6391    0.0000 </r>
       <r>   12.9983    0.0000 </r>
       <r>   13.0057    0.0000 </r>
       <r>   13.3374    0.0000 </r>
       <r>   13.3453    0.0000 </r>
       <r>   13.9384    0.0000 </r>
       <r>   14.1180    0.0000 </r>
       <r>   14.3444    0.0000 </r>
       <r>   14.6336    0.0000 </r>
       <r>   15.1193    0.0000 </r>
      </set>
      <set comment="kpoint 10">
       <r>  -10.0337    1.0000 </r>
       <r>  -10.0337    1.0000 </r>
       <r>   -8.6884    1.0000 </r>
       <r>   -8.6884    1.0000 </r>
       <r>   -7.9691    1.0000 </r>
       <r>   -7.9691    1.0000 </r>
       <r>   -7.6815    1.0000 </r>
       <r>   -7.6815    1.0000 </r>
       <r>   -7.1690    1.0000 </r>
       <r>   -7.1690    1.0000 </r>
       <r>   -6.5216    1.0000 </r>
       <r>   -6.5216    1.0000 </r>
       <r>   -3.7652    1.0000 </r>
       <r>   -3.7652    1.0000 </r>
       <r>   -2.6549    1.0000 </r>
       <r>   -2.6549    1.0000 </r>
       <r>   -0.5447    1.0000 </r>
       <r>   -0.5447    1.0000 </r>
       <r>    0.1813    1.0000 </r>
       <r>    0.1813    1.0000 </r>
       <r>    1.0670    1.0000 </r>
       <r>    1.0670    1.0000 </r>
       <r>    1.5500    1.0000 </r>
       <r>    1.5500    1.0000 </r>
       <r>    1.9223    1.0000 </r>
       <r>    1.9223    1.0000 </r>
       <r>    2.4114    1.0000 </r>
       <r>    2.4114    1.0000 </r>
       <r>    2.4567    1.0000 </r>
       <r>    2.4567    1.0000 </r>
       <r>    2.7330    1.0000 </r>
       <r>    2.7330    1.0000 </r>
       <r>    3.2629    1.0000 </r>
       <r>    3.2629    1.0000 </r>
       <r>    3.4473    1.0000 </r>
       <r>    3.4473    1.0000 </r>
       <r>    3.9764    1.0000 </r>
       <r>    3.9764    1.0000 </r>
       <r>    4.2869    1.0000 </r>
       <r>    4.2869    1.0000 </r>
       <r>    4.6933    1.0000 </r>
       <r>    4.6933    1.0000 </r>
       <r>    4.7411    1.0000 </r>
       <r>    4.7411    1.0000 </r>
       <r>    5.0957    1.0000 </r>
       <r>    5.0957    1.0000 </r>
       <r>    5.1865    1.0000 </r>
       <r>    5.1865    1.0000 </r>
       <r>    5.3350    1.0000 </r>
       <r>    5.3350    1.0000 </r>
       <r>    5.7045    1.0000 </r>
       <r>    5.7045    1.0000 </r>
       <r>    5.8304    1.0000 </r>
       <r>    5.8304    1.0000 </r>
       <r>    6.0327    1.0000 </r>
       <r>    6.0327    1.0000 </r>
       <r>    6.4327    1.0000 </r>
       <r>    6.4327    1.0000 </r>
       <r>    6.9076    1.0000 </r>
       <r>    6.9076    1.0000 </r>
       <r>    7.6557    1.0000 </r>
       <r>    7.6557    1.0000 </r>
       <r>    8.4729    1.0000 </r>
       <r>    8.4729    1.0000 </r>
       <r>    9.8705    0.0000 </r>
       <r>    9.8705    0.0000 </r>
       <r>   10.6642    0.0000 </r>
       <r>   10.6642    0.0000 </r>
       <r>   11.4901    0.0000 </r>
       <r>   11.4901    0.0000 </r>
       <r>   11.5320    0.0000 </r>
       <r>   11.5320    0.0000 </r>
       <r>   12.3480    0.0000 </r>
       <r>   12.3481    0.0000 </r>
       <r>   12.9026    0.0000 </r>
       <r>   12.9027    0.0000 </r>
       <r>   13.3457    0.0000 </r>
       <r>   13.3473    0.0000 </r>
       <r>   13.8414    0.0000 </r>
       <r>   13.8461    0.0000 </r>
       <r>   14.1420    0.0000 </r>
       <r>   14.2105    0.0000 </r>
       <r>   14.7067    0.0000 </r>
       <r>   15.0688    0.0000 </r>
      </set>
      <set comment="kpoint 11">
       <r>   -9.8258    1.0000 </r>
       <r>   -9.7217    1.0000 </r>
       <r>   -8.5815    1.0000 </r>
       <r>   -8.3317    1.0000 </r>
       <r>   -7.8939    1.0000 </r>
       <r>   -7.7679    1.0000 </r>
       <r>   -7.7144    1.0000 </r>
       <r>   -7.4003    1.0000 </r>
       <r>   -7.0772    1.0000 </r>
       <r>   -6.9503    1.0000 </r>
       <r>   -6.4078    1.0000 </r>
       <r>   -6.3954    1.0000 </r>
       <r>   -3.6647    1.0000 </r>
       <r>   -3.5190    1.0000 </r>
       <r>   -2.4671    1.0000 </r>
       <r>   -2.3499    1.0000 </r>
       <r>   -0.5888    1.0000 </r>
       <r>   -0.2549    1.0000 </r>
       <r>   -0.0333    1.0000 </r>
       <r>    0.8047    1.0000 </r>
       <r>    0.9363    1.0000 </r>
       <r>    1.1857    1.0000 </r>
       <r>    1.1971    1.0000 </r>
       <r>    1.4390    1.0000 </r>
       <r>    1.5137    1.0000 </r>
       <r>    1.6254    1.0000 </r>
       <r>    1.7679    1.0000 </r>
       <r>    2.1099    1.0000 </r>
       <r>    2.1449    1.0000 </r>
       <r>    2.4168    1.0000 </r>
       <r>    2.4288    1.0000 </r>
       <r>    2.5685    1.0000 </r>
       <r>    2.7855    1.0000 </r>
       <r>    3.2970    1.0000 </r>
       <r>    3.3958    1.0000 </r>
       <r>    3.5998    1.0000 </r>
       <r>    3.6790    1.0000 </r>
       <r>    3.7956    1.0000 </r>
       <r>    3.7981    1.0000 </r>
       <r>    3.9493    1.0000 </r>
       <r>    4.0358    1.0000 </r>
       <r>    4.2023    1.0000 </r>
       <r>    4.3824    1.0000 </r>
       <r>    4.4672    1.0000 </r>
       <r>    4.5592    1.0000 </r>
       <r>    4.6083    1.0000 </r>
       <r>    4.6573    1.0000 </r>
       <r>    4.7888    1.0000 </r>
       <r>    4.8251    1.0000 </r>
       <r>    5.0421    1.0000 </r>
       <r>    5.3289    1.0000 </r>
       <r>    5.4568    1.0000 </r>
       <r>    5.4939    1.0000 </r>
       <r>    5.9764    1.0000 </r>
       <r>    6.1705    1.0000 </r>
       <r>    6.1842    1.0000 </r>
       <r>    6.3494    1.0000 </r>
       <r>    6.4886    1.0000 </r>
       <r>    6.6033    1.0000 </r>
       <r>    6.7573    1.0000 </r>
       <r>    6.7825    1.0000 </r>
       <r>    7.1505    1.0000 </r>
       <r>    7.3770    1.0000 </r>
       <r>    7.5325    1.0000 </r>
       <r>   10.9649    0.0000 </r>
       <r>   11.3455    0.0000 </r>
       <r>   11.3862    0.0000 </r>
       <r>   11.5340    0.0000 </r>
       <r>   11.6764    0.0000 </r>
       <r>   11.9632    0.0000 </r>
       <r>   12.2651    0.0000 </r>
       <r>   12.3355    0.0000 </r>
       <r>   12.6784    0.0000 </r>
       <r>   12.7692    0.0000 </r>
       <r>   12.9045    0.0000 </r>
       <r>   13.0075    0.0000 </r>
       <r>   13.3363    0.0000 </r>
       <r>   13.4222    0.0000 </r>
       <r>   13.5061    0.0000 </r>
       <r>   13.6983    0.0000 </r>
       <r>   13.8721    0.0000 </r>
       <r>   14.0358    0.0000 </r>
       <r>   14.2189    0.0000 </r>
       <r>   14.5862    0.0000 </r>
      </set>
      <set comment="kpoint 12">
       <r>   -9.7767    1.0000 </r>
       <r>   -9.7767    1.0000 </r>
       <r>   -8.4710    1.0000 </r>
       <r>   -8.4710    1.0000 </r>
       <r>   -7.8243    1.0000 </r>
       <r>   -7.8243    1.0000 </r>
       <r>   -7.5564    1.0000 </r>
       <r>   -7.5564    1.0000 </r>
       <r>   -6.9995    1.0000 </r>
       <r>   -6.9995    1.0000 </r>
       <r>   -6.4120    1.0000 </r>
       <r>   -6.4120    1.0000 </r>
       <r>   -3.5739    1.0000 </r>
       <r>   -3.5739    1.0000 </r>
       <r>   -2.4144    1.0000 </r>
       <r>   -2.4144    1.0000 </r>
       <r>   -0.4773    1.0000 </r>
       <r>   -0.4773    1.0000 </r>
       <r>    0.3039    1.0000 </r>
       <r>    0.3039    1.0000 </r>
       <r>    0.9957    1.0000 </r>
       <r>    0.9957    1.0000 </r>
       <r>    1.2728    1.0000 </r>
       <r>    1.2728    1.0000 </r>
       <r>    1.7722    1.0000 </r>
       <r>    1.7722    1.0000 </r>
       <r>    1.9763    1.0000 </r>
       <r>    1.9763    1.0000 </r>
       <r>    2.4007    1.0000 </r>
       <r>    2.4007    1.0000 </r>
       <r>    2.6533    1.0000 </r>
       <r>    2.6533    1.0000 </r>
       <r>    2.9498    1.0000 </r>
       <r>    2.9498    1.0000 </r>
       <r>    3.3003    1.0000 </r>
       <r>    3.3003    1.0000 </r>
       <r>    3.7315    1.0000 </r>
       <r>    3.7315    1.0000 </r>
       <r>    3.9336    1.0000 </r>
       <r>    3.9336    1.0000 </r>
       <r>    4.0302    1.0000 </r>
       <r>    4.0302    1.0000 </r>
       <r>    4.2907    1.0000 </r>
       <r>    4.2907    1.0000 </r>
       <r>    4.6055    1.0000 </r>
       <r>    4.6055    1.0000 </r>
       <r>    4.7682    1.0000 </r>
       <r>    4.7682    1.0000 </r>
       <r>    5.0237    1.0000 </r>
       <r>    5.0237    1.0000 </r>
       <r>    5.2428    1.0000 </r>
       <r>    5.2428    1.0000 </r>
       <r>    5.7598    1.0000 </r>
       <r>    5.7598    1.0000 </r>
       <r>    6.2385    1.0000 </r>
       <r>    6.2385    1.0000 </r>
       <r>    6.5544    1.0000 </r>
       <r>    6.5544    1.0000 </r>
       <r>    6.7431    1.0000 </r>
       <r>    6.7431    1.0000 </r>
       <r>    6.9523    1.0000 </r>
       <r>    6.9523    1.0000 </r>
       <r>    7.3635    1.0000 </r>
       <r>    7.3635    1.0000 </r>
       <r>   11.1683    0.0000 </r>
       <r>   11.1683    0.0000 </r>
       <r>   11.5388    0.0000 </r>
       <r>   11.5389    0.0000 </r>
       <r>   11.8521    0.0000 </r>
       <r>   11.8521    0.0000 </r>
       <r>   12.2503    0.0000 </r>
       <r>   12.2504    0.0000 </r>
       <r>   12.4614    0.0000 </r>
       <r>   12.4623    0.0000 </r>
       <r>   13.0695    0.0000 </r>
       <r>   13.0708    0.0000 </r>
       <r>   13.3649    0.0000 </r>
       <r>   13.3674    0.0000 </r>
       <r>   13.5004    0.0000 </r>
       <r>   13.5154    0.0000 </r>
       <r>   13.8743    0.0000 </r>
       <r>   14.0098    0.0000 </r>
       <r>   14.3843    0.0000 </r>
       <r>   14.5594    0.0000 </r>
      </set>
      <set comment="kpoint 13">
       <r>   -9.1285    1.0000 </r>
       <r>   -9.0493    1.0000 </r>
       <r>   -8.0763    1.0000 </r>
       <r>   -7.8894    1.0000 </r>
       <r>   -7.5819    1.0000 </r>
       <r>   -7.5613    1.0000 </r>
       <r>   -7.4669    1.0000 </r>
       <r>   -7.1603    1.0000 </r>
       <r>   -6.6407    1.0000 </r>
       <r>   -6.5414    1.0000 </r>
       <r>   -6.2160    1.0000 </r>
       <r>   -6.1998    1.0000 </r>
       <r>   -3.3114    1.0000 </r>
       <r>   -3.1243    1.0000 </r>
       <r>   -1.9302    1.0000 </r>
       <r>   -1.7901    1.0000 </r>
       <r>   -1.1294    1.0000 </r>
       <r>   -0.8401    1.0000 </r>
       <r>   -0.3753    1.0000 </r>
       <r>   -0.3341    1.0000 </r>
       <r>    0.7268    1.0000 </r>
       <r>    0.8027    1.0000 </r>
       <r>    1.0585    1.0000 </r>
       <r>    1.2317    1.0000 </r>
       <r>    1.5588    1.0000 </r>
       <r>    1.5843    1.0000 </r>
       <r>    1.7166    1.0000 </r>
       <r>    1.8845    1.0000 </r>
       <r>    1.9785    1.0000 </r>
       <r>    2.0954    1.0000 </r>
       <r>    2.1593    1.0000 </r>
       <r>    2.2595    1.0000 </r>
       <r>    2.4453    1.0000 </r>
       <r>    2.7354    1.0000 </r>
       <r>    2.7851    1.0000 </r>
       <r>    2.8552    1.0000 </r>
       <r>    2.9916    1.0000 </r>
       <r>    3.1870    1.0000 </r>
       <r>    3.4088    1.0000 </r>
       <r>    3.4134    1.0000 </r>
       <r>    3.4914    1.0000 </r>
       <r>    3.7637    1.0000 </r>
       <r>    3.9960    1.0000 </r>
       <r>    4.0188    1.0000 </r>
       <r>    4.0770    1.0000 </r>
       <r>    4.1953    1.0000 </r>
       <r>    4.3031    1.0000 </r>
       <r>    4.5220    1.0000 </r>
       <r>    4.5412    1.0000 </r>
       <r>    4.8712    1.0000 </r>
       <r>    4.9185    1.0000 </r>
       <r>    5.2246    1.0000 </r>
       <r>    5.3761    1.0000 </r>
       <r>    5.4308    1.0000 </r>
       <r>    5.5911    1.0000 </r>
       <r>    5.6500    1.0000 </r>
       <r>    5.8262    1.0000 </r>
       <r>    5.9454    1.0000 </r>
       <r>    6.2198    1.0000 </r>
       <r>    6.4222    1.0000 </r>
       <r>    6.4276    1.0000 </r>
       <r>    6.5697    1.0000 </r>
       <r>    6.6071    1.0000 </r>
       <r>    7.2655    1.0000 </r>
       <r>   11.0523    0.0000 </r>
       <r>   11.2581    0.0000 </r>
       <r>   11.3733    0.0000 </r>
       <r>   11.6082    0.0000 </r>
       <r>   11.6649    0.0000 </r>
       <r>   11.8945    0.0000 </r>
       <r>   11.9557    0.0000 </r>
       <r>   12.3890    0.0000 </r>
       <r>   12.5777    0.0000 </r>
       <r>   12.6488    0.0000 </r>
       <r>   12.7908    0.0000 </r>
       <r>   12.8378    0.0000 </r>
       <r>   12.8937    0.0000 </r>
       <r>   13.0515    0.0000 </r>
       <r>   13.4464    0.0000 </r>
       <r>   13.7956    0.0000 </r>
       <r>   14.0842    0.0000 </r>
       <r>   14.1629    0.0000 </r>
       <r>   14.3261    0.0000 </r>
       <r>   14.6664    0.0000 </r>
      </set>
      <set comment="kpoint 14">
       <r>   -9.0906    1.0000 </r>
       <r>   -9.0906    1.0000 </r>
       <r>   -7.9961    1.0000 </r>
       <r>   -7.9961    1.0000 </r>
       <r>   -7.5788    1.0000 </r>
       <r>   -7.5788    1.0000 </r>
       <r>   -7.2946    1.0000 </r>
       <r>   -7.2946    1.0000 </r>
       <r>   -6.5871    1.0000 </r>
       <r>   -6.5871    1.0000 </r>
       <r>   -6.2108    1.0000 </r>
       <r>   -6.2108    1.0000 </r>
       <r>   -3.2203    1.0000 </r>
       <r>   -3.2203    1.0000 </r>
       <r>   -1.8411    1.0000 </r>
       <r>   -1.8411    1.0000 </r>
       <r>   -1.0171    1.0000 </r>
       <r>   -1.0171    1.0000 </r>
       <r>   -0.3358    1.0000 </r>
       <r>   -0.3358    1.0000 </r>
       <r>    0.7538    1.0000 </r>
       <r>    0.7538    1.0000 </r>
       <r>    1.1893    1.0000 </r>
       <r>    1.1893    1.0000 </r>
       <r>    1.4237    1.0000 </r>
       <r>    1.4237    1.0000 </r>
       <r>    1.7045    1.0000 </r>
       <r>    1.7045    1.0000 </r>
       <r>    2.1863    1.0000 </r>
       <r>    2.1863    1.0000 </r>
       <r>    2.2654    1.0000 </r>
       <r>    2.2654    1.0000 </r>
       <r>    2.6269    1.0000 </r>
       <r>    2.6269    1.0000 </r>
       <r>    2.9651    1.0000 </r>
       <r>    2.9651    1.0000 </r>
       <r>    3.0958    1.0000 </r>
       <r>    3.0958    1.0000 </r>
       <r>    3.3365    1.0000 </r>
       <r>    3.3365    1.0000 </r>
       <r>    3.5627    1.0000 </r>
       <r>    3.5627    1.0000 </r>
       <r>    3.9374    1.0000 </r>
       <r>    3.9374    1.0000 </r>
       <r>    4.1158    1.0000 </r>
       <r>    4.1158    1.0000 </r>
       <r>    4.4215    1.0000 </r>
       <r>    4.4215    1.0000 </r>
       <r>    4.7494    1.0000 </r>
       <r>    4.7494    1.0000 </r>
       <r>    4.8821    1.0000 </r>
       <r>    4.8821    1.0000 </r>
       <r>    5.3738    1.0000 </r>
       <r>    5.3738    1.0000 </r>
       <r>    5.7945    1.0000 </r>
       <r>    5.7945    1.0000 </r>
       <r>    5.9370    1.0000 </r>
       <r>    5.9370    1.0000 </r>
       <r>    6.2766    1.0000 </r>
       <r>    6.2766    1.0000 </r>
       <r>    6.5481    1.0000 </r>
       <r>    6.5481    1.0000 </r>
       <r>    6.9198    1.0000 </r>
       <r>    6.9198    1.0000 </r>
       <r>   11.2260    0.0000 </r>
       <r>   11.2260    0.0000 </r>
       <r>   11.4172    0.0000 </r>
       <r>   11.4172    0.0000 </r>
       <r>   11.7839    0.0000 </r>
       <r>   11.7839    0.0000 </r>
       <r>   12.1092    0.0000 </r>
       <r>   12.1093    0.0000 </r>
       <r>   12.3834    0.0000 </r>
       <r>   12.3837    0.0000 </r>
       <r>   12.9388    0.0000 </r>
       <r>   12.9412    0.0000 </r>
       <r>   13.3079    0.0000 </r>
       <r>   13.3091    0.0000 </r>
       <r>   13.6008    0.0000 </r>
       <r>   13.6186    0.0000 </r>
       <r>   13.8177    0.0000 </r>
       <r>   13.8386    0.0000 </r>
       <r>   14.2956    0.0000 </r>
       <r>   14.4901    0.0000 </r>
      </set>
      <set comment="kpoint 15">
       <r>   -8.4434    1.0000 </r>
       <r>   -8.4434    1.0000 </r>
       <r>   -8.0243    1.0000 </r>
       <r>   -8.0243    1.0000 </r>
       <r>   -7.4137    1.0000 </r>
       <r>   -7.4137    1.0000 </r>
       <r>   -7.1289    1.0000 </r>
       <r>   -7.1289    1.0000 </r>
       <r>   -6.2555    1.0000 </r>
       <r>   -6.2555    1.0000 </r>
       <r>   -6.2072    1.0000 </r>
       <r>   -6.2072    1.0000 </r>
       <r>   -3.1404    1.0000 </r>
       <r>   -3.1404    1.0000 </r>
       <r>   -1.5904    1.0000 </r>
       <r>   -1.5904    1.0000 </r>
       <r>   -1.3922    1.0000 </r>
       <r>   -1.3922    1.0000 </r>
       <r>   -0.7158    1.0000 </r>
       <r>   -0.7158    1.0000 </r>
       <r>    0.6498    1.0000 </r>
       <r>    0.6498    1.0000 </r>
       <r>    1.0735    1.0000 </r>
       <r>    1.0735    1.0000 </r>
       <r>    1.2138    1.0000 </r>
       <r>    1.2138    1.0000 </r>
       <r>    1.4980    1.0000 </r>
       <r>    1.4980    1.0000 </r>
       <r>    1.6475    1.0000 </r>
       <r>    1.6475    1.0000 </r>
       <r>    2.4086    1.0000 </r>
       <r>    2.4086    1.0000 </r>
       <r>    2.5349    1.0000 </r>
       <r>    2.5349    1.0000 </r>
       <r>    2.7307    1.0000 </r>
       <r>    2.7307    1.0000 </r>
       <r>    2.8856    1.0000 </r>
       <r>    2.8856    1.0000 </r>
       <r>    3.0098    1.0000 </r>
       <r>    3.0098    1.0000 </r>
       <r>    3.8105    1.0000 </r>
       <r>    3.8105    1.0000 </r>
       <r>    4.0424    1.0000 </r>
       <r>    4.0424    1.0000 </r>
       <r>    4.0671    1.0000 </r>
       <r>    4.0671    1.0000 </r>
       <r>    4.4172    1.0000 </r>
       <r>    4.4172    1.0000 </r>
       <r>    4.7311    1.0000 </r>
       <r>    4.7311    1.0000 </r>
       <r>    4.7863    1.0000 </r>
       <r>    4.7863    1.0000 </r>
       <r>    5.1011    1.0000 </r>
       <r>    5.1011    1.0000 </r>
       <r>    5.3210    1.0000 </r>
       <r>    5.3210    1.0000 </r>
       <r>    5.5418    1.0000 </r>
       <r>    5.5418    1.0000 </r>
       <r>    6.0325    1.0000 </r>
       <r>    6.0325    1.0000 </r>
       <r>    6.3764    1.0000 </r>
       <r>    6.3764    1.0000 </r>
       <r>    6.8900    1.0000 </r>
       <r>    6.8900    1.0000 </r>
       <r>   10.9139    0.0000 </r>
       <r>   10.9139    0.0000 </r>
       <r>   11.1224    0.0000 </r>
       <r>   11.1224    0.0000 </r>
       <r>   11.8238    0.0000 </r>
       <r>   11.8238    0.0000 </r>
       <r>   11.9433    0.0000 </r>
       <r>   11.9433    0.0000 </r>
       <r>   12.1875    0.0000 </r>
       <r>   12.1876    0.0000 </r>
       <r>   12.5230    0.0000 </r>
       <r>   12.5231    0.0000 </r>
       <r>   12.6275    0.0000 </r>
       <r>   12.6279    0.0000 </r>
       <r>   12.8130    0.0000 </r>
       <r>   12.8132    0.0000 </r>
       <r>   14.1964    0.0000 </r>
       <r>   14.2658    0.0000 </r>
       <r>   14.3495    0.0000 </r>
       <r>   14.5023    0.0000 </r>
      </set>
      <set comment="kpoint 16">
       <r>   -8.4430    1.0000 </r>
       <r>   -8.4430    1.0000 </r>
       <r>   -8.0252    1.0000 </r>
       <r>   -8.0252    1.0000 </r>
       <r>   -7.4133    1.0000 </r>
       <r>   -7.4133    1.0000 </r>
       <r>   -7.1284    1.0000 </r>
       <r>   -7.1284    1.0000 </r>
       <r>   -6.2594    1.0000 </r>
       <r>   -6.2594    1.0000 </r>
       <r>   -6.2037    1.0000 </r>
       <r>   -6.2037    1.0000 </r>
       <r>   -3.1370    1.0000 </r>
       <r>   -3.1370    1.0000 </r>
       <r>   -1.6735    1.0000 </r>
       <r>   -1.6735    1.0000 </r>
       <r>   -1.2816    1.0000 </r>
       <r>   -1.2816    1.0000 </r>
       <r>   -0.7385    1.0000 </r>
       <r>   -0.7385    1.0000 </r>
       <r>    0.6263    1.0000 </r>
       <r>    0.6263    1.0000 </r>
       <r>    0.8484    1.0000 </r>
       <r>    0.8484    1.0000 </r>
       <r>    1.3509    1.0000 </r>
       <r>    1.3509    1.0000 </r>
       <r>    1.7905    1.0000 </r>
       <r>    1.7905    1.0000 </r>
       <r>    1.8079    1.0000 </r>
       <r>    1.8079    1.0000 </r>
       <r>    2.1681    1.0000 </r>
       <r>    2.1681    1.0000 </r>
       <r>    2.3518    1.0000 </r>
       <r>    2.3518    1.0000 </r>
       <r>    2.6505    1.0000 </r>
       <r>    2.6505    1.0000 </r>
       <r>    2.9327    1.0000 </r>
       <r>    2.9327    1.0000 </r>
       <r>    3.1142    1.0000 </r>
       <r>    3.1142    1.0000 </r>
       <r>    3.6584    1.0000 </r>
       <r>    3.6584    1.0000 </r>
       <r>    3.9655    1.0000 </r>
       <r>    3.9655    1.0000 </r>
       <r>    4.0953    1.0000 </r>
       <r>    4.0953    1.0000 </r>
       <r>    4.5461    1.0000 </r>
       <r>    4.5461    1.0000 </r>
       <r>    4.8130    1.0000 </r>
       <r>    4.8130    1.0000 </r>
       <r>    4.8769    1.0000 </r>
       <r>    4.8769    1.0000 </r>
       <r>    5.0159    1.0000 </r>
       <r>    5.0159    1.0000 </r>
       <r>    5.3425    1.0000 </r>
       <r>    5.3425    1.0000 </r>
       <r>    5.6535    1.0000 </r>
       <r>    5.6535    1.0000 </r>
       <r>    5.9662    1.0000 </r>
       <r>    5.9662    1.0000 </r>
       <r>    6.3356    1.0000 </r>
       <r>    6.3356    1.0000 </r>
       <r>    6.8521    1.0000 </r>
       <r>    6.8521    1.0000 </r>
       <r>   10.9973    0.0000 </r>
       <r>   10.9973    0.0000 </r>
       <r>   11.2059    0.0000 </r>
       <r>   11.2059    0.0000 </r>
       <r>   11.4136    0.0000 </r>
       <r>   11.4136    0.0000 </r>
       <r>   11.9352    0.0000 </r>
       <r>   11.9353    0.0000 </r>
       <r>   12.2537    0.0000 </r>
       <r>   12.2537    0.0000 </r>
       <r>   12.5063    0.0000 </r>
       <r>   12.5063    0.0000 </r>
       <r>   12.7523    0.0000 </r>
       <r>   12.7530    0.0000 </r>
       <r>   12.8752    0.0000 </r>
       <r>   12.8752    0.0000 </r>
       <r>   14.1861    0.0000 </r>
       <r>   14.2779    0.0000 </r>
       <r>   14.4128    0.0000 </r>
       <r>   14.9145    0.0000 </r>
      </set>
     </set>
    </set>
   </array>
  </eigenvalues>
  <separator name="orbital magnetization" >
   <v name="MAGDIPOLOUT">      0.00000000      0.00000000      0.00000000</v>
  </separator>
  <dos>
   <i name="efermi">      8.98644150 </i>
   <total>
    <array>
     <dimension dim="1">gridpoints</dimension>
     <dimension dim="2">spin</dimension>
     <field>energy</field>
     <field>total</field>
     <field>integrated</field>
     <set>
      <set comment="spin 1">
       <r>   -11.3570     0.0000     0.0000 </r>
       <r>   -11.2645     0.0000     0.0000 </r>
       <r>   -11.1721     0.0000     0.0000 </r>
       <r>   -11.0796     0.0000     0.0000 </r>
       <r>   -10.9872     0.0000     0.0000 </r>
       <r>   -10.8947     0.0000     0.0000 </r>
       <r>   -10.8022     0.0000     0.0000 </r>
       <r>   -10.7098     0.0000     0.0000 </r>
       <r>   -10.6173     0.0000     0.0000 </r>
       <r>   -10.5249     0.0000     0.0000 </r>
       <r>   -10.4324     0.0000     0.0000 </r>
       <r>   -10.3400     0.0004     0.0000 </r>
       <r>   -10.2475     0.0288     0.0027 </r>
       <r>   -10.1550     0.4672     0.0459 </r>
       <r>   -10.0626     2.1094     0.2409 </r>
       <r>    -9.9701     3.0968     0.5273 </r>
       <r>    -9.8777     2.8106     0.7871 </r>
       <r>    -9.7852     5.2606     1.2735 </r>
       <r>    -9.6928     5.6391     1.7949 </r>
       <r>    -9.6003     2.0017     1.9799 </r>
       <r>    -9.5078     0.2113     1.9995 </r>
       <r>    -9.4154     0.0058     2.0000 </r>
       <r>    -9.3229     0.0162     2.0015 </r>
       <r>    -9.2305     0.4687     2.0448 </r>
       <r>    -9.1380     3.3691     2.3563 </r>
       <r>    -9.0456     6.5155     2.9587 </r>
       <r>    -8.9531     3.5323     3.2853 </r>
       <r>    -8.8606     0.7312     3.3529 </r>
       <r>    -8.7682     1.0058     3.4459 </r>
       <r>    -8.6757     2.4990     3.6770 </r>
       <r>    -8.5833     3.7173     4.0207 </r>
       <r>    -8.4908     6.5312     4.6245 </r>
       <r>    -8.3984     8.9767     5.4545 </r>
       <r>    -8.3059     4.7361     5.8924 </r>
       <r>    -8.2134     1.2049     6.0038 </r>
       <r>    -8.1210     2.2087     6.2080 </r>
       <r>    -8.0285     8.9914     7.0393 </r>
       <r>    -7.9361    13.3771     8.2761 </r>
       <r>    -7.8436    11.4885     9.3383 </r>
       <r>    -7.7512     8.1199    10.0890 </r>
       <r>    -7.6587     7.7317    10.8039 </r>
       <r>    -7.5662    12.1793    11.9299 </r>
       <r>    -7.4738    12.7373    13.1076 </r>
       <r>    -7.3813     9.7498    14.0090 </r>
       <r>    -7.2889     7.5070    14.7031 </r>
       <r>    -7.1964     7.3295    15.3808 </r>
       <r>    -7.1040     9.7620    16.2833 </r>
       <r>    -7.0115     9.0184    17.1171 </r>
       <r>    -6.9190     6.4556    17.7140 </r>
       <r>    -6.8266     2.6955    17.9632 </r>
       <r>    -6.7341     0.8366    18.0406 </r>
       <r>    -6.6417     3.5910    18.3726 </r>
       <r>    -6.5492     9.3238    19.2346 </r>
       <r>    -6.4568    10.7671    20.2301 </r>
       <r>    -6.3643     9.1760    21.0785 </r>
       <r>    -6.2718     9.4967    21.9565 </r>
       <r>    -6.1794    13.7692    23.2296 </r>
       <r>    -6.0869     7.3322    23.9075 </r>
       <r>    -5.9945     0.9712    23.9973 </r>
       <r>    -5.9020     0.0290    24.0000 </r>
       <r>    -5.8096     0.0002    24.0000 </r>
       <r>    -5.7171     0.0000    24.0000 </r>
       <r>    -5.6246     0.0000    24.0000 </r>
       <r>    -5.5322     0.0000    24.0000 </r>
       <r>    -5.4397     0.0000    24.0000 </r>
       <r>    -5.3473     0.0000    24.0000 </r>
       <r>    -5.2548     0.0000    24.0000 </r>
       <r>    -5.1624     0.0000    24.0000 </r>
       <r>    -5.0699     0.0000    24.0000 </r>
       <r>    -4.9775     0.0000    24.0000 </r>
       <r>    -4.8850     0.0000    24.0000 </r>
       <r>    -4.7925     0.0000    24.0000 </r>
       <r>    -4.7001     0.0000    24.0000 </r>
       <r>    -4.6076     0.0000    24.0000 </r>
       <r>    -4.5152     0.0000    24.0000 </r>
       <r>    -4.4227     0.0000    24.0000 </r>
       <r>    -4.3303     0.0000    24.0000 </r>
       <r>    -4.2378     0.0000    24.0000 </r>
       <r>    -4.1453     0.0000    24.0000 </r>
       <r>    -4.0529     0.0030    24.0003 </r>
       <r>    -3.9604     0.0843    24.0081 </r>
       <r>    -3.8680     0.7237    24.0750 </r>
       <r>    -3.7755     2.5357    24.3094 </r>
       <r>    -3.6831     4.2242    24.7000 </r>
       <r>    -3.5906     5.5881    25.2166 </r>
       <r>    -3.4981     5.7422    25.7476 </r>
       <r>    -3.4057     2.7481    26.0016 </r>
       <r>    -3.3132     2.4771    26.2307 </r>
       <r>    -3.2208     5.5508    26.7439 </r>
       <r>    -3.1283     7.7540    27.4608 </r>
       <r>    -3.0359     4.8635    27.9104 </r>
       <r>    -2.9434     0.9288    27.9963 </r>
       <r>    -2.8509     0.1169    28.0071 </r>
       <r>    -2.7585     0.6429    28.0666 </r>
       <r>    -2.6660     2.1355    28.2640 </r>
       <r>    -2.5736     3.1754    28.5576 </r>
       <r>    -2.4811     3.9426    28.9221 </r>
       <r>    -2.3887     5.6160    29.4414 </r>
       <r>    -2.2962     4.3536    29.8439 </r>
       <r>    -2.2037     1.4835    29.9810 </r>
       <r>    -2.1113     0.2116    30.0006 </r>
       <r>    -2.0188     0.3733    30.0351 </r>
       <r>    -1.9264     2.6152    30.2769 </r>
       <r>    -1.8339     5.9410    30.8262 </r>
       <r>    -1.7415     4.9664    31.2854 </r>
       <r>    -1.6490     3.4594    31.6052 </r>
       <r>    -1.5565     3.1112    31.8929 </r>
       <r>    -1.4641     1.5698    32.0380 </r>
       <r>    -1.3716     2.1514    32.2369 </r>
       <r>    -1.2792     2.8861    32.5038 </r>
       <r>    -1.1867     1.9365    32.6828 </r>
       <r>    -1.0943     2.0009    32.8678 </r>
       <r>    -1.0018     3.7285    33.2125 </r>
       <r>    -0.9093     4.6465    33.6421 </r>
       <r>    -0.8169     4.9674    34.1014 </r>
       <r>    -0.7244     5.7682    34.6347 </r>
       <r>    -0.6320     5.2681    35.1218 </r>
       <r>    -0.5395     5.0765    35.5912 </r>
       <r>    -0.4471     6.2308    36.1672 </r>
       <r>    -0.3546     8.5421    36.9570 </r>
       <r>    -0.2621     8.5458    37.7471 </r>
       <r>    -0.1697     4.0260    38.1194 </r>
       <r>    -0.0772     2.0126    38.3054 </r>
       <r>     0.0152     1.5709    38.4507 </r>
       <r>     0.1077     0.7815    38.5229 </r>
       <r>     0.2001     1.3607    38.6487 </r>
       <r>     0.2926     3.0314    38.9290 </r>
       <r>     0.3851     3.7198    39.2729 </r>
       <r>     0.4775     2.1279    39.4697 </r>
       <r>     0.5700     1.6809    39.6251 </r>
       <r>     0.6624     5.6499    40.1475 </r>
       <r>     0.7549     9.9739    41.0696 </r>
       <r>     0.8473     9.5300    41.9507 </r>
       <r>     0.9398     6.7910    42.5786 </r>
       <r>     1.0323     9.6580    43.4716 </r>
       <r>     1.1247    13.1246    44.6850 </r>
       <r>     1.2172    13.8238    45.9631 </r>
       <r>     1.3096    11.5777    47.0336 </r>
       <r>     1.4021    10.2122    47.9777 </r>
       <r>     1.4945    12.2538    49.1107 </r>
       <r>     1.5870    12.6369    50.2791 </r>
       <r>     1.6795    11.0315    51.2990 </r>
       <r>     1.7719    14.5418    52.6435 </r>
       <r>     1.8644    16.5557    54.1742 </r>
       <r>     1.9568    13.1308    55.3882 </r>
       <r>     2.0493    11.3032    56.4333 </r>
       <r>     2.1417    10.6699    57.4198 </r>
       <r>     2.2342    10.8746    58.4252 </r>
       <r>     2.3266    11.1560    59.4567 </r>
       <r>     2.4191    16.6532    60.9964 </r>
       <r>     2.5116    18.3700    62.6948 </r>
       <r>     2.6040    13.5254    63.9453 </r>
       <r>     2.6965    11.8982    65.0454 </r>
       <r>     2.7889    13.1861    66.2645 </r>
       <r>     2.8814    14.7988    67.6328 </r>
       <r>     2.9738    15.7128    69.0855 </r>
       <r>     3.0663    13.9161    70.3722 </r>
       <r>     3.1588    11.8377    71.4667 </r>
       <r>     3.2512     9.7345    72.3667 </r>
       <r>     3.3437    11.2481    73.4066 </r>
       <r>     3.4361    14.0919    74.7095 </r>
       <r>     3.5286    14.9140    76.0884 </r>
       <r>     3.6210    14.3435    77.4146 </r>
       <r>     3.7135    13.3141    78.6456 </r>
       <r>     3.8060    11.8568    79.7418 </r>
       <r>     3.8984    13.5352    80.9932 </r>
       <r>     3.9909    19.4155    82.7883 </r>
       <r>     4.0833    19.5808    84.5987 </r>
       <r>     4.1758    13.1856    85.8178 </r>
       <r>     4.2682    11.6237    86.8925 </r>
       <r>     4.3607    14.9532    88.2750 </r>
       <r>     4.4532    14.9068    89.6533 </r>
       <r>     4.5456    13.3607    90.8886 </r>
       <r>     4.6381    15.2113    92.2950 </r>
       <r>     4.7305    19.5956    94.1067 </r>
       <r>     4.8230    20.8278    96.0324 </r>
       <r>     4.9154    18.5345    97.7460 </r>
       <r>     5.0079    13.7392    99.0163 </r>
       <r>     5.1004    14.1714   100.3266 </r>
       <r>     5.1928    14.7491   101.6902 </r>
       <r>     5.2853    15.4183   103.1157 </r>
       <r>     5.3777    15.4483   104.5440 </r>
       <r>     5.4702    12.7442   105.7223 </r>
       <r>     5.5626    11.0819   106.7469 </r>
       <r>     5.6551    12.3559   107.8893 </r>
       <r>     5.7476    12.0171   109.0004 </r>
       <r>     5.8400    12.1122   110.1202 </r>
       <r>     5.9325    11.5112   111.1845 </r>
       <r>     6.0249    10.6680   112.1709 </r>
       <r>     6.1174     9.4008   113.0400 </r>
       <r>     6.2098    10.2666   113.9893 </r>
       <r>     6.3023    12.0077   115.0994 </r>
       <r>     6.3948    15.0443   116.4904 </r>
       <r>     6.4872    17.6266   118.1201 </r>
       <r>     6.5797    16.1720   119.6153 </r>
       <r>     6.6721    13.0354   120.8205 </r>
       <r>     6.7646    10.2307   121.7664 </r>
       <r>     6.8570    10.4340   122.7311 </r>
       <r>     6.9495    12.0540   123.8456 </r>
       <r>     7.0420     6.3624   124.4339 </r>
       <r>     7.1344     2.2302   124.6401 </r>
       <r>     7.2269     3.0447   124.9216 </r>
       <r>     7.3193     5.7125   125.4497 </r>
       <r>     7.4118     6.9322   126.0907 </r>
       <r>     7.5042     3.8753   126.4489 </r>
       <r>     7.5967     3.2225   126.7469 </r>
       <r>     7.6892     3.9802   127.1149 </r>
       <r>     7.7816     2.0835   127.3075 </r>
       <r>     7.8741     0.2716   127.3326 </r>
       <r>     7.9665     0.0076   127.3333 </r>
       <r>     8.0590     0.0000   127.3333 </r>
       <r>     8.1514     0.0000   127.3333 </r>
       <r>     8.2439     0.0060   127.3339 </r>
       <r>     8.3364     0.2122   127.3535 </r>
       <r>     8.4288     1.7203   127.5126 </r>
       <r>     8.5213     3.3965   127.8266 </r>
       <r>     8.6137     1.6701   127.9810 </r>
       <r>     8.7062     0.1998   127.9995 </r>
       <r>     8.7986     0.0055   128.0000 </r>
       <r>     8.8911     0.0000   128.0000 </r>
       <r>     8.9836     0.0000   128.0000 </r>
       <r>     9.0760     0.0000   128.0000 </r>
       <r>     9.1685     0.0000   128.0000 </r>
       <r>     9.2609     0.0000   128.0000 </r>
       <r>     9.3534     0.0000   128.0000 </r>
       <r>     9.4458     0.0001   128.0000 </r>
       <r>     9.5383     0.0072   128.0007 </r>
       <r>     9.6308     0.1384   128.0135 </r>
       <r>     9.7232     0.8091   128.0883 </r>
       <r>     9.8157     1.9615   128.2696 </r>
       <r>     9.9081     2.3901   128.4906 </r>
       <r>    10.0006     1.9136   128.6675 </r>
       <r>    10.0930     0.7902   128.7406 </r>
       <r>    10.1855     0.0988   128.7497 </r>
       <r>    10.2779     0.0114   128.7508 </r>
       <r>    10.3704     0.2160   128.7708 </r>
       <r>    10.4629     1.2263   128.8841 </r>
       <r>    10.5553     1.7984   129.0504 </r>
       <r>    10.6478     1.9788   129.2334 </r>
       <r>    10.7402     3.8140   129.5860 </r>
       <r>    10.8327     3.9415   129.9504 </r>
       <r>    10.9251     4.7130   130.3862 </r>
       <r>    11.0176     7.5585   131.0850 </r>
       <r>    11.1101     7.6712   131.7943 </r>
       <r>    11.2025     8.5653   132.5862 </r>
       <r>    11.2950     8.3589   133.3590 </r>
       <r>    11.3874     9.8079   134.2658 </r>
       <r>    11.4799    12.1318   135.3875 </r>
       <r>    11.5723    11.9385   136.4913 </r>
       <r>    11.6648     9.7942   137.3968 </r>
       <r>    11.7573     8.7960   138.2101 </r>
       <r>    11.8497    10.1565   139.1491 </r>
       <r>    11.9422    11.9486   140.2539 </r>
       <r>    12.0346     9.5045   141.1326 </r>
       <r>    12.1271     6.8121   141.7625 </r>
       <r>    12.2195     8.8633   142.5819 </r>
       <r>    12.3120    11.5670   143.6514 </r>
       <r>    12.4045    13.7908   144.9264 </r>
       <r>    12.4969    14.8265   146.2973 </r>
       <r>    12.5894    11.0959   147.3231 </r>
       <r>    12.6818     9.6217   148.2127 </r>
       <r>    12.7743    10.6637   149.1987 </r>
       <r>    12.8667    13.9134   150.4851 </r>
       <r>    12.9592    13.4156   151.7254 </r>
       <r>    13.0517     9.6857   152.6209 </r>
       <r>    13.1441     7.5237   153.3166 </r>
       <r>    13.2366     7.1464   153.9773 </r>
       <r>    13.3290    11.7237   155.0612 </r>
       <r>    13.4215    13.3704   156.2974 </r>
       <r>    13.5139    10.4972   157.2680 </r>
       <r>    13.6064     8.4421   158.0485 </r>
       <r>    13.6989     6.8320   158.6802 </r>
       <r>    13.7913     7.4553   159.3695 </r>
       <r>    13.8838    10.2977   160.3216 </r>
       <r>    13.9762     8.6991   161.1258 </r>
       <r>    14.0687     9.2321   161.9794 </r>
       <r>    14.1611    12.1653   163.1042 </r>
       <r>    14.2536    11.1673   164.1367 </r>
       <r>    14.3461     9.8324   165.0458 </r>
       <r>    14.4385     9.0897   165.8862 </r>
       <r>    14.5310     7.9103   166.6175 </r>
       <r>    14.6234     6.7307   167.2398 </r>
       <r>    14.7159     4.0757   167.6167 </r>
       <r>    14.8083     1.3525   167.7417 </r>
       <r>    14.9008     0.4752   167.7857 </r>
       <r>    14.9933     0.5582   167.8373 </r>
       <r>    15.0857     0.7723   167.9087 </r>
       <r>    15.1782     0.7502   167.9780 </r>
       <r>    15.2706     0.2212   167.9985 </r>
       <r>    15.3631     0.0163   168.0000 </r>
       <r>    15.4555     0.0003   168.0000 </r>
       <r>    15.5480     0.0000   168.0000 </r>
       <r>    15.6405     0.0000   168.0000 </r>
       <r>    15.7329     0.0000   168.0000 </r>
       <r>    15.8254     0.0000   168.0000 </r>
       <r>    15.9178     0.0000   168.0000 </r>
       <r>    16.0103     0.0000   168.0000 </r>
       <r>    16.1027     0.0000   168.0000 </r>
       <r>    16.1952     0.0000   168.0000 </r>
       <r>    16.2877     0.0000   168.0000 </r>
       <r>    16.3801     0.0000   168.0000 </r>
      </set>
     </set>
    </array>
   </total>
  </dos>
 </calculation>
 <structure name="finalpos" >
  <crystal>
   <varray name="basis" >
    <v>      11.51429596       0.00000000       0.06726015 </v>
    <v>       0.00000000       3.13228987       0.00000000 </v>
    <v>      -5.16058549       0.00000000       9.49283171 </v>
   </varray>
   <i name="volume">    343.45676041 </i>
   <varray name="rec_basis" >
    <v>       0.08657364       0.00000000       0.04706400 </v>
    <v>       0.00000000       0.31925525       0.00000000 </v>
    <v>      -0.00061341       0.00000000       0.10500918 </v>
   </varray>
  </crystal>
  <varray name="positions" >
   <v>       0.25590578       0.50000000       0.54491304 </v>
   <v>       0.25269642       0.00000000       0.79447020 </v>
   <v>       0.75590578       0.00000000       0.54491304 </v>
   <v>       0.75269642       0.50000000       0.79447020 </v>
   <v>       0.99538043       0.00000000       0.82919420 </v>
   <v>       0.00080440       0.50000000       0.08833600 </v>
   <v>       0.99314405       0.00000000       0.32865101 </v>
   <v>       0.99381742       0.50000000       0.57717298 </v>
   <v>       0.75076702       0.00000000       0.04419641 </v>
   <v>       0.75321847       0.50000000       0.28977241 </v>
   <v>       0.49538043       0.50000000       0.82919420 </v>
   <v>       0.50080440       0.00000000       0.08833600 </v>
   <v>       0.49314405       0.50000000       0.32865101 </v>
   <v>       0.49381742       0.00000000       0.57717298 </v>
   <v>       0.25076702       0.50000000       0.04419641 </v>
   <v>       0.25321847       0.00000000       0.28977241 </v>
   <v>       0.68856253       0.00000000       0.17864412 </v>
   <v>       0.93219922       0.00000000       0.63065174 </v>
   <v>       0.18856253       0.50000000       0.17864412 </v>
   <v>       0.43219922       0.50000000       0.63065174 </v>
   <v>       0.18853983       0.00000000       0.91293995 </v>
   <v>       0.18944076       0.00000000       0.44568678 </v>
   <v>       0.19823027       0.50000000       0.68419241 </v>
   <v>       0.93532067       0.00000000       0.13252653 </v>
   <v>       0.94535036       0.50000000       0.38674607 </v>
   <v>       0.42662238       0.00000000       0.88190613 </v>
   <v>       0.68853983       0.50000000       0.91293995 </v>
   <v>       0.68944076       0.50000000       0.44568678 </v>
   <v>       0.69823027       0.00000000       0.68419241 </v>
   <v>       0.43532067       0.50000000       0.13252653 </v>
   <v>       0.44535036       0.00000000       0.38674607 </v>
   <v>       0.92662238       0.50000000       0.88190613 </v>
  </varray>
 </structure>
</modeling>
