<?xml version="1.0" encoding="ISO-8859-1"?>
<modeling>
 <generator>
  <i name="program" type="string">vasp </i>
  <i name="version" type="string">5.3.5  </i>
  <i name="subversion" type="string">31Mar14 (build Jun 20 2014 13:15:13) complex                          parallel </i>
  <i name="platform" type="string">LinuxIFC </i>
  <i name="date" type="string">2025 12 16 </i>
  <i name="time" type="string">17:59:34 </i>
 </generator>
 <incar>
  <i type="string" name="PREC">accurate</i>
  <i type="int" name="IALGO">    68</i>
  <i type="logical" name="ADDGRID"> T  </i>
  <i type="int" name="NELM">   100</i>
  <i type="int" name="NELMIN">     4</i>
  <i type="int" name="IBRION">     2</i>
  <i name="EDIFF">      0.00000100</i>
  <i name="EDIFFG">     -0.02000000</i>
  <i type="int" name="NSW">    30</i>
  <i type="int" name="ISIF">     3</i>
  <i name="ENCUT">    600.00000000</i>
  <i type="logical" name="LREAL"> F  </i>
  <i type="int" name="ISMEAR">     0</i>
  <i name="SIGMA">      0.10000000</i>
  <i type="logical" name="LWAVE"> F  </i>
  <i type="logical" name="LCHARG"> F  </i>
  <i type="int" name="NELM">   100</i>
 </incar>
 <kpoints>
  <generation param="Auto">
   <i name="subdivisionlength">     20.00000000 </i>
   <v type="int" name="divisions">       4        6        2 </v>
   <v name="usershift">      0.00000000       0.00000000       0.00000000 </v>
   <v name="genvec1">      0.25000000       0.00000000       0.00000000 </v>
   <v name="genvec2">      0.00000000       0.16666667       0.00000000 </v>
   <v name="genvec3">      0.00000000       0.00000000       0.50000000 </v>
   <v name="shift">      0.00000000       0.00000000       0.00000000 </v>
  </generation>
  <varray name="kpointlist" >
   <v>       0.00000000       0.00000000       0.00000000 </v>
   <v>       0.25000000       0.00000000       0.00000000 </v>
   <v>       0.50000000       0.00000000       0.00000000 </v>
   <v>       0.00000000       0.16666667       0.00000000 </v>
   <v>       0.25000000       0.16666667       0.00000000 </v>
   <v>       0.50000000       0.16666667       0.00000000 </v>
   <v>       0.00000000       0.33333333       0.00000000 </v>
   <v>       0.25000000       0.33333333       0.00000000 </v>
   <v>       0.50000000       0.33333333       0.00000000 </v>
   <v>       0.00000000       0.50000000       0.00000000 </v>
   <v>       0.25000000       0.50000000       0.00000000 </v>
   <v>       0.50000000       0.50000000       0.00000000 </v>
   <v>       0.00000000       0.00000000       0.50000000 </v>
   <v>       0.25000000       0.00000000       0.50000000 </v>
   <v>       0.50000000       0.00000000       0.50000000 </v>
   <v>       0.00000000       0.16666667       0.50000000 </v>
   <v>       0.25000000       0.16666667       0.50000000 </v>
   <v>       0.50000000       0.16666667       0.50000000 </v>
   <v>       0.00000000       0.33333333       0.50000000 </v>
   <v>       0.25000000       0.33333333       0.50000000 </v>
   <v>       0.50000000       0.33333333       0.50000000 </v>
   <v>       0.00000000       0.50000000       0.50000000 </v>
   <v>       0.25000000       0.50000000       0.50000000 </v>
   <v>       0.50000000       0.50000000       0.50000000 </v>
  </varray>
  <varray name="weights" >
   <v>       0.02083333 </v>
   <v>       0.04166667 </v>
   <v>       0.02083333 </v>
   <v>       0.04166667 </v>
   <v>       0.08333333 </v>
   <v>       0.04166667 </v>
   <v>       0.04166667 </v>
   <v>       0.08333333 </v>
   <v>       0.04166667 </v>
   <v>       0.02083333 </v>
   <v>       0.04166667 </v>
   <v>       0.02083333 </v>
   <v>       0.02083333 </v>
   <v>       0.04166667 </v>
   <v>       0.02083333 </v>
   <v>       0.04166667 </v>
   <v>       0.08333333 </v>
   <v>       0.04166667 </v>
   <v>       0.04166667 </v>
   <v>       0.08333333 </v>
   <v>       0.04166667 </v>
   <v>       0.02083333 </v>
   <v>       0.04166667 </v>
   <v>       0.02083333 </v>
  </varray>
 </kpoints>
 <parameters>
  <separator name="general" >
   <i type="string" name="SYSTEM">unknown system</i>
   <i type="logical" name="LCOMPAT"> F  </i>
  </separator>
  <separator name="electronic" >
   <i type="string" name="PREC">accura</i>
   <i name="ENMAX">    600.00000000</i>
   <i name="ENAUG">    644.87300000</i>
   <i name="EDIFF">      0.00000100</i>
   <i type="int" name="IALGO">    68</i>
   <i type="int" name="IWAVPR">    11</i>
   <i type="int" name="NBANDS">    44</i>
   <i name="NELECT">     64.00000000</i>
   <i type="int" name="TURBO">     0</i>
   <i type="int" name="IRESTART">     0</i>
   <i type="int" name="NREBOOT">     0</i>
   <i type="int" name="NMIN">     0</i>
   <i name="EREF">      0.00000000</i>
   <separator name="electronic smearing" >
    <i type="int" name="ISMEAR">     0</i>
    <i name="SIGMA">      0.10000000</i>
    <i name="KSPACING">      0.50000000</i>
    <i type="logical" name="KGAMMA"> T  </i>
   </separator>
   <separator name="electronic projectors" >
    <i type="logical" name="LREAL"> F  </i>
    <v name="ROPT">      0.00000000      0.00000000      0.00000000      0.00000000</v>
    <i type="int" name="LMAXPAW">  -100</i>
    <i type="int" name="LMAXMIX">     2</i>
    <i type="logical" name="NLSPLINE"> F  </i>
   </separator>
   <separator name="electronic startup" >
    <i type="int" name="ISTART">     0</i>
    <i type="int" name="ICHARG">     2</i>
    <i type="int" name="INIWAV">     1</i>
   </separator>
   <separator name="electronic spin" >
    <i type="int" name="ISPIN">     1</i>
    <i type="logical" name="LNONCOLLINEAR"> F  </i>
    <v name="MAGMOM">      1.00000000      1.00000000      1.00000000      1.00000000      1.00000000      1.00000000      1.00000000      1.00000000      1.00000000      1.00000000      1.00000000      1.00000000      1.00000000      1.00000000      1.00000000      1.00000000</v>
    <i name="NUPDOWN">     -1.00000000</i>
    <i type="logical" name="LSORBIT"> F  </i>
    <v name="SAXIS">      0.00000000      0.00000000      1.00000000</v>
    <i type="logical" name="LSPIRAL"> F  </i>
    <v name="QSPIRAL">      0.00000000      0.00000000      0.00000000</v>
    <i type="logical" name="LZEROZ"> F  </i>
   </separator>
   <separator name="electronic exchange-correlation" >
    <i type="logical" name="LASPH"> F  </i>
    <i type="logical" name="LMETAGGA"> F  </i>
   </separator>
   <separator name="electronic convergence" >
    <i type="int" name="NELM">   100</i>
    <i type="int" name="NELMDL">     0</i>
    <i type="int" name="NELMIN">     4</i>
    <i name="ENINI">    600.00000000</i>
    <separator name="electronic convergence detail" >
     <i type="logical" name="LDIAG"> T  </i>
     <i type="logical" name="LSUBROT"> F  </i>
     <i name="WEIMIN">      0.00100000</i>
     <i name="EBREAK">      0.00000001</i>
     <i name="DEPER">      0.30000000</i>
     <i type="int" name="NRMM">     4</i>
     <i name="TIME">      0.40000000</i>
    </separator>
   </separator>
   <separator name="electronic mixer" >
    <i name="AMIX">      0.40000000</i>
    <i name="BMIX">      1.00000000</i>
    <i name="AMIN">      0.10000000</i>
    <i name="AMIX_MAG">      1.60000000</i>
    <i name="BMIX_MAG">      1.00000000</i>
    <separator name="electronic mixer details" >
     <i type="int" name="IMIX">     4</i>
     <i type="int" name="MAXMIX">   -45</i>
     <i name="WC">    100.00000000</i>
     <i type="int" name="INIMIX">     1</i>
     <i type="int" name="MIXPRE">     1</i>
     <i type="int" name="MREMOVE">     5</i>
    </separator>
   </separator>
   <separator name="electronic dipolcorrection" >
    <i type="logical" name="LDIPOL"> F  </i>
    <i type="logical" name="LMONO"> F  </i>
    <i type="int" name="IDIPOL">     0</i>
    <i name="EPSILON">      1.00000000</i>
    <v name="DIPOL">   -100.00000000   -100.00000000   -100.00000000</v>
    <i name="EFIELD">      0.00000000</i>
   </separator>
  </separator>
  <separator name="grids" >
   <i type="int" name="NGX">    40</i>
   <i type="int" name="NGY">    28</i>
   <i type="int" name="NGZ">    90</i>
   <i type="int" name="NGXF">    80</i>
   <i type="int" name="NGYF">    56</i>
   <i type="int" name="NGZF">   180</i>
   <i type="logical" name="ADDGRID"> T  </i>
  </separator>
  <separator name="ionic" >
   <i type="int" name="NSW">    30</i>
   <i type="int" name="IBRION">     2</i>
   <i type="int" name="ISIF">     3</i>
   <i name="PSTRESS">      0.00000000</i>
   <i name="EDIFFG">     -0.02000000</i>
   <i type="int" name="NFREE">     1</i>
   <i name="POTIM">      0.50000000</i>
   <i name="SMASS">     -3.00000000</i>
   <i name="SCALEE">      1.00000000</i>
  </separator>
  <separator name="ionic md" >
   <i name="TEBEG">      0.00010000</i>
   <i name="TEEND">      0.00010000</i>
   <i type="int" name="NBLOCK">     1</i>
   <i type="int" name="KBLOCK">    30</i>
   <i type="int" name="NPACO">   256</i>
   <i name="APACO">     16.00000000</i>
  </separator>
  <separator name="symmetry" >
   <i type="int" name="ISYM">     2</i>
   <i name="SYMPREC">      0.00001000</i>
  </separator>
  <separator name="dos" >
   <i type="logical" name="LORBIT"> F  </i>
   <v name="RWIGS">     -1.00000000     -1.00000000     -1.00000000     -1.00000000</v>
   <i type="int" name="NEDOS">   301</i>
   <i name="EMIN">     10.00000000</i>
   <i name="EMAX">    -10.00000000</i>
   <i name="EFERMI">      0.00000000</i>
  </separator>
  <separator name="writing" >
   <i type="int" name="NWRITE">     2</i>
   <i type="logical" name="LWAVE"> F  </i>
   <i type="logical" name="LCHARG"> F  </i>
   <i type="logical" name="LPARD"> F  </i>
   <i type="logical" name="LVTOT"> F  </i>
   <i type="logical" name="LVHAR"> F  </i>
   <i type="logical" name="LELF"> F  </i>
   <i type="logical" name="LOPTICS"> F  </i>
   <v name="STM">      0.00000000      0.00000000      0.00000000      0.00000000      0.00000000      0.00000000      0.00000000</v>
  </separator>
  <separator name="performance" >
   <i type="int" name="NPAR">     4</i>
   <i type="int" name="NSIM">     4</i>
   <i type="int" name="NBLK">    -1</i>
   <i type="logical" name="LPLANE"> T  </i>
   <i type="logical" name="LSCALAPACK"> T  </i>
   <i type="logical" name="LSCAAWARE"> F  </i>
   <i type="logical" name="LSCALU"> F  </i>
   <i type="logical" name="LASYNC"> F  </i>
   <i type="logical" name="LORBITALREAL"> F  </i>
  </separator>
  <separator name="miscellaneous" >
   <i type="int" name="IDIOT">     3</i>
   <i type="logical" name="LMUSIC"> F  </i>
   <v name="POMASS">     28.08500000     26.98100000     12.01100000     14.00100000</v>
   <v name="DARWINR">      0.00000000      0.00000000      0.00000000      0.00000000</v>
   <v name="DARWINV">      1.00000000      1.00000000      1.00000000      1.00000000</v>
   <i type="logical" name="LCORR"> T  </i>
  </separator>
  <i type="logical" name="GGA_COMPAT"> T  </i>
  <i type="logical" name="LBERRY"> F  </i>
  <i type="int" name="ICORELEVEL">     0</i>
  <i type="logical" name="LDAU"> F  </i>
  <i type="int" name="I_CONSTRAINED_M">     0</i>
  <separator name="electronic exchange-correlation" >
   <i type="string" name="GGA">--</i>
   <i type="int" name="VOSKOWN">     0</i>
   <i type="logical" name="LHFCALC"> F  </i>
   <i type="string" name="PRECFOCK"></i>
   <i type="logical" name="LSYMGRAD"> F  </i>
   <i type="logical" name="LHFONE"> F  </i>
   <i type="logical" name="LRHFCALC"> F  </i>
   <i type="logical" name="LTHOMAS"> F  </i>
   <i type="logical" name="LMODELHF"> F  </i>
   <i name="ENCUT4O">     -1.00000000</i>
   <i type="int" name="EXXOEP">     0</i>
   <i type="int" name="FOURORBIT">     0</i>
   <i name="AEXX">      0.00000000</i>
   <i name="HFALPHA">      0.00000000</i>
   <i name="MCALPHA">      0.00000000</i>
   <i name="ALDAX">      1.00000000</i>
   <i name="AGGAX">      1.00000000</i>
   <i name="ALDAC">      1.00000000</i>
   <i name="AGGAC">      1.00000000</i>
   <i type="int" name="NKREDX">     1</i>
   <i type="int" name="NKREDY">     1</i>
   <i type="int" name="NKREDZ">     1</i>
   <i type="logical" name="SHIFTRED"> F  </i>
   <i type="logical" name="ODDONLY"> F  </i>
   <i type="logical" name="EVENONLY"> F  </i>
   <i type="int" name="LMAXFOCK">     0</i>
   <i type="int" name="NMAXFOCKAE">     0</i>
   <i type="logical" name="LFOCKAEDFT"> F  </i>
   <i name="HFSCREEN">      0.00000000</i>
   <i name="HFSCREENC">      0.00000000</i>
   <i type="int" name="NBANDSGWLOW">     0</i>
  </separator>
  <separator name="vdW DFT" >
   <i type="logical" name="LUSE_VDW"> F  </i>
   <i name="Zab_VDW">     -0.84910000</i>
   <i name="PARAM1">      0.12340000</i>
   <i name="PARAM2">      1.00000000</i>
   <i name="PARAM3">      0.00000000</i>
  </separator>
  <separator name="model GW" >
   <i type="int" name="MODEL_GW">     0</i>
   <i name="MODEL_EPS0">      6.37538873</i>
   <i name="MODEL_ALPHA">      1.00000000</i>
  </separator>
  <separator name="linear response parameters" >
   <i type="logical" name="LEPSILON"> F  </i>
   <i type="logical" name="LRPA"> F  </i>
   <i type="logical" name="LNABLA"> F  </i>
   <i type="logical" name="LVEL"> F  </i>
   <i type="int" name="KINTER">     0</i>
   <i name="CSHIFT">      0.10000000</i>
   <i name="OMEGAMAX">     -1.00000000</i>
   <i name="DEG_THRESHOLD">      0.00200000</i>
  </separator>
  <separator name="orbital magnetization" >
   <i type="logical" name="NUCIND"> F  </i>
   <v name="MAGPOS">      0.00000000      0.00000000      0.00000000</v>
   <i type="logical" name="LNICSALL"> T  </i>
   <i type="logical" name="ORBITALMAG"> F  </i>
   <i type="logical" name="LMAGBLOCH"> F  </i>
   <i type="logical" name="LCHIMAG"> F  </i>
   <i type="logical" name="LGAUGE"> T  </i>
   <i type="int" name="MAGATOM">     0</i>
   <v name="MAGDIPOL">      0.00000000      0.00000000      0.00000000</v>
   <v name="AVECCONST">      0.00000000      0.00000000      0.00000000</v>
  </separator>
  <separator name="response functions" >
   <i type="logical" name="LADDER"> F  </i>
   <i type="logical" name="LFXC"> F  </i>
   <i type="logical" name="LHARTREE"> T  </i>
   <i type="int" name="IBSE">     0</i>
   <i type="logical" name="LTCTE"> F  </i>
   <i type="logical" name="LTETE"> F  </i>
   <i type="logical" name="LTRIPLET"> F  </i>
   <i type="logical" name="LFXCEPS"> F  </i>
   <i type="logical" name="LFXHEG"> F  </i>
   <i type="logical" name="L2ORDER"> F  </i>
   <i type="logical" name="LUSEW"> F  </i>
   <i name="ENCUTGW">     -2.00000000</i>
   <i name="ENCUTGWSOFT">     -2.00000000</i>
   <i name="ENCUTLF">     -1.00000000</i>
   <i type="int" name="LMAXMP2">    -1</i>
   <i name="SCISSOR">      0.00000000</i>
   <i type="int" name="NOMEGA">     0</i>
   <i type="int" name="NOMEGAR">     0</i>
   <i type="int" name="NBANDSGW">    -1</i>
   <i type="int" name="NBANDSO">    -1</i>
   <i type="int" name="NBANDSV">    -1</i>
   <i type="int" name="NELM">   100</i>
   <i type="int" name="DIM">     3</i>
   <i type="int" name="ANTIRES">     0</i>
   <i name="OMEGAMAX">    -30.00000000</i>
   <i name="OMEGAMIN">    -30.00000000</i>
   <i name="OMEGATL">   -200.00000000</i>
   <i type="int" name="OMEGAGRID">     0</i>
   <i name="CSHIFT">     -0.10000000</i>
   <i type="logical" name="SELFENERGY"> F  </i>
   <i type="logical" name="LSPECTRAL"> F  </i>
   <i type="logical" name="ODDONLYGW"> F  </i>
   <i type="logical" name="EVENONLYGW"> F  </i>
   <i type="int" name="NKREDLFX">     1</i>
   <i type="int" name="NKREDLFY">     1</i>
   <i type="int" name="NKREDLFZ">     1</i>
   <i type="int" name="MAXMEM">  1800</i>
   <i type="int" name="TELESCOPE">     0</i>
   <i type="int" name="TAUPAR">     1</i>
  </separator>
  <separator name="External order field" >
   <i name="OFIELD_KAPPA">      0.00000000</i>
   <v name="OFIELD_K">      0.00000000      0.00000000      0.00000000</v>
   <i name="OFIELD_Q6_NEAR">      0.00000000</i>
   <i name="OFIELD_Q6_FAR">      0.00000000</i>
   <i name="OFIELD_A">      0.00000000</i>
  </separator>
 </parameters>
 <atominfo>
  <atoms>      16 </atoms>
  <types>       4 </types>
  <array name="atoms" >
   <dimension dim="1">ion</dimension>
   <field type="string">element</field>
   <field type="int">atomtype</field>
   <set>
    <rc><c>Si</c><c>   1</c></rc>
    <rc><c>Si</c><c>   1</c></rc>
    <rc><c>Si</c><c>   1</c></rc>
    <rc><c>Si</c><c>   1</c></rc>
    <rc><c>Si</c><c>   1</c></rc>
    <rc><c>Al</c><c>   2</c></rc>
    <rc><c>Al</c><c>   2</c></rc>
    <rc><c>Al</c><c>   2</c></rc>
    <rc><c>C </c><c>   3</c></rc>
    <rc><c>C </c><c>   3</c></rc>
    <rc><c>C </c><c>   3</c></rc>
    <rc><c>C </c><c>   3</c></rc>
    <rc><c>C </c><c>   3</c></rc>
    <rc><c>N </c><c>   4</c></rc>
    <rc><c>N </c><c>   4</c></rc>
    <rc><c>N </c><c>   4</c></rc>
   </set>
  </array>
  <array name="atomtypes" >
   <dimension dim="1">type</dimension>
   <field type="int">atomspertype</field>
   <field type="string">element</field>
   <field>mass</field>
   <field>valence</field>
   <field type="string">pseudopotential</field>
   <set>
    <rc><c>   5</c><c>Si</c><c>     28.08500000</c><c>      4.00000000</c><c>  PAW_PBE Si 05Jan2001                  </c></rc>
    <rc><c>   3</c><c>Al</c><c>     26.98100000</c><c>      3.00000000</c><c>  PAW_PBE Al 04Jan2001                  </c></rc>
    <rc><c>   5</c><c>C </c><c>     12.01100000</c><c>      4.00000000</c><c>  PAW_PBE C 08Apr2002                   </c></rc>
    <rc><c>   3</c><c>N </c><c>     14.00100000</c><c>      5.00000000</c><c>  PAW_PBE N_s 07Sep2000                 </c></rc>
   </set>
  </array>
 </atominfo>
 <structure name="initialpos" >
  <crystal>
   <varray name="basis" >
    <v>       5.06579636       0.00000000       0.01743533 </v>
    <v>       0.00000000       3.10379162       0.00000000 </v>
    <v>       0.03704459       0.00000000      10.81285153 </v>
   </varray>
   <i name="volume">    170.01036617 </i>
   <varray name="rec_basis" >
    <v>       0.19740466       0.00000000      -0.00067630 </v>
    <v>       0.00000000       0.32218658       0.00000000 </v>
    <v>      -0.00031831       0.00000000       0.09248363 </v>
   </varray>
  </crystal>
  <varray name="positions" >
   <v>       0.99909059       0.50000000       0.58539741 </v>
   <v>       0.00601307       0.50000000       0.08241462 </v>
   <v>       0.49925153       0.50000000       0.91990777 </v>
   <v>       0.49332794       0.50000000       0.42016578 </v>
   <v>       0.49811472       0.00000000       0.16393782 </v>
   <v>       0.00312678       0.00000000       0.83402546 </v>
   <v>       0.00139974       0.00000000       0.33435652 </v>
   <v>       0.50706302       0.00000000       0.66433411 </v>
   <v>       0.60928765       0.00000000       0.84527186 </v>
   <v>       0.63813719       0.50000000       0.56678056 </v>
   <v>       0.62971763       0.50000000       0.08934294 </v>
   <v>       0.11421330       0.00000000       0.65838044 </v>
   <v>       0.12859551       0.00000000       0.16160614 </v>
   <v>       0.60282342       0.00000000       0.32994641 </v>
   <v>       0.13322680       0.50000000       0.92695420 </v>
   <v>       0.13661111       0.50000000       0.41717795 </v>
  </varray>
 </structure>
 <calculation>
  <scstep>
   <time name="dav">    0.78    0.78</time>
   <time name="total">    0.86    0.88</time>
   <energy>
    <i name="alphaZ">     69.78022709 </i>
    <i name="ewald">  -2246.90120645 </i>
    <i name="hartreedc">   -332.94526993 </i>
    <i name="XCdc">      4.95682806 </i>
    <i name="pawpsdc">   1796.64489807 </i>
    <i name="pawaedc">  -1619.21785927 </i>
    <i name="eentropy">     -0.01452801 </i>
    <i name="bandstr">    431.07192753 </i>
    <i name="atom">   2205.34103330 </i>
    <i name="e_fr_energy">    308.71605038 </i>
    <i name="e_wo_entrp">    308.73057840 </i>
    <i name="e_0_energy">    308.72331439 </i>
   </energy>
  </scstep>
  <scstep>
   <time name="dav">    0.93    0.93</time>
   <time name="total">    0.93    0.94</time>
   <energy>
    <i name="e_fr_energy">   -103.92175967 </i>
    <i name="e_wo_entrp">   -103.92175967 </i>
    <i name="e_0_energy">   -103.92175967 </i>
   </energy>
  </scstep>
  <scstep>
   <time name="dav">    0.93    0.93</time>
   <time name="total">    0.93    0.95</time>
   <energy>
    <i name="e_fr_energy">   -133.86036277 </i>
    <i name="e_wo_entrp">   -133.86036277 </i>
    <i name="e_0_energy">   -133.86036277 </i>
   </energy>
  </scstep>
  <scstep>
   <time name="dav">    0.91    0.92</time>
   <time name="total">    0.92    0.93</time>
   <energy>
    <i name="e_fr_energy">   -134.64320745 </i>
    <i name="e_wo_entrp">   -134.64320745 </i>
    <i name="e_0_energy">   -134.64320745 </i>
   </energy>
  </scstep>
  <scstep>
   <time name="dav">    0.93    0.93</time>
   <time name="total">    1.06    1.07</time>
   <energy>
    <i name="e_fr_energy">   -134.66784581 </i>
    <i name="e_wo_entrp">   -134.66784581 </i>
    <i name="e_0_energy">   -134.66784581 </i>
   </energy>
  </scstep>
  <scstep>
   <time name="diag">    0.19    0.19</time>
   <time name="diis">    0.56    0.56</time>
   <time name="orth">    0.03    0.03</time>
   <time name="total">    0.99    1.00</time>
   <energy>
    <i name="e_fr_energy">   -117.66187351 </i>
    <i name="e_wo_entrp">   -117.66187351 </i>
    <i name="e_0_energy">   -117.66187351 </i>
   </energy>
  </scstep>
  <scstep>
   <time name="diag">    0.19    0.19</time>
   <time name="diis">    0.60    0.60</time>
   <time name="orth">    0.02    0.02</time>
   <time name="total">    1.08    1.10</time>
   <energy>
    <i name="e_fr_energy">   -117.46295661 </i>
    <i name="e_wo_entrp">   -117.46295661 </i>
    <i name="e_0_energy">   -117.46295661 </i>
   </energy>
  </scstep>
  <scstep>
   <time name="diag">    0.19    0.19</time>
   <time name="diis">    0.56    0.56</time>
   <time name="orth">    0.03    0.03</time>
   <time name="total">    0.98    0.99</time>
   <energy>
    <i name="e_fr_energy">   -117.64494863 </i>
    <i name="e_wo_entrp">   -117.64494863 </i>
    <i name="e_0_energy">   -117.64494863 </i>
   </energy>
  </scstep>
  <scstep>
   <time name="diag">    0.19    0.19</time>
   <time name="diis">    0.56    0.56</time>
   <time name="orth">    0.03    0.03</time>
   <time name="total">    0.99    1.00</time>
   <energy>
    <i name="e_fr_energy">   -117.34829878 </i>
    <i name="e_wo_entrp">   -117.34829878 </i>
    <i name="e_0_energy">   -117.34829878 </i>
   </energy>
  </scstep>
  <scstep>
   <time name="diag">    0.19    0.19</time>
   <time name="diis">    0.59    0.59</time>
   <time name="orth">    0.03    0.03</time>
   <time name="total">    1.01    1.03</time>
   <energy>
    <i name="e_fr_energy">   -117.35439257 </i>
    <i name="e_wo_entrp">   -117.35439257 </i>
    <i name="e_0_energy">   -117.35439257 </i>
   </energy>
  </scstep>
  <scstep>
   <time name="diag">    0.19    0.19</time>
   <time name="diis">    0.57    0.57</time>
   <time name="orth">    0.03    0.03</time>
   <time name="total">    1.05    1.07</time>
   <energy>
    <i name="e_fr_energy">   -117.35386839 </i>
    <i name="e_wo_entrp">   -117.35386839 </i>
    <i name="e_0_energy">   -117.35386839 </i>
   </energy>
  </scstep>
  <scstep>
   <time name="diag">    0.19    0.19</time>
   <time name="diis">    0.57    0.57</time>
   <time name="orth">    0.03    0.03</time>
   <time name="total">    0.99    1.00</time>
   <energy>
    <i name="e_fr_energy">   -117.35363688 </i>
    <i name="e_wo_entrp">   -117.35363688 </i>
    <i name="e_0_energy">   -117.35363688 </i>
   </energy>
  </scstep>
  <scstep>
   <time name="diag">    0.19    0.19</time>
   <time name="diis">    0.56    0.56</time>
   <time name="orth">    0.03    0.03</time>
   <time name="total">    0.98    1.00</time>
   <energy>
    <i name="e_fr_energy">   -117.35366421 </i>
    <i name="e_wo_entrp">   -117.35366421 </i>
    <i name="e_0_energy">   -117.35366421 </i>
   </energy>
  </scstep>
  <scstep>
   <time name="diag">    0.19    0.19</time>
   <time name="diis">    0.56    0.56</time>
   <time name="orth">    0.03    0.03</time>
   <time name="total">    0.99    1.00</time>
   <energy>
    <i name="e_fr_energy">   -117.35366513 </i>
    <i name="e_wo_entrp">   -117.35366513 </i>
    <i name="e_0_energy">   -117.35366513 </i>
   </energy>
  </scstep>
  <scstep>
   <time name="diag">    0.19    0.19</time>
   <time name="diis">    0.57    0.57</time>
   <time name="orth">    0.03    0.03</time>
   <time name="total">    0.99    1.00</time>
   <energy>
    <i name="e_fr_energy">   -117.35366580 </i>
    <i name="e_wo_entrp">   -117.35366580 </i>
    <i name="e_0_energy">   -117.35366580 </i>
   </energy>
  </scstep>
  <scstep>
   <time name="diag">    0.19    0.19</time>
   <time name="diis">    0.39    0.39</time>
   <time name="orth">    0.03    0.03</time>
   <time name="total">    0.68    0.69</time>
   <energy>
    <i name="alphaZ">     69.78022709 </i>
    <i name="ewald">  -2246.90120645 </i>
    <i name="hartreedc">   -434.60283047 </i>
    <i name="XCdc">     14.21780410 </i>
    <i name="pawpsdc">   9763.52554377 </i>
    <i name="pawaedc">  -9589.57852714 </i>
    <i name="eentropy">      0.00000000 </i>
    <i name="bandstr">    100.86429046 </i>
    <i name="atom">   2205.34103330 </i>
    <i name="e_fr_energy">   -117.35366535 </i>
    <i name="e_wo_entrp">   -117.35366535 </i>
    <i name="e_0_energy">   -117.35366535 </i>
   </energy>
  </scstep>
  <structure>
   <crystal>
    <varray name="basis" >
     <v>       5.06579636       0.00000000       0.01743533 </v>
     <v>       0.00000000       3.10379162       0.00000000 </v>
     <v>       0.03704459       0.00000000      10.81285153 </v>
    </varray>
    <i name="volume">    170.01036617 </i>
    <varray name="rec_basis" >
     <v>       0.19740466       0.00000000      -0.00067630 </v>
     <v>       0.00000000       0.32218658       0.00000000 </v>
     <v>      -0.00031831       0.00000000       0.09248363 </v>
    </varray>
   </crystal>
   <varray name="positions" >
    <v>       0.99909059       0.50000000       0.58539741 </v>
    <v>       0.00601307       0.50000000       0.08241462 </v>
    <v>       0.49925153       0.50000000       0.91990777 </v>
    <v>       0.49332794       0.50000000       0.42016578 </v>
    <v>       0.49811472       0.00000000       0.16393782 </v>
    <v>       0.00312678       0.00000000       0.83402546 </v>
    <v>       0.00139974       0.00000000       0.33435652 </v>
    <v>       0.50706302       0.00000000       0.66433411 </v>
    <v>       0.60928765       0.00000000       0.84527186 </v>
    <v>       0.63813719       0.50000000       0.56678056 </v>
    <v>       0.62971763       0.50000000       0.08934294 </v>
    <v>       0.11421330       0.00000000       0.65838044 </v>
    <v>       0.12859551       0.00000000       0.16160614 </v>
    <v>       0.60282342       0.00000000       0.32994641 </v>
    <v>       0.13322680       0.50000000       0.92695420 </v>
    <v>       0.13661111       0.50000000       0.41717795 </v>
   </varray>
  </structure>
  <varray name="forces" >
   <v>      -0.00134125       0.00000000       0.00220055 </v>
   <v>       0.00868610       0.00000000       0.00307444 </v>
   <v>       0.01205573       0.00000000       0.00453587 </v>
   <v>      -0.00721199       0.00000000      -0.00285613 </v>
   <v>      -0.00726413       0.00000000      -0.00042758 </v>
   <v>       0.00533169       0.00000000      -0.00641605 </v>
   <v>      -0.00222124       0.00000000      -0.00148680 </v>
   <v>       0.00166869       0.00000000       0.00751381 </v>
   <v>       0.01373282       0.00000000      -0.01113225 </v>
   <v>       0.01468521       0.00000000       0.00186793 </v>
   <v>      -0.01413837       0.00000000      -0.00086896 </v>
   <v>       0.00250368       0.00000000       0.00092176 </v>
   <v>      -0.01134809       0.00000000       0.00059850 </v>
   <v>      -0.01689146       0.00000000      -0.00476397 </v>
   <v>       0.00437103       0.00000000      -0.00741828 </v>
   <v>      -0.00261841       0.00000000       0.01465717 </v>
  </varray>
  <varray name="stress" >
   <v>      -0.15634346       0.00000000       0.16698488 </v>
   <v>       0.00000000       0.12495505       0.00000000 </v>
   <v>       0.16698479       0.00000000      -0.07079962 </v>
  </varray>
  <energy>
   <i name="e_fr_energy">   -117.35366535 </i>
   <i name="e_wo_entrp">   -117.35366535 </i>
   <i name="e_0_energy">      0.00000000 </i>
  </energy>
  <time name="totalsc">   17.84   18.11</time>
  <eigenvalues>
   <array>
    <dimension dim="1">band</dimension>
    <dimension dim="2">kpoint</dimension>
    <dimension dim="3">spin</dimension>
    <field>eigene</field>
    <field>occ</field>
    <set>
     <set comment="spin 1">
      <set comment="kpoint 1">
       <r>   -9.7072    1.0000 </r>
       <r>   -8.3520    1.0000 </r>
       <r>   -7.8744    1.0000 </r>
       <r>   -5.9411    1.0000 </r>
       <r>   -4.8584    1.0000 </r>
       <r>   -3.9560    1.0000 </r>
       <r>   -2.8203    1.0000 </r>
       <r>   -2.5349    1.0000 </r>
       <r>   -0.8948    1.0000 </r>
       <r>   -0.3800    1.0000 </r>
       <r>    0.3828    1.0000 </r>
       <r>    1.2313    1.0000 </r>
       <r>    1.7091    1.0000 </r>
       <r>    2.4041    1.0000 </r>
       <r>    2.7617    1.0000 </r>
       <r>    3.1021    1.0000 </r>
       <r>    3.3906    1.0000 </r>
       <r>    4.0861    1.0000 </r>
       <r>    4.3426    1.0000 </r>
       <r>    4.5691    1.0000 </r>
       <r>    4.8054    1.0000 </r>
       <r>    4.9130    1.0000 </r>
       <r>    5.6877    1.0000 </r>
       <r>    6.0436    1.0000 </r>
       <r>    6.4504    1.0000 </r>
       <r>    6.4952    1.0000 </r>
       <r>    6.7479    1.0000 </r>
       <r>    6.8720    1.0000 </r>
       <r>    7.3567    1.0000 </r>
       <r>    7.5645    1.0000 </r>
       <r>    7.9784    1.0000 </r>
       <r>    8.6596    1.0000 </r>
       <r>   10.3384    0.0000 </r>
       <r>   11.3166    0.0000 </r>
       <r>   11.8512    0.0000 </r>
       <r>   11.9482    0.0000 </r>
       <r>   12.7353    0.0000 </r>
       <r>   12.7636    0.0000 </r>
       <r>   13.8710    0.0000 </r>
       <r>   13.9775    0.0000 </r>
       <r>   14.1982    0.0000 </r>
       <r>   14.5626    0.0000 </r>
       <r>   14.8932    0.0000 </r>
       <r>   15.3458    0.0000 </r>
      </set>
      <set comment="kpoint 2">
       <r>   -9.5456    1.0000 </r>
       <r>   -8.2270    1.0000 </r>
       <r>   -8.0827    1.0000 </r>
       <r>   -5.8522    1.0000 </r>
       <r>   -4.9106    1.0000 </r>
       <r>   -4.3639    1.0000 </r>
       <r>   -3.3319    1.0000 </r>
       <r>   -2.9629    1.0000 </r>
       <r>   -0.2245    1.0000 </r>
       <r>    0.1348    1.0000 </r>
       <r>    0.8605    1.0000 </r>
       <r>    0.9175    1.0000 </r>
       <r>    2.0456    1.0000 </r>
       <r>    2.8298    1.0000 </r>
       <r>    3.1910    1.0000 </r>
       <r>    3.2787    1.0000 </r>
       <r>    3.3786    1.0000 </r>
       <r>    3.8519    1.0000 </r>
       <r>    4.5008    1.0000 </r>
       <r>    4.6794    1.0000 </r>
       <r>    4.7599    1.0000 </r>
       <r>    4.8122    1.0000 </r>
       <r>    5.7518    1.0000 </r>
       <r>    5.8355    1.0000 </r>
       <r>    6.3107    1.0000 </r>
       <r>    6.3770    1.0000 </r>
       <r>    6.7116    1.0000 </r>
       <r>    6.7438    1.0000 </r>
       <r>    7.1412    1.0000 </r>
       <r>    7.3298    1.0000 </r>
       <r>    7.5867    1.0000 </r>
       <r>    8.4640    1.0000 </r>
       <r>   10.2385    0.0000 </r>
       <r>   11.1624    0.0000 </r>
       <r>   11.6983    0.0000 </r>
       <r>   12.0647    0.0000 </r>
       <r>   12.7073    0.0000 </r>
       <r>   13.0020    0.0000 </r>
       <r>   13.5303    0.0000 </r>
       <r>   13.8699    0.0000 </r>
       <r>   14.1314    0.0000 </r>
       <r>   14.5491    0.0000 </r>
       <r>   14.8003    0.0000 </r>
       <r>   15.4884    0.0000 </r>
      </set>
      <set comment="kpoint 3">
       <r>   -9.3108    1.0000 </r>
       <r>   -8.3837    1.0000 </r>
       <r>   -8.0691    1.0000 </r>
       <r>   -5.7577    1.0000 </r>
       <r>   -5.0848    1.0000 </r>
       <r>   -4.5295    1.0000 </r>
       <r>   -3.7303    1.0000 </r>
       <r>   -3.2929    1.0000 </r>
       <r>   -0.2279    1.0000 </r>
       <r>    0.1657    1.0000 </r>
       <r>    1.6210    1.0000 </r>
       <r>    2.1744    1.0000 </r>
       <r>    2.2950    1.0000 </r>
       <r>    2.6671    1.0000 </r>
       <r>    3.2608    1.0000 </r>
       <r>    3.2969    1.0000 </r>
       <r>    3.4327    1.0000 </r>
       <r>    3.8240    1.0000 </r>
       <r>    4.5507    1.0000 </r>
       <r>    4.6583    1.0000 </r>
       <r>    4.9765    1.0000 </r>
       <r>    5.0582    1.0000 </r>
       <r>    5.3373    1.0000 </r>
       <r>    5.6166    1.0000 </r>
       <r>    6.0515    1.0000 </r>
       <r>    6.2262    1.0000 </r>
       <r>    6.6355    1.0000 </r>
       <r>    6.7398    1.0000 </r>
       <r>    6.9355    1.0000 </r>
       <r>    6.9828    1.0000 </r>
       <r>    7.3405    1.0000 </r>
       <r>    8.2606    1.0000 </r>
       <r>   10.0636    0.0000 </r>
       <r>   11.2659    0.0000 </r>
       <r>   11.8595    0.0000 </r>
       <r>   12.0720    0.0000 </r>
       <r>   12.7300    0.0000 </r>
       <r>   12.9847    0.0000 </r>
       <r>   13.6016    0.0000 </r>
       <r>   13.6552    0.0000 </r>
       <r>   13.6979    0.0000 </r>
       <r>   14.0537    0.0000 </r>
       <r>   14.6914    0.0000 </r>
       <r>   15.3797    0.0000 </r>
      </set>
      <set comment="kpoint 4">
       <r>   -9.4510    1.0000 </r>
       <r>   -8.1366    1.0000 </r>
       <r>   -7.7681    1.0000 </r>
       <r>   -5.6539    1.0000 </r>
       <r>   -4.5674    1.0000 </r>
       <r>   -3.6720    1.0000 </r>
       <r>   -2.6660    1.0000 </r>
       <r>   -2.3334    1.0000 </r>
       <r>   -0.6111    1.0000 </r>
       <r>   -0.1645    1.0000 </r>
       <r>    0.6237    1.0000 </r>
       <r>    1.2943    1.0000 </r>
       <r>    1.8364    1.0000 </r>
       <r>    2.0225    1.0000 </r>
       <r>    2.4043    1.0000 </r>
       <r>    2.8648    1.0000 </r>
       <r>    3.1683    1.0000 </r>
       <r>    3.3851    1.0000 </r>
       <r>    3.5089    1.0000 </r>
       <r>    4.0587    1.0000 </r>
       <r>    4.4969    1.0000 </r>
       <r>    4.6751    1.0000 </r>
       <r>    5.1566    1.0000 </r>
       <r>    5.3450    1.0000 </r>
       <r>    5.6788    1.0000 </r>
       <r>    5.9607    1.0000 </r>
       <r>    6.0353    1.0000 </r>
       <r>    6.3868    1.0000 </r>
       <r>    6.7014    1.0000 </r>
       <r>    7.4620    1.0000 </r>
       <r>    7.5527    1.0000 </r>
       <r>    7.8816    1.0000 </r>
       <r>   11.1843    0.0000 </r>
       <r>   11.7872    0.0000 </r>
       <r>   12.6713    0.0000 </r>
       <r>   12.9004    0.0000 </r>
       <r>   13.3234    0.0000 </r>
       <r>   13.5855    0.0000 </r>
       <r>   13.7205    0.0000 </r>
       <r>   13.9699    0.0000 </r>
       <r>   14.4090    0.0000 </r>
       <r>   14.6008    0.0000 </r>
       <r>   14.8040    0.0000 </r>
       <r>   15.1620    0.0000 </r>
      </set>
      <set comment="kpoint 5">
       <r>   -9.2981    1.0000 </r>
       <r>   -8.0279    1.0000 </r>
       <r>   -7.9464    1.0000 </r>
       <r>   -5.5587    1.0000 </r>
       <r>   -4.6002    1.0000 </r>
       <r>   -4.0892    1.0000 </r>
       <r>   -3.0587    1.0000 </r>
       <r>   -2.7879    1.0000 </r>
       <r>   -0.0017    1.0000 </r>
       <r>    0.2739    1.0000 </r>
       <r>    0.9367    1.0000 </r>
       <r>    1.0571    1.0000 </r>
       <r>    1.9728    1.0000 </r>
       <r>    2.0921    1.0000 </r>
       <r>    2.8263    1.0000 </r>
       <r>    2.9308    1.0000 </r>
       <r>    3.2509    1.0000 </r>
       <r>    3.4404    1.0000 </r>
       <r>    3.9669    1.0000 </r>
       <r>    4.2352    1.0000 </r>
       <r>    4.4855    1.0000 </r>
       <r>    4.6071    1.0000 </r>
       <r>    4.8967    1.0000 </r>
       <r>    5.2335    1.0000 </r>
       <r>    5.5889    1.0000 </r>
       <r>    5.7370    1.0000 </r>
       <r>    6.2177    1.0000 </r>
       <r>    6.3567    1.0000 </r>
       <r>    6.5978    1.0000 </r>
       <r>    6.9843    1.0000 </r>
       <r>    7.4056    1.0000 </r>
       <r>    7.8406    1.0000 </r>
       <r>   11.2420    0.0000 </r>
       <r>   12.0100    0.0000 </r>
       <r>   12.6076    0.0000 </r>
       <r>   12.9558    0.0000 </r>
       <r>   13.0850    0.0000 </r>
       <r>   13.4042    0.0000 </r>
       <r>   13.6419    0.0000 </r>
       <r>   13.7872    0.0000 </r>
       <r>   14.2274    0.0000 </r>
       <r>   14.4471    0.0000 </r>
       <r>   14.8707    0.0000 </r>
       <r>   15.1171    0.0000 </r>
      </set>
      <set comment="kpoint 6">
       <r>   -9.0780    1.0000 </r>
       <r>   -8.2168    1.0000 </r>
       <r>   -7.8846    1.0000 </r>
       <r>   -5.4378    1.0000 </r>
       <r>   -4.7949    1.0000 </r>
       <r>   -4.2434    1.0000 </r>
       <r>   -3.4431    1.0000 </r>
       <r>   -3.0728    1.0000 </r>
       <r>   -0.0668    1.0000 </r>
       <r>    0.3746    1.0000 </r>
       <r>    1.2227    1.0000 </r>
       <r>    1.9432    1.0000 </r>
       <r>    2.1271    1.0000 </r>
       <r>    2.5325    1.0000 </r>
       <r>    2.6497    1.0000 </r>
       <r>    3.1883    1.0000 </r>
       <r>    3.3134    1.0000 </r>
       <r>    3.5286    1.0000 </r>
       <r>    3.8349    1.0000 </r>
       <r>    4.0622    1.0000 </r>
       <r>    4.4299    1.0000 </r>
       <r>    4.9678    1.0000 </r>
       <r>    5.1976    1.0000 </r>
       <r>    5.3322    1.0000 </r>
       <r>    5.4766    1.0000 </r>
       <r>    5.5109    1.0000 </r>
       <r>    5.9931    1.0000 </r>
       <r>    6.0925    1.0000 </r>
       <r>    6.4531    1.0000 </r>
       <r>    6.8211    1.0000 </r>
       <r>    7.2104    1.0000 </r>
       <r>    7.5967    1.0000 </r>
       <r>   11.1969    0.0000 </r>
       <r>   11.9653    0.0000 </r>
       <r>   12.4066    0.0000 </r>
       <r>   12.6202    0.0000 </r>
       <r>   13.1698    0.0000 </r>
       <r>   13.3059    0.0000 </r>
       <r>   13.8771    0.0000 </r>
       <r>   13.9949    0.0000 </r>
       <r>   14.2323    0.0000 </r>
       <r>   14.3984    0.0000 </r>
       <r>   14.6210    0.0000 </r>
       <r>   14.9532    0.0000 </r>
      </set>
      <set comment="kpoint 7">
       <r>   -8.7755    1.0000 </r>
       <r>   -7.6735    1.0000 </r>
       <r>   -7.6044    1.0000 </r>
       <r>   -4.8412    1.0000 </r>
       <r>   -3.7551    1.0000 </r>
       <r>   -3.0287    1.0000 </r>
       <r>   -2.5817    1.0000 </r>
       <r>   -1.9236    1.0000 </r>
       <r>   -0.2759    1.0000 </r>
       <r>   -0.0073    1.0000 </r>
       <r>    0.5809    1.0000 </r>
       <r>    0.9556    1.0000 </r>
       <r>    1.4684    1.0000 </r>
       <r>    1.7274    1.0000 </r>
       <r>    1.7827    1.0000 </r>
       <r>    2.2147    1.0000 </r>
       <r>    2.5538    1.0000 </r>
       <r>    2.6803    1.0000 </r>
       <r>    3.2105    1.0000 </r>
       <r>    3.3845    1.0000 </r>
       <r>    3.6512    1.0000 </r>
       <r>    3.8502    1.0000 </r>
       <r>    4.1212    1.0000 </r>
       <r>    4.3468    1.0000 </r>
       <r>    5.1275    1.0000 </r>
       <r>    5.3632    1.0000 </r>
       <r>    5.5936    1.0000 </r>
       <r>    5.8871    1.0000 </r>
       <r>    5.9021    1.0000 </r>
       <r>    6.3216    1.0000 </r>
       <r>    7.2506    1.0000 </r>
       <r>    7.3435    1.0000 </r>
       <r>   10.4898    0.0000 </r>
       <r>   11.6367    0.0000 </r>
       <r>   11.8770    0.0000 </r>
       <r>   12.3462    0.0000 </r>
       <r>   12.6133    0.0000 </r>
       <r>   13.0430    0.0000 </r>
       <r>   13.4125    0.0000 </r>
       <r>   14.0234    0.0000 </r>
       <r>   14.4387    0.0000 </r>
       <r>   14.7124    0.0000 </r>
       <r>   15.2309    0.0000 </r>
       <r>   15.5283    0.0000 </r>
      </set>
      <set comment="kpoint 8">
       <r>   -8.6580    1.0000 </r>
       <r>   -7.7410    1.0000 </r>
       <r>   -7.5473    1.0000 </r>
       <r>   -4.7370    1.0000 </r>
       <r>   -3.7756    1.0000 </r>
       <r>   -3.4248    1.0000 </r>
       <r>   -2.6381    1.0000 </r>
       <r>   -2.2648    1.0000 </r>
       <r>   -0.2894    1.0000 </r>
       <r>    0.0000    1.0000 </r>
       <r>    0.5880    1.0000 </r>
       <r>    1.0674    1.0000 </r>
       <r>    1.2755    1.0000 </r>
       <r>    1.5846    1.0000 </r>
       <r>    1.8838    1.0000 </r>
       <r>    2.2549    1.0000 </r>
       <r>    2.6043    1.0000 </r>
       <r>    3.0014    1.0000 </r>
       <r>    3.1795    1.0000 </r>
       <r>    3.4225    1.0000 </r>
       <r>    3.6000    1.0000 </r>
       <r>    4.0463    1.0000 </r>
       <r>    4.4034    1.0000 </r>
       <r>    4.9280    1.0000 </r>
       <r>    5.1220    1.0000 </r>
       <r>    5.4516    1.0000 </r>
       <r>    5.6892    1.0000 </r>
       <r>    5.8116    1.0000 </r>
       <r>    5.9811    1.0000 </r>
       <r>    6.4075    1.0000 </r>
       <r>    7.1315    1.0000 </r>
       <r>    7.6558    1.0000 </r>
       <r>   11.0846    0.0000 </r>
       <r>   11.3950    0.0000 </r>
       <r>   11.8148    0.0000 </r>
       <r>   12.1391    0.0000 </r>
       <r>   12.5631    0.0000 </r>
       <r>   12.8730    0.0000 </r>
       <r>   13.2159    0.0000 </r>
       <r>   13.8277    0.0000 </r>
       <r>   14.0483    0.0000 </r>
       <r>   14.2765    0.0000 </r>
       <r>   14.9419    0.0000 </r>
       <r>   15.3260    0.0000 </r>
      </set>
      <set comment="kpoint 9">
       <r>   -8.4983    1.0000 </r>
       <r>   -7.8735    1.0000 </r>
       <r>   -7.4630    1.0000 </r>
       <r>   -4.5667    1.0000 </r>
       <r>   -4.0395    1.0000 </r>
       <r>   -3.5735    1.0000 </r>
       <r>   -2.6749    1.0000 </r>
       <r>   -2.5625    1.0000 </r>
       <r>   -0.3066    1.0000 </r>
       <r>    0.0529    1.0000 </r>
       <r>    0.4322    1.0000 </r>
       <r>    0.7863    1.0000 </r>
       <r>    1.2912    1.0000 </r>
       <r>    1.4455    1.0000 </r>
       <r>    1.9263    1.0000 </r>
       <r>    2.3729    1.0000 </r>
       <r>    2.5687    1.0000 </r>
       <r>    3.0956    1.0000 </r>
       <r>    3.2808    1.0000 </r>
       <r>    3.8285    1.0000 </r>
       <r>    4.2413    1.0000 </r>
       <r>    4.3764    1.0000 </r>
       <r>    4.6613    1.0000 </r>
       <r>    4.9224    1.0000 </r>
       <r>    5.1783    1.0000 </r>
       <r>    5.2383    1.0000 </r>
       <r>    5.6433    1.0000 </r>
       <r>    5.8643    1.0000 </r>
       <r>    6.1796    1.0000 </r>
       <r>    6.3299    1.0000 </r>
       <r>    7.3012    1.0000 </r>
       <r>    7.7185    1.0000 </r>
       <r>   11.1407    0.0000 </r>
       <r>   11.4713    0.0000 </r>
       <r>   11.9998    0.0000 </r>
       <r>   12.1362    0.0000 </r>
       <r>   12.4954    0.0000 </r>
       <r>   12.8403    0.0000 </r>
       <r>   13.0004    0.0000 </r>
       <r>   13.4208    0.0000 </r>
       <r>   13.5948    0.0000 </r>
       <r>   13.8582    0.0000 </r>
       <r>   14.3415    0.0000 </r>
       <r>   14.4542    0.0000 </r>
      </set>
      <set comment="kpoint 10">
       <r>   -8.1317    1.0000 </r>
       <r>   -7.8502    1.0000 </r>
       <r>   -7.3288    1.0000 </r>
       <r>   -3.7402    1.0000 </r>
       <r>   -3.6530    1.0000 </r>
       <r>   -2.8531    1.0000 </r>
       <r>   -2.6092    1.0000 </r>
       <r>   -1.7320    1.0000 </r>
       <r>   -0.9111    1.0000 </r>
       <r>    0.1113    1.0000 </r>
       <r>    0.2717    1.0000 </r>
       <r>    1.3174    1.0000 </r>
       <r>    1.3800    1.0000 </r>
       <r>    1.5648    1.0000 </r>
       <r>    1.8678    1.0000 </r>
       <r>    1.8833    1.0000 </r>
       <r>    2.0291    1.0000 </r>
       <r>    2.1283    1.0000 </r>
       <r>    2.7136    1.0000 </r>
       <r>    2.7269    1.0000 </r>
       <r>    3.6485    1.0000 </r>
       <r>    4.0716    1.0000 </r>
       <r>    4.3109    1.0000 </r>
       <r>    4.3477    1.0000 </r>
       <r>    4.8373    1.0000 </r>
       <r>    4.9359    1.0000 </r>
       <r>    5.0205    1.0000 </r>
       <r>    5.1908    1.0000 </r>
       <r>    5.6318    1.0000 </r>
       <r>    6.2957    1.0000 </r>
       <r>    6.7841    1.0000 </r>
       <r>    7.3736    1.0000 </r>
       <r>   10.6123    0.0000 </r>
       <r>   10.9929    0.0000 </r>
       <r>   11.3758    0.0000 </r>
       <r>   11.5177    0.0000 </r>
       <r>   11.7894    0.0000 </r>
       <r>   12.3882    0.0000 </r>
       <r>   13.7169    0.0000 </r>
       <r>   14.0047    0.0000 </r>
       <r>   14.4464    0.0000 </r>
       <r>   14.6556    0.0000 </r>
       <r>   14.7190    0.0000 </r>
       <r>   15.5044    0.0000 </r>
      </set>
      <set comment="kpoint 11">
       <r>   -8.1045    1.0000 </r>
       <r>   -7.7995    1.0000 </r>
       <r>   -7.2743    1.0000 </r>
       <r>   -3.7870    1.0000 </r>
       <r>   -3.5691    1.0000 </r>
       <r>   -3.0502    1.0000 </r>
       <r>   -2.4460    1.0000 </r>
       <r>   -1.8211    1.0000 </r>
       <r>   -0.9707    1.0000 </r>
       <r>   -0.2699    1.0000 </r>
       <r>   -0.2265    1.0000 </r>
       <r>    0.7492    1.0000 </r>
       <r>    0.8383    1.0000 </r>
       <r>    1.2300    1.0000 </r>
       <r>    1.8688    1.0000 </r>
       <r>    2.0930    1.0000 </r>
       <r>    2.2227    1.0000 </r>
       <r>    2.6906    1.0000 </r>
       <r>    3.1745    1.0000 </r>
       <r>    3.2084    1.0000 </r>
       <r>    3.6232    1.0000 </r>
       <r>    3.9607    1.0000 </r>
       <r>    4.3758    1.0000 </r>
       <r>    4.4329    1.0000 </r>
       <r>    5.0873    1.0000 </r>
       <r>    5.1084    1.0000 </r>
       <r>    5.4740    1.0000 </r>
       <r>    5.7554    1.0000 </r>
       <r>    6.1100    1.0000 </r>
       <r>    6.2482    1.0000 </r>
       <r>    6.9987    1.0000 </r>
       <r>    7.5761    1.0000 </r>
       <r>   10.3529    0.0000 </r>
       <r>   10.9795    0.0000 </r>
       <r>   11.1940    0.0000 </r>
       <r>   11.8527    0.0000 </r>
       <r>   12.1627    0.0000 </r>
       <r>   12.2402    0.0000 </r>
       <r>   12.6916    0.0000 </r>
       <r>   13.9978    0.0000 </r>
       <r>   14.0148    0.0000 </r>
       <r>   14.4835    0.0000 </r>
       <r>   14.6881    0.0000 </r>
       <r>   14.9993    0.0000 </r>
      </set>
      <set comment="kpoint 12">
       <r>   -8.0767    1.0000 </r>
       <r>   -7.7460    1.0000 </r>
       <r>   -7.2164    1.0000 </r>
       <r>   -3.8597    1.0000 </r>
       <r>   -3.4770    1.0000 </r>
       <r>   -3.2447    1.0000 </r>
       <r>   -2.1485    1.0000 </r>
       <r>   -2.0340    1.0000 </r>
       <r>   -0.7720    1.0000 </r>
       <r>   -0.6498    1.0000 </r>
       <r>   -0.4810    1.0000 </r>
       <r>    0.3898    1.0000 </r>
       <r>    0.4349    1.0000 </r>
       <r>    0.4805    1.0000 </r>
       <r>    1.7497    1.0000 </r>
       <r>    2.0936    1.0000 </r>
       <r>    2.7884    1.0000 </r>
       <r>    2.9612    1.0000 </r>
       <r>    3.0630    1.0000 </r>
       <r>    3.6330    1.0000 </r>
       <r>    3.9657    1.0000 </r>
       <r>    4.1512    1.0000 </r>
       <r>    4.7355    1.0000 </r>
       <r>    4.9286    1.0000 </r>
       <r>    5.2498    1.0000 </r>
       <r>    5.3270    1.0000 </r>
       <r>    5.3625    1.0000 </r>
       <r>    6.1865    1.0000 </r>
       <r>    6.1911    1.0000 </r>
       <r>    6.2300    1.0000 </r>
       <r>    7.4634    1.0000 </r>
       <r>    7.8035    1.0000 </r>
       <r>   10.3664    0.0000 </r>
       <r>   10.9799    0.0000 </r>
       <r>   11.3683    0.0000 </r>
       <r>   11.7903    0.0000 </r>
       <r>   11.8000    0.0000 </r>
       <r>   12.4619    0.0000 </r>
       <r>   12.9423    0.0000 </r>
       <r>   13.0399    0.0000 </r>
       <r>   13.3687    0.0000 </r>
       <r>   13.5510    0.0000 </r>
       <r>   13.8213    0.0000 </r>
       <r>   14.3193    0.0000 </r>
      </set>
      <set comment="kpoint 13">
       <r>   -9.7050    1.0000 </r>
       <r>   -8.3743    1.0000 </r>
       <r>   -7.8528    1.0000 </r>
       <r>   -5.9097    1.0000 </r>
       <r>   -4.8701    1.0000 </r>
       <r>   -4.0750    1.0000 </r>
       <r>   -2.7921    1.0000 </r>
       <r>   -2.4049    1.0000 </r>
       <r>   -0.8829    1.0000 </r>
       <r>   -0.5174    1.0000 </r>
       <r>    0.5786    1.0000 </r>
       <r>    1.3531    1.0000 </r>
       <r>    1.7441    1.0000 </r>
       <r>    2.1245    1.0000 </r>
       <r>    2.3555    1.0000 </r>
       <r>    3.1033    1.0000 </r>
       <r>    3.1585    1.0000 </r>
       <r>    4.3152    1.0000 </r>
       <r>    4.5444    1.0000 </r>
       <r>    4.8273    1.0000 </r>
       <r>    4.9722    1.0000 </r>
       <r>    5.5296    1.0000 </r>
       <r>    5.7010    1.0000 </r>
       <r>    5.8487    1.0000 </r>
       <r>    6.1343    1.0000 </r>
       <r>    6.5547    1.0000 </r>
       <r>    6.6570    1.0000 </r>
       <r>    6.7451    1.0000 </r>
       <r>    7.1170    1.0000 </r>
       <r>    7.3739    1.0000 </r>
       <r>    7.9878    1.0000 </r>
       <r>    8.6598    1.0000 </r>
       <r>   10.4061    0.0000 </r>
       <r>   11.4634    0.0000 </r>
       <r>   11.8470    0.0000 </r>
       <r>   12.0848    0.0000 </r>
       <r>   12.8158    0.0000 </r>
       <r>   12.9121    0.0000 </r>
       <r>   13.3066    0.0000 </r>
       <r>   14.0407    0.0000 </r>
       <r>   14.5316    0.0000 </r>
       <r>   14.7125    0.0000 </r>
       <r>   14.7706    0.0000 </r>
       <r>   15.0104    0.0000 </r>
      </set>
      <set comment="kpoint 14">
       <r>   -9.5439    1.0000 </r>
       <r>   -8.2496    1.0000 </r>
       <r>   -8.0646    1.0000 </r>
       <r>   -5.8375    1.0000 </r>
       <r>   -4.7767    1.0000 </r>
       <r>   -4.5577    1.0000 </r>
       <r>   -3.3212    1.0000 </r>
       <r>   -2.9575    1.0000 </r>
       <r>   -0.1263    1.0000 </r>
       <r>    0.2237    1.0000 </r>
       <r>    0.7798    1.0000 </r>
       <r>    1.3477    1.0000 </r>
       <r>    1.5603    1.0000 </r>
       <r>    2.4167    1.0000 </r>
       <r>    2.8394    1.0000 </r>
       <r>    3.1918    1.0000 </r>
       <r>    3.5529    1.0000 </r>
       <r>    4.1613    1.0000 </r>
       <r>    4.6718    1.0000 </r>
       <r>    4.7599    1.0000 </r>
       <r>    5.1781    1.0000 </r>
       <r>    5.4113    1.0000 </r>
       <r>    5.7401    1.0000 </r>
       <r>    5.7611    1.0000 </r>
       <r>    5.8580    1.0000 </r>
       <r>    6.3459    1.0000 </r>
       <r>    6.4286    1.0000 </r>
       <r>    6.6919    1.0000 </r>
       <r>    7.1565    1.0000 </r>
       <r>    7.1565    1.0000 </r>
       <r>    7.5707    1.0000 </r>
       <r>    8.4581    1.0000 </r>
       <r>   10.3042    0.0000 </r>
       <r>   11.1529    0.0000 </r>
       <r>   11.7391    0.0000 </r>
       <r>   12.0578    0.0000 </r>
       <r>   12.8294    0.0000 </r>
       <r>   13.0645    0.0000 </r>
       <r>   13.6674    0.0000 </r>
       <r>   13.9326    0.0000 </r>
       <r>   14.3237    0.0000 </r>
       <r>   14.5328    0.0000 </r>
       <r>   14.9113    0.0000 </r>
       <r>   15.4743    0.0000 </r>
      </set>
      <set comment="kpoint 15">
       <r>   -9.3103    1.0000 </r>
       <r>   -8.3785    1.0000 </r>
       <r>   -8.0779    1.0000 </r>
       <r>   -5.7913    1.0000 </r>
       <r>   -5.0430    1.0000 </r>
       <r>   -4.3508    1.0000 </r>
       <r>   -3.7848    1.0000 </r>
       <r>   -3.5545    1.0000 </r>
       <r>    0.2815    1.0000 </r>
       <r>    0.6354    1.0000 </r>
       <r>    1.1097    1.0000 </r>
       <r>    1.2213    1.0000 </r>
       <r>    2.3841    1.0000 </r>
       <r>    2.5941    1.0000 </r>
       <r>    3.2972    1.0000 </r>
       <r>    3.3106    1.0000 </r>
       <r>    3.5602    1.0000 </r>
       <r>    4.2373    1.0000 </r>
       <r>    4.5558    1.0000 </r>
       <r>    4.9217    1.0000 </r>
       <r>    5.0453    1.0000 </r>
       <r>    5.2493    1.0000 </r>
       <r>    5.4152    1.0000 </r>
       <r>    5.6080    1.0000 </r>
       <r>    5.8715    1.0000 </r>
       <r>    6.2530    1.0000 </r>
       <r>    6.4497    1.0000 </r>
       <r>    6.7767    1.0000 </r>
       <r>    6.8958    1.0000 </r>
       <r>    6.9234    1.0000 </r>
       <r>    6.9939    1.0000 </r>
       <r>    8.2454    1.0000 </r>
       <r>   10.1806    0.0000 </r>
       <r>   11.4062    0.0000 </r>
       <r>   11.6258    0.0000 </r>
       <r>   11.8962    0.0000 </r>
       <r>   12.9616    0.0000 </r>
       <r>   13.2689    0.0000 </r>
       <r>   13.4392    0.0000 </r>
       <r>   14.0758    0.0000 </r>
       <r>   14.3613    0.0000 </r>
       <r>   14.4418    0.0000 </r>
       <r>   14.7845    0.0000 </r>
       <r>   15.1014    0.0000 </r>
      </set>
      <set comment="kpoint 16">
       <r>   -9.4491    1.0000 </r>
       <r>   -8.1568    1.0000 </r>
       <r>   -7.7498    1.0000 </r>
       <r>   -5.6281    1.0000 </r>
       <r>   -4.5670    1.0000 </r>
       <r>   -3.7892    1.0000 </r>
       <r>   -2.6273    1.0000 </r>
       <r>   -2.2374    1.0000 </r>
       <r>   -0.5980    1.0000 </r>
       <r>   -0.2843    1.0000 </r>
       <r>    0.7925    1.0000 </r>
       <r>    1.4726    1.0000 </r>
       <r>    1.7803    1.0000 </r>
       <r>    1.9808    1.0000 </r>
       <r>    2.1610    1.0000 </r>
       <r>    2.5214    1.0000 </r>
       <r>    3.0898    1.0000 </r>
       <r>    3.4611    1.0000 </r>
       <r>    3.9285    1.0000 </r>
       <r>    4.1557    1.0000 </r>
       <r>    4.3279    1.0000 </r>
       <r>    4.8175    1.0000 </r>
       <r>    5.1500    1.0000 </r>
       <r>    5.4255    1.0000 </r>
       <r>    5.6077    1.0000 </r>
       <r>    5.9482    1.0000 </r>
       <r>    6.1120    1.0000 </r>
       <r>    6.3086    1.0000 </r>
       <r>    6.6194    1.0000 </r>
       <r>    7.3201    1.0000 </r>
       <r>    7.7002    1.0000 </r>
       <r>    7.9453    1.0000 </r>
       <r>   11.3254    0.0000 </r>
       <r>   11.8378    0.0000 </r>
       <r>   12.2876    0.0000 </r>
       <r>   12.7746    0.0000 </r>
       <r>   13.0299    0.0000 </r>
       <r>   13.2707    0.0000 </r>
       <r>   13.6099    0.0000 </r>
       <r>   14.0865    0.0000 </r>
       <r>   14.3614    0.0000 </r>
       <r>   14.6907    0.0000 </r>
       <r>   15.0616    0.0000 </r>
       <r>   15.4399    0.0000 </r>
      </set>
      <set comment="kpoint 17">
       <r>   -9.2966    1.0000 </r>
       <r>   -8.0518    1.0000 </r>
       <r>   -7.9263    1.0000 </r>
       <r>   -5.5491    1.0000 </r>
       <r>   -4.4712    1.0000 </r>
       <r>   -4.2629    1.0000 </r>
       <r>   -3.0830    1.0000 </r>
       <r>   -2.7468    1.0000 </r>
       <r>    0.0256    1.0000 </r>
       <r>    0.3641    1.0000 </r>
       <r>    0.9139    1.0000 </r>
       <r>    1.4068    1.0000 </r>
       <r>    1.5412    1.0000 </r>
       <r>    1.9496    1.0000 </r>
       <r>    2.7057    1.0000 </r>
       <r>    2.9808    1.0000 </r>
       <r>    3.2885    1.0000 </r>
       <r>    3.6618    1.0000 </r>
       <r>    3.9169    1.0000 </r>
       <r>    4.1575    1.0000 </r>
       <r>    4.4193    1.0000 </r>
       <r>    4.6903    1.0000 </r>
       <r>    4.8537    1.0000 </r>
       <r>    5.3867    1.0000 </r>
       <r>    5.5501    1.0000 </r>
       <r>    5.8875    1.0000 </r>
       <r>    6.0645    1.0000 </r>
       <r>    6.3718    1.0000 </r>
       <r>    6.5425    1.0000 </r>
       <r>    7.0505    1.0000 </r>
       <r>    7.5192    1.0000 </r>
       <r>    7.7838    1.0000 </r>
       <r>   11.3326    0.0000 </r>
       <r>   11.9758    0.0000 </r>
       <r>   12.5055    0.0000 </r>
       <r>   12.7103    0.0000 </r>
       <r>   12.9059    0.0000 </r>
       <r>   13.3927    0.0000 </r>
       <r>   13.4867    0.0000 </r>
       <r>   13.8116    0.0000 </r>
       <r>   14.2504    0.0000 </r>
       <r>   14.4319    0.0000 </r>
       <r>   14.6567    0.0000 </r>
       <r>   15.0637    0.0000 </r>
      </set>
      <set comment="kpoint 18">
       <r>   -9.0776    1.0000 </r>
       <r>   -8.2133    1.0000 </r>
       <r>   -7.8907    1.0000 </r>
       <r>   -5.4673    1.0000 </r>
       <r>   -4.7637    1.0000 </r>
       <r>   -4.0926    1.0000 </r>
       <r>   -3.4724    1.0000 </r>
       <r>   -3.2969    1.0000 </r>
       <r>    0.3007    1.0000 </r>
       <r>    0.7191    1.0000 </r>
       <r>    0.9354    1.0000 </r>
       <r>    1.2841    1.0000 </r>
       <r>    2.2646    1.0000 </r>
       <r>    2.4981    1.0000 </r>
       <r>    2.6962    1.0000 </r>
       <r>    3.2455    1.0000 </r>
       <r>    3.4289    1.0000 </r>
       <r>    3.6900    1.0000 </r>
       <r>    3.7641    1.0000 </r>
       <r>    3.9409    1.0000 </r>
       <r>    4.4252    1.0000 </r>
       <r>    4.8569    1.0000 </r>
       <r>    5.1571    1.0000 </r>
       <r>    5.2701    1.0000 </r>
       <r>    5.5618    1.0000 </r>
       <r>    5.6379    1.0000 </r>
       <r>    5.9736    1.0000 </r>
       <r>    6.1737    1.0000 </r>
       <r>    6.4989    1.0000 </r>
       <r>    6.9534    1.0000 </r>
       <r>    7.1633    1.0000 </r>
       <r>    7.5290    1.0000 </r>
       <r>   11.2421    0.0000 </r>
       <r>   12.0902    0.0000 </r>
       <r>   12.2315    0.0000 </r>
       <r>   12.5837    0.0000 </r>
       <r>   13.1619    0.0000 </r>
       <r>   13.2325    0.0000 </r>
       <r>   13.5421    0.0000 </r>
       <r>   13.6864    0.0000 </r>
       <r>   14.0895    0.0000 </r>
       <r>   14.4465    0.0000 </r>
       <r>   14.7851    0.0000 </r>
       <r>   15.3631    0.0000 </r>
      </set>
      <set comment="kpoint 19">
       <r>   -8.7745    1.0000 </r>
       <r>   -7.6919    1.0000 </r>
       <r>   -7.5880    1.0000 </r>
       <r>   -4.8328    1.0000 </r>
       <r>   -3.7270    1.0000 </r>
       <r>   -3.1294    1.0000 </r>
       <r>   -2.4836    1.0000 </r>
       <r>   -1.9880    1.0000 </r>
       <r>   -0.2389    1.0000 </r>
       <r>    0.0052    1.0000 </r>
       <r>    0.6235    1.0000 </r>
       <r>    0.8849    1.0000 </r>
       <r>    1.4763    1.0000 </r>
       <r>    1.7016    1.0000 </r>
       <r>    1.9251    1.0000 </r>
       <r>    2.1567    1.0000 </r>
       <r>    2.5900    1.0000 </r>
       <r>    2.8289    1.0000 </r>
       <r>    2.9376    1.0000 </r>
       <r>    3.3185    1.0000 </r>
       <r>    3.5172    1.0000 </r>
       <r>    3.9947    1.0000 </r>
       <r>    4.1353    1.0000 </r>
       <r>    4.6991    1.0000 </r>
       <r>    4.8539    1.0000 </r>
       <r>    5.2531    1.0000 </r>
       <r>    5.5182    1.0000 </r>
       <r>    5.6650    1.0000 </r>
       <r>    6.0567    1.0000 </r>
       <r>    6.5093    1.0000 </r>
       <r>    7.2679    1.0000 </r>
       <r>    7.4664    1.0000 </r>
       <r>   10.8132    0.0000 </r>
       <r>   11.3589    0.0000 </r>
       <r>   11.8756    0.0000 </r>
       <r>   11.9372    0.0000 </r>
       <r>   12.6794    0.0000 </r>
       <r>   12.8875    0.0000 </r>
       <r>   13.6667    0.0000 </r>
       <r>   13.9725    0.0000 </r>
       <r>   14.1157    0.0000 </r>
       <r>   14.5896    0.0000 </r>
       <r>   15.3146    0.0000 </r>
       <r>   15.8010    0.0000 </r>
      </set>
      <set comment="kpoint 20">
       <r>   -8.6572    1.0000 </r>
       <r>   -7.7438    1.0000 </r>
       <r>   -7.5462    1.0000 </r>
       <r>   -4.7375    1.0000 </r>
       <r>   -3.6679    1.0000 </r>
       <r>   -3.5492    1.0000 </r>
       <r>   -2.6029    1.0000 </r>
       <r>   -2.2898    1.0000 </r>
       <r>   -0.3311    1.0000 </r>
       <r>    0.0582    1.0000 </r>
       <r>    0.5113    1.0000 </r>
       <r>    1.0956    1.0000 </r>
       <r>    1.3100    1.0000 </r>
       <r>    1.4509    1.0000 </r>
       <r>    2.1990    1.0000 </r>
       <r>    2.3640    1.0000 </r>
       <r>    2.6318    1.0000 </r>
       <r>    2.9141    1.0000 </r>
       <r>    2.9571    1.0000 </r>
       <r>    3.4965    1.0000 </r>
       <r>    3.7353    1.0000 </r>
       <r>    3.8764    1.0000 </r>
       <r>    4.3328    1.0000 </r>
       <r>    4.6514    1.0000 </r>
       <r>    5.1192    1.0000 </r>
       <r>    5.4255    1.0000 </r>
       <r>    5.6649    1.0000 </r>
       <r>    5.8739    1.0000 </r>
       <r>    6.1662    1.0000 </r>
       <r>    6.5309    1.0000 </r>
       <r>    7.2300    1.0000 </r>
       <r>    7.6344    1.0000 </r>
       <r>   11.1397    0.0000 </r>
       <r>   11.4694    0.0000 </r>
       <r>   11.7146    0.0000 </r>
       <r>   12.0226    0.0000 </r>
       <r>   12.4413    0.0000 </r>
       <r>   12.8413    0.0000 </r>
       <r>   13.4444    0.0000 </r>
       <r>   13.7190    0.0000 </r>
       <r>   13.9206    0.0000 </r>
       <r>   14.2035    0.0000 </r>
       <r>   14.5477    0.0000 </r>
       <r>   14.9528    0.0000 </r>
      </set>
      <set comment="kpoint 21">
       <r>   -8.4981    1.0000 </r>
       <r>   -7.8726    1.0000 </r>
       <r>   -7.4647    1.0000 </r>
       <r>   -4.5798    1.0000 </r>
       <r>   -4.0323    1.0000 </r>
       <r>   -3.5365    1.0000 </r>
       <r>   -2.6636    1.0000 </r>
       <r>   -2.5992    1.0000 </r>
       <r>   -0.3622    1.0000 </r>
       <r>    0.0214    1.0000 </r>
       <r>    0.3679    1.0000 </r>
       <r>    0.7044    1.0000 </r>
       <r>    1.4188    1.0000 </r>
       <r>    1.6282    1.0000 </r>
       <r>    2.1587    1.0000 </r>
       <r>    2.2260    1.0000 </r>
       <r>    2.9522    1.0000 </r>
       <r>    3.1149    1.0000 </r>
       <r>    3.1405    1.0000 </r>
       <r>    3.4979    1.0000 </r>
       <r>    4.0048    1.0000 </r>
       <r>    4.1739    1.0000 </r>
       <r>    4.3832    1.0000 </r>
       <r>    5.0217    1.0000 </r>
       <r>    5.2216    1.0000 </r>
       <r>    5.4491    1.0000 </r>
       <r>    5.7524    1.0000 </r>
       <r>    5.8005    1.0000 </r>
       <r>    6.2822    1.0000 </r>
       <r>    6.5568    1.0000 </r>
       <r>    7.3292    1.0000 </r>
       <r>    7.6928    1.0000 </r>
       <r>   11.1298    0.0000 </r>
       <r>   11.5966    0.0000 </r>
       <r>   11.9039    0.0000 </r>
       <r>   12.1065    0.0000 </r>
       <r>   12.3195    0.0000 </r>
       <r>   12.6199    0.0000 </r>
       <r>   12.8595    0.0000 </r>
       <r>   13.0996    0.0000 </r>
       <r>   14.1298    0.0000 </r>
       <r>   14.2608    0.0000 </r>
       <r>   14.4208    0.0000 </r>
       <r>   14.5533    0.0000 </r>
      </set>
      <set comment="kpoint 22">
       <r>   -8.1317    1.0000 </r>
       <r>   -7.8497    1.0000 </r>
       <r>   -7.3297    1.0000 </r>
       <r>   -3.7392    1.0000 </r>
       <r>   -3.6573    1.0000 </r>
       <r>   -2.8504    1.0000 </r>
       <r>   -2.6067    1.0000 </r>
       <r>   -1.7106    1.0000 </r>
       <r>   -0.8843    1.0000 </r>
       <r>    0.0198    1.0000 </r>
       <r>    0.1969    1.0000 </r>
       <r>    1.3763    1.0000 </r>
       <r>    1.4683    1.0000 </r>
       <r>    1.5483    1.0000 </r>
       <r>    1.8063    1.0000 </r>
       <r>    1.8197    1.0000 </r>
       <r>    2.0558    1.0000 </r>
       <r>    2.1325    1.0000 </r>
       <r>    2.7706    1.0000 </r>
       <r>    3.1746    1.0000 </r>
       <r>    3.2580    1.0000 </r>
       <r>    3.9618    1.0000 </r>
       <r>    4.2188    1.0000 </r>
       <r>    4.4618    1.0000 </r>
       <r>    4.8909    1.0000 </r>
       <r>    4.8953    1.0000 </r>
       <r>    5.0885    1.0000 </r>
       <r>    5.4775    1.0000 </r>
       <r>    5.7245    1.0000 </r>
       <r>    5.8923    1.0000 </r>
       <r>    6.7052    1.0000 </r>
       <r>    7.1331    1.0000 </r>
       <r>   11.0389    0.0000 </r>
       <r>   11.4266    0.0000 </r>
       <r>   11.6222    0.0000 </r>
       <r>   11.9796    0.0000 </r>
       <r>   11.9942    0.0000 </r>
       <r>   12.2906    0.0000 </r>
       <r>   12.7340    0.0000 </r>
       <r>   13.0520    0.0000 </r>
       <r>   14.3053    0.0000 </r>
       <r>   14.8283    0.0000 </r>
       <r>   14.9537    0.0000 </r>
       <r>   15.0768    0.0000 </r>
      </set>
      <set comment="kpoint 23">
       <r>   -8.1045    1.0000 </r>
       <r>   -7.7991    1.0000 </r>
       <r>   -7.2750    1.0000 </r>
       <r>   -3.7849    1.0000 </r>
       <r>   -3.5695    1.0000 </r>
       <r>   -3.0551    1.0000 </r>
       <r>   -2.4665    1.0000 </r>
       <r>   -1.7768    1.0000 </r>
       <r>   -0.8867    1.0000 </r>
       <r>   -0.3470    1.0000 </r>
       <r>   -0.3164    1.0000 </r>
       <r>    0.8268    1.0000 </r>
       <r>    0.9442    1.0000 </r>
       <r>    1.1070    1.0000 </r>
       <r>    1.6049    1.0000 </r>
       <r>    2.2044    1.0000 </r>
       <r>    2.2336    1.0000 </r>
       <r>    2.8470    1.0000 </r>
       <r>    3.1162    1.0000 </r>
       <r>    3.3469    1.0000 </r>
       <r>    3.6970    1.0000 </r>
       <r>    3.7623    1.0000 </r>
       <r>    4.6327    1.0000 </r>
       <r>    4.7054    1.0000 </r>
       <r>    4.9315    1.0000 </r>
       <r>    5.1689    1.0000 </r>
       <r>    5.3693    1.0000 </r>
       <r>    5.5570    1.0000 </r>
       <r>    6.0705    1.0000 </r>
       <r>    6.1260    1.0000 </r>
       <r>    6.7650    1.0000 </r>
       <r>    7.5693    1.0000 </r>
       <r>   10.6877    0.0000 </r>
       <r>   11.2940    0.0000 </r>
       <r>   11.3757    0.0000 </r>
       <r>   11.9324    0.0000 </r>
       <r>   12.1668    0.0000 </r>
       <r>   12.4567    0.0000 </r>
       <r>   12.8437    0.0000 </r>
       <r>   13.4175    0.0000 </r>
       <r>   13.7021    0.0000 </r>
       <r>   14.2367    0.0000 </r>
       <r>   14.7981    0.0000 </r>
       <r>   15.0110    0.0000 </r>
      </set>
      <set comment="kpoint 24">
       <r>   -8.0767    1.0000 </r>
       <r>   -7.7458    1.0000 </r>
       <r>   -7.2169    1.0000 </r>
       <r>   -3.8511    1.0000 </r>
       <r>   -3.4755    1.0000 </r>
       <r>   -3.2641    1.0000 </r>
       <r>   -2.1543    1.0000 </r>
       <r>   -2.0465    1.0000 </r>
       <r>   -0.6755    1.0000 </r>
       <r>   -0.6143    1.0000 </r>
       <r>   -0.3858    1.0000 </r>
       <r>    0.2665    1.0000 </r>
       <r>    0.3086    1.0000 </r>
       <r>    0.5209    1.0000 </r>
       <r>    1.5039    1.0000 </r>
       <r>    1.8303    1.0000 </r>
       <r>    2.9767    1.0000 </r>
       <r>    3.4912    1.0000 </r>
       <r>    3.5044    1.0000 </r>
       <r>    3.5458    1.0000 </r>
       <r>    3.8669    1.0000 </r>
       <r>    4.1902    1.0000 </r>
       <r>    4.6416    1.0000 </r>
       <r>    4.9723    1.0000 </r>
       <r>    5.0441    1.0000 </r>
       <r>    5.2465    1.0000 </r>
       <r>    5.3687    1.0000 </r>
       <r>    5.8595    1.0000 </r>
       <r>    6.0600    1.0000 </r>
       <r>    6.1536    1.0000 </r>
       <r>    7.5092    1.0000 </r>
       <r>    7.9214    1.0000 </r>
       <r>   10.7546    0.0000 </r>
       <r>   11.3034    0.0000 </r>
       <r>   11.3909    0.0000 </r>
       <r>   11.7194    0.0000 </r>
       <r>   12.0034    0.0000 </r>
       <r>   12.4338    0.0000 </r>
       <r>   12.4369    0.0000 </r>
       <r>   12.8248    0.0000 </r>
       <r>   13.5447    0.0000 </r>
       <r>   13.8640    0.0000 </r>
       <r>   14.0168    0.0000 </r>
       <r>   14.1232    0.0000 </r>
      </set>
     </set>
    </set>
   </array>
  </eigenvalues>
  <separator name="orbital magnetization" >
   <v name="MAGDIPOLOUT">      0.00000000      0.00000000      0.00000000</v>
  </separator>
  <dos>
   <i name="efermi">      9.12781596 </i>
   <total>
    <array>
     <dimension dim="1">gridpoints</dimension>
     <dimension dim="2">spin</dimension>
     <field>energy</field>
     <field>total</field>
     <field>integrated</field>
     <set>
      <set comment="spin 1">
       <r>   -10.9826     0.0000     0.0000 </r>
       <r>   -10.8891     0.0000     0.0000 </r>
       <r>   -10.7956     0.0000     0.0000 </r>
       <r>   -10.7020     0.0000     0.0000 </r>
       <r>   -10.6085     0.0000     0.0000 </r>
       <r>   -10.5150     0.0000     0.0000 </r>
       <r>   -10.4214     0.0000     0.0000 </r>
       <r>   -10.3279     0.0000     0.0000 </r>
       <r>   -10.2344     0.0000     0.0000 </r>
       <r>   -10.1408     0.0000     0.0000 </r>
       <r>   -10.0473     0.0000     0.0000 </r>
       <r>    -9.9538     0.0002     0.0000 </r>
       <r>    -9.8603     0.0128     0.0012 </r>
       <r>    -9.7667     0.1628     0.0164 </r>
       <r>    -9.6732     0.4924     0.0625 </r>
       <r>    -9.5797     0.8032     0.1376 </r>
       <r>    -9.4861     1.4004     0.2686 </r>
       <r>    -9.3926     1.6105     0.4192 </r>
       <r>    -9.2991     2.1948     0.6245 </r>
       <r>    -9.2055     1.8880     0.8011 </r>
       <r>    -9.1120     0.8869     0.8841 </r>
       <r>    -9.0185     0.8824     0.9666 </r>
       <r>    -8.9249     0.3605     1.0003 </r>
       <r>    -8.8314     0.3998     1.0377 </r>
       <r>    -8.7379     1.3019     1.1595 </r>
       <r>    -8.6444     2.1011     1.3560 </r>
       <r>    -8.5508     1.7234     1.5172 </r>
       <r>    -8.4573     1.3007     1.6388 </r>
       <r>    -8.3638     1.3262     1.7629 </r>
       <r>    -8.2702     1.7119     1.9230 </r>
       <r>    -8.1767     3.2056     2.2228 </r>
       <r>    -8.0832     5.1996     2.7091 </r>
       <r>    -7.9896     5.4646     3.2202 </r>
       <r>    -7.8961     5.0137     3.6891 </r>
       <r>    -7.8026     5.5330     4.2067 </r>
       <r>    -7.7091     5.3932     4.7111 </r>
       <r>    -7.6155     3.8909     5.0750 </r>
       <r>    -7.5220     3.3274     5.3862 </r>
       <r>    -7.4285     2.3630     5.6072 </r>
       <r>    -7.3349     1.3793     5.7362 </r>
       <r>    -7.2414     1.5868     5.8846 </r>
       <r>    -7.1479     1.0163     5.9797 </r>
       <r>    -7.0543     0.2057     5.9989 </r>
       <r>    -6.9608     0.0112     6.0000 </r>
       <r>    -6.8673     0.0001     6.0000 </r>
       <r>    -6.7738     0.0000     6.0000 </r>
       <r>    -6.6802     0.0000     6.0000 </r>
       <r>    -6.5867     0.0000     6.0000 </r>
       <r>    -6.4932     0.0000     6.0000 </r>
       <r>    -6.3996     0.0000     6.0000 </r>
       <r>    -6.3061     0.0000     6.0000 </r>
       <r>    -6.2126     0.0000     6.0000 </r>
       <r>    -6.1190     0.0034     6.0003 </r>
       <r>    -6.0255     0.0811     6.0079 </r>
       <r>    -5.9320     0.5386     6.0583 </r>
       <r>    -5.8385     1.2947     6.1794 </r>
       <r>    -5.7449     1.3380     6.3045 </r>
       <r>    -5.6514     1.3568     6.4314 </r>
       <r>    -5.5579     2.3428     6.6505 </r>
       <r>    -5.4643     2.3500     6.8703 </r>
       <r>    -5.3708     1.1392     6.9769 </r>
       <r>    -5.2773     0.2351     6.9989 </r>
       <r>    -5.1837     0.0583     7.0043 </r>
       <r>    -5.0902     0.2811     7.0306 </r>
       <r>    -4.9967     0.5544     7.0825 </r>
       <r>    -4.9032     1.1956     7.1943 </r>
       <r>    -4.8096     2.9266     7.4680 </r>
       <r>    -4.7161     3.8860     7.8315 </r>
       <r>    -4.6226     3.2936     8.1395 </r>
       <r>    -4.5290     3.7569     8.4909 </r>
       <r>    -4.4355     2.6765     8.7412 </r>
       <r>    -4.3420     1.5805     8.8891 </r>
       <r>    -4.2484     1.7100     9.0490 </r>
       <r>    -4.1549     1.6726     9.2054 </r>
       <r>    -4.0614     2.2674     9.4175 </r>
       <r>    -3.9679     2.0457     9.6088 </r>
       <r>    -3.8743     1.4694     9.7463 </r>
       <r>    -3.7808     3.4748    10.0713 </r>
       <r>    -3.6873     4.9736    10.5365 </r>
       <r>    -3.5937     4.4285    10.9507 </r>
       <r>    -3.5002     4.3631    11.3587 </r>
       <r>    -3.4067     3.5640    11.6921 </r>
       <r>    -3.3131     2.6617    11.9410 </r>
       <r>    -3.2196     2.0174    12.1297 </r>
       <r>    -3.1261     2.1562    12.3314 </r>
       <r>    -3.0326     3.9917    12.7047 </r>
       <r>    -2.9390     3.1926    13.0033 </r>
       <r>    -2.8455     2.0257    13.1928 </r>
       <r>    -2.7520     2.9356    13.4674 </r>
       <r>    -2.6584     4.4433    13.8829 </r>
       <r>    -2.5649     5.3619    14.3844 </r>
       <r>    -2.4714     3.5628    14.7177 </r>
       <r>    -2.3778     2.1989    14.9233 </r>
       <r>    -2.2843     2.4623    15.1536 </r>
       <r>    -2.1908     2.4325    15.3811 </r>
       <r>    -2.0973     1.2783    15.5007 </r>
       <r>    -2.0037     1.0823    15.6019 </r>
       <r>    -1.9102     1.1761    15.7119 </r>
       <r>    -1.8167     1.1455    15.8191 </r>
       <r>    -1.7231     1.2043    15.9317 </r>
       <r>    -1.6296     0.6215    15.9898 </r>
       <r>    -1.5361     0.1041    15.9996 </r>
       <r>    -1.4425     0.0045    16.0000 </r>
       <r>    -1.3490     0.0000    16.0000 </r>
       <r>    -1.2555     0.0000    16.0000 </r>
       <r>    -1.1620     0.0032    16.0003 </r>
       <r>    -1.0684     0.0885    16.0086 </r>
       <r>    -0.9749     0.6546    16.0698 </r>
       <r>    -0.8814     1.5615    16.2159 </r>
       <r>    -0.7878     1.2856    16.3361 </r>
       <r>    -0.6943     0.8861    16.4190 </r>
       <r>    -0.6008     1.5040    16.5596 </r>
       <r>    -0.5072     1.4396    16.6943 </r>
       <r>    -0.4137     1.6433    16.8480 </r>
       <r>    -0.3202     4.3399    17.2539 </r>
       <r>    -0.2267     5.7871    17.7952 </r>
       <r>    -0.1331     3.6485    18.1364 </r>
       <r>    -0.0396     3.5941    18.4726 </r>
       <r>     0.0539     5.8220    19.0171 </r>
       <r>     0.1475     4.2623    19.4157 </r>
       <r>     0.2410     3.0169    19.6979 </r>
       <r>     0.3345     4.0351    20.0753 </r>
       <r>     0.4281     4.0809    20.4570 </r>
       <r>     0.5216     3.4147    20.7764 </r>
       <r>     0.6151     3.6822    21.1208 </r>
       <r>     0.7086     3.4475    21.4432 </r>
       <r>     0.8022     3.8163    21.8002 </r>
       <r>     0.8957     4.9695    22.2650 </r>
       <r>     0.9892     5.1592    22.7475 </r>
       <r>     1.0828     4.2879    23.1486 </r>
       <r>     1.1763     3.6744    23.4922 </r>
       <r>     1.2698     4.3635    23.9003 </r>
       <r>     1.3634     5.7934    24.4422 </r>
       <r>     1.4569     6.0626    25.0092 </r>
       <r>     1.5504     5.8722    25.5585 </r>
       <r>     1.6439     4.5806    25.9869 </r>
       <r>     1.7375     3.5043    26.3146 </r>
       <r>     1.8310     4.2148    26.7089 </r>
       <r>     1.9245     5.5539    27.2283 </r>
       <r>     2.0181     5.8940    27.7796 </r>
       <r>     2.1116     5.9395    28.3351 </r>
       <r>     2.2051     7.0436    28.9939 </r>
       <r>     2.2987     6.0963    29.5641 </r>
       <r>     2.3922     4.2356    29.9602 </r>
       <r>     2.4857     3.5304    30.2904 </r>
       <r>     2.5792     4.3925    30.7013 </r>
       <r>     2.6728     5.8367    31.2472 </r>
       <r>     2.7663     5.5102    31.7625 </r>
       <r>     2.8598     5.6208    32.2882 </r>
       <r>     2.9534     6.7863    32.9230 </r>
       <r>     3.0469     6.2647    33.5089 </r>
       <r>     3.1404     6.4158    34.1090 </r>
       <r>     3.2340     8.5481    34.9085 </r>
       <r>     3.3275     8.3706    35.6914 </r>
       <r>     3.4210     7.3769    36.3813 </r>
       <r>     3.5146     7.3272    37.0667 </r>
       <r>     3.6081     6.2728    37.6534 </r>
       <r>     3.7016     5.3999    38.1584 </r>
       <r>     3.7951     4.8965    38.6164 </r>
       <r>     3.8887     5.5849    39.1387 </r>
       <r>     3.9822     6.4183    39.7390 </r>
       <r>     4.0757     5.9645    40.2969 </r>
       <r>     4.1693     5.8293    40.8421 </r>
       <r>     4.2628     5.5117    41.3576 </r>
       <r>     4.3563     6.1388    41.9318 </r>
       <r>     4.4499     7.3084    42.6153 </r>
       <r>     4.5434     5.8158    43.1593 </r>
       <r>     4.6369     5.8406    43.7056 </r>
       <r>     4.7304     7.0198    44.3621 </r>
       <r>     4.8240     6.3727    44.9582 </r>
       <r>     4.9175     7.3348    45.6442 </r>
       <r>     5.0110     6.6181    46.2632 </r>
       <r>     5.1046     6.3786    46.8598 </r>
       <r>     5.1981     8.2062    47.6273 </r>
       <r>     5.2916     7.3940    48.3189 </r>
       <r>     5.3852     6.9627    48.9701 </r>
       <r>     5.4787     7.8570    49.7049 </r>
       <r>     5.5722     7.7632    50.4310 </r>
       <r>     5.6657     8.3589    51.2128 </r>
       <r>     5.7593     8.5155    52.0093 </r>
       <r>     5.8528     8.1246    52.7692 </r>
       <r>     5.9463     7.5868    53.4788 </r>
       <r>     6.0399     6.7704    54.1120 </r>
       <r>     6.1334     7.0783    54.7741 </r>
       <r>     6.2269     6.8778    55.4173 </r>
       <r>     6.3205     6.8301    56.0562 </r>
       <r>     6.4140     7.2785    56.7369 </r>
       <r>     6.5075     6.3221    57.3282 </r>
       <r>     6.6010     5.5430    57.8467 </r>
       <r>     6.6946     4.6307    58.2798 </r>
       <r>     6.7881     4.1545    58.6683 </r>
       <r>     6.8816     2.8907    58.9387 </r>
       <r>     6.9752     3.1390    59.2323 </r>
       <r>     7.0687     3.9297    59.5998 </r>
       <r>     7.1622     4.6264    60.0325 </r>
       <r>     7.2558     5.0753    60.5072 </r>
       <r>     7.3493     5.0763    60.9820 </r>
       <r>     7.4428     4.6823    61.4200 </r>
       <r>     7.5363     5.1408    61.9008 </r>
       <r>     7.6299     5.9361    62.4560 </r>
       <r>     7.7234     4.6698    62.8927 </r>
       <r>     7.8169     3.3207    63.2033 </r>
       <r>     7.9105     2.6431    63.4505 </r>
       <r>     8.0040     1.6752    63.6072 </r>
       <r>     8.0975     0.5830    63.6617 </r>
       <r>     8.1911     0.2219    63.6825 </r>
       <r>     8.2846     0.4402    63.7237 </r>
       <r>     8.3781     0.4614    63.7668 </r>
       <r>     8.4716     0.8195    63.8435 </r>
       <r>     8.5652     0.7375    63.9124 </r>
       <r>     8.6587     0.4810    63.9574 </r>
       <r>     8.7522     0.3702    63.9921 </r>
       <r>     8.8458     0.0812    63.9996 </r>
       <r>     8.9393     0.0038    64.0000 </r>
       <r>     9.0328     0.0000    64.0000 </r>
       <r>     9.1264     0.0000    64.0000 </r>
       <r>     9.2199     0.0000    64.0000 </r>
       <r>     9.3134     0.0000    64.0000 </r>
       <r>     9.4069     0.0000    64.0000 </r>
       <r>     9.5005     0.0000    64.0000 </r>
       <r>     9.5940     0.0000    64.0000 </r>
       <r>     9.6875     0.0000    64.0000 </r>
       <r>     9.7811     0.0000    64.0000 </r>
       <r>     9.8746     0.0017    64.0002 </r>
       <r>     9.9681     0.0384    64.0038 </r>
       <r>    10.0617     0.2043    64.0229 </r>
       <r>    10.1552     0.4451    64.0645 </r>
       <r>    10.2487     0.9501    64.1534 </r>
       <r>    10.3422     1.5877    64.3019 </r>
       <r>    10.4358     1.4760    64.4399 </r>
       <r>    10.5293     0.8659    64.5209 </r>
       <r>    10.6228     0.6211    64.5790 </r>
       <r>    10.7164     0.8078    64.6545 </r>
       <r>    10.8099     0.8825    64.7371 </r>
       <r>    10.9034     0.7423    64.8065 </r>
       <r>    10.9970     1.2963    64.9277 </r>
       <r>    11.0905     2.9674    65.2053 </r>
       <r>    11.1840     5.2162    65.6932 </r>
       <r>    11.2775     5.6909    66.2254 </r>
       <r>    11.3711     5.7817    66.7662 </r>
       <r>    11.4646     4.9911    67.2330 </r>
       <r>    11.5581     2.9403    67.5080 </r>
       <r>    11.6517     2.4992    67.7418 </r>
       <r>    11.7452     3.7765    68.0950 </r>
       <r>    11.8387     5.4233    68.6022 </r>
       <r>    11.9323     6.5592    69.2157 </r>
       <r>    12.0258     7.2178    69.8908 </r>
       <r>    12.1193     6.4171    70.4910 </r>
       <r>    12.2128     4.5037    70.9122 </r>
       <r>    12.3064     3.1482    71.2067 </r>
       <r>    12.3999     3.3265    71.5178 </r>
       <r>    12.4934     4.4560    71.9346 </r>
       <r>    12.5870     5.1814    72.4192 </r>
       <r>    12.6805     5.8093    72.9625 </r>
       <r>    12.7740     5.8125    73.5062 </r>
       <r>    12.8676     6.7568    74.1381 </r>
       <r>    12.9611     7.0031    74.7931 </r>
       <r>    13.0546     5.6992    75.3262 </r>
       <r>    13.1481     4.4129    75.7389 </r>
       <r>    13.2417     3.6819    76.0833 </r>
       <r>    13.3352     4.0804    76.4649 </r>
       <r>    13.4287     5.5205    76.9813 </r>
       <r>    13.5223     5.6028    77.5053 </r>
       <r>    13.6158     5.2976    78.0008 </r>
       <r>    13.7093     6.1113    78.5724 </r>
       <r>    13.8029     6.0939    79.1423 </r>
       <r>    13.8964     6.1190    79.7147 </r>
       <r>    13.9899     6.3295    80.3067 </r>
       <r>    14.0834     6.5819    80.9223 </r>
       <r>    14.1770     5.9248    81.4764 </r>
       <r>    14.2705     6.4933    82.0837 </r>
       <r>    14.3640     6.4786    82.6897 </r>
       <r>    14.4576     7.0894    83.3527 </r>
       <r>    14.5511     6.7914    83.9879 </r>
       <r>    14.6446     5.7186    84.5228 </r>
       <r>    14.7382     5.0712    84.9971 </r>
       <r>    14.8317     4.6755    85.4344 </r>
       <r>    14.9252     4.8960    85.8923 </r>
       <r>    15.0187     5.2089    86.3795 </r>
       <r>    15.1123     4.3235    86.7839 </r>
       <r>    15.2058     2.7028    87.0367 </r>
       <r>    15.2993     2.1251    87.2354 </r>
       <r>    15.3929     2.6999    87.4880 </r>
       <r>    15.4864     2.5000    87.7218 </r>
       <r>    15.5799     1.6423    87.8754 </r>
       <r>    15.6735     0.4449    87.9170 </r>
       <r>    15.7670     0.2769    87.9429 </r>
       <r>    15.8605     0.4323    87.9833 </r>
       <r>    15.9540     0.1646    87.9987 </r>
       <r>    16.0476     0.0133    88.0000 </r>
       <r>    16.1411     0.0002    88.0000 </r>
       <r>    16.2346     0.0000    88.0000 </r>
       <r>    16.3282     0.0000    88.0000 </r>
       <r>    16.4217     0.0000    88.0000 </r>
       <r>    16.5152     0.0000    88.0000 </r>
       <r>    16.6088     0.0000    88.0000 </r>
       <r>    16.7023     0.0000    88.0000 </r>
       <r>    16.7958     0.0000    88.0000 </r>
       <r>    16.8894     0.0000    88.0000 </r>
       <r>    16.9829     0.0000    88.0000 </r>
       <r>    17.0764     0.0000    88.0000 </r>
      </set>
     </set>
    </array>
   </total>
  </dos>
 </calculation>
 <structure name="finalpos" >
  <crystal>
   <varray name="basis" >
    <v>       5.06579636       0.00000000       0.01743533 </v>
    <v>       0.00000000       3.10379162       0.00000000 </v>
    <v>       0.03704459       0.00000000      10.81285153 </v>
   </varray>
   <i name="volume">    170.01036617 </i>
   <varray name="rec_basis" >
    <v>       0.19740466       0.00000000      -0.00067630 </v>
    <v>       0.00000000       0.32218658       0.00000000 </v>
    <v>      -0.00031831       0.00000000       0.09248363 </v>
   </varray>
  </crystal>
  <varray name="positions" >
   <v>       0.99909059       0.50000000       0.58539741 </v>
   <v>       0.00601307       0.50000000       0.08241462 </v>
   <v>       0.49925153       0.50000000       0.91990777 </v>
   <v>       0.49332794       0.50000000       0.42016578 </v>
   <v>       0.49811472       0.00000000       0.16393782 </v>
   <v>       0.00312678       0.00000000       0.83402546 </v>
   <v>       0.00139974       0.00000000       0.33435652 </v>
   <v>       0.50706302       0.00000000       0.66433411 </v>
   <v>       0.60928765       0.00000000       0.84527186 </v>
   <v>       0.63813719       0.50000000       0.56678056 </v>
   <v>       0.62971763       0.50000000       0.08934294 </v>
   <v>       0.11421330       0.00000000       0.65838044 </v>
   <v>       0.12859551       0.00000000       0.16160614 </v>
   <v>       0.60282342       0.00000000       0.32994641 </v>
   <v>       0.13322680       0.50000000       0.92695420 </v>
   <v>       0.13661111       0.50000000       0.41717795 </v>
  </varray>
 </structure>
</modeling>
