<?xml version="1.0" encoding="ISO-8859-1"?>
<modeling>
 <generator>
  <i name="program" type="string">vasp </i>
  <i name="version" type="string">5.3.5  </i>
  <i name="subversion" type="string">31Mar14 (build Jun 20 2014 13:15:13) complex                          parallel </i>
  <i name="platform" type="string">LinuxIFC </i>
  <i name="date" type="string">2025 12 16 </i>
  <i name="time" type="string">18:01:16 </i>
 </generator>
 <incar>
  <i type="string" name="PREC">accurate</i>
  <i type="int" name="IALGO">    68</i>
  <i type="logical" name="ADDGRID"> T  </i>
  <i type="int" name="NELM">   100</i>
  <i type="int" name="NELMIN">     4</i>
  <i type="int" name="IBRION">     2</i>
  <i name="EDIFF">      0.00000100</i>
  <i name="EDIFFG">     -0.02000000</i>
  <i type="int" name="NSW">    30</i>
  <i type="int" name="ISIF">     3</i>
  <i name="ENCUT">    600.00000000</i>
  <i type="logical" name="LREAL"> F  </i>
  <i type="int" name="ISMEAR">     0</i>
  <i name="SIGMA">      0.10000000</i>
  <i type="logical" name="LWAVE"> F  </i>
  <i type="logical" name="LCHARG"> F  </i>
  <i type="int" name="NELM">   100</i>
 </incar>
 <kpoints>
  <generation param="Auto">
   <i name="subdivisionlength">     20.00000000 </i>
   <v type="int" name="divisions">       4        4        3 </v>
   <v name="usershift">      0.00000000       0.00000000       0.00000000 </v>
   <v name="genvec1">      0.25000000       0.00000000       0.00000000 </v>
   <v name="genvec2">      0.00000000       0.25000000       0.00000000 </v>
   <v name="genvec3">      0.00000000       0.00000000       0.33333333 </v>
   <v name="shift">      0.00000000       0.00000000       0.00000000 </v>
  </generation>
  <varray name="kpointlist" >
   <v>       0.00000000       0.00000000       0.00000000 </v>
   <v>       0.25000000       0.00000000       0.00000000 </v>
   <v>       0.50000000       0.00000000       0.00000000 </v>
   <v>       0.00000000       0.25000000       0.00000000 </v>
   <v>       0.25000000       0.25000000       0.00000000 </v>
   <v>       0.50000000       0.25000000       0.00000000 </v>
   <v>      -0.25000000       0.25000000       0.00000000 </v>
   <v>       0.00000000       0.50000000       0.00000000 </v>
   <v>       0.25000000       0.50000000       0.00000000 </v>
   <v>       0.50000000       0.50000000       0.00000000 </v>
   <v>       0.00000000       0.00000000       0.33333333 </v>
   <v>       0.25000000       0.00000000       0.33333333 </v>
   <v>       0.50000000       0.00000000       0.33333333 </v>
   <v>      -0.25000000       0.00000000       0.33333333 </v>
   <v>       0.00000000       0.25000000       0.33333333 </v>
   <v>       0.25000000       0.25000000       0.33333333 </v>
   <v>       0.50000000       0.25000000       0.33333333 </v>
   <v>      -0.25000000       0.25000000       0.33333333 </v>
   <v>       0.00000000       0.50000000       0.33333333 </v>
   <v>       0.25000000       0.50000000       0.33333333 </v>
   <v>       0.50000000       0.50000000       0.33333333 </v>
   <v>      -0.25000000       0.50000000       0.33333333 </v>
   <v>       0.00000000      -0.25000000       0.33333333 </v>
   <v>       0.25000000      -0.25000000       0.33333333 </v>
   <v>       0.50000000      -0.25000000       0.33333333 </v>
   <v>      -0.25000000      -0.25000000       0.33333333 </v>
  </varray>
  <varray name="weights" >
   <v>       0.02083333 </v>
   <v>       0.04166667 </v>
   <v>       0.02083333 </v>
   <v>       0.04166667 </v>
   <v>       0.04166667 </v>
   <v>       0.04166667 </v>
   <v>       0.04166667 </v>
   <v>       0.02083333 </v>
   <v>       0.04166667 </v>
   <v>       0.02083333 </v>
   <v>       0.04166667 </v>
   <v>       0.04166667 </v>
   <v>       0.04166667 </v>
   <v>       0.04166667 </v>
   <v>       0.04166667 </v>
   <v>       0.04166667 </v>
   <v>       0.04166667 </v>
   <v>       0.04166667 </v>
   <v>       0.04166667 </v>
   <v>       0.04166667 </v>
   <v>       0.04166667 </v>
   <v>       0.04166667 </v>
   <v>       0.04166667 </v>
   <v>       0.04166667 </v>
   <v>       0.04166667 </v>
   <v>       0.04166667 </v>
  </varray>
 </kpoints>
 <parameters>
  <separator name="general" >
   <i type="string" name="SYSTEM">unknown system</i>
   <i type="logical" name="LCOMPAT"> F  </i>
  </separator>
  <separator name="electronic" >
   <i type="string" name="PREC">accura</i>
   <i name="ENMAX">    600.00000000</i>
   <i name="ENAUG">    644.87300000</i>
   <i name="EDIFF">      0.00000100</i>
   <i type="int" name="IALGO">    68</i>
   <i type="int" name="IWAVPR">    11</i>
   <i type="int" name="NBANDS">    44</i>
   <i name="NELECT">     64.00000000</i>
   <i type="int" name="TURBO">     0</i>
   <i type="int" name="IRESTART">     0</i>
   <i type="int" name="NREBOOT">     0</i>
   <i type="int" name="NMIN">     0</i>
   <i name="EREF">      0.00000000</i>
   <separator name="electronic smearing" >
    <i type="int" name="ISMEAR">     0</i>
    <i name="SIGMA">      0.10000000</i>
    <i name="KSPACING">      0.50000000</i>
    <i type="logical" name="KGAMMA"> T  </i>
   </separator>
   <separator name="electronic projectors" >
    <i type="logical" name="LREAL"> F  </i>
    <v name="ROPT">      0.00000000      0.00000000      0.00000000      0.00000000</v>
    <i type="int" name="LMAXPAW">  -100</i>
    <i type="int" name="LMAXMIX">     2</i>
    <i type="logical" name="NLSPLINE"> F  </i>
   </separator>
   <separator name="electronic startup" >
    <i type="int" name="ISTART">     0</i>
    <i type="int" name="ICHARG">     2</i>
    <i type="int" name="INIWAV">     1</i>
   </separator>
   <separator name="electronic spin" >
    <i type="int" name="ISPIN">     1</i>
    <i type="logical" name="LNONCOLLINEAR"> F  </i>
    <v name="MAGMOM">      1.00000000      1.00000000      1.00000000      1.00000000      1.00000000      1.00000000      1.00000000      1.00000000      1.00000000      1.00000000      1.00000000      1.00000000      1.00000000      1.00000000      1.00000000      1.00000000</v>
    <i name="NUPDOWN">     -1.00000000</i>
    <i type="logical" name="LSORBIT"> F  </i>
    <v name="SAXIS">      0.00000000      0.00000000      1.00000000</v>
    <i type="logical" name="LSPIRAL"> F  </i>
    <v name="QSPIRAL">      0.00000000      0.00000000      0.00000000</v>
    <i type="logical" name="LZEROZ"> F  </i>
   </separator>
   <separator name="electronic exchange-correlation" >
    <i type="logical" name="LASPH"> F  </i>
    <i type="logical" name="LMETAGGA"> F  </i>
   </separator>
   <separator name="electronic convergence" >
    <i type="int" name="NELM">   100</i>
    <i type="int" name="NELMDL">     0</i>
    <i type="int" name="NELMIN">     4</i>
    <i name="ENINI">    600.00000000</i>
    <separator name="electronic convergence detail" >
     <i type="logical" name="LDIAG"> T  </i>
     <i type="logical" name="LSUBROT"> F  </i>
     <i name="WEIMIN">      0.00100000</i>
     <i name="EBREAK">      0.00000001</i>
     <i name="DEPER">      0.30000000</i>
     <i type="int" name="NRMM">     4</i>
     <i name="TIME">      0.40000000</i>
    </separator>
   </separator>
   <separator name="electronic mixer" >
    <i name="AMIX">      0.40000000</i>
    <i name="BMIX">      1.00000000</i>
    <i name="AMIN">      0.10000000</i>
    <i name="AMIX_MAG">      1.60000000</i>
    <i name="BMIX_MAG">      1.00000000</i>
    <separator name="electronic mixer details" >
     <i type="int" name="IMIX">     4</i>
     <i type="int" name="MAXMIX">   -45</i>
     <i name="WC">    100.00000000</i>
     <i type="int" name="INIMIX">     1</i>
     <i type="int" name="MIXPRE">     1</i>
     <i type="int" name="MREMOVE">     5</i>
    </separator>
   </separator>
   <separator name="electronic dipolcorrection" >
    <i type="logical" name="LDIPOL"> F  </i>
    <i type="logical" name="LMONO"> F  </i>
    <i type="int" name="IDIPOL">     0</i>
    <i name="EPSILON">      1.00000000</i>
    <v name="DIPOL">   -100.00000000   -100.00000000   -100.00000000</v>
    <i name="EFIELD">      0.00000000</i>
   </separator>
  </separator>
  <separator name="grids" >
   <i type="int" name="NGX">    40</i>
   <i type="int" name="NGY">    48</i>
   <i type="int" name="NGZ">    50</i>
   <i type="int" name="NGXF">    80</i>
   <i type="int" name="NGYF">    96</i>
   <i type="int" name="NGZF">   100</i>
   <i type="logical" name="ADDGRID"> T  </i>
  </separator>
  <separator name="ionic" >
   <i type="int" name="NSW">    30</i>
   <i type="int" name="IBRION">     2</i>
   <i type="int" name="ISIF">     3</i>
   <i name="PSTRESS">      0.00000000</i>
   <i name="EDIFFG">     -0.02000000</i>
   <i type="int" name="NFREE">     1</i>
   <i name="POTIM">      0.50000000</i>
   <i name="SMASS">     -3.00000000</i>
   <i name="SCALEE">      1.00000000</i>
  </separator>
  <separator name="ionic md" >
   <i name="TEBEG">      0.00010000</i>
   <i name="TEEND">      0.00010000</i>
   <i type="int" name="NBLOCK">     1</i>
   <i type="int" name="KBLOCK">    30</i>
   <i type="int" name="NPACO">   256</i>
   <i name="APACO">     16.00000000</i>
  </separator>
  <separator name="symmetry" >
   <i type="int" name="ISYM">     2</i>
   <i name="SYMPREC">      0.00001000</i>
  </separator>
  <separator name="dos" >
   <i type="logical" name="LORBIT"> F  </i>
   <v name="RWIGS">     -1.00000000     -1.00000000     -1.00000000     -1.00000000</v>
   <i type="int" name="NEDOS">   301</i>
   <i name="EMIN">     10.00000000</i>
   <i name="EMAX">    -10.00000000</i>
   <i name="EFERMI">      0.00000000</i>
  </separator>
  <separator name="writing" >
   <i type="int" name="NWRITE">     2</i>
   <i type="logical" name="LWAVE"> F  </i>
   <i type="logical" name="LCHARG"> F  </i>
   <i type="logical" name="LPARD"> F  </i>
   <i type="logical" name="LVTOT"> F  </i>
   <i type="logical" name="LVHAR"> F  </i>
   <i type="logical" name="LELF"> F  </i>
   <i type="logical" name="LOPTICS"> F  </i>
   <v name="STM">      0.00000000      0.00000000      0.00000000      0.00000000      0.00000000      0.00000000      0.00000000</v>
  </separator>
  <separator name="performance" >
   <i type="int" name="NPAR">     4</i>
   <i type="int" name="NSIM">     4</i>
   <i type="int" name="NBLK">    -1</i>
   <i type="logical" name="LPLANE"> T  </i>
   <i type="logical" name="LSCALAPACK"> T  </i>
   <i type="logical" name="LSCAAWARE"> F  </i>
   <i type="logical" name="LSCALU"> F  </i>
   <i type="logical" name="LASYNC"> F  </i>
   <i type="logical" name="LORBITALREAL"> F  </i>
  </separator>
  <separator name="miscellaneous" >
   <i type="int" name="IDIOT">     3</i>
   <i type="logical" name="LMUSIC"> F  </i>
   <v name="POMASS">     28.08500000     26.98100000     12.01100000     14.00100000</v>
   <v name="DARWINR">      0.00000000      0.00000000      0.00000000      0.00000000</v>
   <v name="DARWINV">      1.00000000      1.00000000      1.00000000      1.00000000</v>
   <i type="logical" name="LCORR"> T  </i>
  </separator>
  <i type="logical" name="GGA_COMPAT"> T  </i>
  <i type="logical" name="LBERRY"> F  </i>
  <i type="int" name="ICORELEVEL">     0</i>
  <i type="logical" name="LDAU"> F  </i>
  <i type="int" name="I_CONSTRAINED_M">     0</i>
  <separator name="electronic exchange-correlation" >
   <i type="string" name="GGA">--</i>
   <i type="int" name="VOSKOWN">     0</i>
   <i type="logical" name="LHFCALC"> F  </i>
   <i type="string" name="PRECFOCK"></i>
   <i type="logical" name="LSYMGRAD"> F  </i>
   <i type="logical" name="LHFONE"> F  </i>
   <i type="logical" name="LRHFCALC"> F  </i>
   <i type="logical" name="LTHOMAS"> F  </i>
   <i type="logical" name="LMODELHF"> F  </i>
   <i name="ENCUT4O">     -1.00000000</i>
   <i type="int" name="EXXOEP">     0</i>
   <i type="int" name="FOURORBIT">     0</i>
   <i name="AEXX">      0.00000000</i>
   <i name="HFALPHA">      0.00000000</i>
   <i name="MCALPHA">      0.00000000</i>
   <i name="ALDAX">      1.00000000</i>
   <i name="AGGAX">      1.00000000</i>
   <i name="ALDAC">      1.00000000</i>
   <i name="AGGAC">      1.00000000</i>
   <i type="int" name="NKREDX">     1</i>
   <i type="int" name="NKREDY">     1</i>
   <i type="int" name="NKREDZ">     1</i>
   <i type="logical" name="SHIFTRED"> F  </i>
   <i type="logical" name="ODDONLY"> F  </i>
   <i type="logical" name="EVENONLY"> F  </i>
   <i type="int" name="LMAXFOCK">     0</i>
   <i type="int" name="NMAXFOCKAE">     0</i>
   <i type="logical" name="LFOCKAEDFT"> F  </i>
   <i name="HFSCREEN">      0.00000000</i>
   <i name="HFSCREENC">      0.00000000</i>
   <i type="int" name="NBANDSGWLOW">     0</i>
  </separator>
  <separator name="vdW DFT" >
   <i type="logical" name="LUSE_VDW"> F  </i>
   <i name="Zab_VDW">     -0.84910000</i>
   <i name="PARAM1">      0.12340000</i>
   <i name="PARAM2">      1.00000000</i>
   <i name="PARAM3">      0.00000000</i>
  </separator>
  <separator name="model GW" >
   <i type="int" name="MODEL_GW">     0</i>
   <i name="MODEL_EPS0">      6.38694046</i>
   <i name="MODEL_ALPHA">      1.00000000</i>
  </separator>
  <separator name="linear response parameters" >
   <i type="logical" name="LEPSILON"> F  </i>
   <i type="logical" name="LRPA"> F  </i>
   <i type="logical" name="LNABLA"> F  </i>
   <i type="logical" name="LVEL"> F  </i>
   <i type="int" name="KINTER">     0</i>
   <i name="CSHIFT">      0.10000000</i>
   <i name="OMEGAMAX">     -1.00000000</i>
   <i name="DEG_THRESHOLD">      0.00200000</i>
  </separator>
  <separator name="orbital magnetization" >
   <i type="logical" name="NUCIND"> F  </i>
   <v name="MAGPOS">      0.00000000      0.00000000      0.00000000</v>
   <i type="logical" name="LNICSALL"> T  </i>
   <i type="logical" name="ORBITALMAG"> F  </i>
   <i type="logical" name="LMAGBLOCH"> F  </i>
   <i type="logical" name="LCHIMAG"> F  </i>
   <i type="logical" name="LGAUGE"> T  </i>
   <i type="int" name="MAGATOM">     0</i>
   <v name="MAGDIPOL">      0.00000000      0.00000000      0.00000000</v>
   <v name="AVECCONST">      0.00000000      0.00000000      0.00000000</v>
  </separator>
  <separator name="response functions" >
   <i type="logical" name="LADDER"> F  </i>
   <i type="logical" name="LFXC"> F  </i>
   <i type="logical" name="LHARTREE"> T  </i>
   <i type="int" name="IBSE">     0</i>
   <i type="logical" name="LTCTE"> F  </i>
   <i type="logical" name="LTETE"> F  </i>
   <i type="logical" name="LTRIPLET"> F  </i>
   <i type="logical" name="LFXCEPS"> F  </i>
   <i type="logical" name="LFXHEG"> F  </i>
   <i type="logical" name="L2ORDER"> F  </i>
   <i type="logical" name="LUSEW"> F  </i>
   <i name="ENCUTGW">     -2.00000000</i>
   <i name="ENCUTGWSOFT">     -2.00000000</i>
   <i name="ENCUTLF">     -1.00000000</i>
   <i type="int" name="LMAXMP2">    -1</i>
   <i name="SCISSOR">      0.00000000</i>
   <i type="int" name="NOMEGA">     0</i>
   <i type="int" name="NOMEGAR">     0</i>
   <i type="int" name="NBANDSGW">    -1</i>
   <i type="int" name="NBANDSO">    -1</i>
   <i type="int" name="NBANDSV">    -1</i>
   <i type="int" name="NELM">   100</i>
   <i type="int" name="DIM">     3</i>
   <i type="int" name="ANTIRES">     0</i>
   <i name="OMEGAMAX">    -30.00000000</i>
   <i name="OMEGAMIN">    -30.00000000</i>
   <i name="OMEGATL">   -200.00000000</i>
   <i type="int" name="OMEGAGRID">     0</i>
   <i name="CSHIFT">     -0.10000000</i>
   <i type="logical" name="SELFENERGY"> F  </i>
   <i type="logical" name="LSPECTRAL"> F  </i>
   <i type="logical" name="ODDONLYGW"> F  </i>
   <i type="logical" name="EVENONLYGW"> F  </i>
   <i type="int" name="NKREDLFX">     1</i>
   <i type="int" name="NKREDLFY">     1</i>
   <i type="int" name="NKREDLFZ">     1</i>
   <i type="int" name="MAXMEM">  1800</i>
   <i type="int" name="TELESCOPE">     0</i>
   <i type="int" name="TAUPAR">     1</i>
  </separator>
  <separator name="External order field" >
   <i name="OFIELD_KAPPA">      0.00000000</i>
   <v name="OFIELD_K">      0.00000000      0.00000000      0.00000000</v>
   <i name="OFIELD_Q6_NEAR">      0.00000000</i>
   <i name="OFIELD_Q6_FAR">      0.00000000</i>
   <i name="OFIELD_A">      0.00000000</i>
  </separator>
 </parameters>
 <atominfo>
  <atoms>      16 </atoms>
  <types>       4 </types>
  <array name="atoms" >
   <dimension dim="1">ion</dimension>
   <field type="string">element</field>
   <field type="int">atomtype</field>
   <set>
    <rc><c>Si</c><c>   1</c></rc>
    <rc><c>Si</c><c>   1</c></rc>
    <rc><c>Si</c><c>   1</c></rc>
    <rc><c>Si</c><c>   1</c></rc>
    <rc><c>Al</c><c>   2</c></rc>
    <rc><c>Al</c><c>   2</c></rc>
    <rc><c>Al</c><c>   2</c></rc>
    <rc><c>Al</c><c>   2</c></rc>
    <rc><c>C </c><c>   3</c></rc>
    <rc><c>C </c><c>   3</c></rc>
    <rc><c>C </c><c>   3</c></rc>
    <rc><c>C </c><c>   3</c></rc>
    <rc><c>N </c><c>   4</c></rc>
    <rc><c>N </c><c>   4</c></rc>
    <rc><c>N </c><c>   4</c></rc>
    <rc><c>N </c><c>   4</c></rc>
   </set>
  </array>
  <array name="atomtypes" >
   <dimension dim="1">type</dimension>
   <field type="int">atomspertype</field>
   <field type="string">element</field>
   <field>mass</field>
   <field>valence</field>
   <field type="string">pseudopotential</field>
   <set>
    <rc><c>   4</c><c>Si</c><c>     28.08500000</c><c>      4.00000000</c><c>  PAW_PBE Si 05Jan2001                  </c></rc>
    <rc><c>   4</c><c>Al</c><c>     26.98100000</c><c>      3.00000000</c><c>  PAW_PBE Al 04Jan2001                  </c></rc>
    <rc><c>   4</c><c>C </c><c>     12.01100000</c><c>      4.00000000</c><c>  PAW_PBE C 08Apr2002                   </c></rc>
    <rc><c>   4</c><c>N </c><c>     14.00100000</c><c>      5.00000000</c><c>  PAW_PBE N_s 07Sep2000                 </c></rc>
   </set>
  </array>
 </atominfo>
 <structure name="initialpos" >
  <crystal>
   <varray name="basis" >
    <v>       5.06370261      -0.00153888       0.00574177 </v>
    <v>      -0.00156562       5.37928403       0.01661898 </v>
    <v>       0.00703250       0.01915266       6.25278701 </v>
   </varray>
   <i name="volume">    170.31841240 </i>
   <varray name="rec_basis" >
    <v>       0.19748422       0.00005816      -0.00022229 </v>
    <v>       0.00005714       0.18590012      -0.00056949 </v>
    <v>      -0.00018150      -0.00049415       0.15993040 </v>
   </varray>
  </crystal>
  <varray name="positions" >
   <v>       0.99051344       0.83521367       0.74776434 </v>
   <v>       0.50082795       0.17013779       0.74838647 </v>
   <v>       0.50905106       0.16843365       0.25037065 </v>
   <v>       0.50277206       0.66581362       0.50059799 </v>
   <v>       0.99403492       0.33142191       0.99758193 </v>
   <v>       0.99865247       0.83883126       0.25260752 </v>
   <v>       0.98904350       0.32915537       0.49947341 </v>
   <v>       0.50647319       0.66459351       0.00105228 </v>
   <v>       0.38661957       0.31527143       0.99539804 </v>
   <v>       0.38672670       0.33407021       0.50254728 </v>
   <v>       0.86443232       0.16900670       0.24719792 </v>
   <v>       0.86504335       0.67559795       0.51743371 </v>
   <v>       0.38875977       0.83381593       0.26196945 </v>
   <v>       0.36396134       0.84344443       0.73922944 </v>
   <v>       0.86214116       0.14423318       0.75282873 </v>
   <v>       0.89094720       0.68095939       0.98556083 </v>
  </varray>
 </structure>
 <calculation>
  <scstep>
   <time name="dav">    0.74    0.74</time>
   <time name="total">    0.80    0.81</time>
   <energy>
    <i name="alphaZ">     63.86036402 </i>
    <i name="ewald">  -2268.27353491 </i>
    <i name="hartreedc">   -361.66616278 </i>
    <i name="XCdc">     -5.47215644 </i>
    <i name="pawpsdc">   1871.13760811 </i>
    <i name="pawaedc">  -1679.96522576 </i>
    <i name="eentropy">     -0.00673446 </i>
    <i name="bandstr">    445.47098195 </i>
    <i name="atom">   2273.20978491 </i>
    <i name="e_fr_energy">    338.29492464 </i>
    <i name="e_wo_entrp">    338.30165909 </i>
    <i name="e_0_energy">    338.29829187 </i>
   </energy>
  </scstep>
  <scstep>
   <time name="dav">    0.85    0.85</time>
   <time name="total">    0.85    0.86</time>
   <energy>
    <i name="e_fr_energy">   -101.88153402 </i>
    <i name="e_wo_entrp">   -101.88153402 </i>
    <i name="e_0_energy">   -101.88153402 </i>
   </energy>
  </scstep>
  <scstep>
   <time name="dav">    0.89    0.89</time>
   <time name="total">    0.89    0.90</time>
   <energy>
    <i name="e_fr_energy">   -134.15177138 </i>
    <i name="e_wo_entrp">   -134.15177138 </i>
    <i name="e_0_energy">   -134.15177138 </i>
   </energy>
  </scstep>
  <scstep>
   <time name="dav">    0.87    0.87</time>
   <time name="total">    0.88    0.89</time>
   <energy>
    <i name="e_fr_energy">   -134.99909335 </i>
    <i name="e_wo_entrp">   -134.99909335 </i>
    <i name="e_0_energy">   -134.99909335 </i>
   </energy>
  </scstep>
  <scstep>
   <time name="dav">    0.86    0.86</time>
   <time name="total">    0.95    0.96</time>
   <energy>
    <i name="e_fr_energy">   -135.02639176 </i>
    <i name="e_wo_entrp">   -135.02639176 </i>
    <i name="e_0_energy">   -135.02639176 </i>
   </energy>
  </scstep>
  <scstep>
   <time name="diag">    0.16    0.16</time>
   <time name="diis">    0.47    0.47</time>
   <time name="orth">    0.03    0.03</time>
   <time name="total">    0.80    0.81</time>
   <energy>
    <i name="e_fr_energy">   -117.20312616 </i>
    <i name="e_wo_entrp">   -117.20312616 </i>
    <i name="e_0_energy">   -117.20312616 </i>
   </energy>
  </scstep>
  <scstep>
   <time name="diag">    0.16    0.16</time>
   <time name="diis">    0.52    0.52</time>
   <time name="orth">    0.03    0.03</time>
   <time name="total">    0.85    0.86</time>
   <energy>
    <i name="e_fr_energy">   -117.12616570 </i>
    <i name="e_wo_entrp">   -117.12616570 </i>
    <i name="e_0_energy">   -117.12616570 </i>
   </energy>
  </scstep>
  <scstep>
   <time name="diag">    0.16    0.16</time>
   <time name="diis">    0.47    0.47</time>
   <time name="orth">    0.03    0.03</time>
   <time name="total">    0.80    0.82</time>
   <energy>
    <i name="e_fr_energy">   -117.45068971 </i>
    <i name="e_wo_entrp">   -117.45068971 </i>
    <i name="e_0_energy">   -117.45068971 </i>
   </energy>
  </scstep>
  <scstep>
   <time name="diag">    0.16    0.16</time>
   <time name="diis">    0.47    0.47</time>
   <time name="orth">    0.03    0.03</time>
   <time name="total">    0.80    0.83</time>
   <energy>
    <i name="e_fr_energy">   -117.01246507 </i>
    <i name="e_wo_entrp">   -117.01246507 </i>
    <i name="e_0_energy">   -117.01246507 </i>
   </energy>
  </scstep>
  <scstep>
   <time name="diag">    0.16    0.16</time>
   <time name="diis">    0.49    0.49</time>
   <time name="orth">    0.03    0.03</time>
   <time name="total">    0.82    0.83</time>
   <energy>
    <i name="e_fr_energy">   -117.01991849 </i>
    <i name="e_wo_entrp">   -117.01991849 </i>
    <i name="e_0_energy">   -117.01991849 </i>
   </energy>
  </scstep>
  <scstep>
   <time name="diag">    0.16    0.16</time>
   <time name="diis">    0.48    0.48</time>
   <time name="orth">    0.03    0.03</time>
   <time name="total">    0.81    0.83</time>
   <energy>
    <i name="e_fr_energy">   -117.01931500 </i>
    <i name="e_wo_entrp">   -117.01931500 </i>
    <i name="e_0_energy">   -117.01931500 </i>
   </energy>
  </scstep>
  <scstep>
   <time name="diag">    0.16    0.17</time>
   <time name="diis">    0.47    0.47</time>
   <time name="orth">    0.03    0.03</time>
   <time name="total">    0.80    0.81</time>
   <energy>
    <i name="e_fr_energy">   -117.01876017 </i>
    <i name="e_wo_entrp">   -117.01876017 </i>
    <i name="e_0_energy">   -117.01876017 </i>
   </energy>
  </scstep>
  <scstep>
   <time name="diag">    0.16    0.16</time>
   <time name="diis">    0.48    0.48</time>
   <time name="orth">    0.03    0.03</time>
   <time name="total">    0.81    0.82</time>
   <energy>
    <i name="e_fr_energy">   -117.01878877 </i>
    <i name="e_wo_entrp">   -117.01878877 </i>
    <i name="e_0_energy">   -117.01878877 </i>
   </energy>
  </scstep>
  <scstep>
   <time name="diag">    0.16    0.16</time>
   <time name="diis">    0.47    0.47</time>
   <time name="orth">    0.03    0.03</time>
   <time name="total">    0.80    0.81</time>
   <energy>
    <i name="e_fr_energy">   -117.01877320 </i>
    <i name="e_wo_entrp">   -117.01877320 </i>
    <i name="e_0_energy">   -117.01877320 </i>
   </energy>
  </scstep>
  <scstep>
   <time name="diag">    0.16    0.16</time>
   <time name="diis">    0.38    0.38</time>
   <time name="orth">    0.03    0.03</time>
   <time name="total">    0.63    0.64</time>
   <energy>
    <i name="alphaZ">     63.86036402 </i>
    <i name="ewald">  -2268.27353491 </i>
    <i name="hartreedc">   -469.45201837 </i>
    <i name="XCdc">      4.12024214 </i>
    <i name="pawpsdc">  10275.88032850 </i>
    <i name="pawaedc"> -10088.91991990 </i>
    <i name="eentropy">      0.00000000 </i>
    <i name="bandstr">     92.55597990 </i>
    <i name="atom">   2273.20978491 </i>
    <i name="e_fr_energy">   -117.01877371 </i>
    <i name="e_wo_entrp">   -117.01877371 </i>
    <i name="e_0_energy">   -117.01877371 </i>
   </energy>
  </scstep>
  <structure>
   <crystal>
    <varray name="basis" >
     <v>       5.06370261      -0.00153888       0.00574177 </v>
     <v>      -0.00156562       5.37928403       0.01661898 </v>
     <v>       0.00703250       0.01915266       6.25278701 </v>
    </varray>
    <i name="volume">    170.31841240 </i>
    <varray name="rec_basis" >
     <v>       0.19748422       0.00005816      -0.00022229 </v>
     <v>       0.00005714       0.18590012      -0.00056949 </v>
     <v>      -0.00018150      -0.00049415       0.15993040 </v>
    </varray>
   </crystal>
   <varray name="positions" >
    <v>       0.99051344       0.83521367       0.74776434 </v>
    <v>       0.50082795       0.17013779       0.74838647 </v>
    <v>       0.50905106       0.16843365       0.25037065 </v>
    <v>       0.50277206       0.66581362       0.50059799 </v>
    <v>       0.99403492       0.33142191       0.99758193 </v>
    <v>       0.99865247       0.83883126       0.25260752 </v>
    <v>       0.98904350       0.32915537       0.49947341 </v>
    <v>       0.50647319       0.66459351       0.00105228 </v>
    <v>       0.38661957       0.31527143       0.99539804 </v>
    <v>       0.38672670       0.33407021       0.50254728 </v>
    <v>       0.86443232       0.16900670       0.24719792 </v>
    <v>       0.86504335       0.67559795       0.51743371 </v>
    <v>       0.38875977       0.83381593       0.26196945 </v>
    <v>       0.36396134       0.84344443       0.73922944 </v>
    <v>       0.86214116       0.14423318       0.75282873 </v>
    <v>       0.89094720       0.68095939       0.98556083 </v>
   </varray>
  </structure>
  <varray name="forces" >
   <v>      -0.00160707       0.00650676       0.01568331 </v>
   <v>       0.01021574      -0.00513330       0.00489305 </v>
   <v>       0.00249093       0.00262111      -0.00506657 </v>
   <v>       0.00861130       0.00162415       0.00979043 </v>
   <v>      -0.00093129       0.00468976      -0.00068980 </v>
   <v>      -0.00201165      -0.00334904      -0.00066000 </v>
   <v>       0.00082281      -0.00263005       0.00164601 </v>
   <v>      -0.00103084      -0.00051148      -0.00086391 </v>
   <v>      -0.00218156      -0.00162557      -0.00734089 </v>
   <v>      -0.00186694      -0.00014956      -0.01253287 </v>
   <v>      -0.00647811       0.00566600       0.00015506 </v>
   <v>      -0.00564696      -0.00504293      -0.00142391 </v>
   <v>      -0.00618854      -0.00898768       0.00449654 </v>
   <v>       0.00290206      -0.00053121      -0.00329908 </v>
   <v>       0.00122489       0.00528047      -0.00444171 </v>
   <v>       0.00167525       0.00157258      -0.00034565 </v>
  </varray>
  <varray name="stress" >
   <v>      -0.25908985      -0.05682705       0.07419742 </v>
   <v>      -0.05682711       0.10159220       0.04213709 </v>
   <v>       0.07419754       0.04213700       0.05003981 </v>
  </varray>
  <energy>
   <i name="e_fr_energy">   -117.01877371 </i>
   <i name="e_wo_entrp">   -117.01877371 </i>
   <i name="e_0_energy">      0.00000000 </i>
  </energy>
  <time name="totalsc">   13.97   14.21</time>
  <eigenvalues>
   <array>
    <dimension dim="1">band</dimension>
    <dimension dim="2">kpoint</dimension>
    <dimension dim="3">spin</dimension>
    <field>eigene</field>
    <field>occ</field>
    <set>
     <set comment="spin 1">
      <set comment="kpoint 1">
       <r>   -9.3579    1.0000 </r>
       <r>   -7.7957    1.0000 </r>
       <r>   -7.4411    1.0000 </r>
       <r>   -7.0711    1.0000 </r>
       <r>   -4.4338    1.0000 </r>
       <r>   -3.8959    1.0000 </r>
       <r>   -2.5890    1.0000 </r>
       <r>   -2.1734    1.0000 </r>
       <r>   -0.8155    1.0000 </r>
       <r>   -0.0267    1.0000 </r>
       <r>    0.7546    1.0000 </r>
       <r>    1.2842    1.0000 </r>
       <r>    1.4184    1.0000 </r>
       <r>    1.7195    1.0000 </r>
       <r>    2.0822    1.0000 </r>
       <r>    2.3994    1.0000 </r>
       <r>    2.5765    1.0000 </r>
       <r>    2.8108    1.0000 </r>
       <r>    2.9980    1.0000 </r>
       <r>    3.9310    1.0000 </r>
       <r>    4.1612    1.0000 </r>
       <r>    4.4476    1.0000 </r>
       <r>    4.6386    1.0000 </r>
       <r>    4.7959    1.0000 </r>
       <r>    5.2225    1.0000 </r>
       <r>    5.8680    1.0000 </r>
       <r>    5.9431    1.0000 </r>
       <r>    6.1912    1.0000 </r>
       <r>    6.4232    1.0000 </r>
       <r>    7.1971    1.0000 </r>
       <r>    7.4820    1.0000 </r>
       <r>    7.6248    1.0000 </r>
       <r>   10.7777    0.0000 </r>
       <r>   11.2413    0.0000 </r>
       <r>   11.6467    0.0000 </r>
       <r>   11.6973    0.0000 </r>
       <r>   12.0586    0.0000 </r>
       <r>   12.5728    0.0000 </r>
       <r>   13.6239    0.0000 </r>
       <r>   14.2460    0.0000 </r>
       <r>   14.6714    0.0000 </r>
       <r>   14.7237    0.0000 </r>
       <r>   15.1530    0.0000 </r>
       <r>   15.4748    0.0000 </r>
      </set>
      <set comment="kpoint 2">
       <r>   -9.1514    1.0000 </r>
       <r>   -7.9283    1.0000 </r>
       <r>   -7.5658    1.0000 </r>
       <r>   -7.0469    1.0000 </r>
       <r>   -4.3946    1.0000 </r>
       <r>   -3.8780    1.0000 </r>
       <r>   -2.8573    1.0000 </r>
       <r>   -2.3401    1.0000 </r>
       <r>   -0.5139    1.0000 </r>
       <r>   -0.2047    1.0000 </r>
       <r>    0.6924    1.0000 </r>
       <r>    1.0188    1.0000 </r>
       <r>    1.2180    1.0000 </r>
       <r>    1.4966    1.0000 </r>
       <r>    2.2701    1.0000 </r>
       <r>    2.2984    1.0000 </r>
       <r>    3.0767    1.0000 </r>
       <r>    3.2159    1.0000 </r>
       <r>    3.4236    1.0000 </r>
       <r>    3.8867    1.0000 </r>
       <r>    4.2193    1.0000 </r>
       <r>    4.2699    1.0000 </r>
       <r>    4.6918    1.0000 </r>
       <r>    5.0893    1.0000 </r>
       <r>    5.4117    1.0000 </r>
       <r>    5.9226    1.0000 </r>
       <r>    6.1692    1.0000 </r>
       <r>    6.2975    1.0000 </r>
       <r>    6.5184    1.0000 </r>
       <r>    6.6270    1.0000 </r>
       <r>    7.3608    1.0000 </r>
       <r>    7.6288    1.0000 </r>
       <r>   10.7364    0.0000 </r>
       <r>   11.5450    0.0000 </r>
       <r>   11.8029    0.0000 </r>
       <r>   12.3389    0.0000 </r>
       <r>   12.4439    0.0000 </r>
       <r>   12.6308    0.0000 </r>
       <r>   13.0027    0.0000 </r>
       <r>   13.8534    0.0000 </r>
       <r>   14.1307    0.0000 </r>
       <r>   14.8202    0.0000 </r>
       <r>   15.1199    0.0000 </r>
       <r>   15.2257    0.0000 </r>
      </set>
      <set comment="kpoint 3">
       <r>   -8.7272    1.0000 </r>
       <r>   -8.4057    1.0000 </r>
       <r>   -7.5473    1.0000 </r>
       <r>   -7.0425    1.0000 </r>
       <r>   -4.3363    1.0000 </r>
       <r>   -3.7794    1.0000 </r>
       <r>   -3.0805    1.0000 </r>
       <r>   -2.6012    1.0000 </r>
       <r>   -0.5810    1.0000 </r>
       <r>   -0.2059    1.0000 </r>
       <r>    0.3980    1.0000 </r>
       <r>    0.8664    1.0000 </r>
       <r>    1.2876    1.0000 </r>
       <r>    2.1592    1.0000 </r>
       <r>    2.2620    1.0000 </r>
       <r>    2.6447    1.0000 </r>
       <r>    2.7900    1.0000 </r>
       <r>    3.2057    1.0000 </r>
       <r>    3.5566    1.0000 </r>
       <r>    3.8318    1.0000 </r>
       <r>    4.1911    1.0000 </r>
       <r>    4.4131    1.0000 </r>
       <r>    4.6890    1.0000 </r>
       <r>    5.4440    1.0000 </r>
       <r>    5.7448    1.0000 </r>
       <r>    5.9890    1.0000 </r>
       <r>    6.1252    1.0000 </r>
       <r>    6.3604    1.0000 </r>
       <r>    6.4845    1.0000 </r>
       <r>    6.5895    1.0000 </r>
       <r>    7.2468    1.0000 </r>
       <r>    7.7881    1.0000 </r>
       <r>   10.8810    0.0000 </r>
       <r>   11.3756    0.0000 </r>
       <r>   11.8688    0.0000 </r>
       <r>   12.2791    0.0000 </r>
       <r>   12.6276    0.0000 </r>
       <r>   12.8147    0.0000 </r>
       <r>   13.4260    0.0000 </r>
       <r>   13.6698    0.0000 </r>
       <r>   14.0005    0.0000 </r>
       <r>   14.1309    0.0000 </r>
       <r>   14.7277    0.0000 </r>
       <r>   15.0561    0.0000 </r>
      </set>
      <set comment="kpoint 4">
       <r>   -9.2537    1.0000 </r>
       <r>   -7.8103    1.0000 </r>
       <r>   -7.4292    1.0000 </r>
       <r>   -7.1767    1.0000 </r>
       <r>   -4.7984    1.0000 </r>
       <r>   -3.6326    1.0000 </r>
       <r>   -2.6627    1.0000 </r>
       <r>   -2.1707    1.0000 </r>
       <r>   -0.8363    1.0000 </r>
       <r>    0.2873    1.0000 </r>
       <r>    0.5156    1.0000 </r>
       <r>    1.0515    1.0000 </r>
       <r>    1.5501    1.0000 </r>
       <r>    1.6754    1.0000 </r>
       <r>    2.1421    1.0000 </r>
       <r>    2.5109    1.0000 </r>
       <r>    2.5900    1.0000 </r>
       <r>    3.0958    1.0000 </r>
       <r>    3.2802    1.0000 </r>
       <r>    3.9067    1.0000 </r>
       <r>    4.1679    1.0000 </r>
       <r>    4.4098    1.0000 </r>
       <r>    4.6081    1.0000 </r>
       <r>    5.2311    1.0000 </r>
       <r>    5.3930    1.0000 </r>
       <r>    5.6772    1.0000 </r>
       <r>    5.8236    1.0000 </r>
       <r>    6.0742    1.0000 </r>
       <r>    6.3261    1.0000 </r>
       <r>    6.9366    1.0000 </r>
       <r>    7.2636    1.0000 </r>
       <r>    7.6537    1.0000 </r>
       <r>   11.1347    0.0000 </r>
       <r>   11.3101    0.0000 </r>
       <r>   12.0029    0.0000 </r>
       <r>   12.0837    0.0000 </r>
       <r>   12.2374    0.0000 </r>
       <r>   12.5725    0.0000 </r>
       <r>   12.9170    0.0000 </r>
       <r>   13.3374    0.0000 </r>
       <r>   13.9667    0.0000 </r>
       <r>   14.9199    0.0000 </r>
       <r>   15.0678    0.0000 </r>
       <r>   15.4438    0.0000 </r>
      </set>
      <set comment="kpoint 5">
       <r>   -9.0554    1.0000 </r>
       <r>   -7.8866    1.0000 </r>
       <r>   -7.5773    1.0000 </r>
       <r>   -7.1431    1.0000 </r>
       <r>   -4.8065    1.0000 </r>
       <r>   -3.6570    1.0000 </r>
       <r>   -2.8337    1.0000 </r>
       <r>   -2.4573    1.0000 </r>
       <r>   -0.5533    1.0000 </r>
       <r>    0.0613    1.0000 </r>
       <r>    0.4559    1.0000 </r>
       <r>    0.9368    1.0000 </r>
       <r>    1.2424    1.0000 </r>
       <r>    1.8836    1.0000 </r>
       <r>    2.0706    1.0000 </r>
       <r>    2.7224    1.0000 </r>
       <r>    2.7942    1.0000 </r>
       <r>    3.3283    1.0000 </r>
       <r>    3.5119    1.0000 </r>
       <r>    4.2315    1.0000 </r>
       <r>    4.3486    1.0000 </r>
       <r>    4.5811    1.0000 </r>
       <r>    4.8192    1.0000 </r>
       <r>    4.9829    1.0000 </r>
       <r>    5.4696    1.0000 </r>
       <r>    5.7205    1.0000 </r>
       <r>    5.9566    1.0000 </r>
       <r>    6.2113    1.0000 </r>
       <r>    6.4378    1.0000 </r>
       <r>    6.5737    1.0000 </r>
       <r>    7.2065    1.0000 </r>
       <r>    7.6032    1.0000 </r>
       <r>   10.8550    0.0000 </r>
       <r>   11.1389    0.0000 </r>
       <r>   11.7621    0.0000 </r>
       <r>   12.2360    0.0000 </r>
       <r>   12.4742    0.0000 </r>
       <r>   12.7755    0.0000 </r>
       <r>   13.2856    0.0000 </r>
       <r>   13.4410    0.0000 </r>
       <r>   13.8621    0.0000 </r>
       <r>   14.3738    0.0000 </r>
       <r>   15.0195    0.0000 </r>
       <r>   15.2870    0.0000 </r>
      </set>
      <set comment="kpoint 6">
       <r>   -8.6686    1.0000 </r>
       <r>   -8.2974    1.0000 </r>
       <r>   -7.5343    1.0000 </r>
       <r>   -7.1725    1.0000 </r>
       <r>   -4.7334    1.0000 </r>
       <r>   -3.7347    1.0000 </r>
       <r>   -2.9513    1.0000 </r>
       <r>   -2.7052    1.0000 </r>
       <r>   -0.3787    1.0000 </r>
       <r>   -0.1243    1.0000 </r>
       <r>    0.1566    1.0000 </r>
       <r>    0.7629    1.0000 </r>
       <r>    1.4452    1.0000 </r>
       <r>    1.5857    1.0000 </r>
       <r>    2.5527    1.0000 </r>
       <r>    2.7509    1.0000 </r>
       <r>    3.0912    1.0000 </r>
       <r>    3.7106    1.0000 </r>
       <r>    4.0098    1.0000 </r>
       <r>    4.2189    1.0000 </r>
       <r>    4.3323    1.0000 </r>
       <r>    4.5350    1.0000 </r>
       <r>    4.7621    1.0000 </r>
       <r>    5.3493    1.0000 </r>
       <r>    5.5262    1.0000 </r>
       <r>    5.8367    1.0000 </r>
       <r>    6.0473    1.0000 </r>
       <r>    6.1607    1.0000 </r>
       <r>    6.2666    1.0000 </r>
       <r>    6.5998    1.0000 </r>
       <r>    6.9109    1.0000 </r>
       <r>    7.6900    1.0000 </r>
       <r>   10.9600    0.0000 </r>
       <r>   11.2029    0.0000 </r>
       <r>   11.5423    0.0000 </r>
       <r>   11.9964    0.0000 </r>
       <r>   12.2306    0.0000 </r>
       <r>   12.5594    0.0000 </r>
       <r>   13.3924    0.0000 </r>
       <r>   13.5473    0.0000 </r>
       <r>   13.9029    0.0000 </r>
       <r>   14.1250    0.0000 </r>
       <r>   14.4111    0.0000 </r>
       <r>   14.7523    0.0000 </r>
      </set>
      <set comment="kpoint 7">
       <r>   -9.0553    1.0000 </r>
       <r>   -7.9022    1.0000 </r>
       <r>   -7.5127    1.0000 </r>
       <r>   -7.2073    1.0000 </r>
       <r>   -4.7510    1.0000 </r>
       <r>   -3.7241    1.0000 </r>
       <r>   -2.8188    1.0000 </r>
       <r>   -2.4142    1.0000 </r>
       <r>   -0.5579    1.0000 </r>
       <r>    0.0148    1.0000 </r>
       <r>    0.5889    1.0000 </r>
       <r>    0.7009    1.0000 </r>
       <r>    1.2552    1.0000 </r>
       <r>    1.7450    1.0000 </r>
       <r>    2.0551    1.0000 </r>
       <r>    2.7553    1.0000 </r>
       <r>    3.0215    1.0000 </r>
       <r>    3.5658    1.0000 </r>
       <r>    3.7508    1.0000 </r>
       <r>    3.9727    1.0000 </r>
       <r>    4.3582    1.0000 </r>
       <r>    4.4879    1.0000 </r>
       <r>    4.5344    1.0000 </r>
       <r>    5.1963    1.0000 </r>
       <r>    5.5042    1.0000 </r>
       <r>    5.6749    1.0000 </r>
       <r>    5.9780    1.0000 </r>
       <r>    6.1575    1.0000 </r>
       <r>    6.5029    1.0000 </r>
       <r>    6.6230    1.0000 </r>
       <r>    7.1223    1.0000 </r>
       <r>    7.5763    1.0000 </r>
       <r>   10.8238    0.0000 </r>
       <r>   11.1279    0.0000 </r>
       <r>   11.6625    0.0000 </r>
       <r>   12.0712    0.0000 </r>
       <r>   12.3889    0.0000 </r>
       <r>   12.7970    0.0000 </r>
       <r>   13.0582    0.0000 </r>
       <r>   13.4760    0.0000 </r>
       <r>   14.0811    0.0000 </r>
       <r>   14.5248    0.0000 </r>
       <r>   14.9077    0.0000 </r>
       <r>   15.4220    0.0000 </r>
      </set>
      <set comment="kpoint 8">
       <r>   -9.1267    1.0000 </r>
       <r>   -7.8731    1.0000 </r>
       <r>   -7.4172    1.0000 </r>
       <r>   -7.2577    1.0000 </r>
       <r>   -5.0230    1.0000 </r>
       <r>   -3.4563    1.0000 </r>
       <r>   -2.7635    1.0000 </r>
       <r>   -2.2563    1.0000 </r>
       <r>   -0.7589    1.0000 </r>
       <r>    0.3146    1.0000 </r>
       <r>    0.4230    1.0000 </r>
       <r>    1.0889    1.0000 </r>
       <r>    1.3698    1.0000 </r>
       <r>    1.9912    1.0000 </r>
       <r>    2.3023    1.0000 </r>
       <r>    2.4880    1.0000 </r>
       <r>    2.9705    1.0000 </r>
       <r>    3.2909    1.0000 </r>
       <r>    3.3974    1.0000 </r>
       <r>    3.9103    1.0000 </r>
       <r>    4.0386    1.0000 </r>
       <r>    4.1844    1.0000 </r>
       <r>    4.4635    1.0000 </r>
       <r>    5.1011    1.0000 </r>
       <r>    5.3641    1.0000 </r>
       <r>    5.5726    1.0000 </r>
       <r>    5.9640    1.0000 </r>
       <r>    6.0452    1.0000 </r>
       <r>    6.6088    1.0000 </r>
       <r>    6.9257    1.0000 </r>
       <r>    7.2794    1.0000 </r>
       <r>    7.7401    1.0000 </r>
       <r>   10.4398    0.0000 </r>
       <r>   11.5799    0.0000 </r>
       <r>   11.7900    0.0000 </r>
       <r>   12.1593    0.0000 </r>
       <r>   12.4238    0.0000 </r>
       <r>   12.5463    0.0000 </r>
       <r>   13.2288    0.0000 </r>
       <r>   13.3727    0.0000 </r>
       <r>   13.9506    0.0000 </r>
       <r>   14.3169    0.0000 </r>
       <r>   14.9237    0.0000 </r>
       <r>   15.1777    0.0000 </r>
      </set>
      <set comment="kpoint 9">
       <r>   -8.9406    1.0000 </r>
       <r>   -7.8748    1.0000 </r>
       <r>   -7.5238    1.0000 </r>
       <r>   -7.3085    1.0000 </r>
       <r>   -5.0407    1.0000 </r>
       <r>   -3.5752    1.0000 </r>
       <r>   -2.8031    1.0000 </r>
       <r>   -2.5657    1.0000 </r>
       <r>   -0.5958    1.0000 </r>
       <r>   -0.0930    1.0000 </r>
       <r>    0.3955    1.0000 </r>
       <r>    0.9722    1.0000 </r>
       <r>    1.5521    1.0000 </r>
       <r>    1.7429    1.0000 </r>
       <r>    2.6305    1.0000 </r>
       <r>    2.8544    1.0000 </r>
       <r>    3.1546    1.0000 </r>
       <r>    3.4731    1.0000 </r>
       <r>    3.6689    1.0000 </r>
       <r>    3.8729    1.0000 </r>
       <r>    4.1454    1.0000 </r>
       <r>    4.4376    1.0000 </r>
       <r>    4.6112    1.0000 </r>
       <r>    5.1858    1.0000 </r>
       <r>    5.5286    1.0000 </r>
       <r>    5.7441    1.0000 </r>
       <r>    6.0044    1.0000 </r>
       <r>    6.2138    1.0000 </r>
       <r>    6.4249    1.0000 </r>
       <r>    6.7436    1.0000 </r>
       <r>    7.2148    1.0000 </r>
       <r>    7.6131    1.0000 </r>
       <r>   10.1777    0.0000 </r>
       <r>   11.3597    0.0000 </r>
       <r>   11.4174    0.0000 </r>
       <r>   11.7248    0.0000 </r>
       <r>   11.9914    0.0000 </r>
       <r>   12.4183    0.0000 </r>
       <r>   13.2003    0.0000 </r>
       <r>   13.8361    0.0000 </r>
       <r>   14.1172    0.0000 </r>
       <r>   14.4514    0.0000 </r>
       <r>   14.6493    0.0000 </r>
       <r>   15.1271    0.0000 </r>
      </set>
      <set comment="kpoint 10">
       <r>   -8.6067    1.0000 </r>
       <r>   -8.1479    1.0000 </r>
       <r>   -7.5431    1.0000 </r>
       <r>   -7.3221    1.0000 </r>
       <r>   -5.0471    1.0000 </r>
       <r>   -3.7179    1.0000 </r>
       <r>   -2.8191    1.0000 </r>
       <r>   -2.7692    1.0000 </r>
       <r>   -0.5716    1.0000 </r>
       <r>   -0.3431    1.0000 </r>
       <r>   -0.0148    1.0000 </r>
       <r>    1.2060    1.0000 </r>
       <r>    1.8150    1.0000 </r>
       <r>    2.0301    1.0000 </r>
       <r>    2.1770    1.0000 </r>
       <r>    2.7678    1.0000 </r>
       <r>    3.6591    1.0000 </r>
       <r>    3.6975    1.0000 </r>
       <r>    3.9227    1.0000 </r>
       <r>    4.2657    1.0000 </r>
       <r>    4.4156    1.0000 </r>
       <r>    4.5931    1.0000 </r>
       <r>    5.0024    1.0000 </r>
       <r>    5.3257    1.0000 </r>
       <r>    5.6659    1.0000 </r>
       <r>    5.7407    1.0000 </r>
       <r>    5.9196    1.0000 </r>
       <r>    6.0734    1.0000 </r>
       <r>    6.1769    1.0000 </r>
       <r>    6.5975    1.0000 </r>
       <r>    6.9084    1.0000 </r>
       <r>    7.5373    1.0000 </r>
       <r>   10.2166    0.0000 </r>
       <r>   11.2664    0.0000 </r>
       <r>   11.4556    0.0000 </r>
       <r>   11.7370    0.0000 </r>
       <r>   11.8428    0.0000 </r>
       <r>   12.5051    0.0000 </r>
       <r>   12.8486    0.0000 </r>
       <r>   13.0589    0.0000 </r>
       <r>   13.3805    0.0000 </r>
       <r>   14.1660    0.0000 </r>
       <r>   14.3358    0.0000 </r>
       <r>   14.9019    0.0000 </r>
      </set>
      <set comment="kpoint 11">
       <r>   -9.2373    1.0000 </r>
       <r>   -8.0758    1.0000 </r>
       <r>   -7.4137    1.0000 </r>
       <r>   -6.9968    1.0000 </r>
       <r>   -4.3818    1.0000 </r>
       <r>   -3.8103    1.0000 </r>
       <r>   -3.0398    1.0000 </r>
       <r>   -1.9795    1.0000 </r>
       <r>   -0.6406    1.0000 </r>
       <r>    0.2202    1.0000 </r>
       <r>    0.9150    1.0000 </r>
       <r>    1.1322    1.0000 </r>
       <r>    1.3180    1.0000 </r>
       <r>    1.6374    1.0000 </r>
       <r>    2.2395    1.0000 </r>
       <r>    2.5711    1.0000 </r>
       <r>    2.7772    1.0000 </r>
       <r>    3.2441    1.0000 </r>
       <r>    3.5365    1.0000 </r>
       <r>    3.7589    1.0000 </r>
       <r>    3.8921    1.0000 </r>
       <r>    4.1785    1.0000 </r>
       <r>    4.5330    1.0000 </r>
       <r>    4.7313    1.0000 </r>
       <r>    5.0423    1.0000 </r>
       <r>    5.1533    1.0000 </r>
       <r>    5.6291    1.0000 </r>
       <r>    6.0476    1.0000 </r>
       <r>    6.3415    1.0000 </r>
       <r>    6.7326    1.0000 </r>
       <r>    7.2793    1.0000 </r>
       <r>    7.5575    1.0000 </r>
       <r>   10.6862    0.0000 </r>
       <r>   11.3278    0.0000 </r>
       <r>   12.0430    0.0000 </r>
       <r>   12.8639    0.0000 </r>
       <r>   13.2298    0.0000 </r>
       <r>   13.3516    0.0000 </r>
       <r>   13.6740    0.0000 </r>
       <r>   13.9649    0.0000 </r>
       <r>   14.4957    0.0000 </r>
       <r>   14.9442    0.0000 </r>
       <r>   15.3698    0.0000 </r>
       <r>   15.5568    0.0000 </r>
      </set>
      <set comment="kpoint 12">
       <r>   -9.0377    1.0000 </r>
       <r>   -8.0416    1.0000 </r>
       <r>   -7.6359    1.0000 </r>
       <r>   -7.0466    1.0000 </r>
       <r>   -4.3482    1.0000 </r>
       <r>   -3.7962    1.0000 </r>
       <r>   -3.2264    1.0000 </r>
       <r>   -2.2881    1.0000 </r>
       <r>   -0.3134    1.0000 </r>
       <r>    0.0693    1.0000 </r>
       <r>    0.8112    1.0000 </r>
       <r>    1.1197    1.0000 </r>
       <r>    1.3390    1.0000 </r>
       <r>    1.7904    1.0000 </r>
       <r>    2.0430    1.0000 </r>
       <r>    2.6287    1.0000 </r>
       <r>    3.0063    1.0000 </r>
       <r>    3.2753    1.0000 </r>
       <r>    3.4409    1.0000 </r>
       <r>    3.6395    1.0000 </r>
       <r>    4.2431    1.0000 </r>
       <r>    4.3972    1.0000 </r>
       <r>    4.7568    1.0000 </r>
       <r>    4.8537    1.0000 </r>
       <r>    5.2370    1.0000 </r>
       <r>    5.3324    1.0000 </r>
       <r>    5.5526    1.0000 </r>
       <r>    5.9357    1.0000 </r>
       <r>    6.1992    1.0000 </r>
       <r>    6.9168    1.0000 </r>
       <r>    7.0876    1.0000 </r>
       <r>    7.4493    1.0000 </r>
       <r>   11.4406    0.0000 </r>
       <r>   11.6728    0.0000 </r>
       <r>   12.4113    0.0000 </r>
       <r>   12.7045    0.0000 </r>
       <r>   13.1484    0.0000 </r>
       <r>   13.2398    0.0000 </r>
       <r>   13.5151    0.0000 </r>
       <r>   13.8161    0.0000 </r>
       <r>   14.0698    0.0000 </r>
       <r>   14.5967    0.0000 </r>
       <r>   14.8057    0.0000 </r>
       <r>   15.0197    0.0000 </r>
      </set>
      <set comment="kpoint 13">
       <r>   -8.6030    1.0000 </r>
       <r>   -8.3663    1.0000 </r>
       <r>   -7.7529    1.0000 </r>
       <r>   -7.0684    1.0000 </r>
       <r>   -4.2458    1.0000 </r>
       <r>   -3.9053    1.0000 </r>
       <r>   -3.3551    1.0000 </r>
       <r>   -2.4274    1.0000 </r>
       <r>   -0.6060    1.0000 </r>
       <r>    0.0067    1.0000 </r>
       <r>    0.6023    1.0000 </r>
       <r>    1.5362    1.0000 </r>
       <r>    1.7312    1.0000 </r>
       <r>    1.9990    1.0000 </r>
       <r>    2.3843    1.0000 </r>
       <r>    2.5379    1.0000 </r>
       <r>    2.8020    1.0000 </r>
       <r>    3.0687    1.0000 </r>
       <r>    3.2517    1.0000 </r>
       <r>    3.5896    1.0000 </r>
       <r>    4.3783    1.0000 </r>
       <r>    4.5288    1.0000 </r>
       <r>    4.7167    1.0000 </r>
       <r>    5.0704    1.0000 </r>
       <r>    5.2477    1.0000 </r>
       <r>    5.4691    1.0000 </r>
       <r>    5.7582    1.0000 </r>
       <r>    5.8979    1.0000 </r>
       <r>    6.6147    1.0000 </r>
       <r>    6.7318    1.0000 </r>
       <r>    7.0744    1.0000 </r>
       <r>    7.4820    1.0000 </r>
       <r>   11.7947    0.0000 </r>
       <r>   11.9577    0.0000 </r>
       <r>   12.3738    0.0000 </r>
       <r>   12.7232    0.0000 </r>
       <r>   13.0974    0.0000 </r>
       <r>   13.1796    0.0000 </r>
       <r>   13.6068    0.0000 </r>
       <r>   13.7646    0.0000 </r>
       <r>   13.8498    0.0000 </r>
       <r>   14.1655    0.0000 </r>
       <r>   14.4467    0.0000 </r>
       <r>   14.7960    0.0000 </r>
      </set>
      <set comment="kpoint 14">
       <r>   -9.0303    1.0000 </r>
       <r>   -8.0694    1.0000 </r>
       <r>   -7.6376    1.0000 </r>
       <r>   -7.0141    1.0000 </r>
       <r>   -4.2951    1.0000 </r>
       <r>   -3.9335    1.0000 </r>
       <r>   -3.1653    1.0000 </r>
       <r>   -2.2606    1.0000 </r>
       <r>   -0.3383    1.0000 </r>
       <r>    0.0896    1.0000 </r>
       <r>    0.6628    1.0000 </r>
       <r>    1.1948    1.0000 </r>
       <r>    1.3553    1.0000 </r>
       <r>    1.8478    1.0000 </r>
       <r>    2.2391    1.0000 </r>
       <r>    2.5492    1.0000 </r>
       <r>    3.0240    1.0000 </r>
       <r>    3.1467    1.0000 </r>
       <r>    3.3625    1.0000 </r>
       <r>    3.6376    1.0000 </r>
       <r>    4.0881    1.0000 </r>
       <r>    4.5989    1.0000 </r>
       <r>    4.8527    1.0000 </r>
       <r>    4.9433    1.0000 </r>
       <r>    5.0086    1.0000 </r>
       <r>    5.4061    1.0000 </r>
       <r>    5.5949    1.0000 </r>
       <r>    5.8548    1.0000 </r>
       <r>    6.1702    1.0000 </r>
       <r>    6.9713    1.0000 </r>
       <r>    7.1105    1.0000 </r>
       <r>    7.4229    1.0000 </r>
       <r>   11.4620    0.0000 </r>
       <r>   11.6834    0.0000 </r>
       <r>   12.3005    0.0000 </r>
       <r>   12.7785    0.0000 </r>
       <r>   13.0221    0.0000 </r>
       <r>   13.2738    0.0000 </r>
       <r>   13.6444    0.0000 </r>
       <r>   13.8734    0.0000 </r>
       <r>   14.1998    0.0000 </r>
       <r>   14.4842    0.0000 </r>
       <r>   14.7321    0.0000 </r>
       <r>   15.1947    0.0000 </r>
      </set>
      <set comment="kpoint 15">
       <r>   -9.1412    1.0000 </r>
       <r>   -8.0284    1.0000 </r>
       <r>   -7.4532    1.0000 </r>
       <r>   -7.0884    1.0000 </r>
       <r>   -4.7493    1.0000 </r>
       <r>   -3.6541    1.0000 </r>
       <r>   -3.1851    1.0000 </r>
       <r>   -1.8210    1.0000 </r>
       <r>   -0.6585    1.0000 </r>
       <r>    0.5179    1.0000 </r>
       <r>    0.9652    1.0000 </r>
       <r>    1.2907    1.0000 </r>
       <r>    1.4974    1.0000 </r>
       <r>    1.7553    1.0000 </r>
       <r>    1.9648    1.0000 </r>
       <r>    2.3749    1.0000 </r>
       <r>    2.9120    1.0000 </r>
       <r>    3.2334    1.0000 </r>
       <r>    3.3679    1.0000 </r>
       <r>    3.5846    1.0000 </r>
       <r>    4.0976    1.0000 </r>
       <r>    4.2207    1.0000 </r>
       <r>    4.4582    1.0000 </r>
       <r>    4.7845    1.0000 </r>
       <r>    5.0456    1.0000 </r>
       <r>    5.3604    1.0000 </r>
       <r>    5.6759    1.0000 </r>
       <r>    5.8113    1.0000 </r>
       <r>    6.2443    1.0000 </r>
       <r>    7.0272    1.0000 </r>
       <r>    7.2414    1.0000 </r>
       <r>    7.5209    1.0000 </r>
       <r>   11.2161    0.0000 </r>
       <r>   11.6662    0.0000 </r>
       <r>   11.8736    0.0000 </r>
       <r>   12.5022    0.0000 </r>
       <r>   12.9902    0.0000 </r>
       <r>   13.2081    0.0000 </r>
       <r>   13.4596    0.0000 </r>
       <r>   13.9323    0.0000 </r>
       <r>   14.3354    0.0000 </r>
       <r>   14.7457    0.0000 </r>
       <r>   15.0520    0.0000 </r>
       <r>   15.3844    0.0000 </r>
      </set>
      <set comment="kpoint 16">
       <r>   -8.9493    1.0000 </r>
       <r>   -7.9953    1.0000 </r>
       <r>   -7.6110    1.0000 </r>
       <r>   -7.1561    1.0000 </r>
       <r>   -4.7064    1.0000 </r>
       <r>   -3.6735    1.0000 </r>
       <r>   -3.4451    1.0000 </r>
       <r>   -2.2217    1.0000 </r>
       <r>   -0.2813    1.0000 </r>
       <r>    0.2979    1.0000 </r>
       <r>    0.9807    1.0000 </r>
       <r>    1.2184    1.0000 </r>
       <r>    1.4234    1.0000 </r>
       <r>    1.8606    1.0000 </r>
       <r>    2.2876    1.0000 </r>
       <r>    2.5873    1.0000 </r>
       <r>    2.8888    1.0000 </r>
       <r>    3.1958    1.0000 </r>
       <r>    3.4767    1.0000 </r>
       <r>    3.9437    1.0000 </r>
       <r>    4.0943    1.0000 </r>
       <r>    4.4172    1.0000 </r>
       <r>    4.6000    1.0000 </r>
       <r>    4.7343    1.0000 </r>
       <r>    4.9935    1.0000 </r>
       <r>    5.3853    1.0000 </r>
       <r>    5.5128    1.0000 </r>
       <r>    6.0630    1.0000 </r>
       <r>    6.2680    1.0000 </r>
       <r>    6.9755    1.0000 </r>
       <r>    7.1064    1.0000 </r>
       <r>    7.5164    1.0000 </r>
       <r>   11.3027    0.0000 </r>
       <r>   11.7900    0.0000 </r>
       <r>   11.9759    0.0000 </r>
       <r>   12.6247    0.0000 </r>
       <r>   12.8150    0.0000 </r>
       <r>   13.2209    0.0000 </r>
       <r>   13.5285    0.0000 </r>
       <r>   13.7444    0.0000 </r>
       <r>   14.1643    0.0000 </r>
       <r>   14.3954    0.0000 </r>
       <r>   14.7178    0.0000 </r>
       <r>   14.9813    0.0000 </r>
      </set>
      <set comment="kpoint 17">
       <r>   -8.5535    1.0000 </r>
       <r>   -8.2645    1.0000 </r>
       <r>   -7.7174    1.0000 </r>
       <r>   -7.1807    1.0000 </r>
       <r>   -4.5450    1.0000 </r>
       <r>   -3.8811    1.0000 </r>
       <r>   -3.5881    1.0000 </r>
       <r>   -2.5352    1.0000 </r>
       <r>   -0.2169    1.0000 </r>
       <r>    0.2787    1.0000 </r>
       <r>    0.7535    1.0000 </r>
       <r>    1.2437    1.0000 </r>
       <r>    1.6277    1.0000 </r>
       <r>    2.1718    1.0000 </r>
       <r>    2.4589    1.0000 </r>
       <r>    2.6437    1.0000 </r>
       <r>    2.7709    1.0000 </r>
       <r>    3.2628    1.0000 </r>
       <r>    3.5346    1.0000 </r>
       <r>    4.0049    1.0000 </r>
       <r>    4.2028    1.0000 </r>
       <r>    4.4287    1.0000 </r>
       <r>    4.7271    1.0000 </r>
       <r>    4.9625    1.0000 </r>
       <r>    5.2655    1.0000 </r>
       <r>    5.3754    1.0000 </r>
       <r>    5.7979    1.0000 </r>
       <r>    5.9933    1.0000 </r>
       <r>    6.4352    1.0000 </r>
       <r>    6.5988    1.0000 </r>
       <r>    6.9965    1.0000 </r>
       <r>    7.3701    1.0000 </r>
       <r>   11.3605    0.0000 </r>
       <r>   12.0012    0.0000 </r>
       <r>   12.2075    0.0000 </r>
       <r>   12.3086    0.0000 </r>
       <r>   12.5325    0.0000 </r>
       <r>   12.8127    0.0000 </r>
       <r>   12.9758    0.0000 </r>
       <r>   13.6523    0.0000 </r>
       <r>   14.0248    0.0000 </r>
       <r>   14.5368    0.0000 </r>
       <r>   14.7571    0.0000 </r>
       <r>   14.9950    0.0000 </r>
      </set>
      <set comment="kpoint 18">
       <r>   -8.9415    1.0000 </r>
       <r>   -8.0213    1.0000 </r>
       <r>   -7.6057    1.0000 </r>
       <r>   -7.1469    1.0000 </r>
       <r>   -4.6530    1.0000 </r>
       <r>   -3.6903    1.0000 </r>
       <r>   -3.5082    1.0000 </r>
       <r>   -2.1929    1.0000 </r>
       <r>   -0.2503    1.0000 </r>
       <r>    0.3083    1.0000 </r>
       <r>    0.8091    1.0000 </r>
       <r>    1.3146    1.0000 </r>
       <r>    1.3814    1.0000 </r>
       <r>    1.9006    1.0000 </r>
       <r>    2.2543    1.0000 </r>
       <r>    2.6932    1.0000 </r>
       <r>    2.9265    1.0000 </r>
       <r>    3.1009    1.0000 </r>
       <r>    3.6001    1.0000 </r>
       <r>    3.8250    1.0000 </r>
       <r>    4.0443    1.0000 </r>
       <r>    4.2774    1.0000 </r>
       <r>    4.5305    1.0000 </r>
       <r>    4.9832    1.0000 </r>
       <r>    5.1725    1.0000 </r>
       <r>    5.3806    1.0000 </r>
       <r>    5.6385    1.0000 </r>
       <r>    5.9397    1.0000 </r>
       <r>    6.2314    1.0000 </r>
       <r>    7.0126    1.0000 </r>
       <r>    7.1182    1.0000 </r>
       <r>    7.3704    1.0000 </r>
       <r>   11.2660    0.0000 </r>
       <r>   11.8390    0.0000 </r>
       <r>   11.9521    0.0000 </r>
       <r>   12.2559    0.0000 </r>
       <r>   12.7529    0.0000 </r>
       <r>   13.2489    0.0000 </r>
       <r>   13.6364    0.0000 </r>
       <r>   13.7204    0.0000 </r>
       <r>   14.0802    0.0000 </r>
       <r>   14.4329    0.0000 </r>
       <r>   14.6314    0.0000 </r>
       <r>   14.8309    0.0000 </r>
      </set>
      <set comment="kpoint 19">
       <r>   -9.0243    1.0000 </r>
       <r>   -7.9665    1.0000 </r>
       <r>   -7.6008    1.0000 </r>
       <r>   -7.1052    1.0000 </r>
       <r>   -4.9371    1.0000 </r>
       <r>   -3.9060    1.0000 </r>
       <r>   -3.0156    1.0000 </r>
       <r>   -1.7403    1.0000 </r>
       <r>   -0.6493    1.0000 </r>
       <r>    0.7157    1.0000 </r>
       <r>    0.9339    1.0000 </r>
       <r>    1.3271    1.0000 </r>
       <r>    1.6952    1.0000 </r>
       <r>    1.8600    1.0000 </r>
       <r>    2.1321    1.0000 </r>
       <r>    2.6096    1.0000 </r>
       <r>    2.7831    1.0000 </r>
       <r>    2.9410    1.0000 </r>
       <r>    3.2206    1.0000 </r>
       <r>    3.5515    1.0000 </r>
       <r>    3.9350    1.0000 </r>
       <r>    4.2580    1.0000 </r>
       <r>    4.5404    1.0000 </r>
       <r>    4.7017    1.0000 </r>
       <r>    5.1359    1.0000 </r>
       <r>    5.4490    1.0000 </r>
       <r>    5.6236    1.0000 </r>
       <r>    6.0812    1.0000 </r>
       <r>    6.2207    1.0000 </r>
       <r>    7.0164    1.0000 </r>
       <r>    7.2015    1.0000 </r>
       <r>    7.3665    1.0000 </r>
       <r>   11.3528    0.0000 </r>
       <r>   12.1748    0.0000 </r>
       <r>   12.2796    0.0000 </r>
       <r>   12.6333    0.0000 </r>
       <r>   13.1416    0.0000 </r>
       <r>   13.2182    0.0000 </r>
       <r>   13.3143    0.0000 </r>
       <r>   13.6146    0.0000 </r>
       <r>   14.0120    0.0000 </r>
       <r>   14.2046    0.0000 </r>
       <r>   14.6193    0.0000 </r>
       <r>   14.8275    0.0000 </r>
      </set>
      <set comment="kpoint 20">
       <r>   -8.8441    1.0000 </r>
       <r>   -7.9313    1.0000 </r>
       <r>   -7.6115    1.0000 </r>
       <r>   -7.2892    1.0000 </r>
       <r>   -4.8774    1.0000 </r>
       <r>   -3.9404    1.0000 </r>
       <r>   -3.3646    1.0000 </r>
       <r>   -2.2091    1.0000 </r>
       <r>   -0.2381    1.0000 </r>
       <r>    0.3907    1.0000 </r>
       <r>    0.9047    1.0000 </r>
       <r>    1.3887    1.0000 </r>
       <r>    1.6167    1.0000 </r>
       <r>    2.2014    1.0000 </r>
       <r>    2.4806    1.0000 </r>
       <r>    2.5929    1.0000 </r>
       <r>    2.8906    1.0000 </r>
       <r>    3.3390    1.0000 </r>
       <r>    3.3742    1.0000 </r>
       <r>    3.8590    1.0000 </r>
       <r>    4.0077    1.0000 </r>
       <r>    4.2420    1.0000 </r>
       <r>    4.5535    1.0000 </r>
       <r>    4.7254    1.0000 </r>
       <r>    4.9982    1.0000 </r>
       <r>    5.2506    1.0000 </r>
       <r>    5.7140    1.0000 </r>
       <r>    6.0768    1.0000 </r>
       <r>    6.4608    1.0000 </r>
       <r>    6.7774    1.0000 </r>
       <r>    7.1055    1.0000 </r>
       <r>    7.4479    1.0000 </r>
       <r>   11.0246    0.0000 </r>
       <r>   11.7522    0.0000 </r>
       <r>   12.2068    0.0000 </r>
       <r>   12.5177    0.0000 </r>
       <r>   12.6380    0.0000 </r>
       <r>   13.0347    0.0000 </r>
       <r>   13.2336    0.0000 </r>
       <r>   13.5162    0.0000 </r>
       <r>   14.1596    0.0000 </r>
       <r>   14.5242    0.0000 </r>
       <r>   14.8776    0.0000 </r>
       <r>   14.9722    0.0000 </r>
      </set>
      <set comment="kpoint 21">
       <r>   -8.5022    1.0000 </r>
       <r>   -8.1230    1.0000 </r>
       <r>   -7.6847    1.0000 </r>
       <r>   -7.3347    1.0000 </r>
       <r>   -4.7932    1.0000 </r>
       <r>   -3.9297    1.0000 </r>
       <r>   -3.6801    1.0000 </r>
       <r>   -2.6931    1.0000 </r>
       <r>    0.1848    1.0000 </r>
       <r>    0.3908    1.0000 </r>
       <r>    0.6421    1.0000 </r>
       <r>    1.5522    1.0000 </r>
       <r>    1.7578    1.0000 </r>
       <r>    1.8938    1.0000 </r>
       <r>    2.2614    1.0000 </r>
       <r>    2.6982    1.0000 </r>
       <r>    3.2579    1.0000 </r>
       <r>    3.5250    1.0000 </r>
       <r>    3.8359    1.0000 </r>
       <r>    3.9403    1.0000 </r>
       <r>    4.2190    1.0000 </r>
       <r>    4.5487    1.0000 </r>
       <r>    4.8466    1.0000 </r>
       <r>    4.9298    1.0000 </r>
       <r>    5.2508    1.0000 </r>
       <r>    5.3286    1.0000 </r>
       <r>    5.5982    1.0000 </r>
       <r>    5.8145    1.0000 </r>
       <r>    6.2337    1.0000 </r>
       <r>    6.4915    1.0000 </r>
       <r>    6.9182    1.0000 </r>
       <r>    7.1752    1.0000 </r>
       <r>   11.0234    0.0000 </r>
       <r>   11.8450    0.0000 </r>
       <r>   12.0346    0.0000 </r>
       <r>   12.1457    0.0000 </r>
       <r>   12.5560    0.0000 </r>
       <r>   12.8301    0.0000 </r>
       <r>   12.8906    0.0000 </r>
       <r>   13.2719    0.0000 </r>
       <r>   14.1665    0.0000 </r>
       <r>   14.4653    0.0000 </r>
       <r>   14.7608    0.0000 </r>
       <r>   15.0323    0.0000 </r>
      </set>
      <set comment="kpoint 22">
       <r>   -8.8358    1.0000 </r>
       <r>   -7.9397    1.0000 </r>
       <r>   -7.6717    1.0000 </r>
       <r>   -7.2199    1.0000 </r>
       <r>   -4.8755    1.0000 </r>
       <r>   -3.9438    1.0000 </r>
       <r>   -3.3916    1.0000 </r>
       <r>   -2.1978    1.0000 </r>
       <r>   -0.2764    1.0000 </r>
       <r>    0.4567    1.0000 </r>
       <r>    0.9500    1.0000 </r>
       <r>    1.3375    1.0000 </r>
       <r>    1.7215    1.0000 </r>
       <r>    2.1651    1.0000 </r>
       <r>    2.4073    1.0000 </r>
       <r>    2.5845    1.0000 </r>
       <r>    2.8356    1.0000 </r>
       <r>    3.1635    1.0000 </r>
       <r>    3.7380    1.0000 </r>
       <r>    3.8250    1.0000 </r>
       <r>    3.9623    1.0000 </r>
       <r>    4.1862    1.0000 </r>
       <r>    4.3667    1.0000 </r>
       <r>    4.7319    1.0000 </r>
       <r>    5.0802    1.0000 </r>
       <r>    5.4703    1.0000 </r>
       <r>    5.7181    1.0000 </r>
       <r>    6.0030    1.0000 </r>
       <r>    6.4260    1.0000 </r>
       <r>    6.7403    1.0000 </r>
       <r>    7.1027    1.0000 </r>
       <r>    7.4650    1.0000 </r>
       <r>   11.0004    0.0000 </r>
       <r>   11.7477    0.0000 </r>
       <r>   12.1297    0.0000 </r>
       <r>   12.5670    0.0000 </r>
       <r>   12.8212    0.0000 </r>
       <r>   13.1029    0.0000 </r>
       <r>   13.2056    0.0000 </r>
       <r>   13.4661    0.0000 </r>
       <r>   14.2051    0.0000 </r>
       <r>   14.5200    0.0000 </r>
       <r>   14.6191    0.0000 </r>
       <r>   15.3000    0.0000 </r>
      </set>
      <set comment="kpoint 23">
       <r>   -9.1400    1.0000 </r>
       <r>   -8.0115    1.0000 </r>
       <r>   -7.5153    1.0000 </r>
       <r>   -7.0460    1.0000 </r>
       <r>   -4.6204    1.0000 </r>
       <r>   -4.0073    1.0000 </r>
       <r>   -2.9000    1.0000 </r>
       <r>   -1.8513    1.0000 </r>
       <r>   -0.6854    1.0000 </r>
       <r>    0.4938    1.0000 </r>
       <r>    1.0309    1.0000 </r>
       <r>    1.3048    1.0000 </r>
       <r>    1.5340    1.0000 </r>
       <r>    1.6890    1.0000 </r>
       <r>    1.8548    1.0000 </r>
       <r>    2.3457    1.0000 </r>
       <r>    2.9201    1.0000 </r>
       <r>    3.2567    1.0000 </r>
       <r>    3.4382    1.0000 </r>
       <r>    3.6898    1.0000 </r>
       <r>    3.9166    1.0000 </r>
       <r>    4.3159    1.0000 </r>
       <r>    4.4690    1.0000 </r>
       <r>    4.8709    1.0000 </r>
       <r>    5.0058    1.0000 </r>
       <r>    5.2783    1.0000 </r>
       <r>    5.6079    1.0000 </r>
       <r>    5.9581    1.0000 </r>
       <r>    6.2397    1.0000 </r>
       <r>    6.9742    1.0000 </r>
       <r>    7.2725    1.0000 </r>
       <r>    7.4828    1.0000 </r>
       <r>   11.1711    0.0000 </r>
       <r>   11.7519    0.0000 </r>
       <r>   11.9239    0.0000 </r>
       <r>   12.4512    0.0000 </r>
       <r>   12.9765    0.0000 </r>
       <r>   13.1613    0.0000 </r>
       <r>   13.3992    0.0000 </r>
       <r>   13.8709    0.0000 </r>
       <r>   14.3032    0.0000 </r>
       <r>   14.5841    0.0000 </r>
       <r>   15.1799    0.0000 </r>
       <r>   15.3014    0.0000 </r>
      </set>
      <set comment="kpoint 24">
       <r>   -8.9484    1.0000 </r>
       <r>   -7.9796    1.0000 </r>
       <r>   -7.6252    1.0000 </r>
       <r>   -7.1754    1.0000 </r>
       <r>   -4.5364    1.0000 </r>
       <r>   -4.0413    1.0000 </r>
       <r>   -3.2026    1.0000 </r>
       <r>   -2.2123    1.0000 </r>
       <r>   -0.3648    1.0000 </r>
       <r>    0.4560    1.0000 </r>
       <r>    0.7867    1.0000 </r>
       <r>    1.1559    1.0000 </r>
       <r>    1.3115    1.0000 </r>
       <r>    1.9049    1.0000 </r>
       <r>    2.3801    1.0000 </r>
       <r>    2.7383    1.0000 </r>
       <r>    3.0288    1.0000 </r>
       <r>    3.3034    1.0000 </r>
       <r>    3.4538    1.0000 </r>
       <r>    3.6823    1.0000 </r>
       <r>    3.9921    1.0000 </r>
       <r>    4.3393    1.0000 </r>
       <r>    4.7249    1.0000 </r>
       <r>    4.8797    1.0000 </r>
       <r>    4.9629    1.0000 </r>
       <r>    5.2409    1.0000 </r>
       <r>    5.8019    1.0000 </r>
       <r>    5.9570    1.0000 </r>
       <r>    6.3350    1.0000 </r>
       <r>    7.0003    1.0000 </r>
       <r>    7.1375    1.0000 </r>
       <r>    7.3254    1.0000 </r>
       <r>   11.3203    0.0000 </r>
       <r>   11.8105    0.0000 </r>
       <r>   11.9748    0.0000 </r>
       <r>   12.4519    0.0000 </r>
       <r>   12.5407    0.0000 </r>
       <r>   13.1276    0.0000 </r>
       <r>   13.4640    0.0000 </r>
       <r>   13.7064    0.0000 </r>
       <r>   14.0108    0.0000 </r>
       <r>   14.5445    0.0000 </r>
       <r>   14.7141    0.0000 </r>
       <r>   14.9538    0.0000 </r>
      </set>
      <set comment="kpoint 25">
       <r>   -8.5541    1.0000 </r>
       <r>   -8.2602    1.0000 </r>
       <r>   -7.7174    1.0000 </r>
       <r>   -7.1894    1.0000 </r>
       <r>   -4.5015    1.0000 </r>
       <r>   -4.0248    1.0000 </r>
       <r>   -3.4429    1.0000 </r>
       <r>   -2.5571    1.0000 </r>
       <r>   -0.2692    1.0000 </r>
       <r>    0.2784    1.0000 </r>
       <r>    0.6754    1.0000 </r>
       <r>    1.2610    1.0000 </r>
       <r>    1.7634    1.0000 </r>
       <r>    2.1284    1.0000 </r>
       <r>    2.3720    1.0000 </r>
       <r>    2.7416    1.0000 </r>
       <r>    2.9703    1.0000 </r>
       <r>    3.2377    1.0000 </r>
       <r>    3.4835    1.0000 </r>
       <r>    3.8150    1.0000 </r>
       <r>    4.2369    1.0000 </r>
       <r>    4.4355    1.0000 </r>
       <r>    4.7399    1.0000 </r>
       <r>    4.9269    1.0000 </r>
       <r>    5.3387    1.0000 </r>
       <r>    5.4302    1.0000 </r>
       <r>    5.7587    1.0000 </r>
       <r>    5.7995    1.0000 </r>
       <r>    6.4374    1.0000 </r>
       <r>    6.6837    1.0000 </r>
       <r>    7.1265    1.0000 </r>
       <r>    7.2986    1.0000 </r>
       <r>   11.3914    0.0000 </r>
       <r>   11.8840    0.0000 </r>
       <r>   12.1166    0.0000 </r>
       <r>   12.3788    0.0000 </r>
       <r>   12.7219    0.0000 </r>
       <r>   12.8032    0.0000 </r>
       <r>   13.0700    0.0000 </r>
       <r>   13.7339    0.0000 </r>
       <r>   14.0395    0.0000 </r>
       <r>   14.2916    0.0000 </r>
       <r>   14.6474    0.0000 </r>
       <r>   15.1712    0.0000 </r>
      </set>
      <set comment="kpoint 26">
       <r>   -8.9408    1.0000 </r>
       <r>   -7.9974    1.0000 </r>
       <r>   -7.6719    1.0000 </r>
       <r>   -7.0949    1.0000 </r>
       <r>   -4.5879    1.0000 </r>
       <r>   -4.0676    1.0000 </r>
       <r>   -3.1359    1.0000 </r>
       <r>   -2.2264    1.0000 </r>
       <r>   -0.4048    1.0000 </r>
       <r>    0.4648    1.0000 </r>
       <r>    0.7250    1.0000 </r>
       <r>    1.1835    1.0000 </r>
       <r>    1.5834    1.0000 </r>
       <r>    2.0838    1.0000 </r>
       <r>    2.2951    1.0000 </r>
       <r>    2.5908    1.0000 </r>
       <r>    2.8330    1.0000 </r>
       <r>    3.1599    1.0000 </r>
       <r>    3.4026    1.0000 </r>
       <r>    3.8763    1.0000 </r>
       <r>    4.1814    1.0000 </r>
       <r>    4.2324    1.0000 </r>
       <r>    4.5401    1.0000 </r>
       <r>    4.7665    1.0000 </r>
       <r>    5.1200    1.0000 </r>
       <r>    5.3302    1.0000 </r>
       <r>    5.6855    1.0000 </r>
       <r>    6.0480    1.0000 </r>
       <r>    6.1914    1.0000 </r>
       <r>    6.9981    1.0000 </r>
       <r>    7.1873    1.0000 </r>
       <r>    7.4405    1.0000 </r>
       <r>   11.3271    0.0000 </r>
       <r>   11.7949    0.0000 </r>
       <r>   11.9261    0.0000 </r>
       <r>   12.6178    0.0000 </r>
       <r>   12.8338    0.0000 </r>
       <r>   13.1544    0.0000 </r>
       <r>   13.5295    0.0000 </r>
       <r>   13.9840    0.0000 </r>
       <r>   14.0630    0.0000 </r>
       <r>   14.2998    0.0000 </r>
       <r>   14.7251    0.0000 </r>
       <r>   15.0741    0.0000 </r>
      </set>
     </set>
    </set>
   </array>
  </eigenvalues>
  <separator name="orbital magnetization" >
   <v name="MAGDIPOLOUT">      0.00000000      0.00000000      0.00000000</v>
  </separator>
  <dos>
   <i name="efermi">      8.21813385 </i>
   <total>
    <array>
     <dimension dim="1">gridpoints</dimension>
     <dimension dim="2">spin</dimension>
     <field>energy</field>
     <field>total</field>
     <field>integrated</field>
     <set>
      <set comment="spin 1">
       <r>   -10.6036     0.0000     0.0000 </r>
       <r>   -10.5122     0.0000     0.0000 </r>
       <r>   -10.4209     0.0000     0.0000 </r>
       <r>   -10.3295     0.0000     0.0000 </r>
       <r>   -10.2382     0.0000     0.0000 </r>
       <r>   -10.1468     0.0000     0.0000 </r>
       <r>   -10.0555     0.0000     0.0000 </r>
       <r>    -9.9641     0.0000     0.0000 </r>
       <r>    -9.8728     0.0000     0.0000 </r>
       <r>    -9.7814     0.0000     0.0000 </r>
       <r>    -9.6901     0.0000     0.0000 </r>
       <r>    -9.5987     0.0002     0.0000 </r>
       <r>    -9.5074     0.0079     0.0007 </r>
       <r>    -9.4160     0.1010     0.0100 </r>
       <r>    -9.3246     0.4606     0.0520 </r>
       <r>    -9.2333     1.2379     0.1651 </r>
       <r>    -9.1419     2.3058     0.3758 </r>
       <r>    -9.0506     3.3693     0.6836 </r>
       <r>    -8.9592     3.9281     1.0424 </r>
       <r>    -8.8679     3.1508     1.3303 </r>
       <r>    -8.7765     1.6589     1.4818 </r>
       <r>    -8.6852     1.1089     1.5831 </r>
       <r>    -8.5938     1.6894     1.7374 </r>
       <r>    -8.5025     1.9446     1.9151 </r>
       <r>    -8.4111     1.3311     2.0367 </r>
       <r>    -8.3198     1.4074     2.1653 </r>
       <r>    -8.2284     1.6990     2.3205 </r>
       <r>    -8.1370     1.7731     2.4825 </r>
       <r>    -8.0457     3.5533     2.8071 </r>
       <r>    -7.9543     5.4712     3.3069 </r>
       <r>    -7.8630     4.7600     3.7417 </r>
       <r>    -7.7716     3.2992     4.0431 </r>
       <r>    -7.6803     4.2518     4.4315 </r>
       <r>    -7.5889     6.2381     5.0014 </r>
       <r>    -7.4976     5.7963     5.5309 </r>
       <r>    -7.4062     3.8955     5.8868 </r>
       <r>    -7.3149     2.9811     6.1591 </r>
       <r>    -7.2235     3.9591     6.5208 </r>
       <r>    -7.1322     6.0410     7.0727 </r>
       <r>    -7.0408     6.0141     7.6221 </r>
       <r>    -6.9494     3.3430     7.9275 </r>
       <r>    -6.8581     0.7429     7.9953 </r>
       <r>    -6.7667     0.0500     7.9999 </r>
       <r>    -6.6754     0.0009     8.0000 </r>
       <r>    -6.5840     0.0000     8.0000 </r>
       <r>    -6.4927     0.0000     8.0000 </r>
       <r>    -6.4013     0.0000     8.0000 </r>
       <r>    -6.3100     0.0000     8.0000 </r>
       <r>    -6.2186     0.0000     8.0000 </r>
       <r>    -6.1273     0.0000     8.0000 </r>
       <r>    -6.0359     0.0000     8.0000 </r>
       <r>    -5.9446     0.0000     8.0000 </r>
       <r>    -5.8532     0.0000     8.0000 </r>
       <r>    -5.7618     0.0000     8.0000 </r>
       <r>    -5.6705     0.0000     8.0000 </r>
       <r>    -5.5791     0.0000     8.0000 </r>
       <r>    -5.4878     0.0000     8.0000 </r>
       <r>    -5.3964     0.0000     8.0000 </r>
       <r>    -5.3051     0.0002     8.0000 </r>
       <r>    -5.2137     0.0122     8.0011 </r>
       <r>    -5.1224     0.2071     8.0201 </r>
       <r>    -5.0310     0.8745     8.0999 </r>
       <r>    -4.9397     1.4330     8.2308 </r>
       <r>    -4.8483     2.1942     8.4313 </r>
       <r>    -4.7570     3.2306     8.7264 </r>
       <r>    -4.6656     3.1224     9.0117 </r>
       <r>    -4.5742     2.5517     9.2448 </r>
       <r>    -4.4829     2.2752     9.4526 </r>
       <r>    -4.3915     2.0793     9.6426 </r>
       <r>    -4.3002     2.1425     9.8383 </r>
       <r>    -4.2088     1.3807     9.9644 </r>
       <r>    -4.1175     0.8628    10.0433 </r>
       <r>    -4.0261     2.0383    10.2295 </r>
       <r>    -3.9348     3.9040    10.5861 </r>
       <r>    -3.8434     4.3812    10.9863 </r>
       <r>    -3.7521     3.6555    11.3203 </r>
       <r>    -3.6607     4.1610    11.7004 </r>
       <r>    -3.5694     3.5788    12.0273 </r>
       <r>    -3.4780     2.4512    12.2513 </r>
       <r>    -3.3866     2.4539    12.4755 </r>
       <r>    -3.2953     1.9781    12.6562 </r>
       <r>    -3.2039     1.9160    12.8312 </r>
       <r>    -3.1126     2.3085    13.0421 </r>
       <r>    -3.0212     1.9145    13.2170 </r>
       <r>    -2.9299     1.8633    13.3872 </r>
       <r>    -2.8385     2.5351    13.6188 </r>
       <r>    -2.7472     2.9075    13.8844 </r>
       <r>    -2.6558     2.4708    14.1101 </r>
       <r>    -2.5645     2.3864    14.3281 </r>
       <r>    -2.4731     2.3003    14.5383 </r>
       <r>    -2.3818     2.0734    14.7277 </r>
       <r>    -2.2904     2.5444    14.9601 </r>
       <r>    -2.1990     4.0534    15.3304 </r>
       <r>    -2.1077     3.0149    15.6058 </r>
       <r>    -2.0163     0.9139    15.6893 </r>
       <r>    -1.9250     0.6673    15.7503 </r>
       <r>    -1.8336     1.0024    15.8418 </r>
       <r>    -1.7423     1.0877    15.9412 </r>
       <r>    -1.6509     0.5401    15.9906 </r>
       <r>    -1.5596     0.0985    15.9995 </r>
       <r>    -1.4682     0.0049    16.0000 </r>
       <r>    -1.3769     0.0001    16.0000 </r>
       <r>    -1.2855     0.0000    16.0000 </r>
       <r>    -1.1942     0.0000    16.0000 </r>
       <r>    -1.1028     0.0001    16.0000 </r>
       <r>    -1.0115     0.0073    16.0007 </r>
       <r>    -0.9201     0.1377    16.0133 </r>
       <r>    -0.8287     0.6545    16.0730 </r>
       <r>    -0.7374     1.2922    16.1911 </r>
       <r>    -0.6460     2.6079    16.4293 </r>
       <r>    -0.5547     3.6193    16.7600 </r>
       <r>    -0.4633     2.5748    16.9952 </r>
       <r>    -0.3720     2.5094    17.2244 </r>
       <r>    -0.2806     3.9982    17.5897 </r>
       <r>    -0.1893     4.0036    17.9554 </r>
       <r>    -0.0979     2.4984    18.1837 </r>
       <r>    -0.0066     2.2160    18.3861 </r>
       <r>     0.0848     2.6969    18.6325 </r>
       <r>     0.1761     2.5379    18.8643 </r>
       <r>     0.2675     3.0549    19.1434 </r>
       <r>     0.3589     3.9531    19.5045 </r>
       <r>     0.4502     4.5028    19.9159 </r>
       <r>     0.5416     4.2019    20.2997 </r>
       <r>     0.6329     3.5750    20.6263 </r>
       <r>     0.7243     4.5011    21.0375 </r>
       <r>     0.8156     4.4707    21.4460 </r>
       <r>     0.9070     3.9386    21.8058 </r>
       <r>     0.9983     4.5396    22.2205 </r>
       <r>     1.0897     3.9522    22.5815 </r>
       <r>     1.1810     4.3517    22.9791 </r>
       <r>     1.2724     6.5876    23.5809 </r>
       <r>     1.3637     7.3617    24.2534 </r>
       <r>     1.4551     5.4672    24.7528 </r>
       <r>     1.5465     4.9509    25.2051 </r>
       <r>     1.6378     5.5045    25.7080 </r>
       <r>     1.7292     5.9095    26.2478 </r>
       <r>     1.8205     6.0485    26.8004 </r>
       <r>     1.9119     5.2356    27.2787 </r>
       <r>     2.0032     4.1215    27.6552 </r>
       <r>     2.0946     4.3737    28.0547 </r>
       <r>     2.1859     5.3042    28.5393 </r>
       <r>     2.2773     5.9582    29.0836 </r>
       <r>     2.3686     5.7146    29.6057 </r>
       <r>     2.4600     4.7830    30.0426 </r>
       <r>     2.5513     5.5772    30.5521 </r>
       <r>     2.6427     7.1020    31.2009 </r>
       <r>     2.7341     6.9204    31.8331 </r>
       <r>     2.8254     7.1900    32.4899 </r>
       <r>     2.9168     6.1827    33.0547 </r>
       <r>     3.0081     5.5252    33.5595 </r>
       <r>     3.0995     5.6488    34.0755 </r>
       <r>     3.1908     6.5195    34.6711 </r>
       <r>     3.2822     7.8211    35.3856 </r>
       <r>     3.3735     7.0183    36.0267 </r>
       <r>     3.4649     6.4132    36.6126 </r>
       <r>     3.5562     6.6001    37.2156 </r>
       <r>     3.6476     6.0670    37.7698 </r>
       <r>     3.7389     5.3409    38.2577 </r>
       <r>     3.8303     5.6619    38.7749 </r>
       <r>     3.9217     7.3893    39.4500 </r>
       <r>     4.0130     7.1759    40.1055 </r>
       <r>     4.1044     5.7463    40.6305 </r>
       <r>     4.1957     7.4938    41.3151 </r>
       <r>     4.2871     9.2311    42.1584 </r>
       <r>     4.3784     8.0522    42.8940 </r>
       <r>     4.4698     8.1730    43.6406 </r>
       <r>     4.5611     8.4157    44.4094 </r>
       <r>     4.6525     7.4461    45.0896 </r>
       <r>     4.7438     7.5871    45.7827 </r>
       <r>     4.8352     7.2740    46.4472 </r>
       <r>     4.9265     6.2065    47.0142 </r>
       <r>     5.0179     6.8739    47.6422 </r>
       <r>     5.1093     6.3792    48.2249 </r>
       <r>     5.2006     6.0645    48.7790 </r>
       <r>     5.2920     7.1805    49.4349 </r>
       <r>     5.3833     8.0051    50.1662 </r>
       <r>     5.4747     7.5309    50.8542 </r>
       <r>     5.5660     6.3562    51.4349 </r>
       <r>     5.6574     6.5606    52.0342 </r>
       <r>     5.7487     7.3875    52.7091 </r>
       <r>     5.8401     7.1899    53.3659 </r>
       <r>     5.9314     6.8820    53.9946 </r>
       <r>     6.0228     7.6809    54.6963 </r>
       <r>     6.1141     7.3019    55.3633 </r>
       <r>     6.2055     7.5048    56.0489 </r>
       <r>     6.2969     7.1924    56.7060 </r>
       <r>     6.3882     5.2470    57.1853 </r>
       <r>     6.4796     5.0832    57.6497 </r>
       <r>     6.5709     4.9493    58.1018 </r>
       <r>     6.6623     4.6879    58.5301 </r>
       <r>     6.7536     3.7555    58.8732 </r>
       <r>     6.8450     2.7249    59.1221 </r>
       <r>     6.9363     4.0081    59.4882 </r>
       <r>     7.0277     6.5233    60.0842 </r>
       <r>     7.1190     7.2701    60.7483 </r>
       <r>     7.2104     7.0190    61.3895 </r>
       <r>     7.3017     6.0333    61.9407 </r>
       <r>     7.3931     5.3493    62.4294 </r>
       <r>     7.4844     5.5298    62.9345 </r>
       <r>     7.5758     5.1057    63.4010 </r>
       <r>     7.6672     3.8038    63.7485 </r>
       <r>     7.7585     1.9732    63.9287 </r>
       <r>     7.8499     0.6504    63.9881 </r>
       <r>     7.9412     0.1217    63.9993 </r>
       <r>     8.0326     0.0080    64.0000 </r>
       <r>     8.1239     0.0001    64.0000 </r>
       <r>     8.2153     0.0000    64.0000 </r>
       <r>     8.3066     0.0000    64.0000 </r>
       <r>     8.3980     0.0000    64.0000 </r>
       <r>     8.4893     0.0000    64.0000 </r>
       <r>     8.5807     0.0000    64.0000 </r>
       <r>     8.6720     0.0000    64.0000 </r>
       <r>     8.7634     0.0000    64.0000 </r>
       <r>     8.8548     0.0000    64.0000 </r>
       <r>     8.9461     0.0000    64.0000 </r>
       <r>     9.0375     0.0000    64.0000 </r>
       <r>     9.1288     0.0000    64.0000 </r>
       <r>     9.2202     0.0000    64.0000 </r>
       <r>     9.3115     0.0000    64.0000 </r>
       <r>     9.4029     0.0000    64.0000 </r>
       <r>     9.4942     0.0000    64.0000 </r>
       <r>     9.5856     0.0000    64.0000 </r>
       <r>     9.6769     0.0000    64.0000 </r>
       <r>     9.7683     0.0000    64.0000 </r>
       <r>     9.8596     0.0000    64.0000 </r>
       <r>     9.9510     0.0007    64.0001 </r>
       <r>    10.0424     0.0279    64.0026 </r>
       <r>    10.1337     0.2700    64.0273 </r>
       <r>    10.2251     0.6346    64.0852 </r>
       <r>    10.3164     0.3949    64.1213 </r>
       <r>    10.4078     0.1866    64.1384 </r>
       <r>    10.4991     0.2223    64.1587 </r>
       <r>    10.5905     0.1803    64.1751 </r>
       <r>    10.6818     0.6094    64.2308 </r>
       <r>    10.7732     1.3265    64.3520 </r>
       <r>    10.8645     1.6381    64.5016 </r>
       <r>    10.9559     1.7263    64.6593 </r>
       <r>    11.0472     2.1640    64.8570 </r>
       <r>    11.1386     2.6680    65.1008 </r>
       <r>    11.2300     3.5632    65.4263 </r>
       <r>    11.3213     4.8412    65.8685 </r>
       <r>    11.4127     5.1656    66.3404 </r>
       <r>    11.5040     3.4334    66.6541 </r>
       <r>    11.5954     2.5086    66.8833 </r>
       <r>    11.6867     3.8528    67.2352 </r>
       <r>    11.7781     6.2721    67.8082 </r>
       <r>    11.8694     6.7594    68.4257 </r>
       <r>    11.9608     6.2414    68.9959 </r>
       <r>    12.0521     6.1604    69.5586 </r>
       <r>    12.1435     5.1781    70.0317 </r>
       <r>    12.2348     5.1573    70.5028 </r>
       <r>    12.3262     5.2512    70.9825 </r>
       <r>    12.4176     5.3905    71.4750 </r>
       <r>    12.5089     6.2533    72.0462 </r>
       <r>    12.6003     6.6674    72.6553 </r>
       <r>    12.6916     5.6713    73.1734 </r>
       <r>    12.7830     5.7190    73.6959 </r>
       <r>    12.8743     6.0856    74.2518 </r>
       <r>    12.9657     4.6217    74.6740 </r>
       <r>    13.0570     4.9457    75.1258 </r>
       <r>    13.1484     6.3848    75.7091 </r>
       <r>    13.2397     7.8444    76.4257 </r>
       <r>    13.3311     6.6896    77.0369 </r>
       <r>    13.4224     5.2400    77.5156 </r>
       <r>    13.5138     5.3891    78.0079 </r>
       <r>    13.6052     5.0687    78.4709 </r>
       <r>    13.6965     4.9296    78.9212 </r>
       <r>    13.7879     4.6177    79.3431 </r>
       <r>    13.8792     4.8997    79.7907 </r>
       <r>    13.9706     5.4246    80.2863 </r>
       <r>    14.0619     6.1296    80.8462 </r>
       <r>    14.1533     6.6300    81.4519 </r>
       <r>    14.2446     5.6404    81.9672 </r>
       <r>    14.3360     4.3740    82.3668 </r>
       <r>    14.4273     4.7093    82.7970 </r>
       <r>    14.5187     5.6966    83.3174 </r>
       <r>    14.6100     5.8818    83.8547 </r>
       <r>    14.7014     6.0783    84.4100 </r>
       <r>    14.7927     6.5303    85.0065 </r>
       <r>    14.8841     5.5904    85.5173 </r>
       <r>    14.9755     5.3835    86.0091 </r>
       <r>    15.0668     5.5350    86.5147 </r>
       <r>    15.1582     4.6386    86.9385 </r>
       <r>    15.2495     3.6417    87.2711 </r>
       <r>    15.3409     2.8985    87.5359 </r>
       <r>    15.4322     2.4753    87.7621 </r>
       <r>    15.5236     1.6470    87.9125 </r>
       <r>    15.6149     0.7486    87.9809 </r>
       <r>    15.7063     0.1929    87.9985 </r>
       <r>    15.7976     0.0158    88.0000 </r>
       <r>    15.8890     0.0003    88.0000 </r>
       <r>    15.9803     0.0000    88.0000 </r>
       <r>    16.0717     0.0000    88.0000 </r>
       <r>    16.1631     0.0000    88.0000 </r>
       <r>    16.2544     0.0000    88.0000 </r>
       <r>    16.3458     0.0000    88.0000 </r>
       <r>    16.4371     0.0000    88.0000 </r>
       <r>    16.5285     0.0000    88.0000 </r>
       <r>    16.6198     0.0000    88.0000 </r>
       <r>    16.7112     0.0000    88.0000 </r>
       <r>    16.8025     0.0000    88.0000 </r>
      </set>
     </set>
    </array>
   </total>
  </dos>
 </calculation>
 <structure name="finalpos" >
  <crystal>
   <varray name="basis" >
    <v>       5.06370261      -0.00153888       0.00574177 </v>
    <v>      -0.00156562       5.37928403       0.01661898 </v>
    <v>       0.00703250       0.01915266       6.25278701 </v>
   </varray>
   <i name="volume">    170.31841240 </i>
   <varray name="rec_basis" >
    <v>       0.19748422       0.00005816      -0.00022229 </v>
    <v>       0.00005714       0.18590012      -0.00056949 </v>
    <v>      -0.00018150      -0.00049415       0.15993040 </v>
   </varray>
  </crystal>
  <varray name="positions" >
   <v>       0.99051344       0.83521367       0.74776434 </v>
   <v>       0.50082795       0.17013779       0.74838647 </v>
   <v>       0.50905106       0.16843365       0.25037065 </v>
   <v>       0.50277206       0.66581362       0.50059799 </v>
   <v>       0.99403492       0.33142191       0.99758193 </v>
   <v>       0.99865247       0.83883126       0.25260752 </v>
   <v>       0.98904350       0.32915537       0.49947341 </v>
   <v>       0.50647319       0.66459351       0.00105228 </v>
   <v>       0.38661957       0.31527143       0.99539804 </v>
   <v>       0.38672670       0.33407021       0.50254728 </v>
   <v>       0.86443232       0.16900670       0.24719792 </v>
   <v>       0.86504335       0.67559795       0.51743371 </v>
   <v>       0.38875977       0.83381593       0.26196945 </v>
   <v>       0.36396134       0.84344443       0.73922944 </v>
   <v>       0.86214116       0.14423318       0.75282873 </v>
   <v>       0.89094720       0.68095939       0.98556083 </v>
  </varray>
 </structure>
</modeling>
