<?xml version="1.0" encoding="ISO-8859-1"?>
<modeling>
 <generator>
  <i name="program" type="string">vasp </i>
  <i name="version" type="string">5.3.5  </i>
  <i name="subversion" type="string">31Mar14 (build Jun 20 2014 13:15:13) complex                          parallel </i>
  <i name="platform" type="string">LinuxIFC </i>
  <i name="date" type="string">2025 11 28 </i>
  <i name="time" type="string">22:56:44 </i>
 </generator>
 <incar>
  <i type="string" name="PREC">accurate</i>
  <i type="int" name="IALGO">    68</i>
  <i type="logical" name="ADDGRID"> T  </i>
  <i type="int" name="NELM">   200</i>
  <i type="int" name="NELMIN">     4</i>
  <i type="int" name="IBRION">     2</i>
  <i name="EDIFF">      0.00000100</i>
  <i name="EDIFFG">     -0.02000000</i>
  <i type="int" name="NSW">    30</i>
  <i type="int" name="ISIF">     3</i>
  <i name="ENCUT">    500.00000000</i>
  <i type="logical" name="LREAL"> F  </i>
  <i type="int" name="ISMEAR">     1</i>
  <i name="SIGMA">      0.30000000</i>
  <i type="logical" name="LWAVE"> F  </i>
  <i type="logical" name="LCHARG"> F  </i>
  <i type="int" name="NELM">   200</i>
 </incar>
 <kpoints>
  <generation param="Auto">
   <i name="subdivisionlength">     70.00000000 </i>
   <v type="int" name="divisions">      16       18       18 </v>
   <v name="usershift">      0.00000000       0.00000000       0.00000000 </v>
   <v name="genvec1">      0.06250000       0.00000000       0.00000000 </v>
   <v name="genvec2">      0.00000000       0.05555556       0.00000000 </v>
   <v name="genvec3">      0.00000000       0.00000000       0.05555556 </v>
   <v name="shift">      0.00000000       0.00000000       0.00000000 </v>
  </generation>
  <varray name="kpointlist" >
   <v>       0.00000000       0.00000000       0.00000000 </v>
   <v>       0.06250000       0.00000000       0.00000000 </v>
   <v>       0.12500000       0.00000000       0.00000000 </v>
   <v>       0.18750000       0.00000000       0.00000000 </v>
   <v>       0.25000000       0.00000000       0.00000000 </v>
   <v>       0.31250000       0.00000000       0.00000000 </v>
   <v>       0.37500000       0.00000000       0.00000000 </v>
   <v>       0.43750000       0.00000000       0.00000000 </v>
   <v>       0.50000000       0.00000000       0.00000000 </v>
   <v>       0.00000000       0.05555556       0.00000000 </v>
   <v>       0.06250000       0.05555556       0.00000000 </v>
   <v>       0.12500000       0.05555556       0.00000000 </v>
   <v>       0.18750000       0.05555556       0.00000000 </v>
   <v>       0.25000000       0.05555556       0.00000000 </v>
   <v>       0.31250000       0.05555556       0.00000000 </v>
   <v>       0.37500000       0.05555556       0.00000000 </v>
   <v>       0.43750000       0.05555556       0.00000000 </v>
   <v>       0.50000000       0.05555556       0.00000000 </v>
   <v>      -0.43750000       0.05555556       0.00000000 </v>
   <v>      -0.37500000       0.05555556       0.00000000 </v>
   <v>      -0.31250000       0.05555556       0.00000000 </v>
   <v>      -0.25000000       0.05555556       0.00000000 </v>
   <v>      -0.18750000       0.05555556       0.00000000 </v>
   <v>      -0.12500000       0.05555556       0.00000000 </v>
   <v>      -0.06250000       0.05555556       0.00000000 </v>
   <v>       0.00000000       0.11111111       0.00000000 </v>
   <v>       0.06250000       0.11111111       0.00000000 </v>
   <v>       0.12500000       0.11111111       0.00000000 </v>
   <v>       0.18750000       0.11111111       0.00000000 </v>
   <v>       0.25000000       0.11111111       0.00000000 </v>
   <v>       0.31250000       0.11111111       0.00000000 </v>
   <v>       0.37500000       0.11111111       0.00000000 </v>
   <v>       0.43750000       0.11111111       0.00000000 </v>
   <v>       0.50000000       0.11111111       0.00000000 </v>
   <v>      -0.43750000       0.11111111       0.00000000 </v>
   <v>      -0.37500000       0.11111111       0.00000000 </v>
   <v>      -0.31250000       0.11111111       0.00000000 </v>
   <v>      -0.25000000       0.11111111       0.00000000 </v>
   <v>      -0.18750000       0.11111111       0.00000000 </v>
   <v>      -0.12500000       0.11111111       0.00000000 </v>
   <v>      -0.06250000       0.11111111       0.00000000 </v>
   <v>       0.00000000       0.16666667       0.00000000 </v>
   <v>       0.06250000       0.16666667       0.00000000 </v>
   <v>       0.12500000       0.16666667       0.00000000 </v>
   <v>       0.18750000       0.16666667       0.00000000 </v>
   <v>       0.25000000       0.16666667       0.00000000 </v>
   <v>       0.31250000       0.16666667       0.00000000 </v>
   <v>       0.37500000       0.16666667       0.00000000 </v>
   <v>       0.43750000       0.16666667       0.00000000 </v>
   <v>       0.50000000       0.16666667       0.00000000 </v>
   <v>      -0.43750000       0.16666667       0.00000000 </v>
   <v>      -0.37500000       0.16666667       0.00000000 </v>
   <v>      -0.31250000       0.16666667       0.00000000 </v>
   <v>      -0.25000000       0.16666667       0.00000000 </v>
   <v>      -0.18750000       0.16666667       0.00000000 </v>
   <v>      -0.12500000       0.16666667       0.00000000 </v>
   <v>      -0.06250000       0.16666667       0.00000000 </v>
   <v>       0.00000000       0.22222222       0.00000000 </v>
   <v>       0.06250000       0.22222222       0.00000000 </v>
   <v>       0.12500000       0.22222222       0.00000000 </v>
   <v>       0.18750000       0.22222222       0.00000000 </v>
   <v>       0.25000000       0.22222222       0.00000000 </v>
   <v>       0.31250000       0.22222222       0.00000000 </v>
   <v>       0.37500000       0.22222222       0.00000000 </v>
   <v>       0.43750000       0.22222222       0.00000000 </v>
   <v>       0.50000000       0.22222222       0.00000000 </v>
   <v>      -0.43750000       0.22222222       0.00000000 </v>
   <v>      -0.37500000       0.22222222       0.00000000 </v>
   <v>      -0.31250000       0.22222222       0.00000000 </v>
   <v>      -0.25000000       0.22222222       0.00000000 </v>
   <v>      -0.18750000       0.22222222       0.00000000 </v>
   <v>      -0.12500000       0.22222222       0.00000000 </v>
   <v>      -0.06250000       0.22222222       0.00000000 </v>
   <v>       0.00000000       0.27777778       0.00000000 </v>
   <v>       0.06250000       0.27777778       0.00000000 </v>
   <v>       0.12500000       0.27777778       0.00000000 </v>
   <v>       0.18750000       0.27777778       0.00000000 </v>
   <v>       0.25000000       0.27777778       0.00000000 </v>
   <v>       0.31250000       0.27777778       0.00000000 </v>
   <v>       0.37500000       0.27777778       0.00000000 </v>
   <v>       0.43750000       0.27777778       0.00000000 </v>
   <v>       0.50000000       0.27777778       0.00000000 </v>
   <v>      -0.43750000       0.27777778       0.00000000 </v>
   <v>      -0.37500000       0.27777778       0.00000000 </v>
   <v>      -0.31250000       0.27777778       0.00000000 </v>
   <v>      -0.25000000       0.27777778       0.00000000 </v>
   <v>      -0.18750000       0.27777778       0.00000000 </v>
   <v>      -0.12500000       0.27777778       0.00000000 </v>
   <v>      -0.06250000       0.27777778       0.00000000 </v>
   <v>       0.00000000       0.33333333       0.00000000 </v>
   <v>       0.06250000       0.33333333       0.00000000 </v>
   <v>       0.12500000       0.33333333       0.00000000 </v>
   <v>       0.18750000       0.33333333       0.00000000 </v>
   <v>       0.25000000       0.33333333       0.00000000 </v>
   <v>       0.31250000       0.33333333       0.00000000 </v>
   <v>       0.37500000       0.33333333       0.00000000 </v>
   <v>       0.43750000       0.33333333       0.00000000 </v>
   <v>       0.50000000       0.33333333       0.00000000 </v>
   <v>      -0.43750000       0.33333333       0.00000000 </v>
   <v>      -0.37500000       0.33333333       0.00000000 </v>
   <v>      -0.31250000       0.33333333       0.00000000 </v>
   <v>      -0.25000000       0.33333333       0.00000000 </v>
   <v>      -0.18750000       0.33333333       0.00000000 </v>
   <v>      -0.12500000       0.33333333       0.00000000 </v>
   <v>      -0.06250000       0.33333333       0.00000000 </v>
   <v>       0.00000000       0.38888889       0.00000000 </v>
   <v>       0.06250000       0.38888889       0.00000000 </v>
   <v>       0.12500000       0.38888889       0.00000000 </v>
   <v>       0.18750000       0.38888889       0.00000000 </v>
   <v>       0.25000000       0.38888889       0.00000000 </v>
   <v>       0.31250000       0.38888889       0.00000000 </v>
   <v>       0.37500000       0.38888889       0.00000000 </v>
   <v>       0.43750000       0.38888889       0.00000000 </v>
   <v>       0.50000000       0.38888889       0.00000000 </v>
   <v>      -0.43750000       0.38888889       0.00000000 </v>
   <v>      -0.37500000       0.38888889       0.00000000 </v>
   <v>      -0.31250000       0.38888889       0.00000000 </v>
   <v>      -0.25000000       0.38888889       0.00000000 </v>
   <v>      -0.18750000       0.38888889       0.00000000 </v>
   <v>      -0.12500000       0.38888889       0.00000000 </v>
   <v>      -0.06250000       0.38888889       0.00000000 </v>
   <v>       0.00000000       0.44444444       0.00000000 </v>
   <v>       0.06250000       0.44444444       0.00000000 </v>
   <v>       0.12500000       0.44444444       0.00000000 </v>
   <v>       0.18750000       0.44444444       0.00000000 </v>
   <v>       0.25000000       0.44444444       0.00000000 </v>
   <v>       0.31250000       0.44444444       0.00000000 </v>
   <v>       0.37500000       0.44444444       0.00000000 </v>
   <v>       0.43750000       0.44444444       0.00000000 </v>
   <v>       0.50000000       0.44444444       0.00000000 </v>
   <v>      -0.43750000       0.44444444       0.00000000 </v>
   <v>      -0.37500000       0.44444444       0.00000000 </v>
   <v>      -0.31250000       0.44444444       0.00000000 </v>
   <v>      -0.25000000       0.44444444       0.00000000 </v>
   <v>      -0.18750000       0.44444444       0.00000000 </v>
   <v>      -0.12500000       0.44444444       0.00000000 </v>
   <v>      -0.06250000       0.44444444       0.00000000 </v>
   <v>       0.00000000       0.50000000       0.00000000 </v>
   <v>       0.06250000       0.50000000       0.00000000 </v>
   <v>       0.12500000       0.50000000       0.00000000 </v>
   <v>       0.18750000       0.50000000       0.00000000 </v>
   <v>       0.25000000       0.50000000       0.00000000 </v>
   <v>       0.31250000       0.50000000       0.00000000 </v>
   <v>       0.37500000       0.50000000       0.00000000 </v>
   <v>       0.43750000       0.50000000       0.00000000 </v>
   <v>       0.50000000       0.50000000       0.00000000 </v>
   <v>       0.00000000       0.05555556       0.05555556 </v>
   <v>       0.06250000       0.05555556       0.05555556 </v>
   <v>       0.12500000       0.05555556       0.05555556 </v>
   <v>       0.18750000       0.05555556       0.05555556 </v>
   <v>       0.25000000       0.05555556       0.05555556 </v>
   <v>       0.31250000       0.05555556       0.05555556 </v>
   <v>       0.37500000       0.05555556       0.05555556 </v>
   <v>       0.43750000       0.05555556       0.05555556 </v>
   <v>       0.50000000       0.05555556       0.05555556 </v>
   <v>      -0.43750000       0.05555556       0.05555556 </v>
   <v>      -0.37500000       0.05555556       0.05555556 </v>
   <v>      -0.31250000       0.05555556       0.05555556 </v>
   <v>      -0.25000000       0.05555556       0.05555556 </v>
   <v>      -0.18750000       0.05555556       0.05555556 </v>
   <v>      -0.12500000       0.05555556       0.05555556 </v>
   <v>      -0.06250000       0.05555556       0.05555556 </v>
   <v>       0.00000000       0.11111111       0.05555556 </v>
   <v>       0.06250000       0.11111111       0.05555556 </v>
   <v>       0.12500000       0.11111111       0.05555556 </v>
   <v>       0.18750000       0.11111111       0.05555556 </v>
   <v>       0.25000000       0.11111111       0.05555556 </v>
   <v>       0.31250000       0.11111111       0.05555556 </v>
   <v>       0.37500000       0.11111111       0.05555556 </v>
   <v>       0.43750000       0.11111111       0.05555556 </v>
   <v>       0.50000000       0.11111111       0.05555556 </v>
   <v>      -0.43750000       0.11111111       0.05555556 </v>
   <v>      -0.37500000       0.11111111       0.05555556 </v>
   <v>      -0.31250000       0.11111111       0.05555556 </v>
   <v>      -0.25000000       0.11111111       0.05555556 </v>
   <v>      -0.18750000       0.11111111       0.05555556 </v>
   <v>      -0.12500000       0.11111111       0.05555556 </v>
   <v>      -0.06250000       0.11111111       0.05555556 </v>
   <v>       0.00000000       0.16666667       0.05555556 </v>
   <v>       0.06250000       0.16666667       0.05555556 </v>
   <v>       0.12500000       0.16666667       0.05555556 </v>
   <v>       0.18750000       0.16666667       0.05555556 </v>
   <v>       0.25000000       0.16666667       0.05555556 </v>
   <v>       0.31250000       0.16666667       0.05555556 </v>
   <v>       0.37500000       0.16666667       0.05555556 </v>
   <v>       0.43750000       0.16666667       0.05555556 </v>
   <v>       0.50000000       0.16666667       0.05555556 </v>
   <v>      -0.43750000       0.16666667       0.05555556 </v>
   <v>      -0.37500000       0.16666667       0.05555556 </v>
   <v>      -0.31250000       0.16666667       0.05555556 </v>
   <v>      -0.25000000       0.16666667       0.05555556 </v>
   <v>      -0.18750000       0.16666667       0.05555556 </v>
   <v>      -0.12500000       0.16666667       0.05555556 </v>
   <v>      -0.06250000       0.16666667       0.05555556 </v>
   <v>       0.00000000       0.22222222       0.05555556 </v>
   <v>       0.06250000       0.22222222       0.05555556 </v>
   <v>       0.12500000       0.22222222       0.05555556 </v>
   <v>       0.18750000       0.22222222       0.05555556 </v>
   <v>       0.25000000       0.22222222       0.05555556 </v>
   <v>       0.31250000       0.22222222       0.05555556 </v>
   <v>       0.37500000       0.22222222       0.05555556 </v>
   <v>       0.43750000       0.22222222       0.05555556 </v>
   <v>       0.50000000       0.22222222       0.05555556 </v>
   <v>      -0.43750000       0.22222222       0.05555556 </v>
   <v>      -0.37500000       0.22222222       0.05555556 </v>
   <v>      -0.31250000       0.22222222       0.05555556 </v>
   <v>      -0.25000000       0.22222222       0.05555556 </v>
   <v>      -0.18750000       0.22222222       0.05555556 </v>
   <v>      -0.12500000       0.22222222       0.05555556 </v>
   <v>      -0.06250000       0.22222222       0.05555556 </v>
   <v>       0.00000000       0.27777778       0.05555556 </v>
   <v>       0.06250000       0.27777778       0.05555556 </v>
   <v>       0.12500000       0.27777778       0.05555556 </v>
   <v>       0.18750000       0.27777778       0.05555556 </v>
   <v>       0.25000000       0.27777778       0.05555556 </v>
   <v>       0.31250000       0.27777778       0.05555556 </v>
   <v>       0.37500000       0.27777778       0.05555556 </v>
   <v>       0.43750000       0.27777778       0.05555556 </v>
   <v>       0.50000000       0.27777778       0.05555556 </v>
   <v>      -0.43750000       0.27777778       0.05555556 </v>
   <v>      -0.37500000       0.27777778       0.05555556 </v>
   <v>      -0.31250000       0.27777778       0.05555556 </v>
   <v>      -0.25000000       0.27777778       0.05555556 </v>
   <v>      -0.18750000       0.27777778       0.05555556 </v>
   <v>      -0.12500000       0.27777778       0.05555556 </v>
   <v>      -0.06250000       0.27777778       0.05555556 </v>
   <v>       0.00000000       0.33333333       0.05555556 </v>
   <v>       0.06250000       0.33333333       0.05555556 </v>
   <v>       0.12500000       0.33333333       0.05555556 </v>
   <v>       0.18750000       0.33333333       0.05555556 </v>
   <v>       0.25000000       0.33333333       0.05555556 </v>
   <v>       0.31250000       0.33333333       0.05555556 </v>
   <v>       0.37500000       0.33333333       0.05555556 </v>
   <v>       0.43750000       0.33333333       0.05555556 </v>
   <v>       0.50000000       0.33333333       0.05555556 </v>
   <v>      -0.43750000       0.33333333       0.05555556 </v>
   <v>      -0.37500000       0.33333333       0.05555556 </v>
   <v>      -0.31250000       0.33333333       0.05555556 </v>
   <v>      -0.25000000       0.33333333       0.05555556 </v>
   <v>      -0.18750000       0.33333333       0.05555556 </v>
   <v>      -0.12500000       0.33333333       0.05555556 </v>
   <v>      -0.06250000       0.33333333       0.05555556 </v>
   <v>       0.00000000       0.38888889       0.05555556 </v>
   <v>       0.06250000       0.38888889       0.05555556 </v>
   <v>       0.12500000       0.38888889       0.05555556 </v>
   <v>       0.18750000       0.38888889       0.05555556 </v>
   <v>       0.25000000       0.38888889       0.05555556 </v>
   <v>       0.31250000       0.38888889       0.05555556 </v>
   <v>       0.37500000       0.38888889       0.05555556 </v>
   <v>       0.43750000       0.38888889       0.05555556 </v>
   <v>       0.50000000       0.38888889       0.05555556 </v>
   <v>      -0.43750000       0.38888889       0.05555556 </v>
   <v>      -0.37500000       0.38888889       0.05555556 </v>
   <v>      -0.31250000       0.38888889       0.05555556 </v>
   <v>      -0.25000000       0.38888889       0.05555556 </v>
   <v>      -0.18750000       0.38888889       0.05555556 </v>
   <v>      -0.12500000       0.38888889       0.05555556 </v>
   <v>      -0.06250000       0.38888889       0.05555556 </v>
   <v>       0.00000000       0.44444444       0.05555556 </v>
   <v>       0.06250000       0.44444444       0.05555556 </v>
   <v>       0.12500000       0.44444444       0.05555556 </v>
   <v>       0.18750000       0.44444444       0.05555556 </v>
   <v>       0.25000000       0.44444444       0.05555556 </v>
   <v>       0.31250000       0.44444444       0.05555556 </v>
   <v>       0.37500000       0.44444444       0.05555556 </v>
   <v>       0.43750000       0.44444444       0.05555556 </v>
   <v>       0.50000000       0.44444444       0.05555556 </v>
   <v>      -0.43750000       0.44444444       0.05555556 </v>
   <v>      -0.37500000       0.44444444       0.05555556 </v>
   <v>      -0.31250000       0.44444444       0.05555556 </v>
   <v>      -0.25000000       0.44444444       0.05555556 </v>
   <v>      -0.18750000       0.44444444       0.05555556 </v>
   <v>      -0.12500000       0.44444444       0.05555556 </v>
   <v>      -0.06250000       0.44444444       0.05555556 </v>
   <v>       0.00000000       0.50000000       0.05555556 </v>
   <v>       0.06250000       0.50000000       0.05555556 </v>
   <v>       0.12500000       0.50000000       0.05555556 </v>
   <v>       0.18750000       0.50000000       0.05555556 </v>
   <v>       0.25000000       0.50000000       0.05555556 </v>
   <v>       0.31250000       0.50000000       0.05555556 </v>
   <v>       0.37500000       0.50000000       0.05555556 </v>
   <v>       0.43750000       0.50000000       0.05555556 </v>
   <v>       0.50000000       0.50000000       0.05555556 </v>
   <v>      -0.43750000       0.50000000       0.05555556 </v>
   <v>      -0.37500000       0.50000000       0.05555556 </v>
   <v>      -0.31250000       0.50000000       0.05555556 </v>
   <v>      -0.25000000       0.50000000       0.05555556 </v>
   <v>      -0.18750000       0.50000000       0.05555556 </v>
   <v>      -0.12500000       0.50000000       0.05555556 </v>
   <v>      -0.06250000       0.50000000       0.05555556 </v>
   <v>       0.00000000      -0.44444444       0.05555556 </v>
   <v>       0.06250000      -0.44444444       0.05555556 </v>
   <v>       0.12500000      -0.44444444       0.05555556 </v>
   <v>       0.18750000      -0.44444444       0.05555556 </v>
   <v>       0.25000000      -0.44444444       0.05555556 </v>
   <v>       0.31250000      -0.44444444       0.05555556 </v>
   <v>       0.37500000      -0.44444444       0.05555556 </v>
   <v>       0.43750000      -0.44444444       0.05555556 </v>
   <v>       0.50000000      -0.44444444       0.05555556 </v>
   <v>      -0.43750000      -0.44444444       0.05555556 </v>
   <v>      -0.37500000      -0.44444444       0.05555556 </v>
   <v>      -0.31250000      -0.44444444       0.05555556 </v>
   <v>      -0.25000000      -0.44444444       0.05555556 </v>
   <v>      -0.18750000      -0.44444444       0.05555556 </v>
   <v>      -0.12500000      -0.44444444       0.05555556 </v>
   <v>      -0.06250000      -0.44444444       0.05555556 </v>
   <v>       0.00000000      -0.38888889       0.05555556 </v>
   <v>       0.06250000      -0.38888889       0.05555556 </v>
   <v>       0.12500000      -0.38888889       0.05555556 </v>
   <v>       0.18750000      -0.38888889       0.05555556 </v>
   <v>       0.25000000      -0.38888889       0.05555556 </v>
   <v>       0.31250000      -0.38888889       0.05555556 </v>
   <v>       0.37500000      -0.38888889       0.05555556 </v>
   <v>       0.43750000      -0.38888889       0.05555556 </v>
   <v>       0.50000000      -0.38888889       0.05555556 </v>
   <v>      -0.43750000      -0.38888889       0.05555556 </v>
   <v>      -0.37500000      -0.38888889       0.05555556 </v>
   <v>      -0.31250000      -0.38888889       0.05555556 </v>
   <v>      -0.25000000      -0.38888889       0.05555556 </v>
   <v>      -0.18750000      -0.38888889       0.05555556 </v>
   <v>      -0.12500000      -0.38888889       0.05555556 </v>
   <v>      -0.06250000      -0.38888889       0.05555556 </v>
   <v>       0.00000000      -0.33333333       0.05555556 </v>
   <v>       0.06250000      -0.33333333       0.05555556 </v>
   <v>       0.12500000      -0.33333333       0.05555556 </v>
   <v>       0.18750000      -0.33333333       0.05555556 </v>
   <v>       0.25000000      -0.33333333       0.05555556 </v>
   <v>       0.31250000      -0.33333333       0.05555556 </v>
   <v>       0.37500000      -0.33333333       0.05555556 </v>
   <v>       0.43750000      -0.33333333       0.05555556 </v>
   <v>       0.50000000      -0.33333333       0.05555556 </v>
   <v>      -0.43750000      -0.33333333       0.05555556 </v>
   <v>      -0.37500000      -0.33333333       0.05555556 </v>
   <v>      -0.31250000      -0.33333333       0.05555556 </v>
   <v>      -0.25000000      -0.33333333       0.05555556 </v>
   <v>      -0.18750000      -0.33333333       0.05555556 </v>
   <v>      -0.12500000      -0.33333333       0.05555556 </v>
   <v>      -0.06250000      -0.33333333       0.05555556 </v>
   <v>       0.00000000      -0.27777778       0.05555556 </v>
   <v>       0.06250000      -0.27777778       0.05555556 </v>
   <v>       0.12500000      -0.27777778       0.05555556 </v>
   <v>       0.18750000      -0.27777778       0.05555556 </v>
   <v>       0.25000000      -0.27777778       0.05555556 </v>
   <v>       0.31250000      -0.27777778       0.05555556 </v>
   <v>       0.37500000      -0.27777778       0.05555556 </v>
   <v>       0.43750000      -0.27777778       0.05555556 </v>
   <v>       0.50000000      -0.27777778       0.05555556 </v>
   <v>      -0.43750000      -0.27777778       0.05555556 </v>
   <v>      -0.37500000      -0.27777778       0.05555556 </v>
   <v>      -0.31250000      -0.27777778       0.05555556 </v>
   <v>      -0.25000000      -0.27777778       0.05555556 </v>
   <v>      -0.18750000      -0.27777778       0.05555556 </v>
   <v>      -0.12500000      -0.27777778       0.05555556 </v>
   <v>      -0.06250000      -0.27777778       0.05555556 </v>
   <v>       0.00000000      -0.22222222       0.05555556 </v>
   <v>       0.06250000      -0.22222222       0.05555556 </v>
   <v>       0.12500000      -0.22222222       0.05555556 </v>
   <v>       0.18750000      -0.22222222       0.05555556 </v>
   <v>       0.25000000      -0.22222222       0.05555556 </v>
   <v>       0.31250000      -0.22222222       0.05555556 </v>
   <v>       0.37500000      -0.22222222       0.05555556 </v>
   <v>       0.43750000      -0.22222222       0.05555556 </v>
   <v>       0.50000000      -0.22222222       0.05555556 </v>
   <v>      -0.43750000      -0.22222222       0.05555556 </v>
   <v>      -0.37500000      -0.22222222       0.05555556 </v>
   <v>      -0.31250000      -0.22222222       0.05555556 </v>
   <v>      -0.25000000      -0.22222222       0.05555556 </v>
   <v>      -0.18750000      -0.22222222       0.05555556 </v>
   <v>      -0.12500000      -0.22222222       0.05555556 </v>
   <v>      -0.06250000      -0.22222222       0.05555556 </v>
   <v>       0.00000000      -0.16666667       0.05555556 </v>
   <v>       0.06250000      -0.16666667       0.05555556 </v>
   <v>       0.12500000      -0.16666667       0.05555556 </v>
   <v>       0.18750000      -0.16666667       0.05555556 </v>
   <v>       0.25000000      -0.16666667       0.05555556 </v>
   <v>       0.31250000      -0.16666667       0.05555556 </v>
   <v>       0.37500000      -0.16666667       0.05555556 </v>
   <v>       0.43750000      -0.16666667       0.05555556 </v>
   <v>       0.50000000      -0.16666667       0.05555556 </v>
   <v>      -0.43750000      -0.16666667       0.05555556 </v>
   <v>      -0.37500000      -0.16666667       0.05555556 </v>
   <v>      -0.31250000      -0.16666667       0.05555556 </v>
   <v>      -0.25000000      -0.16666667       0.05555556 </v>
   <v>      -0.18750000      -0.16666667       0.05555556 </v>
   <v>      -0.12500000      -0.16666667       0.05555556 </v>
   <v>      -0.06250000      -0.16666667       0.05555556 </v>
   <v>       0.00000000      -0.11111111       0.05555556 </v>
   <v>       0.06250000      -0.11111111       0.05555556 </v>
   <v>       0.12500000      -0.11111111       0.05555556 </v>
   <v>       0.18750000      -0.11111111       0.05555556 </v>
   <v>       0.25000000      -0.11111111       0.05555556 </v>
   <v>       0.31250000      -0.11111111       0.05555556 </v>
   <v>       0.37500000      -0.11111111       0.05555556 </v>
   <v>       0.43750000      -0.11111111       0.05555556 </v>
   <v>       0.50000000      -0.11111111       0.05555556 </v>
   <v>      -0.43750000      -0.11111111       0.05555556 </v>
   <v>      -0.37500000      -0.11111111       0.05555556 </v>
   <v>      -0.31250000      -0.11111111       0.05555556 </v>
   <v>      -0.25000000      -0.11111111       0.05555556 </v>
   <v>      -0.18750000      -0.11111111       0.05555556 </v>
   <v>      -0.12500000      -0.11111111       0.05555556 </v>
   <v>      -0.06250000      -0.11111111       0.05555556 </v>
   <v>       0.00000000      -0.05555556       0.05555556 </v>
   <v>       0.06250000      -0.05555556       0.05555556 </v>
   <v>       0.12500000      -0.05555556       0.05555556 </v>
   <v>       0.18750000      -0.05555556       0.05555556 </v>
   <v>       0.25000000      -0.05555556       0.05555556 </v>
   <v>       0.31250000      -0.05555556       0.05555556 </v>
   <v>       0.37500000      -0.05555556       0.05555556 </v>
   <v>       0.43750000      -0.05555556       0.05555556 </v>
   <v>       0.50000000      -0.05555556       0.05555556 </v>
   <v>       0.00000000       0.11111111       0.11111111 </v>
   <v>       0.06250000       0.11111111       0.11111111 </v>
   <v>       0.12500000       0.11111111       0.11111111 </v>
   <v>       0.18750000       0.11111111       0.11111111 </v>
   <v>       0.25000000       0.11111111       0.11111111 </v>
   <v>       0.31250000       0.11111111       0.11111111 </v>
   <v>       0.37500000       0.11111111       0.11111111 </v>
   <v>       0.43750000       0.11111111       0.11111111 </v>
   <v>       0.50000000       0.11111111       0.11111111 </v>
   <v>      -0.43750000       0.11111111       0.11111111 </v>
   <v>      -0.37500000       0.11111111       0.11111111 </v>
   <v>      -0.31250000       0.11111111       0.11111111 </v>
   <v>      -0.25000000       0.11111111       0.11111111 </v>
   <v>      -0.18750000       0.11111111       0.11111111 </v>
   <v>      -0.12500000       0.11111111       0.11111111 </v>
   <v>      -0.06250000       0.11111111       0.11111111 </v>
   <v>       0.00000000       0.16666667       0.11111111 </v>
   <v>       0.06250000       0.16666667       0.11111111 </v>
   <v>       0.12500000       0.16666667       0.11111111 </v>
   <v>       0.18750000       0.16666667       0.11111111 </v>
   <v>       0.25000000       0.16666667       0.11111111 </v>
   <v>       0.31250000       0.16666667       0.11111111 </v>
   <v>       0.37500000       0.16666667       0.11111111 </v>
   <v>       0.43750000       0.16666667       0.11111111 </v>
   <v>       0.50000000       0.16666667       0.11111111 </v>
   <v>      -0.43750000       0.16666667       0.11111111 </v>
   <v>      -0.37500000       0.16666667       0.11111111 </v>
   <v>      -0.31250000       0.16666667       0.11111111 </v>
   <v>      -0.25000000       0.16666667       0.11111111 </v>
   <v>      -0.18750000       0.16666667       0.11111111 </v>
   <v>      -0.12500000       0.16666667       0.11111111 </v>
   <v>      -0.06250000       0.16666667       0.11111111 </v>
   <v>       0.00000000       0.22222222       0.11111111 </v>
   <v>       0.06250000       0.22222222       0.11111111 </v>
   <v>       0.12500000       0.22222222       0.11111111 </v>
   <v>       0.18750000       0.22222222       0.11111111 </v>
   <v>       0.25000000       0.22222222       0.11111111 </v>
   <v>       0.31250000       0.22222222       0.11111111 </v>
   <v>       0.37500000       0.22222222       0.11111111 </v>
   <v>       0.43750000       0.22222222       0.11111111 </v>
   <v>       0.50000000       0.22222222       0.11111111 </v>
   <v>      -0.43750000       0.22222222       0.11111111 </v>
   <v>      -0.37500000       0.22222222       0.11111111 </v>
   <v>      -0.31250000       0.22222222       0.11111111 </v>
   <v>      -0.25000000       0.22222222       0.11111111 </v>
   <v>      -0.18750000       0.22222222       0.11111111 </v>
   <v>      -0.12500000       0.22222222       0.11111111 </v>
   <v>      -0.06250000       0.22222222       0.11111111 </v>
   <v>       0.00000000       0.27777778       0.11111111 </v>
   <v>       0.06250000       0.27777778       0.11111111 </v>
   <v>       0.12500000       0.27777778       0.11111111 </v>
   <v>       0.18750000       0.27777778       0.11111111 </v>
   <v>       0.25000000       0.27777778       0.11111111 </v>
   <v>       0.31250000       0.27777778       0.11111111 </v>
   <v>       0.37500000       0.27777778       0.11111111 </v>
   <v>       0.43750000       0.27777778       0.11111111 </v>
   <v>       0.50000000       0.27777778       0.11111111 </v>
   <v>      -0.43750000       0.27777778       0.11111111 </v>
   <v>      -0.37500000       0.27777778       0.11111111 </v>
   <v>      -0.31250000       0.27777778       0.11111111 </v>
   <v>      -0.25000000       0.27777778       0.11111111 </v>
   <v>      -0.18750000       0.27777778       0.11111111 </v>
   <v>      -0.12500000       0.27777778       0.11111111 </v>
   <v>      -0.06250000       0.27777778       0.11111111 </v>
   <v>       0.00000000       0.33333333       0.11111111 </v>
   <v>       0.06250000       0.33333333       0.11111111 </v>
   <v>       0.12500000       0.33333333       0.11111111 </v>
   <v>       0.18750000       0.33333333       0.11111111 </v>
   <v>       0.25000000       0.33333333       0.11111111 </v>
   <v>       0.31250000       0.33333333       0.11111111 </v>
   <v>       0.37500000       0.33333333       0.11111111 </v>
   <v>       0.43750000       0.33333333       0.11111111 </v>
   <v>       0.50000000       0.33333333       0.11111111 </v>
   <v>      -0.43750000       0.33333333       0.11111111 </v>
   <v>      -0.37500000       0.33333333       0.11111111 </v>
   <v>      -0.31250000       0.33333333       0.11111111 </v>
   <v>      -0.25000000       0.33333333       0.11111111 </v>
   <v>      -0.18750000       0.33333333       0.11111111 </v>
   <v>      -0.12500000       0.33333333       0.11111111 </v>
   <v>      -0.06250000       0.33333333       0.11111111 </v>
   <v>       0.00000000       0.38888889       0.11111111 </v>
   <v>       0.06250000       0.38888889       0.11111111 </v>
   <v>       0.12500000       0.38888889       0.11111111 </v>
   <v>       0.18750000       0.38888889       0.11111111 </v>
   <v>       0.25000000       0.38888889       0.11111111 </v>
   <v>       0.31250000       0.38888889       0.11111111 </v>
   <v>       0.37500000       0.38888889       0.11111111 </v>
   <v>       0.43750000       0.38888889       0.11111111 </v>
   <v>       0.50000000       0.38888889       0.11111111 </v>
   <v>      -0.43750000       0.38888889       0.11111111 </v>
   <v>      -0.37500000       0.38888889       0.11111111 </v>
   <v>      -0.31250000       0.38888889       0.11111111 </v>
   <v>      -0.25000000       0.38888889       0.11111111 </v>
   <v>      -0.18750000       0.38888889       0.11111111 </v>
   <v>      -0.12500000       0.38888889       0.11111111 </v>
   <v>      -0.06250000       0.38888889       0.11111111 </v>
   <v>       0.00000000       0.44444444       0.11111111 </v>
   <v>       0.06250000       0.44444444       0.11111111 </v>
   <v>       0.12500000       0.44444444       0.11111111 </v>
   <v>       0.18750000       0.44444444       0.11111111 </v>
   <v>       0.25000000       0.44444444       0.11111111 </v>
   <v>       0.31250000       0.44444444       0.11111111 </v>
   <v>       0.37500000       0.44444444       0.11111111 </v>
   <v>       0.43750000       0.44444444       0.11111111 </v>
   <v>       0.50000000       0.44444444       0.11111111 </v>
   <v>      -0.43750000       0.44444444       0.11111111 </v>
   <v>      -0.37500000       0.44444444       0.11111111 </v>
   <v>      -0.31250000       0.44444444       0.11111111 </v>
   <v>      -0.25000000       0.44444444       0.11111111 </v>
   <v>      -0.18750000       0.44444444       0.11111111 </v>
   <v>      -0.12500000       0.44444444       0.11111111 </v>
   <v>      -0.06250000       0.44444444       0.11111111 </v>
   <v>       0.00000000       0.50000000       0.11111111 </v>
   <v>       0.06250000       0.50000000       0.11111111 </v>
   <v>       0.12500000       0.50000000       0.11111111 </v>
   <v>       0.18750000       0.50000000       0.11111111 </v>
   <v>       0.25000000       0.50000000       0.11111111 </v>
   <v>       0.31250000       0.50000000       0.11111111 </v>
   <v>       0.37500000       0.50000000       0.11111111 </v>
   <v>       0.43750000       0.50000000       0.11111111 </v>
   <v>       0.50000000       0.50000000       0.11111111 </v>
   <v>      -0.43750000       0.50000000       0.11111111 </v>
   <v>      -0.37500000       0.50000000       0.11111111 </v>
   <v>      -0.31250000       0.50000000       0.11111111 </v>
   <v>      -0.25000000       0.50000000       0.11111111 </v>
   <v>      -0.18750000       0.50000000       0.11111111 </v>
   <v>      -0.12500000       0.50000000       0.11111111 </v>
   <v>      -0.06250000       0.50000000       0.11111111 </v>
   <v>       0.00000000      -0.44444444       0.11111111 </v>
   <v>       0.06250000      -0.44444444       0.11111111 </v>
   <v>       0.12500000      -0.44444444       0.11111111 </v>
   <v>       0.18750000      -0.44444444       0.11111111 </v>
   <v>       0.25000000      -0.44444444       0.11111111 </v>
   <v>       0.31250000      -0.44444444       0.11111111 </v>
   <v>       0.37500000      -0.44444444       0.11111111 </v>
   <v>       0.43750000      -0.44444444       0.11111111 </v>
   <v>       0.50000000      -0.44444444       0.11111111 </v>
   <v>      -0.43750000      -0.44444444       0.11111111 </v>
   <v>      -0.37500000      -0.44444444       0.11111111 </v>
   <v>      -0.31250000      -0.44444444       0.11111111 </v>
   <v>      -0.25000000      -0.44444444       0.11111111 </v>
   <v>      -0.18750000      -0.44444444       0.11111111 </v>
   <v>      -0.12500000      -0.44444444       0.11111111 </v>
   <v>      -0.06250000      -0.44444444       0.11111111 </v>
   <v>       0.00000000      -0.38888889       0.11111111 </v>
   <v>       0.06250000      -0.38888889       0.11111111 </v>
   <v>       0.12500000      -0.38888889       0.11111111 </v>
   <v>       0.18750000      -0.38888889       0.11111111 </v>
   <v>       0.25000000      -0.38888889       0.11111111 </v>
   <v>       0.31250000      -0.38888889       0.11111111 </v>
   <v>       0.37500000      -0.38888889       0.11111111 </v>
   <v>       0.43750000      -0.38888889       0.11111111 </v>
   <v>       0.50000000      -0.38888889       0.11111111 </v>
   <v>      -0.43750000      -0.38888889       0.11111111 </v>
   <v>      -0.37500000      -0.38888889       0.11111111 </v>
   <v>      -0.31250000      -0.38888889       0.11111111 </v>
   <v>      -0.25000000      -0.38888889       0.11111111 </v>
   <v>      -0.18750000      -0.38888889       0.11111111 </v>
   <v>      -0.12500000      -0.38888889       0.11111111 </v>
   <v>      -0.06250000      -0.38888889       0.11111111 </v>
   <v>       0.00000000      -0.33333333       0.11111111 </v>
   <v>       0.06250000      -0.33333333       0.11111111 </v>
   <v>       0.12500000      -0.33333333       0.11111111 </v>
   <v>       0.18750000      -0.33333333       0.11111111 </v>
   <v>       0.25000000      -0.33333333       0.11111111 </v>
   <v>       0.31250000      -0.33333333       0.11111111 </v>
   <v>       0.37500000      -0.33333333       0.11111111 </v>
   <v>       0.43750000      -0.33333333       0.11111111 </v>
   <v>       0.50000000      -0.33333333       0.11111111 </v>
   <v>      -0.43750000      -0.33333333       0.11111111 </v>
   <v>      -0.37500000      -0.33333333       0.11111111 </v>
   <v>      -0.31250000      -0.33333333       0.11111111 </v>
   <v>      -0.25000000      -0.33333333       0.11111111 </v>
   <v>      -0.18750000      -0.33333333       0.11111111 </v>
   <v>      -0.12500000      -0.33333333       0.11111111 </v>
   <v>      -0.06250000      -0.33333333       0.11111111 </v>
   <v>       0.00000000      -0.27777778       0.11111111 </v>
   <v>       0.06250000      -0.27777778       0.11111111 </v>
   <v>       0.12500000      -0.27777778       0.11111111 </v>
   <v>       0.18750000      -0.27777778       0.11111111 </v>
   <v>       0.25000000      -0.27777778       0.11111111 </v>
   <v>       0.31250000      -0.27777778       0.11111111 </v>
   <v>       0.37500000      -0.27777778       0.11111111 </v>
   <v>       0.43750000      -0.27777778       0.11111111 </v>
   <v>       0.50000000      -0.27777778       0.11111111 </v>
   <v>      -0.43750000      -0.27777778       0.11111111 </v>
   <v>      -0.37500000      -0.27777778       0.11111111 </v>
   <v>      -0.31250000      -0.27777778       0.11111111 </v>
   <v>      -0.25000000      -0.27777778       0.11111111 </v>
   <v>      -0.18750000      -0.27777778       0.11111111 </v>
   <v>      -0.12500000      -0.27777778       0.11111111 </v>
   <v>      -0.06250000      -0.27777778       0.11111111 </v>
   <v>       0.00000000      -0.22222222       0.11111111 </v>
   <v>       0.06250000      -0.22222222       0.11111111 </v>
   <v>       0.12500000      -0.22222222       0.11111111 </v>
   <v>       0.18750000      -0.22222222       0.11111111 </v>
   <v>       0.25000000      -0.22222222       0.11111111 </v>
   <v>       0.31250000      -0.22222222       0.11111111 </v>
   <v>       0.37500000      -0.22222222       0.11111111 </v>
   <v>       0.43750000      -0.22222222       0.11111111 </v>
   <v>       0.50000000      -0.22222222       0.11111111 </v>
   <v>      -0.43750000      -0.22222222       0.11111111 </v>
   <v>      -0.37500000      -0.22222222       0.11111111 </v>
   <v>      -0.31250000      -0.22222222       0.11111111 </v>
   <v>      -0.25000000      -0.22222222       0.11111111 </v>
   <v>      -0.18750000      -0.22222222       0.11111111 </v>
   <v>      -0.12500000      -0.22222222       0.11111111 </v>
   <v>      -0.06250000      -0.22222222       0.11111111 </v>
   <v>       0.00000000      -0.16666667       0.11111111 </v>
   <v>       0.06250000      -0.16666667       0.11111111 </v>
   <v>       0.12500000      -0.16666667       0.11111111 </v>
   <v>       0.18750000      -0.16666667       0.11111111 </v>
   <v>       0.25000000      -0.16666667       0.11111111 </v>
   <v>       0.31250000      -0.16666667       0.11111111 </v>
   <v>       0.37500000      -0.16666667       0.11111111 </v>
   <v>       0.43750000      -0.16666667       0.11111111 </v>
   <v>       0.50000000      -0.16666667       0.11111111 </v>
   <v>      -0.43750000      -0.16666667       0.11111111 </v>
   <v>      -0.37500000      -0.16666667       0.11111111 </v>
   <v>      -0.31250000      -0.16666667       0.11111111 </v>
   <v>      -0.25000000      -0.16666667       0.11111111 </v>
   <v>      -0.18750000      -0.16666667       0.11111111 </v>
   <v>      -0.12500000      -0.16666667       0.11111111 </v>
   <v>      -0.06250000      -0.16666667       0.11111111 </v>
   <v>       0.00000000      -0.11111111       0.11111111 </v>
   <v>       0.06250000      -0.11111111       0.11111111 </v>
   <v>       0.12500000      -0.11111111       0.11111111 </v>
   <v>       0.18750000      -0.11111111       0.11111111 </v>
   <v>       0.25000000      -0.11111111       0.11111111 </v>
   <v>       0.31250000      -0.11111111       0.11111111 </v>
   <v>       0.37500000      -0.11111111       0.11111111 </v>
   <v>       0.43750000      -0.11111111       0.11111111 </v>
   <v>       0.50000000      -0.11111111       0.11111111 </v>
   <v>       0.00000000       0.16666667       0.16666667 </v>
   <v>       0.06250000       0.16666667       0.16666667 </v>
   <v>       0.12500000       0.16666667       0.16666667 </v>
   <v>       0.18750000       0.16666667       0.16666667 </v>
   <v>       0.25000000       0.16666667       0.16666667 </v>
   <v>       0.31250000       0.16666667       0.16666667 </v>
   <v>       0.37500000       0.16666667       0.16666667 </v>
   <v>       0.43750000       0.16666667       0.16666667 </v>
   <v>       0.50000000       0.16666667       0.16666667 </v>
   <v>      -0.43750000       0.16666667       0.16666667 </v>
   <v>      -0.37500000       0.16666667       0.16666667 </v>
   <v>      -0.31250000       0.16666667       0.16666667 </v>
   <v>      -0.25000000       0.16666667       0.16666667 </v>
   <v>      -0.18750000       0.16666667       0.16666667 </v>
   <v>      -0.12500000       0.16666667       0.16666667 </v>
   <v>      -0.06250000       0.16666667       0.16666667 </v>
   <v>       0.00000000       0.22222222       0.16666667 </v>
   <v>       0.06250000       0.22222222       0.16666667 </v>
   <v>       0.12500000       0.22222222       0.16666667 </v>
   <v>       0.18750000       0.22222222       0.16666667 </v>
   <v>       0.25000000       0.22222222       0.16666667 </v>
   <v>       0.31250000       0.22222222       0.16666667 </v>
   <v>       0.37500000       0.22222222       0.16666667 </v>
   <v>       0.43750000       0.22222222       0.16666667 </v>
   <v>       0.50000000       0.22222222       0.16666667 </v>
   <v>      -0.43750000       0.22222222       0.16666667 </v>
   <v>      -0.37500000       0.22222222       0.16666667 </v>
   <v>      -0.31250000       0.22222222       0.16666667 </v>
   <v>      -0.25000000       0.22222222       0.16666667 </v>
   <v>      -0.18750000       0.22222222       0.16666667 </v>
   <v>      -0.12500000       0.22222222       0.16666667 </v>
   <v>      -0.06250000       0.22222222       0.16666667 </v>
   <v>       0.00000000       0.27777778       0.16666667 </v>
   <v>       0.06250000       0.27777778       0.16666667 </v>
   <v>       0.12500000       0.27777778       0.16666667 </v>
   <v>       0.18750000       0.27777778       0.16666667 </v>
   <v>       0.25000000       0.27777778       0.16666667 </v>
   <v>       0.31250000       0.27777778       0.16666667 </v>
   <v>       0.37500000       0.27777778       0.16666667 </v>
   <v>       0.43750000       0.27777778       0.16666667 </v>
   <v>       0.50000000       0.27777778       0.16666667 </v>
   <v>      -0.43750000       0.27777778       0.16666667 </v>
   <v>      -0.37500000       0.27777778       0.16666667 </v>
   <v>      -0.31250000       0.27777778       0.16666667 </v>
   <v>      -0.25000000       0.27777778       0.16666667 </v>
   <v>      -0.18750000       0.27777778       0.16666667 </v>
   <v>      -0.12500000       0.27777778       0.16666667 </v>
   <v>      -0.06250000       0.27777778       0.16666667 </v>
   <v>       0.00000000       0.33333333       0.16666667 </v>
   <v>       0.06250000       0.33333333       0.16666667 </v>
   <v>       0.12500000       0.33333333       0.16666667 </v>
   <v>       0.18750000       0.33333333       0.16666667 </v>
   <v>       0.25000000       0.33333333       0.16666667 </v>
   <v>       0.31250000       0.33333333       0.16666667 </v>
   <v>       0.37500000       0.33333333       0.16666667 </v>
   <v>       0.43750000       0.33333333       0.16666667 </v>
   <v>       0.50000000       0.33333333       0.16666667 </v>
   <v>      -0.43750000       0.33333333       0.16666667 </v>
   <v>      -0.37500000       0.33333333       0.16666667 </v>
   <v>      -0.31250000       0.33333333       0.16666667 </v>
   <v>      -0.25000000       0.33333333       0.16666667 </v>
   <v>      -0.18750000       0.33333333       0.16666667 </v>
   <v>      -0.12500000       0.33333333       0.16666667 </v>
   <v>      -0.06250000       0.33333333       0.16666667 </v>
   <v>       0.00000000       0.38888889       0.16666667 </v>
   <v>       0.06250000       0.38888889       0.16666667 </v>
   <v>       0.12500000       0.38888889       0.16666667 </v>
   <v>       0.18750000       0.38888889       0.16666667 </v>
   <v>       0.25000000       0.38888889       0.16666667 </v>
   <v>       0.31250000       0.38888889       0.16666667 </v>
   <v>       0.37500000       0.38888889       0.16666667 </v>
   <v>       0.43750000       0.38888889       0.16666667 </v>
   <v>       0.50000000       0.38888889       0.16666667 </v>
   <v>      -0.43750000       0.38888889       0.16666667 </v>
   <v>      -0.37500000       0.38888889       0.16666667 </v>
   <v>      -0.31250000       0.38888889       0.16666667 </v>
   <v>      -0.25000000       0.38888889       0.16666667 </v>
   <v>      -0.18750000       0.38888889       0.16666667 </v>
   <v>      -0.12500000       0.38888889       0.16666667 </v>
   <v>      -0.06250000       0.38888889       0.16666667 </v>
   <v>       0.00000000       0.44444444       0.16666667 </v>
   <v>       0.06250000       0.44444444       0.16666667 </v>
   <v>       0.12500000       0.44444444       0.16666667 </v>
   <v>       0.18750000       0.44444444       0.16666667 </v>
   <v>       0.25000000       0.44444444       0.16666667 </v>
   <v>       0.31250000       0.44444444       0.16666667 </v>
   <v>       0.37500000       0.44444444       0.16666667 </v>
   <v>       0.43750000       0.44444444       0.16666667 </v>
   <v>       0.50000000       0.44444444       0.16666667 </v>
   <v>      -0.43750000       0.44444444       0.16666667 </v>
   <v>      -0.37500000       0.44444444       0.16666667 </v>
   <v>      -0.31250000       0.44444444       0.16666667 </v>
   <v>      -0.25000000       0.44444444       0.16666667 </v>
   <v>      -0.18750000       0.44444444       0.16666667 </v>
   <v>      -0.12500000       0.44444444       0.16666667 </v>
   <v>      -0.06250000       0.44444444       0.16666667 </v>
   <v>       0.00000000       0.50000000       0.16666667 </v>
   <v>       0.06250000       0.50000000       0.16666667 </v>
   <v>       0.12500000       0.50000000       0.16666667 </v>
   <v>       0.18750000       0.50000000       0.16666667 </v>
   <v>       0.25000000       0.50000000       0.16666667 </v>
   <v>       0.31250000       0.50000000       0.16666667 </v>
   <v>       0.37500000       0.50000000       0.16666667 </v>
   <v>       0.43750000       0.50000000       0.16666667 </v>
   <v>       0.50000000       0.50000000       0.16666667 </v>
   <v>      -0.43750000       0.50000000       0.16666667 </v>
   <v>      -0.37500000       0.50000000       0.16666667 </v>
   <v>      -0.31250000       0.50000000       0.16666667 </v>
   <v>      -0.25000000       0.50000000       0.16666667 </v>
   <v>      -0.18750000       0.50000000       0.16666667 </v>
   <v>      -0.12500000       0.50000000       0.16666667 </v>
   <v>      -0.06250000       0.50000000       0.16666667 </v>
   <v>       0.00000000      -0.44444444       0.16666667 </v>
   <v>       0.06250000      -0.44444444       0.16666667 </v>
   <v>       0.12500000      -0.44444444       0.16666667 </v>
   <v>       0.18750000      -0.44444444       0.16666667 </v>
   <v>       0.25000000      -0.44444444       0.16666667 </v>
   <v>       0.31250000      -0.44444444       0.16666667 </v>
   <v>       0.37500000      -0.44444444       0.16666667 </v>
   <v>       0.43750000      -0.44444444       0.16666667 </v>
   <v>       0.50000000      -0.44444444       0.16666667 </v>
   <v>      -0.43750000      -0.44444444       0.16666667 </v>
   <v>      -0.37500000      -0.44444444       0.16666667 </v>
   <v>      -0.31250000      -0.44444444       0.16666667 </v>
   <v>      -0.25000000      -0.44444444       0.16666667 </v>
   <v>      -0.18750000      -0.44444444       0.16666667 </v>
   <v>      -0.12500000      -0.44444444       0.16666667 </v>
   <v>      -0.06250000      -0.44444444       0.16666667 </v>
   <v>       0.00000000      -0.38888889       0.16666667 </v>
   <v>       0.06250000      -0.38888889       0.16666667 </v>
   <v>       0.12500000      -0.38888889       0.16666667 </v>
   <v>       0.18750000      -0.38888889       0.16666667 </v>
   <v>       0.25000000      -0.38888889       0.16666667 </v>
   <v>       0.31250000      -0.38888889       0.16666667 </v>
   <v>       0.37500000      -0.38888889       0.16666667 </v>
   <v>       0.43750000      -0.38888889       0.16666667 </v>
   <v>       0.50000000      -0.38888889       0.16666667 </v>
   <v>      -0.43750000      -0.38888889       0.16666667 </v>
   <v>      -0.37500000      -0.38888889       0.16666667 </v>
   <v>      -0.31250000      -0.38888889       0.16666667 </v>
   <v>      -0.25000000      -0.38888889       0.16666667 </v>
   <v>      -0.18750000      -0.38888889       0.16666667 </v>
   <v>      -0.12500000      -0.38888889       0.16666667 </v>
   <v>      -0.06250000      -0.38888889       0.16666667 </v>
   <v>       0.00000000      -0.33333333       0.16666667 </v>
   <v>       0.06250000      -0.33333333       0.16666667 </v>
   <v>       0.12500000      -0.33333333       0.16666667 </v>
   <v>       0.18750000      -0.33333333       0.16666667 </v>
   <v>       0.25000000      -0.33333333       0.16666667 </v>
   <v>       0.31250000      -0.33333333       0.16666667 </v>
   <v>       0.37500000      -0.33333333       0.16666667 </v>
   <v>       0.43750000      -0.33333333       0.16666667 </v>
   <v>       0.50000000      -0.33333333       0.16666667 </v>
   <v>      -0.43750000      -0.33333333       0.16666667 </v>
   <v>      -0.37500000      -0.33333333       0.16666667 </v>
   <v>      -0.31250000      -0.33333333       0.16666667 </v>
   <v>      -0.25000000      -0.33333333       0.16666667 </v>
   <v>      -0.18750000      -0.33333333       0.16666667 </v>
   <v>      -0.12500000      -0.33333333       0.16666667 </v>
   <v>      -0.06250000      -0.33333333       0.16666667 </v>
   <v>       0.00000000      -0.27777778       0.16666667 </v>
   <v>       0.06250000      -0.27777778       0.16666667 </v>
   <v>       0.12500000      -0.27777778       0.16666667 </v>
   <v>       0.18750000      -0.27777778       0.16666667 </v>
   <v>       0.25000000      -0.27777778       0.16666667 </v>
   <v>       0.31250000      -0.27777778       0.16666667 </v>
   <v>       0.37500000      -0.27777778       0.16666667 </v>
   <v>       0.43750000      -0.27777778       0.16666667 </v>
   <v>       0.50000000      -0.27777778       0.16666667 </v>
   <v>      -0.43750000      -0.27777778       0.16666667 </v>
   <v>      -0.37500000      -0.27777778       0.16666667 </v>
   <v>      -0.31250000      -0.27777778       0.16666667 </v>
   <v>      -0.25000000      -0.27777778       0.16666667 </v>
   <v>      -0.18750000      -0.27777778       0.16666667 </v>
   <v>      -0.12500000      -0.27777778       0.16666667 </v>
   <v>      -0.06250000      -0.27777778       0.16666667 </v>
   <v>       0.00000000      -0.22222222       0.16666667 </v>
   <v>       0.06250000      -0.22222222       0.16666667 </v>
   <v>       0.12500000      -0.22222222       0.16666667 </v>
   <v>       0.18750000      -0.22222222       0.16666667 </v>
   <v>       0.25000000      -0.22222222       0.16666667 </v>
   <v>       0.31250000      -0.22222222       0.16666667 </v>
   <v>       0.37500000      -0.22222222       0.16666667 </v>
   <v>       0.43750000      -0.22222222       0.16666667 </v>
   <v>       0.50000000      -0.22222222       0.16666667 </v>
   <v>      -0.43750000      -0.22222222       0.16666667 </v>
   <v>      -0.37500000      -0.22222222       0.16666667 </v>
   <v>      -0.31250000      -0.22222222       0.16666667 </v>
   <v>      -0.25000000      -0.22222222       0.16666667 </v>
   <v>      -0.18750000      -0.22222222       0.16666667 </v>
   <v>      -0.12500000      -0.22222222       0.16666667 </v>
   <v>      -0.06250000      -0.22222222       0.16666667 </v>
   <v>       0.00000000      -0.16666667       0.16666667 </v>
   <v>       0.06250000      -0.16666667       0.16666667 </v>
   <v>       0.12500000      -0.16666667       0.16666667 </v>
   <v>       0.18750000      -0.16666667       0.16666667 </v>
   <v>       0.25000000      -0.16666667       0.16666667 </v>
   <v>       0.31250000      -0.16666667       0.16666667 </v>
   <v>       0.37500000      -0.16666667       0.16666667 </v>
   <v>       0.43750000      -0.16666667       0.16666667 </v>
   <v>       0.50000000      -0.16666667       0.16666667 </v>
   <v>       0.00000000       0.22222222       0.22222222 </v>
   <v>       0.06250000       0.22222222       0.22222222 </v>
   <v>       0.12500000       0.22222222       0.22222222 </v>
   <v>       0.18750000       0.22222222       0.22222222 </v>
   <v>       0.25000000       0.22222222       0.22222222 </v>
   <v>       0.31250000       0.22222222       0.22222222 </v>
   <v>       0.37500000       0.22222222       0.22222222 </v>
   <v>       0.43750000       0.22222222       0.22222222 </v>
   <v>       0.50000000       0.22222222       0.22222222 </v>
   <v>      -0.43750000       0.22222222       0.22222222 </v>
   <v>      -0.37500000       0.22222222       0.22222222 </v>
   <v>      -0.31250000       0.22222222       0.22222222 </v>
   <v>      -0.25000000       0.22222222       0.22222222 </v>
   <v>      -0.18750000       0.22222222       0.22222222 </v>
   <v>      -0.12500000       0.22222222       0.22222222 </v>
   <v>      -0.06250000       0.22222222       0.22222222 </v>
   <v>       0.00000000       0.27777778       0.22222222 </v>
   <v>       0.06250000       0.27777778       0.22222222 </v>
   <v>       0.12500000       0.27777778       0.22222222 </v>
   <v>       0.18750000       0.27777778       0.22222222 </v>
   <v>       0.25000000       0.27777778       0.22222222 </v>
   <v>       0.31250000       0.27777778       0.22222222 </v>
   <v>       0.37500000       0.27777778       0.22222222 </v>
   <v>       0.43750000       0.27777778       0.22222222 </v>
   <v>       0.50000000       0.27777778       0.22222222 </v>
   <v>      -0.43750000       0.27777778       0.22222222 </v>
   <v>      -0.37500000       0.27777778       0.22222222 </v>
   <v>      -0.31250000       0.27777778       0.22222222 </v>
   <v>      -0.25000000       0.27777778       0.22222222 </v>
   <v>      -0.18750000       0.27777778       0.22222222 </v>
   <v>      -0.12500000       0.27777778       0.22222222 </v>
   <v>      -0.06250000       0.27777778       0.22222222 </v>
   <v>       0.00000000       0.33333333       0.22222222 </v>
   <v>       0.06250000       0.33333333       0.22222222 </v>
   <v>       0.12500000       0.33333333       0.22222222 </v>
   <v>       0.18750000       0.33333333       0.22222222 </v>
   <v>       0.25000000       0.33333333       0.22222222 </v>
   <v>       0.31250000       0.33333333       0.22222222 </v>
   <v>       0.37500000       0.33333333       0.22222222 </v>
   <v>       0.43750000       0.33333333       0.22222222 </v>
   <v>       0.50000000       0.33333333       0.22222222 </v>
   <v>      -0.43750000       0.33333333       0.22222222 </v>
   <v>      -0.37500000       0.33333333       0.22222222 </v>
   <v>      -0.31250000       0.33333333       0.22222222 </v>
   <v>      -0.25000000       0.33333333       0.22222222 </v>
   <v>      -0.18750000       0.33333333       0.22222222 </v>
   <v>      -0.12500000       0.33333333       0.22222222 </v>
   <v>      -0.06250000       0.33333333       0.22222222 </v>
   <v>       0.00000000       0.38888889       0.22222222 </v>
   <v>       0.06250000       0.38888889       0.22222222 </v>
   <v>       0.12500000       0.38888889       0.22222222 </v>
   <v>       0.18750000       0.38888889       0.22222222 </v>
   <v>       0.25000000       0.38888889       0.22222222 </v>
   <v>       0.31250000       0.38888889       0.22222222 </v>
   <v>       0.37500000       0.38888889       0.22222222 </v>
   <v>       0.43750000       0.38888889       0.22222222 </v>
   <v>       0.50000000       0.38888889       0.22222222 </v>
   <v>      -0.43750000       0.38888889       0.22222222 </v>
   <v>      -0.37500000       0.38888889       0.22222222 </v>
   <v>      -0.31250000       0.38888889       0.22222222 </v>
   <v>      -0.25000000       0.38888889       0.22222222 </v>
   <v>      -0.18750000       0.38888889       0.22222222 </v>
   <v>      -0.12500000       0.38888889       0.22222222 </v>
   <v>      -0.06250000       0.38888889       0.22222222 </v>
   <v>       0.00000000       0.44444444       0.22222222 </v>
   <v>       0.06250000       0.44444444       0.22222222 </v>
   <v>       0.12500000       0.44444444       0.22222222 </v>
   <v>       0.18750000       0.44444444       0.22222222 </v>
   <v>       0.25000000       0.44444444       0.22222222 </v>
   <v>       0.31250000       0.44444444       0.22222222 </v>
   <v>       0.37500000       0.44444444       0.22222222 </v>
   <v>       0.43750000       0.44444444       0.22222222 </v>
   <v>       0.50000000       0.44444444       0.22222222 </v>
   <v>      -0.43750000       0.44444444       0.22222222 </v>
   <v>      -0.37500000       0.44444444       0.22222222 </v>
   <v>      -0.31250000       0.44444444       0.22222222 </v>
   <v>      -0.25000000       0.44444444       0.22222222 </v>
   <v>      -0.18750000       0.44444444       0.22222222 </v>
   <v>      -0.12500000       0.44444444       0.22222222 </v>
   <v>      -0.06250000       0.44444444       0.22222222 </v>
   <v>       0.00000000       0.50000000       0.22222222 </v>
   <v>       0.06250000       0.50000000       0.22222222 </v>
   <v>       0.12500000       0.50000000       0.22222222 </v>
   <v>       0.18750000       0.50000000       0.22222222 </v>
   <v>       0.25000000       0.50000000       0.22222222 </v>
   <v>       0.31250000       0.50000000       0.22222222 </v>
   <v>       0.37500000       0.50000000       0.22222222 </v>
   <v>       0.43750000       0.50000000       0.22222222 </v>
   <v>       0.50000000       0.50000000       0.22222222 </v>
   <v>      -0.43750000       0.50000000       0.22222222 </v>
   <v>      -0.37500000       0.50000000       0.22222222 </v>
   <v>      -0.31250000       0.50000000       0.22222222 </v>
   <v>      -0.25000000       0.50000000       0.22222222 </v>
   <v>      -0.18750000       0.50000000       0.22222222 </v>
   <v>      -0.12500000       0.50000000       0.22222222 </v>
   <v>      -0.06250000       0.50000000       0.22222222 </v>
   <v>       0.00000000      -0.44444444       0.22222222 </v>
   <v>       0.06250000      -0.44444444       0.22222222 </v>
   <v>       0.12500000      -0.44444444       0.22222222 </v>
   <v>       0.18750000      -0.44444444       0.22222222 </v>
   <v>       0.25000000      -0.44444444       0.22222222 </v>
   <v>       0.31250000      -0.44444444       0.22222222 </v>
   <v>       0.37500000      -0.44444444       0.22222222 </v>
   <v>       0.43750000      -0.44444444       0.22222222 </v>
   <v>       0.50000000      -0.44444444       0.22222222 </v>
   <v>      -0.43750000      -0.44444444       0.22222222 </v>
   <v>      -0.37500000      -0.44444444       0.22222222 </v>
   <v>      -0.31250000      -0.44444444       0.22222222 </v>
   <v>      -0.25000000      -0.44444444       0.22222222 </v>
   <v>      -0.18750000      -0.44444444       0.22222222 </v>
   <v>      -0.12500000      -0.44444444       0.22222222 </v>
   <v>      -0.06250000      -0.44444444       0.22222222 </v>
   <v>       0.00000000      -0.38888889       0.22222222 </v>
   <v>       0.06250000      -0.38888889       0.22222222 </v>
   <v>       0.12500000      -0.38888889       0.22222222 </v>
   <v>       0.18750000      -0.38888889       0.22222222 </v>
   <v>       0.25000000      -0.38888889       0.22222222 </v>
   <v>       0.31250000      -0.38888889       0.22222222 </v>
   <v>       0.37500000      -0.38888889       0.22222222 </v>
   <v>       0.43750000      -0.38888889       0.22222222 </v>
   <v>       0.50000000      -0.38888889       0.22222222 </v>
   <v>      -0.43750000      -0.38888889       0.22222222 </v>
   <v>      -0.37500000      -0.38888889       0.22222222 </v>
   <v>      -0.31250000      -0.38888889       0.22222222 </v>
   <v>      -0.25000000      -0.38888889       0.22222222 </v>
   <v>      -0.18750000      -0.38888889       0.22222222 </v>
   <v>      -0.12500000      -0.38888889       0.22222222 </v>
   <v>      -0.06250000      -0.38888889       0.22222222 </v>
   <v>       0.00000000      -0.33333333       0.22222222 </v>
   <v>       0.06250000      -0.33333333       0.22222222 </v>
   <v>       0.12500000      -0.33333333       0.22222222 </v>
   <v>       0.18750000      -0.33333333       0.22222222 </v>
   <v>       0.25000000      -0.33333333       0.22222222 </v>
   <v>       0.31250000      -0.33333333       0.22222222 </v>
   <v>       0.37500000      -0.33333333       0.22222222 </v>
   <v>       0.43750000      -0.33333333       0.22222222 </v>
   <v>       0.50000000      -0.33333333       0.22222222 </v>
   <v>      -0.43750000      -0.33333333       0.22222222 </v>
   <v>      -0.37500000      -0.33333333       0.22222222 </v>
   <v>      -0.31250000      -0.33333333       0.22222222 </v>
   <v>      -0.25000000      -0.33333333       0.22222222 </v>
   <v>      -0.18750000      -0.33333333       0.22222222 </v>
   <v>      -0.12500000      -0.33333333       0.22222222 </v>
   <v>      -0.06250000      -0.33333333       0.22222222 </v>
   <v>       0.00000000      -0.27777778       0.22222222 </v>
   <v>       0.06250000      -0.27777778       0.22222222 </v>
   <v>       0.12500000      -0.27777778       0.22222222 </v>
   <v>       0.18750000      -0.27777778       0.22222222 </v>
   <v>       0.25000000      -0.27777778       0.22222222 </v>
   <v>       0.31250000      -0.27777778       0.22222222 </v>
   <v>       0.37500000      -0.27777778       0.22222222 </v>
   <v>       0.43750000      -0.27777778       0.22222222 </v>
   <v>       0.50000000      -0.27777778       0.22222222 </v>
   <v>      -0.43750000      -0.27777778       0.22222222 </v>
   <v>      -0.37500000      -0.27777778       0.22222222 </v>
   <v>      -0.31250000      -0.27777778       0.22222222 </v>
   <v>      -0.25000000      -0.27777778       0.22222222 </v>
   <v>      -0.18750000      -0.27777778       0.22222222 </v>
   <v>      -0.12500000      -0.27777778       0.22222222 </v>
   <v>      -0.06250000      -0.27777778       0.22222222 </v>
   <v>       0.00000000      -0.22222222       0.22222222 </v>
   <v>       0.06250000      -0.22222222       0.22222222 </v>
   <v>       0.12500000      -0.22222222       0.22222222 </v>
   <v>       0.18750000      -0.22222222       0.22222222 </v>
   <v>       0.25000000      -0.22222222       0.22222222 </v>
   <v>       0.31250000      -0.22222222       0.22222222 </v>
   <v>       0.37500000      -0.22222222       0.22222222 </v>
   <v>       0.43750000      -0.22222222       0.22222222 </v>
   <v>       0.50000000      -0.22222222       0.22222222 </v>
   <v>       0.00000000       0.27777778       0.27777778 </v>
   <v>       0.06250000       0.27777778       0.27777778 </v>
   <v>       0.12500000       0.27777778       0.27777778 </v>
   <v>       0.18750000       0.27777778       0.27777778 </v>
   <v>       0.25000000       0.27777778       0.27777778 </v>
   <v>       0.31250000       0.27777778       0.27777778 </v>
   <v>       0.37500000       0.27777778       0.27777778 </v>
   <v>       0.43750000       0.27777778       0.27777778 </v>
   <v>       0.50000000       0.27777778       0.27777778 </v>
   <v>      -0.43750000       0.27777778       0.27777778 </v>
   <v>      -0.37500000       0.27777778       0.27777778 </v>
   <v>      -0.31250000       0.27777778       0.27777778 </v>
   <v>      -0.25000000       0.27777778       0.27777778 </v>
   <v>      -0.18750000       0.27777778       0.27777778 </v>
   <v>      -0.12500000       0.27777778       0.27777778 </v>
   <v>      -0.06250000       0.27777778       0.27777778 </v>
   <v>       0.00000000       0.33333333       0.27777778 </v>
   <v>       0.06250000       0.33333333       0.27777778 </v>
   <v>       0.12500000       0.33333333       0.27777778 </v>
   <v>       0.18750000       0.33333333       0.27777778 </v>
   <v>       0.25000000       0.33333333       0.27777778 </v>
   <v>       0.31250000       0.33333333       0.27777778 </v>
   <v>       0.37500000       0.33333333       0.27777778 </v>
   <v>       0.43750000       0.33333333       0.27777778 </v>
   <v>       0.50000000       0.33333333       0.27777778 </v>
   <v>      -0.43750000       0.33333333       0.27777778 </v>
   <v>      -0.37500000       0.33333333       0.27777778 </v>
   <v>      -0.31250000       0.33333333       0.27777778 </v>
   <v>      -0.25000000       0.33333333       0.27777778 </v>
   <v>      -0.18750000       0.33333333       0.27777778 </v>
   <v>      -0.12500000       0.33333333       0.27777778 </v>
   <v>      -0.06250000       0.33333333       0.27777778 </v>
   <v>       0.00000000       0.38888889       0.27777778 </v>
   <v>       0.06250000       0.38888889       0.27777778 </v>
   <v>       0.12500000       0.38888889       0.27777778 </v>
   <v>       0.18750000       0.38888889       0.27777778 </v>
   <v>       0.25000000       0.38888889       0.27777778 </v>
   <v>       0.31250000       0.38888889       0.27777778 </v>
   <v>       0.37500000       0.38888889       0.27777778 </v>
   <v>       0.43750000       0.38888889       0.27777778 </v>
   <v>       0.50000000       0.38888889       0.27777778 </v>
   <v>      -0.43750000       0.38888889       0.27777778 </v>
   <v>      -0.37500000       0.38888889       0.27777778 </v>
   <v>      -0.31250000       0.38888889       0.27777778 </v>
   <v>      -0.25000000       0.38888889       0.27777778 </v>
   <v>      -0.18750000       0.38888889       0.27777778 </v>
   <v>      -0.12500000       0.38888889       0.27777778 </v>
   <v>      -0.06250000       0.38888889       0.27777778 </v>
   <v>       0.00000000       0.44444444       0.27777778 </v>
   <v>       0.06250000       0.44444444       0.27777778 </v>
   <v>       0.12500000       0.44444444       0.27777778 </v>
   <v>       0.18750000       0.44444444       0.27777778 </v>
   <v>       0.25000000       0.44444444       0.27777778 </v>
   <v>       0.31250000       0.44444444       0.27777778 </v>
   <v>       0.37500000       0.44444444       0.27777778 </v>
   <v>       0.43750000       0.44444444       0.27777778 </v>
   <v>       0.50000000       0.44444444       0.27777778 </v>
   <v>      -0.43750000       0.44444444       0.27777778 </v>
   <v>      -0.37500000       0.44444444       0.27777778 </v>
   <v>      -0.31250000       0.44444444       0.27777778 </v>
   <v>      -0.25000000       0.44444444       0.27777778 </v>
   <v>      -0.18750000       0.44444444       0.27777778 </v>
   <v>      -0.12500000       0.44444444       0.27777778 </v>
   <v>      -0.06250000       0.44444444       0.27777778 </v>
   <v>       0.00000000       0.50000000       0.27777778 </v>
   <v>       0.06250000       0.50000000       0.27777778 </v>
   <v>       0.12500000       0.50000000       0.27777778 </v>
   <v>       0.18750000       0.50000000       0.27777778 </v>
   <v>       0.25000000       0.50000000       0.27777778 </v>
   <v>       0.31250000       0.50000000       0.27777778 </v>
   <v>       0.37500000       0.50000000       0.27777778 </v>
   <v>       0.43750000       0.50000000       0.27777778 </v>
   <v>       0.50000000       0.50000000       0.27777778 </v>
   <v>      -0.43750000       0.50000000       0.27777778 </v>
   <v>      -0.37500000       0.50000000       0.27777778 </v>
   <v>      -0.31250000       0.50000000       0.27777778 </v>
   <v>      -0.25000000       0.50000000       0.27777778 </v>
   <v>      -0.18750000       0.50000000       0.27777778 </v>
   <v>      -0.12500000       0.50000000       0.27777778 </v>
   <v>      -0.06250000       0.50000000       0.27777778 </v>
   <v>       0.00000000      -0.44444444       0.27777778 </v>
   <v>       0.06250000      -0.44444444       0.27777778 </v>
   <v>       0.12500000      -0.44444444       0.27777778 </v>
   <v>       0.18750000      -0.44444444       0.27777778 </v>
   <v>       0.25000000      -0.44444444       0.27777778 </v>
   <v>       0.31250000      -0.44444444       0.27777778 </v>
   <v>       0.37500000      -0.44444444       0.27777778 </v>
   <v>       0.43750000      -0.44444444       0.27777778 </v>
   <v>       0.50000000      -0.44444444       0.27777778 </v>
   <v>      -0.43750000      -0.44444444       0.27777778 </v>
   <v>      -0.37500000      -0.44444444       0.27777778 </v>
   <v>      -0.31250000      -0.44444444       0.27777778 </v>
   <v>      -0.25000000      -0.44444444       0.27777778 </v>
   <v>      -0.18750000      -0.44444444       0.27777778 </v>
   <v>      -0.12500000      -0.44444444       0.27777778 </v>
   <v>      -0.06250000      -0.44444444       0.27777778 </v>
   <v>       0.00000000      -0.38888889       0.27777778 </v>
   <v>       0.06250000      -0.38888889       0.27777778 </v>
   <v>       0.12500000      -0.38888889       0.27777778 </v>
   <v>       0.18750000      -0.38888889       0.27777778 </v>
   <v>       0.25000000      -0.38888889       0.27777778 </v>
   <v>       0.31250000      -0.38888889       0.27777778 </v>
   <v>       0.37500000      -0.38888889       0.27777778 </v>
   <v>       0.43750000      -0.38888889       0.27777778 </v>
   <v>       0.50000000      -0.38888889       0.27777778 </v>
   <v>      -0.43750000      -0.38888889       0.27777778 </v>
   <v>      -0.37500000      -0.38888889       0.27777778 </v>
   <v>      -0.31250000      -0.38888889       0.27777778 </v>
   <v>      -0.25000000      -0.38888889       0.27777778 </v>
   <v>      -0.18750000      -0.38888889       0.27777778 </v>
   <v>      -0.12500000      -0.38888889       0.27777778 </v>
   <v>      -0.06250000      -0.38888889       0.27777778 </v>
   <v>       0.00000000      -0.33333333       0.27777778 </v>
   <v>       0.06250000      -0.33333333       0.27777778 </v>
   <v>       0.12500000      -0.33333333       0.27777778 </v>
   <v>       0.18750000      -0.33333333       0.27777778 </v>
   <v>       0.25000000      -0.33333333       0.27777778 </v>
   <v>       0.31250000      -0.33333333       0.27777778 </v>
   <v>       0.37500000      -0.33333333       0.27777778 </v>
   <v>       0.43750000      -0.33333333       0.27777778 </v>
   <v>       0.50000000      -0.33333333       0.27777778 </v>
   <v>      -0.43750000      -0.33333333       0.27777778 </v>
   <v>      -0.37500000      -0.33333333       0.27777778 </v>
   <v>      -0.31250000      -0.33333333       0.27777778 </v>
   <v>      -0.25000000      -0.33333333       0.27777778 </v>
   <v>      -0.18750000      -0.33333333       0.27777778 </v>
   <v>      -0.12500000      -0.33333333       0.27777778 </v>
   <v>      -0.06250000      -0.33333333       0.27777778 </v>
   <v>       0.00000000      -0.27777778       0.27777778 </v>
   <v>       0.06250000      -0.27777778       0.27777778 </v>
   <v>       0.12500000      -0.27777778       0.27777778 </v>
   <v>       0.18750000      -0.27777778       0.27777778 </v>
   <v>       0.25000000      -0.27777778       0.27777778 </v>
   <v>       0.31250000      -0.27777778       0.27777778 </v>
   <v>       0.37500000      -0.27777778       0.27777778 </v>
   <v>       0.43750000      -0.27777778       0.27777778 </v>
   <v>       0.50000000      -0.27777778       0.27777778 </v>
   <v>       0.00000000       0.33333333       0.33333333 </v>
   <v>       0.06250000       0.33333333       0.33333333 </v>
   <v>       0.12500000       0.33333333       0.33333333 </v>
   <v>       0.18750000       0.33333333       0.33333333 </v>
   <v>       0.25000000       0.33333333       0.33333333 </v>
   <v>       0.31250000       0.33333333       0.33333333 </v>
   <v>       0.37500000       0.33333333       0.33333333 </v>
   <v>       0.43750000       0.33333333       0.33333333 </v>
   <v>       0.50000000       0.33333333       0.33333333 </v>
   <v>      -0.43750000       0.33333333       0.33333333 </v>
   <v>      -0.37500000       0.33333333       0.33333333 </v>
   <v>      -0.31250000       0.33333333       0.33333333 </v>
   <v>      -0.25000000       0.33333333       0.33333333 </v>
   <v>      -0.18750000       0.33333333       0.33333333 </v>
   <v>      -0.12500000       0.33333333       0.33333333 </v>
   <v>      -0.06250000       0.33333333       0.33333333 </v>
   <v>       0.00000000       0.38888889       0.33333333 </v>
   <v>       0.06250000       0.38888889       0.33333333 </v>
   <v>       0.12500000       0.38888889       0.33333333 </v>
   <v>       0.18750000       0.38888889       0.33333333 </v>
   <v>       0.25000000       0.38888889       0.33333333 </v>
   <v>       0.31250000       0.38888889       0.33333333 </v>
   <v>       0.37500000       0.38888889       0.33333333 </v>
   <v>       0.43750000       0.38888889       0.33333333 </v>
   <v>       0.50000000       0.38888889       0.33333333 </v>
   <v>      -0.43750000       0.38888889       0.33333333 </v>
   <v>      -0.37500000       0.38888889       0.33333333 </v>
   <v>      -0.31250000       0.38888889       0.33333333 </v>
   <v>      -0.25000000       0.38888889       0.33333333 </v>
   <v>      -0.18750000       0.38888889       0.33333333 </v>
   <v>      -0.12500000       0.38888889       0.33333333 </v>
   <v>      -0.06250000       0.38888889       0.33333333 </v>
   <v>       0.00000000       0.44444444       0.33333333 </v>
   <v>       0.06250000       0.44444444       0.33333333 </v>
   <v>       0.12500000       0.44444444       0.33333333 </v>
   <v>       0.18750000       0.44444444       0.33333333 </v>
   <v>       0.25000000       0.44444444       0.33333333 </v>
   <v>       0.31250000       0.44444444       0.33333333 </v>
   <v>       0.37500000       0.44444444       0.33333333 </v>
   <v>       0.43750000       0.44444444       0.33333333 </v>
   <v>       0.50000000       0.44444444       0.33333333 </v>
   <v>      -0.43750000       0.44444444       0.33333333 </v>
   <v>      -0.37500000       0.44444444       0.33333333 </v>
   <v>      -0.31250000       0.44444444       0.33333333 </v>
   <v>      -0.25000000       0.44444444       0.33333333 </v>
   <v>      -0.18750000       0.44444444       0.33333333 </v>
   <v>      -0.12500000       0.44444444       0.33333333 </v>
   <v>      -0.06250000       0.44444444       0.33333333 </v>
   <v>       0.00000000       0.50000000       0.33333333 </v>
   <v>       0.06250000       0.50000000       0.33333333 </v>
   <v>       0.12500000       0.50000000       0.33333333 </v>
   <v>       0.18750000       0.50000000       0.33333333 </v>
   <v>       0.25000000       0.50000000       0.33333333 </v>
   <v>       0.31250000       0.50000000       0.33333333 </v>
   <v>       0.37500000       0.50000000       0.33333333 </v>
   <v>       0.43750000       0.50000000       0.33333333 </v>
   <v>       0.50000000       0.50000000       0.33333333 </v>
   <v>      -0.43750000       0.50000000       0.33333333 </v>
   <v>      -0.37500000       0.50000000       0.33333333 </v>
   <v>      -0.31250000       0.50000000       0.33333333 </v>
   <v>      -0.25000000       0.50000000       0.33333333 </v>
   <v>      -0.18750000       0.50000000       0.33333333 </v>
   <v>      -0.12500000       0.50000000       0.33333333 </v>
   <v>      -0.06250000       0.50000000       0.33333333 </v>
   <v>       0.00000000      -0.44444444       0.33333333 </v>
   <v>       0.06250000      -0.44444444       0.33333333 </v>
   <v>       0.12500000      -0.44444444       0.33333333 </v>
   <v>       0.18750000      -0.44444444       0.33333333 </v>
   <v>       0.25000000      -0.44444444       0.33333333 </v>
   <v>       0.31250000      -0.44444444       0.33333333 </v>
   <v>       0.37500000      -0.44444444       0.33333333 </v>
   <v>       0.43750000      -0.44444444       0.33333333 </v>
   <v>       0.50000000      -0.44444444       0.33333333 </v>
   <v>      -0.43750000      -0.44444444       0.33333333 </v>
   <v>      -0.37500000      -0.44444444       0.33333333 </v>
   <v>      -0.31250000      -0.44444444       0.33333333 </v>
   <v>      -0.25000000      -0.44444444       0.33333333 </v>
   <v>      -0.18750000      -0.44444444       0.33333333 </v>
   <v>      -0.12500000      -0.44444444       0.33333333 </v>
   <v>      -0.06250000      -0.44444444       0.33333333 </v>
   <v>       0.00000000      -0.38888889       0.33333333 </v>
   <v>       0.06250000      -0.38888889       0.33333333 </v>
   <v>       0.12500000      -0.38888889       0.33333333 </v>
   <v>       0.18750000      -0.38888889       0.33333333 </v>
   <v>       0.25000000      -0.38888889       0.33333333 </v>
   <v>       0.31250000      -0.38888889       0.33333333 </v>
   <v>       0.37500000      -0.38888889       0.33333333 </v>
   <v>       0.43750000      -0.38888889       0.33333333 </v>
   <v>       0.50000000      -0.38888889       0.33333333 </v>
   <v>      -0.43750000      -0.38888889       0.33333333 </v>
   <v>      -0.37500000      -0.38888889       0.33333333 </v>
[...]
       <r>    5.1062    1.0000 </r>
       <r>    5.2958    1.0000 </r>
       <r>    5.3995    1.0000 </r>
       <r>    5.3997    1.0000 </r>
       <r>    5.4775    1.0000 </r>
       <r>    5.5592    1.0000 </r>
       <r>    5.6381    1.0000 </r>
       <r>    5.6880    1.0000 </r>
       <r>    5.7638    1.0000 </r>
       <r>    5.8325    1.0000 </r>
       <r>    5.9375    1.0000 </r>
       <r>    7.0184    1.0173 </r>
       <r>    7.1844    1.0351 </r>
       <r>    8.0761   -0.0146 </r>
       <r>    8.6630    0.0000 </r>
       <r>   12.5059    0.0000 </r>
       <r>   15.4019    0.0000 </r>
       <r>   13.7268    0.0000 </r>
       <r>   13.7174    0.0000 </r>
      </set>
      <set comment="kpoint 1378">
       <r>    1.3494    1.0000 </r>
       <r>    1.4584    1.0000 </r>
       <r>    1.9529    1.0000 </r>
       <r>    1.9780    1.0000 </r>
       <r>    2.0367    1.0000 </r>
       <r>    2.1846    1.0000 </r>
       <r>    2.6502    1.0000 </r>
       <r>    2.7609    1.0000 </r>
       <r>    2.9246    1.0000 </r>
       <r>    3.1979    1.0000 </r>
       <r>    3.3966    1.0000 </r>
       <r>    3.7572    1.0000 </r>
       <r>    4.0297    1.0000 </r>
       <r>    4.1013    1.0000 </r>
       <r>    4.2012    1.0000 </r>
       <r>    4.3642    1.0000 </r>
       <r>    4.4589    1.0000 </r>
       <r>    4.6703    1.0000 </r>
       <r>    4.7031    1.0000 </r>
       <r>    4.8664    1.0000 </r>
       <r>    4.8757    1.0000 </r>
       <r>    5.1340    1.0000 </r>
       <r>    5.2620    1.0000 </r>
       <r>    5.3383    1.0000 </r>
       <r>    5.3649    1.0000 </r>
       <r>    5.4507    1.0000 </r>
       <r>    5.5601    1.0000 </r>
       <r>    5.6142    1.0000 </r>
       <r>    5.7568    1.0000 </r>
       <r>    5.9008    1.0000 </r>
       <r>    5.9364    1.0000 </r>
       <r>    6.0639    1.0000 </r>
       <r>    6.5666    1.0000 </r>
       <r>    6.7323    1.0005 </r>
       <r>    8.1887   -0.0044 </r>
       <r>    8.6110    0.0000 </r>
       <r>   13.0446    0.0000 </r>
       <r>   14.6938    0.0000 </r>
       <r>   13.8470    0.0000 </r>
       <r>   13.8155    0.0000 </r>
      </set>
      <set comment="kpoint 1379">
       <r>    1.3955    1.0000 </r>
       <r>    1.4233    1.0000 </r>
       <r>    1.9578    1.0000 </r>
       <r>    1.9933    1.0000 </r>
       <r>    2.0594    1.0000 </r>
       <r>    2.2314    1.0000 </r>
       <r>    2.6707    1.0000 </r>
       <r>    2.7318    1.0000 </r>
       <r>    2.9607    1.0000 </r>
       <r>    3.1959    1.0000 </r>
       <r>    3.4117    1.0000 </r>
       <r>    3.7334    1.0000 </r>
       <r>    4.0119    1.0000 </r>
       <r>    4.0936    1.0000 </r>
       <r>    4.2235    1.0000 </r>
       <r>    4.2981    1.0000 </r>
       <r>    4.4557    1.0000 </r>
       <r>    4.6871    1.0000 </r>
       <r>    4.7168    1.0000 </r>
       <r>    4.8248    1.0000 </r>
       <r>    4.8667    1.0000 </r>
       <r>    5.1688    1.0000 </r>
       <r>    5.2503    1.0000 </r>
       <r>    5.3093    1.0000 </r>
       <r>    5.3135    1.0000 </r>
       <r>    5.4635    1.0000 </r>
       <r>    5.5604    1.0000 </r>
       <r>    5.6030    1.0000 </r>
       <r>    5.7544    1.0000 </r>
       <r>    5.9360    1.0000 </r>
       <r>    6.1324    1.0000 </r>
       <r>    6.2556    1.0000 </r>
       <r>    6.3221    1.0000 </r>
       <r>    6.4016    1.0000 </r>
       <r>    8.2300   -0.0026 </r>
       <r>    8.5899    0.0000 </r>
       <r>   13.4086    0.0000 </r>
       <r>   14.2659    0.0000 </r>
       <r>   14.1074    0.0000 </r>
       <r>   14.0429    0.0000 </r>
      </set>
     </set>
    </set>
   </array>
  </eigenvalues>
  <separator name="orbital magnetization" >
   <v name="MAGDIPOLOUT">      0.00000000      0.00000000      0.00000000</v>
  </separator>
  <dos>
   <i name="efermi">      7.53713479 </i>
   <total>
    <array>
     <dimension dim="1">gridpoints</dimension>
     <dimension dim="2">spin</dimension>
     <field>energy</field>
     <field>total</field>
     <field>integrated</field>
     <set>
      <set comment="spin 1">
       <r>    -3.9689     0.0000     0.0000 </r>
       <r>    -3.8928     0.0000     0.0000 </r>
       <r>    -3.8167     0.0000     0.0000 </r>
       <r>    -3.7406     0.0000     0.0000 </r>
       <r>    -3.6645     0.0000     0.0000 </r>
       <r>    -3.5883     0.0000     0.0000 </r>
       <r>    -3.5122     0.0000     0.0000 </r>
       <r>    -3.4361     0.0000     0.0000 </r>
       <r>    -3.3600     0.0000     0.0000 </r>
       <r>    -3.2839     0.0000     0.0000 </r>
       <r>    -3.2078     0.0000     0.0000 </r>
       <r>    -3.1316     0.0000     0.0000 </r>
       <r>    -3.0555     0.0000     0.0000 </r>
       <r>    -2.9794     0.0000     0.0000 </r>
       <r>    -2.9033     0.0000     0.0000 </r>
       <r>    -2.8272     0.0000     0.0000 </r>
       <r>    -2.7511     0.0000     0.0000 </r>
       <r>    -2.6749     0.0000     0.0000 </r>
       <r>    -2.5988     0.0000     0.0000 </r>
       <r>    -2.5227     0.0000     0.0000 </r>
       <r>    -2.4466     0.0000     0.0000 </r>
       <r>    -2.3705     0.0000     0.0000 </r>
       <r>    -2.2944     0.0000     0.0000 </r>
       <r>    -2.2182     0.0000     0.0000 </r>
       <r>    -2.1421     0.0000     0.0000 </r>
       <r>    -2.0660     0.0000     0.0000 </r>
       <r>    -1.9899     0.0000     0.0000 </r>
       <r>    -1.9138     0.0000     0.0000 </r>
       <r>    -1.8377     0.0000     0.0000 </r>
       <r>    -1.7615     0.0000     0.0000 </r>
       <r>    -1.6854    -0.0001     0.0000 </r>
       <r>    -1.6093    -0.0004     0.0000 </r>
       <r>    -1.5332    -0.0010    -0.0001 </r>
       <r>    -1.4571    -0.0023    -0.0003 </r>
       <r>    -1.3810    -0.0044    -0.0006 </r>
       <r>    -1.3048    -0.0068    -0.0011 </r>
       <r>    -1.2287    -0.0077    -0.0017 </r>
       <r>    -1.1526    -0.0037    -0.0020 </r>
       <r>    -1.0765     0.0096    -0.0013 </r>
       <r>    -1.0004     0.0358     0.0014 </r>
       <r>    -0.9243     0.0757     0.0072 </r>
       <r>    -0.8481     0.1260     0.0168 </r>
       <r>    -0.7720     0.1807     0.0306 </r>
       <r>    -0.6959     0.2339     0.0484 </r>
       <r>    -0.6198     0.2817     0.0698 </r>
       <r>    -0.5437     0.3232     0.0944 </r>
       <r>    -0.4676     0.3596     0.1218 </r>
       <r>    -0.3914     0.3927     0.1517 </r>
       <r>    -0.3153     0.4240     0.1839 </r>
       <r>    -0.2392     0.4546     0.2185 </r>
       <r>    -0.1631     0.4850     0.2555 </r>
       <r>    -0.0870     0.5155     0.2947 </r>
       <r>    -0.0109     0.5464     0.3363 </r>
       <r>     0.0653     0.5781     0.3803 </r>
       <r>     0.1414     0.6106     0.4268 </r>
       <r>     0.2175     0.6443     0.4758 </r>
       <r>     0.2936     0.6798     0.5275 </r>
       <r>     0.3697     0.7177     0.5822 </r>
       <r>     0.4458     0.7590     0.6399 </r>
       <r>     0.5220     0.8062     0.7013 </r>
       <r>     0.5981     0.8656     0.7672 </r>
       <r>     0.6742     0.9481     0.8394 </r>
       <r>     0.7503     1.0651     0.9204 </r>
       <r>     0.8264     1.2214     1.0134 </r>
       <r>     0.9025     1.4115     1.1208 </r>
       <r>     0.9787     1.6298     1.2449 </r>
       <r>     1.0548     1.8909     1.3888 </r>
       <r>     1.1309     2.2433     1.5596 </r>
       <r>     1.2070     2.7523     1.7691 </r>
       <r>     1.2831     3.4524     2.0319 </r>
       <r>     1.3592     4.3105     2.3600 </r>
       <r>     1.4354     5.2484     2.7595 </r>
       <r>     1.5115     6.2227     3.2331 </r>
       <r>     1.5876     7.2963     3.7885 </r>
       <r>     1.6637     8.6178     4.4444 </r>
       <r>     1.7398    10.2891     5.2276 </r>
       <r>     1.8159    12.1945     6.1558 </r>
       <r>     1.8920    13.9178     7.2152 </r>
       <r>     1.9682    14.8520     8.3457 </r>
       <r>     2.0443    14.4910     9.4487 </r>
       <r>     2.1204    12.7539    10.4194 </r>
       <r>     2.1965    10.1238    11.1900 </r>
       <r>     2.2726     7.4777    11.7592 </r>
       <r>     2.3487     5.6893    12.1923 </r>
       <r>     2.4249     5.2426    12.5913 </r>
       <r>     2.5010     6.0686    13.0532 </r>
       <r>     2.5771     7.6550    13.6359 </r>
       <r>     2.6532     9.3200    14.3453 </r>
       <r>     2.7293    10.4942    15.1441 </r>
       <r>     2.8054    10.8952    15.9734 </r>
       <r>     2.8816    10.5676    16.7778 </r>
       <r>     2.9577     9.8090    17.5244 </r>
       <r>     3.0338     9.0200    18.2110 </r>
       <r>     3.1099     8.5103    18.8587 </r>
       <r>     3.1860     8.3332    19.4930 </r>
       <r>     3.2621     8.2586    20.1216 </r>
       <r>     3.3383     7.9423    20.7262 </r>
       <r>     3.4144     7.2000    21.2742 </r>
       <r>     3.4905     6.1720    21.7440 </r>
       <r>     3.5666     5.2319    22.1423 </r>
       <r>     3.6427     4.7136    22.5010 </r>
       <r>     3.7188     4.6914    22.8581 </r>
       <r>     3.7950     4.9987    23.2386 </r>
       <r>     3.8711     5.4421    23.6528 </r>
       <r>     3.9472     5.9999    24.1095 </r>
       <r>     4.0233     6.8280    24.6293 </r>
       <r>     4.0994     8.0985    25.2457 </r>
       <r>     4.1755     9.8408    25.9947 </r>
       <r>     4.2517    11.9132    26.9015 </r>
       <r>     4.3278    14.0822    27.9734 </r>
       <r>     4.4039    16.1117    29.1998 </r>
       <r>     4.4800    17.8118    30.5555 </r>
       <r>     4.5561    19.0625    32.0065 </r>
       <r>     4.6322    19.8264    33.5156 </r>
       <r>     4.7084    20.1374    35.0484 </r>
       <r>     4.7845    20.0677    36.5759 </r>
       <r>     4.8606    19.7114    38.0762 </r>
       <r>     4.9367    19.2063    39.5382 </r>
       <r>     5.0128    18.7576    40.9659 </r>
       <r>     5.0889    18.6058    42.3821 </r>
       <r>     5.1651    18.9409    43.8238 </r>
       <r>     5.2412    19.8270    45.3330 </r>
       <r>     5.3173    21.1921    46.9461 </r>
       <r>     5.3934    22.8678    48.6867 </r>
       <r>     5.4695    24.6212    50.5608 </r>
       <r>     5.5456    26.1465    52.5509 </r>
       <r>     5.6218    27.0450    54.6095 </r>
       <r>     5.6979    26.8550    56.6536 </r>
       <r>     5.7740    25.1812    58.5703 </r>
       <r>     5.8501    21.9075    60.2378 </r>
       <r>     5.9262    17.3758    61.5604 </r>
       <r>     6.0023    12.3690    62.5019 </r>
       <r>     6.0785     7.8314    63.0980 </r>
       <r>     6.1546     4.4701    63.4383 </r>
       <r>     6.2307     2.4966    63.6283 </r>
       <r>     6.3068     1.6622    63.7548 </r>
       <r>     6.3829     1.5087    63.8696 </r>
       <r>     6.4590     1.6273    63.9935 </r>
       <r>     6.5352     1.7788    64.1289 </r>
       <r>     6.6113     1.8781    64.2719 </r>
       <r>     6.6874     1.9218    64.4181 </r>
       <r>     6.7635     1.9300    64.5650 </r>
       <r>     6.8396     1.9207    64.7112 </r>
       <r>     6.9157     1.9051    64.8563 </r>
       <r>     6.9919     1.8895    65.0001 </r>
       <r>     7.0680     1.8773    65.1430 </r>
       <r>     7.1441     1.8685    65.2852 </r>
       <r>     7.2202     1.8599    65.4268 </r>
       <r>     7.2963     1.8466    65.5673 </r>
       <r>     7.3724     1.8254    65.7063 </r>
       <r>     7.4486     1.7985    65.8431 </r>
       <r>     7.5247     1.7724    65.9781 </r>
       <r>     7.6008     1.7533    66.1115 </r>
       <r>     7.6769     1.7419    66.2441 </r>
       <r>     7.7530     1.7349    66.3762 </r>
       <r>     7.8291     1.7300    66.5078 </r>
       <r>     7.9052     1.7271    66.6393 </r>
       <r>     7.9814     1.7248    66.7706 </r>
       <r>     8.0575     1.7179    66.9013 </r>
       <r>     8.1336     1.7006    67.0308 </r>
       <r>     8.2097     1.6727    67.1581 </r>
       <r>     8.2858     1.6413    67.2830 </r>
       <r>     8.3619     1.6151    67.4060 </r>
       <r>     8.4381     1.5981    67.5276 </r>
       <r>     8.5142     1.5892    67.6486 </r>
       <r>     8.5903     1.5857    67.7693 </r>
       <r>     8.6664     1.5869    67.8901 </r>
       <r>     8.7425     1.5923    68.0113 </r>
       <r>     8.8186     1.5998    68.1330 </r>
       <r>     8.8948     1.6061    68.2553 </r>
       <r>     8.9709     1.6081    68.3777 </r>
       <r>     9.0470     1.6035    68.4997 </r>
       <r>     9.1231     1.5912    68.6209 </r>
       <r>     9.1992     1.5724    68.7405 </r>
       <r>     9.2753     1.5517    68.8586 </r>
       <r>     9.3515     1.5349    68.9755 </r>
       <r>     9.4276     1.5250    69.0916 </r>
       <r>     9.5037     1.5186    69.2071 </r>
       <r>     9.5798     1.5083    69.3220 </r>
       <r>     9.6559     1.4868    69.4351 </r>
       <r>     9.7320     1.4524    69.5457 </r>
       <r>     9.8082     1.4101    69.6530 </r>
       <r>     9.8843     1.3698    69.7573 </r>
       <r>     9.9604     1.3404    69.8593 </r>
       <r>    10.0365     1.3241    69.9601 </r>
       <r>    10.1126     1.3140    70.0601 </r>
       <r>    10.1887     1.2991    70.1590 </r>
       <r>    10.2649     1.2717    70.2558 </r>
       <r>    10.3410     1.2318    70.3495 </r>
       <r>    10.4171     1.1837    70.4396 </r>
       <r>    10.4932     1.1322    70.5258 </r>
       <r>    10.5693     1.0820    70.6082 </r>
       <r>    10.6454     1.0422    70.6875 </r>
       <r>    10.7216     1.0288    70.7658 </r>
       <r>    10.7977     1.0608    70.8466 </r>
       <r>    10.8738     1.1486    70.9340 </r>
       <r>    10.9499     1.2833    71.0317 </r>
       <r>    11.0260     1.4369    71.1410 </r>
       <r>    11.1021     1.5756    71.2610 </r>
       <r>    11.1783     1.6771    71.3886 </r>
       <r>    11.2544     1.7392    71.5210 </r>
       <r>    11.3305     1.7741    71.6560 </r>
       <r>    11.4066     1.7950    71.7927 </r>
       <r>    11.4827     1.8077    71.9303 </r>
       <r>    11.5588     1.8126    72.0682 </r>
       <r>    11.6350     1.8117    72.2061 </r>
       <r>    11.7111     1.8115    72.3440 </r>
       <r>    11.7872     1.8193    72.4825 </r>
       <r>    11.8633     1.8371    72.6223 </r>
       <r>    11.9394     1.8584    72.7638 </r>
       <r>    12.0155     1.8718    72.9063 </r>
       <r>    12.0917     1.8676    73.0484 </r>
       <r>    12.1678     1.8434    73.1887 </r>
       <r>    12.2439     1.8050    73.3261 </r>
       <r>    12.3200     1.7627    73.4603 </r>
       <r>    12.3961     1.7274    73.5918 </r>
       <r>    12.4722     1.7060    73.7216 </r>
       <r>    12.5484     1.7003    73.8511 </r>
       <r>    12.6245     1.7075    73.9810 </r>
       <r>    12.7006     1.7211    74.1120 </r>
       <r>    12.7767     1.7336    74.2440 </r>
       <r>    12.8528     1.7368    74.3762 </r>
       <r>    12.9289     1.7243    74.5074 </r>
       <r>    13.0051     1.6938    74.6364 </r>
       <r>    13.0812     1.6504    74.7620 </r>
       <r>    13.1573     1.6050    74.8841 </r>
       <r>    13.2334     1.5718    75.0038 </r>
       <r>    13.3095     1.5628    75.1227 </r>
       <r>    13.3856     1.5866    75.2435 </r>
       <r>    13.4617     1.6464    75.3688 </r>
       <r>    13.5379     1.7374    75.5011 </r>
       <r>    13.6140     1.8423    75.6413 </r>
       <r>    13.6901     1.9330    75.7884 </r>
       <r>    13.7662     1.9808    75.9392 </r>
       <r>    13.8423     1.9721    76.0893 </r>
       <r>    13.9184     1.9165    76.2352 </r>
       <r>    13.9946     1.8405    76.3753 </r>
       <r>    14.0707     1.7741    76.5103 </r>
       <r>    14.1468     1.7384    76.6426 </r>
       <r>    14.2229     1.7420    76.7752 </r>
       <r>    14.2990     1.7825    76.9109 </r>
       <r>    14.3751     1.8513    77.0518 </r>
       <r>    14.4513     1.9358    77.1992 </r>
       <r>    14.5274     2.0215    77.3531 </r>
       <r>    14.6035     2.0934    77.5124 </r>
       <r>    14.6796     2.1396    77.6752 </r>
       <r>    14.7557     2.1559    77.8393 </r>
       <r>    14.8318     2.1471    78.0028 </r>
       <r>    14.9080     2.1226    78.1643 </r>
       <r>    14.9841     2.0900    78.3234 </r>
       <r>    15.0602     2.0525    78.4797 </r>
       <r>    15.1363     2.0122    78.6328 </r>
       <r>    15.2124     1.9768    78.7833 </r>
       <r>    15.2885     1.9612    78.9326 </r>
       <r>    15.3647     1.9809    79.0833 </r>
       <r>    15.4408     2.0366    79.2384 </r>
       <r>    15.5169     2.0983    79.3981 </r>
       <r>    15.5930     2.1020    79.5581 </r>
       <r>    15.6691     1.9735    79.7083 </r>
       <r>    15.7452     1.6740    79.8357 </r>
       <r>    15.8214     1.2364    79.9298 </r>
       <r>    15.8975     0.7578    79.9875 </r>
       <r>    15.9736     0.3492    80.0141 </r>
       <r>    16.0497     0.0788    80.0201 </r>
       <r>    16.1258    -0.0504    80.0162 </r>
       <r>    16.2019    -0.0807    80.0101 </r>
       <r>    16.2781    -0.0645    80.0052 </r>
       <r>    16.3542    -0.0384    80.0023 </r>
       <r>    16.4303    -0.0186    80.0009 </r>
       <r>    16.5064    -0.0076    80.0003 </r>
       <r>    16.5825    -0.0026    80.0001 </r>
       <r>    16.6586    -0.0008    80.0000 </r>
       <r>    16.7348    -0.0002    80.0000 </r>
       <r>    16.8109     0.0000    80.0000 </r>
       <r>    16.8870     0.0000    80.0000 </r>
       <r>    16.9631     0.0000    80.0000 </r>
       <r>    17.0392     0.0000    80.0000 </r>
       <r>    17.1153     0.0000    80.0000 </r>
       <r>    17.1915     0.0000    80.0000 </r>
       <r>    17.2676     0.0000    80.0000 </r>
       <r>    17.3437     0.0000    80.0000 </r>
       <r>    17.4198     0.0000    80.0000 </r>
       <r>    17.4959     0.0000    80.0000 </r>
       <r>    17.5720     0.0000    80.0000 </r>
       <r>    17.6482     0.0000    80.0000 </r>
       <r>    17.7243     0.0000    80.0000 </r>
       <r>    17.8004     0.0000    80.0000 </r>
       <r>    17.8765     0.0000    80.0000 </r>
       <r>    17.9526     0.0000    80.0000 </r>
       <r>    18.0287     0.0000    80.0000 </r>
       <r>    18.1049     0.0000    80.0000 </r>
       <r>    18.1810     0.0000    80.0000 </r>
       <r>    18.2571     0.0000    80.0000 </r>
       <r>    18.3332     0.0000    80.0000 </r>
       <r>    18.4093     0.0000    80.0000 </r>
       <r>    18.4854     0.0000    80.0000 </r>
       <r>    18.5616     0.0000    80.0000 </r>
       <r>    18.6377     0.0000    80.0000 </r>
       <r>    18.7138     0.0000    80.0000 </r>
       <r>    18.7899     0.0000    80.0000 </r>
       <r>    18.8660     0.0000    80.0000 </r>
      </set>
     </set>
    </array>
   </total>
  </dos>
 </calculation>
 <structure name="finalpos" >
  <crystal>
   <varray name="basis" >
    <v>      -1.87472990      -3.79467516      -1.87472990 </v>
    <v>      -3.86546168       1.92646968       1.93222716 </v>
    <v>       1.93222716       1.92646968      -3.86546168 </v>
   </varray>
   <i name="volume">     84.40981381 </i>
   <varray name="rec_basis" >
    <v>      -0.13231959      -0.13278423      -0.13231959 </v>
    <v>      -0.21655991       0.12876584      -0.04407739 </v>
    <v>      -0.04407739       0.12876584      -0.21655991 </v>
   </varray>
  </crystal>
  <varray name="positions" >
   <v>       0.50000000       0.83333333       0.16666667 </v>
   <v>       0.50000000       0.49053519       0.50946481 </v>
   <v>       0.00000000       0.33333333       0.66666667 </v>
   <v>       0.50000000       0.17613148       0.82386852 </v>
   <v>       0.00000000       0.00063009       0.99936991 </v>
   <v>       0.00000000       0.66603658       0.33396342 </v>
  </varray>
 </structure>
</modeling>
