<?xml version="1.0" encoding="ISO-8859-1"?>
<modeling>
 <generator>
  <i name="program" type="string">vasp </i>
  <i name="version" type="string">5.3.5  </i>
  <i name="subversion" type="string">31Mar14 (build Jun 20 2014 13:15:13) complex                          parallel </i>
  <i name="platform" type="string">LinuxIFC </i>
  <i name="date" type="string">2025 11 26 </i>
  <i name="time" type="string">16:48:21 </i>
 </generator>
 <incar>
  <i type="string" name="PREC">accurate</i>
  <i type="int" name="IALGO">    68</i>
  <i type="logical" name="ADDGRID"> T  </i>
  <i type="int" name="NELM">   200</i>
  <i type="int" name="NELMIN">     4</i>
  <i type="int" name="IBRION">     2</i>
  <i name="EDIFF">      0.00000100</i>
  <i name="EDIFFG">     -0.02000000</i>
  <i type="int" name="NSW">    30</i>
  <i type="int" name="ISIF">     3</i>
  <i name="ENCUT">    500.00000000</i>
  <i type="logical" name="LREAL"> F  </i>
  <i type="int" name="ISMEAR">     1</i>
  <i name="SIGMA">      0.30000000</i>
  <i type="logical" name="LWAVE"> F  </i>
  <i type="logical" name="LCHARG"> F  </i>
  <i type="int" name="NELM">   200</i>
 </incar>
 <kpoints>
  <generation param="Auto">
   <i name="subdivisionlength">     70.00000000 </i>
   <v type="int" name="divisions">      28       28       10 </v>
   <v name="usershift">      0.00000000       0.00000000       0.00000000 </v>
   <v name="genvec1">      0.03571429       0.00000000       0.00000000 </v>
   <v name="genvec2">      0.00000000       0.03571429       0.00000000 </v>
   <v name="genvec3">      0.00000000       0.00000000       0.10000000 </v>
   <v name="shift">      0.00000000       0.00000000       0.00000000 </v>
  </generation>
  <varray name="kpointlist" >
   <v>       0.00000000       0.00000000       0.00000000 </v>
   <v>       0.03571429       0.00000000       0.00000000 </v>
   <v>       0.07142857       0.00000000       0.00000000 </v>
   <v>       0.10714286       0.00000000       0.00000000 </v>
   <v>       0.14285714       0.00000000       0.00000000 </v>
   <v>       0.17857143       0.00000000       0.00000000 </v>
   <v>       0.21428571       0.00000000       0.00000000 </v>
   <v>       0.25000000       0.00000000       0.00000000 </v>
   <v>       0.28571429       0.00000000       0.00000000 </v>
   <v>       0.32142857       0.00000000       0.00000000 </v>
   <v>       0.35714286       0.00000000       0.00000000 </v>
   <v>       0.39285714       0.00000000       0.00000000 </v>
   <v>       0.42857143       0.00000000       0.00000000 </v>
   <v>       0.46428571       0.00000000       0.00000000 </v>
   <v>       0.50000000       0.00000000       0.00000000 </v>
   <v>       0.03571429       0.03571429       0.00000000 </v>
   <v>       0.07142857       0.03571429       0.00000000 </v>
   <v>       0.10714286       0.03571429       0.00000000 </v>
   <v>       0.14285714       0.03571429       0.00000000 </v>
   <v>       0.17857143       0.03571429       0.00000000 </v>
   <v>       0.21428571       0.03571429       0.00000000 </v>
   <v>       0.25000000       0.03571429       0.00000000 </v>
   <v>       0.28571429       0.03571429       0.00000000 </v>
   <v>       0.32142857       0.03571429       0.00000000 </v>
   <v>       0.35714286       0.03571429       0.00000000 </v>
   <v>       0.39285714       0.03571429       0.00000000 </v>
   <v>       0.42857143       0.03571429       0.00000000 </v>
   <v>       0.46428571       0.03571429       0.00000000 </v>
   <v>       0.07142857       0.07142857       0.00000000 </v>
   <v>       0.10714286       0.07142857       0.00000000 </v>
   <v>       0.14285714       0.07142857       0.00000000 </v>
   <v>       0.17857143       0.07142857       0.00000000 </v>
   <v>       0.21428571       0.07142857       0.00000000 </v>
   <v>       0.25000000       0.07142857       0.00000000 </v>
   <v>       0.28571429       0.07142857       0.00000000 </v>
   <v>       0.32142857       0.07142857       0.00000000 </v>
   <v>       0.35714286       0.07142857       0.00000000 </v>
   <v>       0.39285714       0.07142857       0.00000000 </v>
   <v>       0.42857143       0.07142857       0.00000000 </v>
   <v>       0.46428571       0.07142857       0.00000000 </v>
   <v>       0.10714286       0.10714286       0.00000000 </v>
   <v>       0.14285714       0.10714286       0.00000000 </v>
   <v>       0.17857143       0.10714286       0.00000000 </v>
   <v>       0.21428571       0.10714286       0.00000000 </v>
   <v>       0.25000000       0.10714286       0.00000000 </v>
   <v>       0.28571429       0.10714286       0.00000000 </v>
   <v>       0.32142857       0.10714286       0.00000000 </v>
   <v>       0.35714286       0.10714286       0.00000000 </v>
   <v>       0.39285714       0.10714286       0.00000000 </v>
   <v>       0.42857143       0.10714286       0.00000000 </v>
   <v>       0.14285714       0.14285714       0.00000000 </v>
   <v>       0.17857143       0.14285714       0.00000000 </v>
   <v>       0.21428571       0.14285714       0.00000000 </v>
   <v>       0.25000000       0.14285714       0.00000000 </v>
   <v>       0.28571429       0.14285714       0.00000000 </v>
   <v>       0.32142857       0.14285714       0.00000000 </v>
   <v>       0.35714286       0.14285714       0.00000000 </v>
   <v>       0.39285714       0.14285714       0.00000000 </v>
   <v>       0.42857143       0.14285714       0.00000000 </v>
   <v>       0.17857143       0.17857143       0.00000000 </v>
   <v>       0.21428571       0.17857143       0.00000000 </v>
   <v>       0.25000000       0.17857143       0.00000000 </v>
   <v>       0.28571429       0.17857143       0.00000000 </v>
   <v>       0.32142857       0.17857143       0.00000000 </v>
   <v>       0.35714286       0.17857143       0.00000000 </v>
   <v>       0.39285714       0.17857143       0.00000000 </v>
   <v>       0.21428571       0.21428571       0.00000000 </v>
   <v>       0.25000000       0.21428571       0.00000000 </v>
   <v>       0.28571429       0.21428571       0.00000000 </v>
   <v>       0.32142857       0.21428571       0.00000000 </v>
   <v>       0.35714286       0.21428571       0.00000000 </v>
   <v>       0.39285714       0.21428571       0.00000000 </v>
   <v>       0.25000000       0.25000000       0.00000000 </v>
   <v>       0.28571429       0.25000000       0.00000000 </v>
   <v>       0.32142857       0.25000000       0.00000000 </v>
   <v>       0.35714286       0.25000000       0.00000000 </v>
   <v>       0.28571429       0.28571429       0.00000000 </v>
   <v>       0.32142857       0.28571429       0.00000000 </v>
   <v>       0.35714286       0.28571429       0.00000000 </v>
   <v>       0.32142857       0.32142857       0.00000000 </v>
   <v>       0.00000000       0.00000000       0.10000000 </v>
   <v>       0.03571429       0.00000000       0.10000000 </v>
   <v>       0.07142857       0.00000000       0.10000000 </v>
   <v>       0.10714286       0.00000000       0.10000000 </v>
   <v>       0.14285714       0.00000000       0.10000000 </v>
   <v>       0.17857143       0.00000000       0.10000000 </v>
   <v>       0.21428571       0.00000000       0.10000000 </v>
   <v>       0.25000000       0.00000000       0.10000000 </v>
   <v>       0.28571429       0.00000000       0.10000000 </v>
   <v>       0.32142857       0.00000000       0.10000000 </v>
   <v>       0.35714286       0.00000000       0.10000000 </v>
   <v>       0.39285714       0.00000000       0.10000000 </v>
   <v>       0.42857143       0.00000000       0.10000000 </v>
   <v>       0.46428571       0.00000000       0.10000000 </v>
   <v>       0.50000000       0.00000000       0.10000000 </v>
   <v>      -0.46428571       0.00000000       0.10000000 </v>
   <v>      -0.42857143       0.00000000       0.10000000 </v>
   <v>      -0.39285714       0.00000000       0.10000000 </v>
   <v>      -0.35714286       0.00000000       0.10000000 </v>
   <v>      -0.32142857       0.00000000       0.10000000 </v>
   <v>      -0.28571429       0.00000000       0.10000000 </v>
   <v>      -0.25000000       0.00000000       0.10000000 </v>
   <v>      -0.21428571       0.00000000       0.10000000 </v>
   <v>      -0.17857143       0.00000000       0.10000000 </v>
   <v>      -0.14285714       0.00000000       0.10000000 </v>
   <v>      -0.10714286       0.00000000       0.10000000 </v>
   <v>      -0.07142857       0.00000000       0.10000000 </v>
   <v>      -0.03571429       0.00000000       0.10000000 </v>
   <v>       0.03571429       0.03571429       0.10000000 </v>
   <v>       0.07142857       0.03571429       0.10000000 </v>
   <v>       0.10714286       0.03571429       0.10000000 </v>
   <v>       0.14285714       0.03571429       0.10000000 </v>
   <v>       0.17857143       0.03571429       0.10000000 </v>
   <v>       0.21428571       0.03571429       0.10000000 </v>
   <v>       0.25000000       0.03571429       0.10000000 </v>
   <v>       0.28571429       0.03571429       0.10000000 </v>
   <v>       0.32142857       0.03571429       0.10000000 </v>
   <v>       0.35714286       0.03571429       0.10000000 </v>
   <v>       0.39285714       0.03571429       0.10000000 </v>
   <v>       0.42857143       0.03571429       0.10000000 </v>
   <v>       0.46428571       0.03571429       0.10000000 </v>
   <v>       0.50000000       0.03571429       0.10000000 </v>
   <v>      -0.46428571       0.03571429       0.10000000 </v>
   <v>      -0.42857143       0.03571429       0.10000000 </v>
   <v>      -0.39285714       0.03571429       0.10000000 </v>
   <v>      -0.35714286       0.03571429       0.10000000 </v>
   <v>      -0.32142857       0.03571429       0.10000000 </v>
   <v>      -0.28571429       0.03571429       0.10000000 </v>
   <v>      -0.25000000       0.03571429       0.10000000 </v>
   <v>      -0.21428571       0.03571429       0.10000000 </v>
   <v>      -0.17857143       0.03571429       0.10000000 </v>
   <v>      -0.14285714       0.03571429       0.10000000 </v>
   <v>      -0.10714286       0.03571429       0.10000000 </v>
   <v>       0.07142857       0.07142857       0.10000000 </v>
   <v>       0.10714286       0.07142857       0.10000000 </v>
   <v>       0.14285714       0.07142857       0.10000000 </v>
   <v>       0.17857143       0.07142857       0.10000000 </v>
   <v>       0.21428571       0.07142857       0.10000000 </v>
   <v>       0.25000000       0.07142857       0.10000000 </v>
   <v>       0.28571429       0.07142857       0.10000000 </v>
   <v>       0.32142857       0.07142857       0.10000000 </v>
   <v>       0.35714286       0.07142857       0.10000000 </v>
   <v>       0.39285714       0.07142857       0.10000000 </v>
   <v>       0.42857143       0.07142857       0.10000000 </v>
   <v>       0.46428571       0.07142857       0.10000000 </v>
   <v>       0.50000000       0.07142857       0.10000000 </v>
   <v>      -0.46428571       0.07142857       0.10000000 </v>
   <v>      -0.42857143       0.07142857       0.10000000 </v>
   <v>      -0.39285714       0.07142857       0.10000000 </v>
   <v>      -0.35714286       0.07142857       0.10000000 </v>
   <v>      -0.32142857       0.07142857       0.10000000 </v>
   <v>      -0.28571429       0.07142857       0.10000000 </v>
   <v>      -0.25000000       0.07142857       0.10000000 </v>
   <v>      -0.21428571       0.07142857       0.10000000 </v>
   <v>      -0.17857143       0.07142857       0.10000000 </v>
   <v>       0.10714286       0.10714286       0.10000000 </v>
   <v>       0.14285714       0.10714286       0.10000000 </v>
   <v>       0.17857143       0.10714286       0.10000000 </v>
   <v>       0.21428571       0.10714286       0.10000000 </v>
   <v>       0.25000000       0.10714286       0.10000000 </v>
   <v>       0.28571429       0.10714286       0.10000000 </v>
   <v>       0.32142857       0.10714286       0.10000000 </v>
   <v>       0.35714286       0.10714286       0.10000000 </v>
   <v>       0.39285714       0.10714286       0.10000000 </v>
   <v>       0.42857143       0.10714286       0.10000000 </v>
   <v>       0.46428571       0.10714286       0.10000000 </v>
   <v>       0.50000000       0.10714286       0.10000000 </v>
   <v>      -0.46428571       0.10714286       0.10000000 </v>
   <v>      -0.42857143       0.10714286       0.10000000 </v>
   <v>      -0.39285714       0.10714286       0.10000000 </v>
   <v>      -0.35714286       0.10714286       0.10000000 </v>
   <v>      -0.32142857       0.10714286       0.10000000 </v>
   <v>      -0.28571429       0.10714286       0.10000000 </v>
   <v>      -0.25000000       0.10714286       0.10000000 </v>
   <v>       0.14285714       0.14285714       0.10000000 </v>
   <v>       0.17857143       0.14285714       0.10000000 </v>
   <v>       0.21428571       0.14285714       0.10000000 </v>
   <v>       0.25000000       0.14285714       0.10000000 </v>
   <v>       0.28571429       0.14285714       0.10000000 </v>
   <v>       0.32142857       0.14285714       0.10000000 </v>
   <v>       0.35714286       0.14285714       0.10000000 </v>
   <v>       0.39285714       0.14285714       0.10000000 </v>
   <v>       0.42857143       0.14285714       0.10000000 </v>
   <v>       0.46428571       0.14285714       0.10000000 </v>
   <v>       0.50000000       0.14285714       0.10000000 </v>
   <v>      -0.46428571       0.14285714       0.10000000 </v>
   <v>      -0.42857143       0.14285714       0.10000000 </v>
   <v>      -0.39285714       0.14285714       0.10000000 </v>
   <v>      -0.35714286       0.14285714       0.10000000 </v>
   <v>      -0.32142857       0.14285714       0.10000000 </v>
   <v>       0.17857143       0.17857143       0.10000000 </v>
   <v>       0.21428571       0.17857143       0.10000000 </v>
   <v>       0.25000000       0.17857143       0.10000000 </v>
   <v>       0.28571429       0.17857143       0.10000000 </v>
   <v>       0.32142857       0.17857143       0.10000000 </v>
   <v>       0.35714286       0.17857143       0.10000000 </v>
   <v>       0.39285714       0.17857143       0.10000000 </v>
   <v>       0.42857143       0.17857143       0.10000000 </v>
   <v>       0.46428571       0.17857143       0.10000000 </v>
   <v>       0.50000000       0.17857143       0.10000000 </v>
   <v>      -0.46428571       0.17857143       0.10000000 </v>
   <v>      -0.42857143       0.17857143       0.10000000 </v>
   <v>      -0.39285714       0.17857143       0.10000000 </v>
   <v>       0.21428571       0.21428571       0.10000000 </v>
   <v>       0.25000000       0.21428571       0.10000000 </v>
   <v>       0.28571429       0.21428571       0.10000000 </v>
   <v>       0.32142857       0.21428571       0.10000000 </v>
   <v>       0.35714286       0.21428571       0.10000000 </v>
   <v>       0.39285714       0.21428571       0.10000000 </v>
   <v>       0.42857143       0.21428571       0.10000000 </v>
   <v>       0.46428571       0.21428571       0.10000000 </v>
   <v>       0.50000000       0.21428571       0.10000000 </v>
   <v>      -0.46428571       0.21428571       0.10000000 </v>
   <v>       0.25000000       0.25000000       0.10000000 </v>
   <v>       0.28571429       0.25000000       0.10000000 </v>
   <v>       0.32142857       0.25000000       0.10000000 </v>
   <v>       0.35714286       0.25000000       0.10000000 </v>
   <v>       0.39285714       0.25000000       0.10000000 </v>
   <v>       0.42857143       0.25000000       0.10000000 </v>
   <v>       0.46428571       0.25000000       0.10000000 </v>
   <v>       0.28571429       0.28571429       0.10000000 </v>
   <v>       0.32142857       0.28571429       0.10000000 </v>
   <v>       0.35714286       0.28571429       0.10000000 </v>
   <v>       0.39285714       0.28571429       0.10000000 </v>
   <v>       0.32142857       0.32142857       0.10000000 </v>
   <v>       0.00000000       0.00000000       0.20000000 </v>
   <v>       0.03571429       0.00000000       0.20000000 </v>
   <v>       0.07142857       0.00000000       0.20000000 </v>
   <v>       0.10714286       0.00000000       0.20000000 </v>
   <v>       0.14285714       0.00000000       0.20000000 </v>
   <v>       0.17857143       0.00000000       0.20000000 </v>
   <v>       0.21428571       0.00000000       0.20000000 </v>
   <v>       0.25000000       0.00000000       0.20000000 </v>
   <v>       0.28571429       0.00000000       0.20000000 </v>
   <v>       0.32142857       0.00000000       0.20000000 </v>
   <v>       0.35714286       0.00000000       0.20000000 </v>
   <v>       0.39285714       0.00000000       0.20000000 </v>
   <v>       0.42857143       0.00000000       0.20000000 </v>
   <v>       0.46428571       0.00000000       0.20000000 </v>
   <v>       0.50000000       0.00000000       0.20000000 </v>
   <v>      -0.46428571       0.00000000       0.20000000 </v>
   <v>      -0.42857143       0.00000000       0.20000000 </v>
   <v>      -0.39285714       0.00000000       0.20000000 </v>
   <v>      -0.35714286       0.00000000       0.20000000 </v>
   <v>      -0.32142857       0.00000000       0.20000000 </v>
   <v>      -0.28571429       0.00000000       0.20000000 </v>
   <v>      -0.25000000       0.00000000       0.20000000 </v>
   <v>      -0.21428571       0.00000000       0.20000000 </v>
   <v>      -0.17857143       0.00000000       0.20000000 </v>
   <v>      -0.14285714       0.00000000       0.20000000 </v>
   <v>      -0.10714286       0.00000000       0.20000000 </v>
   <v>      -0.07142857       0.00000000       0.20000000 </v>
   <v>      -0.03571429       0.00000000       0.20000000 </v>
   <v>       0.03571429       0.03571429       0.20000000 </v>
   <v>       0.07142857       0.03571429       0.20000000 </v>
   <v>       0.10714286       0.03571429       0.20000000 </v>
   <v>       0.14285714       0.03571429       0.20000000 </v>
   <v>       0.17857143       0.03571429       0.20000000 </v>
   <v>       0.21428571       0.03571429       0.20000000 </v>
   <v>       0.25000000       0.03571429       0.20000000 </v>
   <v>       0.28571429       0.03571429       0.20000000 </v>
   <v>       0.32142857       0.03571429       0.20000000 </v>
   <v>       0.35714286       0.03571429       0.20000000 </v>
   <v>       0.39285714       0.03571429       0.20000000 </v>
   <v>       0.42857143       0.03571429       0.20000000 </v>
   <v>       0.46428571       0.03571429       0.20000000 </v>
   <v>       0.50000000       0.03571429       0.20000000 </v>
   <v>      -0.46428571       0.03571429       0.20000000 </v>
   <v>      -0.42857143       0.03571429       0.20000000 </v>
   <v>      -0.39285714       0.03571429       0.20000000 </v>
   <v>      -0.35714286       0.03571429       0.20000000 </v>
   <v>      -0.32142857       0.03571429       0.20000000 </v>
   <v>      -0.28571429       0.03571429       0.20000000 </v>
   <v>      -0.25000000       0.03571429       0.20000000 </v>
   <v>      -0.21428571       0.03571429       0.20000000 </v>
   <v>      -0.17857143       0.03571429       0.20000000 </v>
   <v>      -0.14285714       0.03571429       0.20000000 </v>
   <v>      -0.10714286       0.03571429       0.20000000 </v>
   <v>       0.07142857       0.07142857       0.20000000 </v>
   <v>       0.10714286       0.07142857       0.20000000 </v>
   <v>       0.14285714       0.07142857       0.20000000 </v>
   <v>       0.17857143       0.07142857       0.20000000 </v>
   <v>       0.21428571       0.07142857       0.20000000 </v>
   <v>       0.25000000       0.07142857       0.20000000 </v>
   <v>       0.28571429       0.07142857       0.20000000 </v>
   <v>       0.32142857       0.07142857       0.20000000 </v>
   <v>       0.35714286       0.07142857       0.20000000 </v>
   <v>       0.39285714       0.07142857       0.20000000 </v>
   <v>       0.42857143       0.07142857       0.20000000 </v>
   <v>       0.46428571       0.07142857       0.20000000 </v>
   <v>       0.50000000       0.07142857       0.20000000 </v>
   <v>      -0.46428571       0.07142857       0.20000000 </v>
   <v>      -0.42857143       0.07142857       0.20000000 </v>
   <v>      -0.39285714       0.07142857       0.20000000 </v>
   <v>      -0.35714286       0.07142857       0.20000000 </v>
   <v>      -0.32142857       0.07142857       0.20000000 </v>
   <v>      -0.28571429       0.07142857       0.20000000 </v>
   <v>      -0.25000000       0.07142857       0.20000000 </v>
   <v>      -0.21428571       0.07142857       0.20000000 </v>
   <v>      -0.17857143       0.07142857       0.20000000 </v>
   <v>       0.10714286       0.10714286       0.20000000 </v>
   <v>       0.14285714       0.10714286       0.20000000 </v>
   <v>       0.17857143       0.10714286       0.20000000 </v>
   <v>       0.21428571       0.10714286       0.20000000 </v>
   <v>       0.25000000       0.10714286       0.20000000 </v>
   <v>       0.28571429       0.10714286       0.20000000 </v>
   <v>       0.32142857       0.10714286       0.20000000 </v>
   <v>       0.35714286       0.10714286       0.20000000 </v>
   <v>       0.39285714       0.10714286       0.20000000 </v>
   <v>       0.42857143       0.10714286       0.20000000 </v>
   <v>       0.46428571       0.10714286       0.20000000 </v>
   <v>       0.50000000       0.10714286       0.20000000 </v>
   <v>      -0.46428571       0.10714286       0.20000000 </v>
   <v>      -0.42857143       0.10714286       0.20000000 </v>
   <v>      -0.39285714       0.10714286       0.20000000 </v>
   <v>      -0.35714286       0.10714286       0.20000000 </v>
   <v>      -0.32142857       0.10714286       0.20000000 </v>
   <v>      -0.28571429       0.10714286       0.20000000 </v>
   <v>      -0.25000000       0.10714286       0.20000000 </v>
   <v>       0.14285714       0.14285714       0.20000000 </v>
   <v>       0.17857143       0.14285714       0.20000000 </v>
   <v>       0.21428571       0.14285714       0.20000000 </v>
   <v>       0.25000000       0.14285714       0.20000000 </v>
   <v>       0.28571429       0.14285714       0.20000000 </v>
   <v>       0.32142857       0.14285714       0.20000000 </v>
   <v>       0.35714286       0.14285714       0.20000000 </v>
   <v>       0.39285714       0.14285714       0.20000000 </v>
   <v>       0.42857143       0.14285714       0.20000000 </v>
   <v>       0.46428571       0.14285714       0.20000000 </v>
   <v>       0.50000000       0.14285714       0.20000000 </v>
   <v>      -0.46428571       0.14285714       0.20000000 </v>
   <v>      -0.42857143       0.14285714       0.20000000 </v>
   <v>      -0.39285714       0.14285714       0.20000000 </v>
   <v>      -0.35714286       0.14285714       0.20000000 </v>
   <v>      -0.32142857       0.14285714       0.20000000 </v>
   <v>       0.17857143       0.17857143       0.20000000 </v>
   <v>       0.21428571       0.17857143       0.20000000 </v>
   <v>       0.25000000       0.17857143       0.20000000 </v>
   <v>       0.28571429       0.17857143       0.20000000 </v>
   <v>       0.32142857       0.17857143       0.20000000 </v>
   <v>       0.35714286       0.17857143       0.20000000 </v>
   <v>       0.39285714       0.17857143       0.20000000 </v>
   <v>       0.42857143       0.17857143       0.20000000 </v>
   <v>       0.46428571       0.17857143       0.20000000 </v>
   <v>       0.50000000       0.17857143       0.20000000 </v>
   <v>      -0.46428571       0.17857143       0.20000000 </v>
   <v>      -0.42857143       0.17857143       0.20000000 </v>
   <v>      -0.39285714       0.17857143       0.20000000 </v>
   <v>       0.21428571       0.21428571       0.20000000 </v>
   <v>       0.25000000       0.21428571       0.20000000 </v>
   <v>       0.28571429       0.21428571       0.20000000 </v>
   <v>       0.32142857       0.21428571       0.20000000 </v>
   <v>       0.35714286       0.21428571       0.20000000 </v>
   <v>       0.39285714       0.21428571       0.20000000 </v>
   <v>       0.42857143       0.21428571       0.20000000 </v>
   <v>       0.46428571       0.21428571       0.20000000 </v>
   <v>       0.50000000       0.21428571       0.20000000 </v>
   <v>      -0.46428571       0.21428571       0.20000000 </v>
   <v>       0.25000000       0.25000000       0.20000000 </v>
   <v>       0.28571429       0.25000000       0.20000000 </v>
   <v>       0.32142857       0.25000000       0.20000000 </v>
   <v>       0.35714286       0.25000000       0.20000000 </v>
   <v>       0.39285714       0.25000000       0.20000000 </v>
   <v>       0.42857143       0.25000000       0.20000000 </v>
   <v>       0.46428571       0.25000000       0.20000000 </v>
   <v>       0.28571429       0.28571429       0.20000000 </v>
   <v>       0.32142857       0.28571429       0.20000000 </v>
   <v>       0.35714286       0.28571429       0.20000000 </v>
   <v>       0.39285714       0.28571429       0.20000000 </v>
   <v>       0.32142857       0.32142857       0.20000000 </v>
   <v>       0.00000000       0.00000000       0.30000000 </v>
   <v>       0.03571429       0.00000000       0.30000000 </v>
   <v>       0.07142857       0.00000000       0.30000000 </v>
   <v>       0.10714286       0.00000000       0.30000000 </v>
   <v>       0.14285714       0.00000000       0.30000000 </v>
   <v>       0.17857143       0.00000000       0.30000000 </v>
   <v>       0.21428571       0.00000000       0.30000000 </v>
   <v>       0.25000000       0.00000000       0.30000000 </v>
   <v>       0.28571429       0.00000000       0.30000000 </v>
   <v>       0.32142857       0.00000000       0.30000000 </v>
   <v>       0.35714286       0.00000000       0.30000000 </v>
   <v>       0.39285714       0.00000000       0.30000000 </v>
   <v>       0.42857143       0.00000000       0.30000000 </v>
   <v>       0.46428571       0.00000000       0.30000000 </v>
   <v>       0.50000000       0.00000000       0.30000000 </v>
   <v>      -0.46428571       0.00000000       0.30000000 </v>
   <v>      -0.42857143       0.00000000       0.30000000 </v>
   <v>      -0.39285714       0.00000000       0.30000000 </v>
   <v>      -0.35714286       0.00000000       0.30000000 </v>
   <v>      -0.32142857       0.00000000       0.30000000 </v>
   <v>      -0.28571429       0.00000000       0.30000000 </v>
   <v>      -0.25000000       0.00000000       0.30000000 </v>
   <v>      -0.21428571       0.00000000       0.30000000 </v>
   <v>      -0.17857143       0.00000000       0.30000000 </v>
   <v>      -0.14285714       0.00000000       0.30000000 </v>
   <v>      -0.10714286       0.00000000       0.30000000 </v>
   <v>      -0.07142857       0.00000000       0.30000000 </v>
   <v>      -0.03571429       0.00000000       0.30000000 </v>
   <v>       0.03571429       0.03571429       0.30000000 </v>
   <v>       0.07142857       0.03571429       0.30000000 </v>
   <v>       0.10714286       0.03571429       0.30000000 </v>
   <v>       0.14285714       0.03571429       0.30000000 </v>
   <v>       0.17857143       0.03571429       0.30000000 </v>
   <v>       0.21428571       0.03571429       0.30000000 </v>
   <v>       0.25000000       0.03571429       0.30000000 </v>
   <v>       0.28571429       0.03571429       0.30000000 </v>
   <v>       0.32142857       0.03571429       0.30000000 </v>
   <v>       0.35714286       0.03571429       0.30000000 </v>
   <v>       0.39285714       0.03571429       0.30000000 </v>
   <v>       0.42857143       0.03571429       0.30000000 </v>
   <v>       0.46428571       0.03571429       0.30000000 </v>
   <v>       0.50000000       0.03571429       0.30000000 </v>
   <v>      -0.46428571       0.03571429       0.30000000 </v>
   <v>      -0.42857143       0.03571429       0.30000000 </v>
   <v>      -0.39285714       0.03571429       0.30000000 </v>
   <v>      -0.35714286       0.03571429       0.30000000 </v>
   <v>      -0.32142857       0.03571429       0.30000000 </v>
   <v>      -0.28571429       0.03571429       0.30000000 </v>
   <v>      -0.25000000       0.03571429       0.30000000 </v>
   <v>      -0.21428571       0.03571429       0.30000000 </v>
   <v>      -0.17857143       0.03571429       0.30000000 </v>
   <v>      -0.14285714       0.03571429       0.30000000 </v>
   <v>      -0.10714286       0.03571429       0.30000000 </v>
   <v>       0.07142857       0.07142857       0.30000000 </v>
   <v>       0.10714286       0.07142857       0.30000000 </v>
   <v>       0.14285714       0.07142857       0.30000000 </v>
   <v>       0.17857143       0.07142857       0.30000000 </v>
   <v>       0.21428571       0.07142857       0.30000000 </v>
   <v>       0.25000000       0.07142857       0.30000000 </v>
   <v>       0.28571429       0.07142857       0.30000000 </v>
   <v>       0.32142857       0.07142857       0.30000000 </v>
   <v>       0.35714286       0.07142857       0.30000000 </v>
   <v>       0.39285714       0.07142857       0.30000000 </v>
   <v>       0.42857143       0.07142857       0.30000000 </v>
   <v>       0.46428571       0.07142857       0.30000000 </v>
   <v>       0.50000000       0.07142857       0.30000000 </v>
   <v>      -0.46428571       0.07142857       0.30000000 </v>
   <v>      -0.42857143       0.07142857       0.30000000 </v>
   <v>      -0.39285714       0.07142857       0.30000000 </v>
   <v>      -0.35714286       0.07142857       0.30000000 </v>
   <v>      -0.32142857       0.07142857       0.30000000 </v>
   <v>      -0.28571429       0.07142857       0.30000000 </v>
   <v>      -0.25000000       0.07142857       0.30000000 </v>
   <v>      -0.21428571       0.07142857       0.30000000 </v>
   <v>      -0.17857143       0.07142857       0.30000000 </v>
   <v>       0.10714286       0.10714286       0.30000000 </v>
   <v>       0.14285714       0.10714286       0.30000000 </v>
   <v>       0.17857143       0.10714286       0.30000000 </v>
   <v>       0.21428571       0.10714286       0.30000000 </v>
   <v>       0.25000000       0.10714286       0.30000000 </v>
   <v>       0.28571429       0.10714286       0.30000000 </v>
   <v>       0.32142857       0.10714286       0.30000000 </v>
   <v>       0.35714286       0.10714286       0.30000000 </v>
   <v>       0.39285714       0.10714286       0.30000000 </v>
   <v>       0.42857143       0.10714286       0.30000000 </v>
   <v>       0.46428571       0.10714286       0.30000000 </v>
   <v>       0.50000000       0.10714286       0.30000000 </v>
   <v>      -0.46428571       0.10714286       0.30000000 </v>
   <v>      -0.42857143       0.10714286       0.30000000 </v>
   <v>      -0.39285714       0.10714286       0.30000000 </v>
   <v>      -0.35714286       0.10714286       0.30000000 </v>
   <v>      -0.32142857       0.10714286       0.30000000 </v>
   <v>      -0.28571429       0.10714286       0.30000000 </v>
   <v>      -0.25000000       0.10714286       0.30000000 </v>
   <v>       0.14285714       0.14285714       0.30000000 </v>
   <v>       0.17857143       0.14285714       0.30000000 </v>
   <v>       0.21428571       0.14285714       0.30000000 </v>
   <v>       0.25000000       0.14285714       0.30000000 </v>
   <v>       0.28571429       0.14285714       0.30000000 </v>
   <v>       0.32142857       0.14285714       0.30000000 </v>
   <v>       0.35714286       0.14285714       0.30000000 </v>
   <v>       0.39285714       0.14285714       0.30000000 </v>
   <v>       0.42857143       0.14285714       0.30000000 </v>
   <v>       0.46428571       0.14285714       0.30000000 </v>
   <v>       0.50000000       0.14285714       0.30000000 </v>
   <v>      -0.46428571       0.14285714       0.30000000 </v>
   <v>      -0.42857143       0.14285714       0.30000000 </v>
   <v>      -0.39285714       0.14285714       0.30000000 </v>
   <v>      -0.35714286       0.14285714       0.30000000 </v>
   <v>      -0.32142857       0.14285714       0.30000000 </v>
   <v>       0.17857143       0.17857143       0.30000000 </v>
   <v>       0.21428571       0.17857143       0.30000000 </v>
   <v>       0.25000000       0.17857143       0.30000000 </v>
   <v>       0.28571429       0.17857143       0.30000000 </v>
   <v>       0.32142857       0.17857143       0.30000000 </v>
   <v>       0.35714286       0.17857143       0.30000000 </v>
   <v>       0.39285714       0.17857143       0.30000000 </v>
   <v>       0.42857143       0.17857143       0.30000000 </v>
   <v>       0.46428571       0.17857143       0.30000000 </v>
   <v>       0.50000000       0.17857143       0.30000000 </v>
   <v>      -0.46428571       0.17857143       0.30000000 </v>
   <v>      -0.42857143       0.17857143       0.30000000 </v>
   <v>      -0.39285714       0.17857143       0.30000000 </v>
   <v>       0.21428571       0.21428571       0.30000000 </v>
   <v>       0.25000000       0.21428571       0.30000000 </v>
   <v>       0.28571429       0.21428571       0.30000000 </v>
   <v>       0.32142857       0.21428571       0.30000000 </v>
   <v>       0.35714286       0.21428571       0.30000000 </v>
   <v>       0.39285714       0.21428571       0.30000000 </v>
   <v>       0.42857143       0.21428571       0.30000000 </v>
   <v>       0.46428571       0.21428571       0.30000000 </v>
   <v>       0.50000000       0.21428571       0.30000000 </v>
   <v>      -0.46428571       0.21428571       0.30000000 </v>
   <v>       0.25000000       0.25000000       0.30000000 </v>
   <v>       0.28571429       0.25000000       0.30000000 </v>
   <v>       0.32142857       0.25000000       0.30000000 </v>
   <v>       0.35714286       0.25000000       0.30000000 </v>
   <v>       0.39285714       0.25000000       0.30000000 </v>
   <v>       0.42857143       0.25000000       0.30000000 </v>
   <v>       0.46428571       0.25000000       0.30000000 </v>
   <v>       0.28571429       0.28571429       0.30000000 </v>
   <v>       0.32142857       0.28571429       0.30000000 </v>
   <v>       0.35714286       0.28571429       0.30000000 </v>
   <v>       0.39285714       0.28571429       0.30000000 </v>
   <v>       0.32142857       0.32142857       0.30000000 </v>
   <v>       0.00000000       0.00000000       0.40000000 </v>
   <v>       0.03571429       0.00000000       0.40000000 </v>
   <v>       0.07142857       0.00000000       0.40000000 </v>
   <v>       0.10714286       0.00000000       0.40000000 </v>
   <v>       0.14285714       0.00000000       0.40000000 </v>
   <v>       0.17857143       0.00000000       0.40000000 </v>
   <v>       0.21428571       0.00000000       0.40000000 </v>
   <v>       0.25000000       0.00000000       0.40000000 </v>
   <v>       0.28571429       0.00000000       0.40000000 </v>
   <v>       0.32142857       0.00000000       0.40000000 </v>
   <v>       0.35714286       0.00000000       0.40000000 </v>
   <v>       0.39285714       0.00000000       0.40000000 </v>
   <v>       0.42857143       0.00000000       0.40000000 </v>
   <v>       0.46428571       0.00000000       0.40000000 </v>
   <v>       0.50000000       0.00000000       0.40000000 </v>
   <v>      -0.46428571       0.00000000       0.40000000 </v>
   <v>      -0.42857143       0.00000000       0.40000000 </v>
   <v>      -0.39285714       0.00000000       0.40000000 </v>
   <v>      -0.35714286       0.00000000       0.40000000 </v>
   <v>      -0.32142857       0.00000000       0.40000000 </v>
   <v>      -0.28571429       0.00000000       0.40000000 </v>
   <v>      -0.25000000       0.00000000       0.40000000 </v>
   <v>      -0.21428571       0.00000000       0.40000000 </v>
   <v>      -0.17857143       0.00000000       0.40000000 </v>
   <v>      -0.14285714       0.00000000       0.40000000 </v>
   <v>      -0.10714286       0.00000000       0.40000000 </v>
   <v>      -0.07142857       0.00000000       0.40000000 </v>
   <v>      -0.03571429       0.00000000       0.40000000 </v>
   <v>       0.03571429       0.03571429       0.40000000 </v>
   <v>       0.07142857       0.03571429       0.40000000 </v>
   <v>       0.10714286       0.03571429       0.40000000 </v>
   <v>       0.14285714       0.03571429       0.40000000 </v>
   <v>       0.17857143       0.03571429       0.40000000 </v>
   <v>       0.21428571       0.03571429       0.40000000 </v>
   <v>       0.25000000       0.03571429       0.40000000 </v>
   <v>       0.28571429       0.03571429       0.40000000 </v>
   <v>       0.32142857       0.03571429       0.40000000 </v>
   <v>       0.35714286       0.03571429       0.40000000 </v>
   <v>       0.39285714       0.03571429       0.40000000 </v>
   <v>       0.42857143       0.03571429       0.40000000 </v>
   <v>       0.46428571       0.03571429       0.40000000 </v>
   <v>       0.50000000       0.03571429       0.40000000 </v>
   <v>      -0.46428571       0.03571429       0.40000000 </v>
   <v>      -0.42857143       0.03571429       0.40000000 </v>
   <v>      -0.39285714       0.03571429       0.40000000 </v>
   <v>      -0.35714286       0.03571429       0.40000000 </v>
   <v>      -0.32142857       0.03571429       0.40000000 </v>
   <v>      -0.28571429       0.03571429       0.40000000 </v>
   <v>      -0.25000000       0.03571429       0.40000000 </v>
   <v>      -0.21428571       0.03571429       0.40000000 </v>
   <v>      -0.17857143       0.03571429       0.40000000 </v>
   <v>      -0.14285714       0.03571429       0.40000000 </v>
   <v>      -0.10714286       0.03571429       0.40000000 </v>
   <v>       0.07142857       0.07142857       0.40000000 </v>
   <v>       0.10714286       0.07142857       0.40000000 </v>
   <v>       0.14285714       0.07142857       0.40000000 </v>
   <v>       0.17857143       0.07142857       0.40000000 </v>
   <v>       0.21428571       0.07142857       0.40000000 </v>
   <v>       0.25000000       0.07142857       0.40000000 </v>
   <v>       0.28571429       0.07142857       0.40000000 </v>
   <v>       0.32142857       0.07142857       0.40000000 </v>
   <v>       0.35714286       0.07142857       0.40000000 </v>
   <v>       0.39285714       0.07142857       0.40000000 </v>
   <v>       0.42857143       0.07142857       0.40000000 </v>
   <v>       0.46428571       0.07142857       0.40000000 </v>
   <v>       0.50000000       0.07142857       0.40000000 </v>
   <v>      -0.46428571       0.07142857       0.40000000 </v>
   <v>      -0.42857143       0.07142857       0.40000000 </v>
   <v>      -0.39285714       0.07142857       0.40000000 </v>
   <v>      -0.35714286       0.07142857       0.40000000 </v>
   <v>      -0.32142857       0.07142857       0.40000000 </v>
   <v>      -0.28571429       0.07142857       0.40000000 </v>
   <v>      -0.25000000       0.07142857       0.40000000 </v>
   <v>      -0.21428571       0.07142857       0.40000000 </v>
   <v>      -0.17857143       0.07142857       0.40000000 </v>
   <v>       0.10714286       0.10714286       0.40000000 </v>
   <v>       0.14285714       0.10714286       0.40000000 </v>
   <v>       0.17857143       0.10714286       0.40000000 </v>
   <v>       0.21428571       0.10714286       0.40000000 </v>
   <v>       0.25000000       0.10714286       0.40000000 </v>
   <v>       0.28571429       0.10714286       0.40000000 </v>
   <v>       0.32142857       0.10714286       0.40000000 </v>
   <v>       0.35714286       0.10714286       0.40000000 </v>
   <v>       0.39285714       0.10714286       0.40000000 </v>
   <v>       0.42857143       0.10714286       0.40000000 </v>
   <v>       0.46428571       0.10714286       0.40000000 </v>
   <v>       0.50000000       0.10714286       0.40000000 </v>
   <v>      -0.46428571       0.10714286       0.40000000 </v>
   <v>      -0.42857143       0.10714286       0.40000000 </v>
   <v>      -0.39285714       0.10714286       0.40000000 </v>
   <v>      -0.35714286       0.10714286       0.40000000 </v>
   <v>      -0.32142857       0.10714286       0.40000000 </v>
   <v>      -0.28571429       0.10714286       0.40000000 </v>
   <v>      -0.25000000       0.10714286       0.40000000 </v>
   <v>       0.14285714       0.14285714       0.40000000 </v>
   <v>       0.17857143       0.14285714       0.40000000 </v>
   <v>       0.21428571       0.14285714       0.40000000 </v>
   <v>       0.25000000       0.14285714       0.40000000 </v>
   <v>       0.28571429       0.14285714       0.40000000 </v>
   <v>       0.32142857       0.14285714       0.40000000 </v>
   <v>       0.35714286       0.14285714       0.40000000 </v>
   <v>       0.39285714       0.14285714       0.40000000 </v>
   <v>       0.42857143       0.14285714       0.40000000 </v>
   <v>       0.46428571       0.14285714       0.40000000 </v>
   <v>       0.50000000       0.14285714       0.40000000 </v>
   <v>      -0.46428571       0.14285714       0.40000000 </v>
   <v>      -0.42857143       0.14285714       0.40000000 </v>
   <v>      -0.39285714       0.14285714       0.40000000 </v>
   <v>      -0.35714286       0.14285714       0.40000000 </v>
   <v>      -0.32142857       0.14285714       0.40000000 </v>
   <v>       0.17857143       0.17857143       0.40000000 </v>
   <v>       0.21428571       0.17857143       0.40000000 </v>
   <v>       0.25000000       0.17857143       0.40000000 </v>
   <v>       0.28571429       0.17857143       0.40000000 </v>
   <v>       0.32142857       0.17857143       0.40000000 </v>
   <v>       0.35714286       0.17857143       0.40000000 </v>
   <v>       0.39285714       0.17857143       0.40000000 </v>
   <v>       0.42857143       0.17857143       0.40000000 </v>
   <v>       0.46428571       0.17857143       0.40000000 </v>
   <v>       0.50000000       0.17857143       0.40000000 </v>
   <v>      -0.46428571       0.17857143       0.40000000 </v>
   <v>      -0.42857143       0.17857143       0.40000000 </v>
   <v>      -0.39285714       0.17857143       0.40000000 </v>
   <v>       0.21428571       0.21428571       0.40000000 </v>
   <v>       0.25000000       0.21428571       0.40000000 </v>
   <v>       0.28571429       0.21428571       0.40000000 </v>
   <v>       0.32142857       0.21428571       0.40000000 </v>
   <v>       0.35714286       0.21428571       0.40000000 </v>
   <v>       0.39285714       0.21428571       0.40000000 </v>
   <v>       0.42857143       0.21428571       0.40000000 </v>
   <v>       0.46428571       0.21428571       0.40000000 </v>
   <v>       0.50000000       0.21428571       0.40000000 </v>
   <v>      -0.46428571       0.21428571       0.40000000 </v>
   <v>       0.25000000       0.25000000       0.40000000 </v>
   <v>       0.28571429       0.25000000       0.40000000 </v>
   <v>       0.32142857       0.25000000       0.40000000 </v>
   <v>       0.35714286       0.25000000       0.40000000 </v>
   <v>       0.39285714       0.25000000       0.40000000 </v>
   <v>       0.42857143       0.25000000       0.40000000 </v>
   <v>       0.46428571       0.25000000       0.40000000 </v>
   <v>       0.28571429       0.28571429       0.40000000 </v>
   <v>       0.32142857       0.28571429       0.40000000 </v>
   <v>       0.35714286       0.28571429       0.40000000 </v>
   <v>       0.39285714       0.28571429       0.40000000 </v>
   <v>       0.32142857       0.32142857       0.40000000 </v>
   <v>       0.00000000       0.00000000       0.50000000 </v>
   <v>       0.03571429       0.00000000       0.50000000 </v>
   <v>       0.07142857       0.00000000       0.50000000 </v>
   <v>       0.10714286       0.00000000       0.50000000 </v>
   <v>       0.14285714       0.00000000       0.50000000 </v>
   <v>       0.17857143       0.00000000       0.50000000 </v>
   <v>       0.21428571       0.00000000       0.50000000 </v>
   <v>       0.25000000       0.00000000       0.50000000 </v>
   <v>       0.28571429       0.00000000       0.50000000 </v>
   <v>       0.32142857       0.00000000       0.50000000 </v>
   <v>       0.35714286       0.00000000       0.50000000 </v>
   <v>       0.39285714       0.00000000       0.50000000 </v>
   <v>       0.42857143       0.00000000       0.50000000 </v>
   <v>       0.46428571       0.00000000       0.50000000 </v>
   <v>       0.50000000       0.00000000       0.50000000 </v>
   <v>       0.03571429       0.03571429       0.50000000 </v>
   <v>       0.07142857       0.03571429       0.50000000 </v>
   <v>       0.10714286       0.03571429       0.50000000 </v>
   <v>       0.14285714       0.03571429       0.50000000 </v>
   <v>       0.17857143       0.03571429       0.50000000 </v>
   <v>       0.21428571       0.03571429       0.50000000 </v>
   <v>       0.25000000       0.03571429       0.50000000 </v>
   <v>       0.28571429       0.03571429       0.50000000 </v>
   <v>       0.32142857       0.03571429       0.50000000 </v>
   <v>       0.35714286       0.03571429       0.50000000 </v>
   <v>       0.39285714       0.03571429       0.50000000 </v>
   <v>       0.42857143       0.03571429       0.50000000 </v>
   <v>       0.46428571       0.03571429       0.50000000 </v>
   <v>       0.07142857       0.07142857       0.50000000 </v>
   <v>       0.10714286       0.07142857       0.50000000 </v>
   <v>       0.14285714       0.07142857       0.50000000 </v>
   <v>       0.17857143       0.07142857       0.50000000 </v>
   <v>       0.21428571       0.07142857       0.50000000 </v>
   <v>       0.25000000       0.07142857       0.50000000 </v>
   <v>       0.28571429       0.07142857       0.50000000 </v>
   <v>       0.32142857       0.07142857       0.50000000 </v>
   <v>       0.35714286       0.07142857       0.50000000 </v>
   <v>       0.39285714       0.07142857       0.50000000 </v>
   <v>       0.42857143       0.07142857       0.50000000 </v>
   <v>       0.46428571       0.07142857       0.50000000 </v>
   <v>       0.10714286       0.10714286       0.50000000 </v>
   <v>       0.14285714       0.10714286       0.50000000 </v>
   <v>       0.17857143       0.10714286       0.50000000 </v>
   <v>       0.21428571       0.10714286       0.50000000 </v>
   <v>       0.25000000       0.10714286       0.50000000 </v>
   <v>       0.28571429       0.10714286       0.50000000 </v>
   <v>       0.32142857       0.10714286       0.50000000 </v>
   <v>       0.35714286       0.10714286       0.50000000 </v>
   <v>       0.39285714       0.10714286       0.50000000 </v>
   <v>       0.42857143       0.10714286       0.50000000 </v>
   <v>       0.14285714       0.14285714       0.50000000 </v>
   <v>       0.17857143       0.14285714       0.50000000 </v>
   <v>       0.21428571       0.14285714       0.50000000 </v>
   <v>       0.25000000       0.14285714       0.50000000 </v>
   <v>       0.28571429       0.14285714       0.50000000 </v>
   <v>       0.32142857       0.14285714       0.50000000 </v>
   <v>       0.35714286       0.14285714       0.50000000 </v>
   <v>       0.39285714       0.14285714       0.50000000 </v>
   <v>       0.42857143       0.14285714       0.50000000 </v>
   <v>       0.17857143       0.17857143       0.50000000 </v>
   <v>       0.21428571       0.17857143       0.50000000 </v>
   <v>       0.25000000       0.17857143       0.50000000 </v>
   <v>       0.28571429       0.17857143       0.50000000 </v>
   <v>       0.32142857       0.17857143       0.50000000 </v>
   <v>       0.35714286       0.17857143       0.50000000 </v>
   <v>       0.39285714       0.17857143       0.50000000 </v>
   <v>       0.21428571       0.21428571       0.50000000 </v>
   <v>       0.25000000       0.21428571       0.50000000 </v>
   <v>       0.28571429       0.21428571       0.50000000 </v>
   <v>       0.32142857       0.21428571       0.50000000 </v>
   <v>       0.35714286       0.21428571       0.50000000 </v>
   <v>       0.39285714       0.21428571       0.50000000 </v>
   <v>       0.25000000       0.25000000       0.50000000 </v>
   <v>       0.28571429       0.25000000       0.50000000 </v>
   <v>       0.32142857       0.25000000       0.50000000 </v>
   <v>       0.35714286       0.25000000       0.50000000 </v>
   <v>       0.28571429       0.28571429       0.50000000 </v>
   <v>       0.32142857       0.28571429       0.50000000 </v>
   <v>       0.35714286       0.28571429       0.50000000 </v>
   <v>       0.32142857       0.32142857       0.50000000 </v>
  </varray>
  <varray name="weights" >
   <v>       0.00012755 </v>
   <v>       0.00076531 </v>
   <v>       0.00076531 </v>
   <v>       0.00076531 </v>
   <v>       0.00076531 </v>
   <v>       0.00076531 </v>
   <v>       0.00076531 </v>
   <v>       0.00076531 </v>
   <v>       0.00076531 </v>
   <v>       0.00076531 </v>
   <v>       0.00076531 </v>
   <v>       0.00076531 </v>
   <v>       0.00076531 </v>
   <v>       0.00076531 </v>
   <v>       0.00038265 </v>
   <v>       0.00076531 </v>
   <v>       0.00153061 </v>
   <v>       0.00153061 </v>
   <v>       0.00153061 </v>
   <v>       0.00153061 </v>
   <v>       0.00153061 </v>
   <v>       0.00153061 </v>
   <v>       0.00153061 </v>
   <v>       0.00153061 </v>
   <v>       0.00153061 </v>
   <v>       0.00153061 </v>
   <v>       0.00153061 </v>
   <v>       0.00153061 </v>
   <v>       0.00076531 </v>
   <v>       0.00153061 </v>
   <v>       0.00153061 </v>
   <v>       0.00153061 </v>
   <v>       0.00153061 </v>
   <v>       0.00153061 </v>
   <v>       0.00153061 </v>
   <v>       0.00153061 </v>
   <v>       0.00153061 </v>
   <v>       0.00153061 </v>
   <v>       0.00153061 </v>
   <v>       0.00076531 </v>
   <v>       0.00076531 </v>
   <v>       0.00153061 </v>
   <v>       0.00153061 </v>
   <v>       0.00153061 </v>
   <v>       0.00153061 </v>
   <v>       0.00153061 </v>
   <v>       0.00153061 </v>
   <v>       0.00153061 </v>
   <v>       0.00153061 </v>
   <v>       0.00153061 </v>
   <v>       0.00076531 </v>
   <v>       0.00153061 </v>
   <v>       0.00153061 </v>
   <v>       0.00153061 </v>
   <v>       0.00153061 </v>
   <v>       0.00153061 </v>
   <v>       0.00153061 </v>
   <v>       0.00153061 </v>
   <v>       0.00076531 </v>
   <v>       0.00076531 </v>
   <v>       0.00153061 </v>
   <v>       0.00153061 </v>
   <v>       0.00153061 </v>
   <v>       0.00153061 </v>
   <v>       0.00153061 </v>
   <v>       0.00153061 </v>
   <v>       0.00076531 </v>
   <v>       0.00153061 </v>
   <v>       0.00153061 </v>
   <v>       0.00153061 </v>
   <v>       0.00153061 </v>
   <v>       0.00076531 </v>
   <v>       0.00076531 </v>
   <v>       0.00153061 </v>
   <v>       0.00153061 </v>
   <v>       0.00153061 </v>
   <v>       0.00076531 </v>
   <v>       0.00153061 </v>
   <v>       0.00076531 </v>
   <v>       0.00076531 </v>
   <v>       0.00025510 </v>
   <v>       0.00076531 </v>
   <v>       0.00076531 </v>
   <v>       0.00076531 </v>
   <v>       0.00076531 </v>
   <v>       0.00076531 </v>
   <v>       0.00076531 </v>
   <v>       0.00076531 </v>
   <v>       0.00076531 </v>
   <v>       0.00076531 </v>
   <v>       0.00076531 </v>
   <v>       0.00076531 </v>
   <v>       0.00076531 </v>
   <v>       0.00076531 </v>
   <v>       0.00076531 </v>
   <v>       0.00076531 </v>
   <v>       0.00076531 </v>
   <v>       0.00076531 </v>
   <v>       0.00076531 </v>
   <v>       0.00076531 </v>
   <v>       0.00076531 </v>
   <v>       0.00076531 </v>
   <v>       0.00076531 </v>
   <v>       0.00076531 </v>
   <v>       0.00076531 </v>
   <v>       0.00076531 </v>
   <v>       0.00076531 </v>
   <v>       0.00076531 </v>
   <v>       0.00153061 </v>
   <v>       0.00153061 </v>
   <v>       0.00153061 </v>
   <v>       0.00153061 </v>
   <v>       0.00153061 </v>
   <v>       0.00153061 </v>
   <v>       0.00153061 </v>
   <v>       0.00153061 </v>
   <v>       0.00153061 </v>
   <v>       0.00153061 </v>
   <v>       0.00153061 </v>
   <v>       0.00153061 </v>
   <v>       0.00153061 </v>
   <v>       0.00153061 </v>
   <v>       0.00153061 </v>
   <v>       0.00153061 </v>
   <v>       0.00153061 </v>
   <v>       0.00153061 </v>
   <v>       0.00153061 </v>
   <v>       0.00153061 </v>
   <v>       0.00153061 </v>
   <v>       0.00153061 </v>
   <v>       0.00153061 </v>
   <v>       0.00153061 </v>
   <v>       0.00153061 </v>
   <v>       0.00153061 </v>
   <v>       0.00153061 </v>
   <v>       0.00153061 </v>
   <v>       0.00153061 </v>
   <v>       0.00153061 </v>
   <v>       0.00153061 </v>
   <v>       0.00153061 </v>
   <v>       0.00153061 </v>
   <v>       0.00153061 </v>
   <v>       0.00153061 </v>
   <v>       0.00153061 </v>
   <v>       0.00153061 </v>
   <v>       0.00153061 </v>
   <v>       0.00153061 </v>
   <v>       0.00153061 </v>
   <v>       0.00153061 </v>
   <v>       0.00153061 </v>
   <v>       0.00153061 </v>
   <v>       0.00153061 </v>
   <v>       0.00153061 </v>
   <v>       0.00153061 </v>
   <v>       0.00153061 </v>
   <v>       0.00153061 </v>
   <v>       0.00153061 </v>
   <v>       0.00153061 </v>
   <v>       0.00153061 </v>
   <v>       0.00153061 </v>
   <v>       0.00153061 </v>
   <v>       0.00153061 </v>
   <v>       0.00153061 </v>
   <v>       0.00153061 </v>
   <v>       0.00153061 </v>
   <v>       0.00153061 </v>
   <v>       0.00153061 </v>
   <v>       0.00153061 </v>
   <v>       0.00153061 </v>
   <v>       0.00153061 </v>
   <v>       0.00153061 </v>
   <v>       0.00153061 </v>
   <v>       0.00153061 </v>
   <v>       0.00153061 </v>
   <v>       0.00153061 </v>
   <v>       0.00153061 </v>
   <v>       0.00153061 </v>
   <v>       0.00153061 </v>
   <v>       0.00153061 </v>
   <v>       0.00153061 </v>
   <v>       0.00153061 </v>
   <v>       0.00153061 </v>
   <v>       0.00153061 </v>
   <v>       0.00153061 </v>
   <v>       0.00153061 </v>
   <v>       0.00153061 </v>
   <v>       0.00153061 </v>
   <v>       0.00153061 </v>
   <v>       0.00153061 </v>
   <v>       0.00153061 </v>
   <v>       0.00153061 </v>
   <v>       0.00153061 </v>
   <v>       0.00153061 </v>
   <v>       0.00153061 </v>
   <v>       0.00153061 </v>
   <v>       0.00153061 </v>
   <v>       0.00153061 </v>
   <v>       0.00153061 </v>
   <v>       0.00153061 </v>
   <v>       0.00153061 </v>
   <v>       0.00153061 </v>
   <v>       0.00153061 </v>
   <v>       0.00153061 </v>
   <v>       0.00153061 </v>
   <v>       0.00153061 </v>
   <v>       0.00153061 </v>
   <v>       0.00153061 </v>
   <v>       0.00153061 </v>
   <v>       0.00153061 </v>
   <v>       0.00153061 </v>
   <v>       0.00153061 </v>
   <v>       0.00153061 </v>
   <v>       0.00153061 </v>
   <v>       0.00153061 </v>
   <v>       0.00153061 </v>
   <v>       0.00153061 </v>
   <v>       0.00153061 </v>
   <v>       0.00153061 </v>
   <v>       0.00153061 </v>
   <v>       0.00153061 </v>
   <v>       0.00153061 </v>
   <v>       0.00153061 </v>
   <v>       0.00153061 </v>
   <v>       0.00153061 </v>
   <v>       0.00153061 </v>
   <v>       0.00025510 </v>
   <v>       0.00076531 </v>
   <v>       0.00076531 </v>
   <v>       0.00076531 </v>
   <v>       0.00076531 </v>
   <v>       0.00076531 </v>
   <v>       0.00076531 </v>
   <v>       0.00076531 </v>
   <v>       0.00076531 </v>
   <v>       0.00076531 </v>
   <v>       0.00076531 </v>
   <v>       0.00076531 </v>
   <v>       0.00076531 </v>
   <v>       0.00076531 </v>
   <v>       0.00076531 </v>
   <v>       0.00076531 </v>
   <v>       0.00076531 </v>
   <v>       0.00076531 </v>
   <v>       0.00076531 </v>
   <v>       0.00076531 </v>
   <v>       0.00076531 </v>
   <v>       0.00076531 </v>
   <v>       0.00076531 </v>
   <v>       0.00076531 </v>
   <v>       0.00076531 </v>
   <v>       0.00076531 </v>
   <v>       0.00076531 </v>
   <v>       0.00076531 </v>
   <v>       0.00153061 </v>
   <v>       0.00153061 </v>
   <v>       0.00153061 </v>
   <v>       0.00153061 </v>
   <v>       0.00153061 </v>
   <v>       0.00153061 </v>
   <v>       0.00153061 </v>
   <v>       0.00153061 </v>
   <v>       0.00153061 </v>
   <v>       0.00153061 </v>
   <v>       0.00153061 </v>
   <v>       0.00153061 </v>
   <v>       0.00153061 </v>
   <v>       0.00153061 </v>
   <v>       0.00153061 </v>
   <v>       0.00153061 </v>
   <v>       0.00153061 </v>
   <v>       0.00153061 </v>
   <v>       0.00153061 </v>
   <v>       0.00153061 </v>
   <v>       0.00153061 </v>
   <v>       0.00153061 </v>
   <v>       0.00153061 </v>
   <v>       0.00153061 </v>
   <v>       0.00153061 </v>
   <v>       0.00153061 </v>
   <v>       0.00153061 </v>
   <v>       0.00153061 </v>
   <v>       0.00153061 </v>
   <v>       0.00153061 </v>
   <v>       0.00153061 </v>
   <v>       0.00153061 </v>
   <v>       0.00153061 </v>
   <v>       0.00153061 </v>
   <v>       0.00153061 </v>
   <v>       0.00153061 </v>
   <v>       0.00153061 </v>
   <v>       0.00153061 </v>
   <v>       0.00153061 </v>
   <v>       0.00153061 </v>
   <v>       0.00153061 </v>
   <v>       0.00153061 </v>
   <v>       0.00153061 </v>
   <v>       0.00153061 </v>
   <v>       0.00153061 </v>
   <v>       0.00153061 </v>
   <v>       0.00153061 </v>
   <v>       0.00153061 </v>
   <v>       0.00153061 </v>
   <v>       0.00153061 </v>
   <v>       0.00153061 </v>
   <v>       0.00153061 </v>
   <v>       0.00153061 </v>
   <v>       0.00153061 </v>
   <v>       0.00153061 </v>
   <v>       0.00153061 </v>
   <v>       0.00153061 </v>
   <v>       0.00153061 </v>
   <v>       0.00153061 </v>
   <v>       0.00153061 </v>
   <v>       0.00153061 </v>
   <v>       0.00153061 </v>
   <v>       0.00153061 </v>
   <v>       0.00153061 </v>
   <v>       0.00153061 </v>
   <v>       0.00153061 </v>
   <v>       0.00153061 </v>
   <v>       0.00153061 </v>
   <v>       0.00153061 </v>
   <v>       0.00153061 </v>
   <v>       0.00153061 </v>
   <v>       0.00153061 </v>
   <v>       0.00153061 </v>
   <v>       0.00153061 </v>
   <v>       0.00153061 </v>
   <v>       0.00153061 </v>
   <v>       0.00153061 </v>
   <v>       0.00153061 </v>
   <v>       0.00153061 </v>
   <v>       0.00153061 </v>
   <v>       0.00153061 </v>
   <v>       0.00153061 </v>
   <v>       0.00153061 </v>
   <v>       0.00153061 </v>
   <v>       0.00153061 </v>
   <v>       0.00153061 </v>
   <v>       0.00153061 </v>
   <v>       0.00153061 </v>
   <v>       0.00153061 </v>
   <v>       0.00153061 </v>
   <v>       0.00153061 </v>
   <v>       0.00153061 </v>
   <v>       0.00153061 </v>
   <v>       0.00153061 </v>
   <v>       0.00153061 </v>
   <v>       0.00153061 </v>
   <v>       0.00153061 </v>
   <v>       0.00153061 </v>
   <v>       0.00153061 </v>
   <v>       0.00153061 </v>
   <v>       0.00153061 </v>
   <v>       0.00153061 </v>
   <v>       0.00153061 </v>
   <v>       0.00153061 </v>
   <v>       0.00153061 </v>
   <v>       0.00153061 </v>
   <v>       0.00153061 </v>
   <v>       0.00153061 </v>
   <v>       0.00153061 </v>
   <v>       0.00153061 </v>
   <v>       0.00153061 </v>
   <v>       0.00153061 </v>
   <v>       0.00153061 </v>
   <v>       0.00153061 </v>
   <v>       0.00153061 </v>
   <v>       0.00153061 </v>
   <v>       0.00153061 </v>
   <v>       0.00025510 </v>
   <v>       0.00076531 </v>
   <v>       0.00076531 </v>
   <v>       0.00076531 </v>
   <v>       0.00076531 </v>
   <v>       0.00076531 </v>
   <v>       0.00076531 </v>
   <v>       0.00076531 </v>
   <v>       0.00076531 </v>
   <v>       0.00076531 </v>
   <v>       0.00076531 </v>
   <v>       0.00076531 </v>
   <v>       0.00076531 </v>
   <v>       0.00076531 </v>
   <v>       0.00076531 </v>
   <v>       0.00076531 </v>
   <v>       0.00076531 </v>
   <v>       0.00076531 </v>
   <v>       0.00076531 </v>
   <v>       0.00076531 </v>
   <v>       0.00076531 </v>
   <v>       0.00076531 </v>
   <v>       0.00076531 </v>
   <v>       0.00076531 </v>
   <v>       0.00076531 </v>
   <v>       0.00076531 </v>
   <v>       0.00076531 </v>
   <v>       0.00076531 </v>
   <v>       0.00153061 </v>
   <v>       0.00153061 </v>
   <v>       0.00153061 </v>
   <v>       0.00153061 </v>
   <v>       0.00153061 </v>
   <v>       0.00153061 </v>
   <v>       0.00153061 </v>
   <v>       0.00153061 </v>
   <v>       0.00153061 </v>
   <v>       0.00153061 </v>
   <v>       0.00153061 </v>
   <v>       0.00153061 </v>
   <v>       0.00153061 </v>
   <v>       0.00153061 </v>
   <v>       0.00153061 </v>
   <v>       0.00153061 </v>
   <v>       0.00153061 </v>
   <v>       0.00153061 </v>
   <v>       0.00153061 </v>
   <v>       0.00153061 </v>
   <v>       0.00153061 </v>
   <v>       0.00153061 </v>
   <v>       0.00153061 </v>
   <v>       0.00153061 </v>
   <v>       0.00153061 </v>
   <v>       0.00153061 </v>
   <v>       0.00153061 </v>
   <v>       0.00153061 </v>
   <v>       0.00153061 </v>
   <v>       0.00153061 </v>
   <v>       0.00153061 </v>
   <v>       0.00153061 </v>
   <v>       0.00153061 </v>
   <v>       0.00153061 </v>
   <v>       0.00153061 </v>
   <v>       0.00153061 </v>
   <v>       0.00153061 </v>
   <v>       0.00153061 </v>
   <v>       0.00153061 </v>
   <v>       0.00153061 </v>
   <v>       0.00153061 </v>
   <v>       0.00153061 </v>
   <v>       0.00153061 </v>
   <v>       0.00153061 </v>
   <v>       0.00153061 </v>
   <v>       0.00153061 </v>
   <v>       0.00153061 </v>
   <v>       0.00153061 </v>
   <v>       0.00153061 </v>
   <v>       0.00153061 </v>
   <v>       0.00153061 </v>
   <v>       0.00153061 </v>
   <v>       0.00153061 </v>
   <v>       0.00153061 </v>
   <v>       0.00153061 </v>
   <v>       0.00153061 </v>
   <v>       0.00153061 </v>
   <v>       0.00153061 </v>
   <v>       0.00153061 </v>
   <v>       0.00153061 </v>
   <v>       0.00153061 </v>
   <v>       0.00153061 </v>
   <v>       0.00153061 </v>
   <v>       0.00153061 </v>
   <v>       0.00153061 </v>
   <v>       0.00153061 </v>
   <v>       0.00153061 </v>
   <v>       0.00153061 </v>
   <v>       0.00153061 </v>
   <v>       0.00153061 </v>
   <v>       0.00153061 </v>
   <v>       0.00153061 </v>
   <v>       0.00153061 </v>
   <v>       0.00153061 </v>
   <v>       0.00153061 </v>
   <v>       0.00153061 </v>
   <v>       0.00153061 </v>
   <v>       0.00153061 </v>
   <v>       0.00153061 </v>
   <v>       0.00153061 </v>
   <v>       0.00153061 </v>
   <v>       0.00153061 </v>
   <v>       0.00153061 </v>
   <v>       0.00153061 </v>
   <v>       0.00153061 </v>
   <v>       0.00153061 </v>
   <v>       0.00153061 </v>
   <v>       0.00153061 </v>
   <v>       0.00153061 </v>
   <v>       0.00153061 </v>
   <v>       0.00153061 </v>
   <v>       0.00153061 </v>
   <v>       0.00153061 </v>
   <v>       0.00153061 </v>
   <v>       0.00153061 </v>
   <v>       0.00153061 </v>
   <v>       0.00153061 </v>
   <v>       0.00153061 </v>
   <v>       0.00153061 </v>
   <v>       0.00153061 </v>
   <v>       0.00153061 </v>
   <v>       0.00153061 </v>
   <v>       0.00153061 </v>
   <v>       0.00153061 </v>
   <v>       0.00153061 </v>
   <v>       0.00153061 </v>
   <v>       0.00153061 </v>
   <v>       0.00153061 </v>
   <v>       0.00153061 </v>
   <v>       0.00153061 </v>
   <v>       0.00153061 </v>
   <v>       0.00153061 </v>
   <v>       0.00153061 </v>
   <v>       0.00153061 </v>
   <v>       0.00153061 </v>
   <v>       0.00153061 </v>
   <v>       0.00153061 </v>
   <v>       0.00025510 </v>
   <v>       0.00076531 </v>
   <v>       0.00076531 </v>
   <v>       0.00076531 </v>
   <v>       0.00076531 </v>
   <v>       0.00076531 </v>
   <v>       0.00076531 </v>
   <v>       0.00076531 </v>
   <v>       0.00076531 </v>
   <v>       0.00076531 </v>
   <v>       0.00076531 </v>
   <v>       0.00076531 </v>
   <v>       0.00076531 </v>
   <v>       0.00076531 </v>
   <v>       0.00076531 </v>
   <v>       0.00076531 </v>
   <v>       0.00076531 </v>
   <v>       0.00076531 </v>
   <v>       0.00076531 </v>
   <v>       0.00076531 </v>
   <v>       0.00076531 </v>
   <v>       0.00076531 </v>
   <v>       0.00076531 </v>
   <v>       0.00076531 </v>
   <v>       0.00076531 </v>
   <v>       0.00076531 </v>
   <v>       0.00076531 </v>
   <v>       0.00076531 </v>
   <v>       0.00153061 </v>
   <v>       0.00153061 </v>
   <v>       0.00153061 </v>
   <v>       0.00153061 </v>
   <v>       0.00153061 </v>
   <v>       0.00153061 </v>
   <v>       0.00153061 </v>
   <v>       0.00153061 </v>
   <v>       0.00153061 </v>
   <v>       0.00153061 </v>
   <v>       0.00153061 </v>
   <v>       0.00153061 </v>
   <v>       0.00153061 </v>
   <v>       0.00153061 </v>
   <v>       0.00153061 </v>
   <v>       0.00153061 </v>
   <v>       0.00153061 </v>
   <v>       0.00153061 </v>
   <v>       0.00153061 </v>
   <v>       0.00153061 </v>
   <v>       0.00153061 </v>
   <v>       0.00153061 </v>
   <v>       0.00153061 </v>
   <v>       0.00153061 </v>
   <v>       0.00153061 </v>
   <v>       0.00153061 </v>
   <v>       0.00153061 </v>
   <v>       0.00153061 </v>
   <v>       0.00153061 </v>
   <v>       0.00153061 </v>
   <v>       0.00153061 </v>
   <v>       0.00153061 </v>
   <v>       0.00153061 </v>
   <v>       0.00153061 </v>
   <v>       0.00153061 </v>
   <v>       0.00153061 </v>
   <v>       0.00153061 </v>
   <v>       0.00153061 </v>
   <v>       0.00153061 </v>
   <v>       0.00153061 </v>
   <v>       0.00153061 </v>
   <v>       0.00153061 </v>
   <v>       0.00153061 </v>
   <v>       0.00153061 </v>
   <v>       0.00153061 </v>
   <v>       0.00153061 </v>
   <v>       0.00153061 </v>
   <v>       0.00153061 </v>
   <v>       0.00153061 </v>
   <v>       0.00153061 </v>
   <v>       0.00153061 </v>
   <v>       0.00153061 </v>
   <v>       0.00153061 </v>
   <v>       0.00153061 </v>
   <v>       0.00153061 </v>
   <v>       0.00153061 </v>
   <v>       0.00153061 </v>
   <v>       0.00153061 </v>
   <v>       0.00153061 </v>
   <v>       0.00153061 </v>
   <v>       0.00153061 </v>
   <v>       0.00153061 </v>
   <v>       0.00153061 </v>
   <v>       0.00153061 </v>
   <v>       0.00153061 </v>
   <v>       0.00153061 </v>
   <v>       0.00153061 </v>
   <v>       0.00153061 </v>
   <v>       0.00153061 </v>
   <v>       0.00153061 </v>
   <v>       0.00153061 </v>
   <v>       0.00153061 </v>
   <v>       0.00153061 </v>
   <v>       0.00153061 </v>
   <v>       0.00153061 </v>
   <v>       0.00153061 </v>
   <v>       0.00153061 </v>
   <v>       0.00153061 </v>
   <v>       0.00153061 </v>
   <v>       0.00153061 </v>
   <v>       0.00153061 </v>
   <v>       0.00153061 </v>
   <v>       0.00153061 </v>
   <v>       0.00153061 </v>
   <v>       0.00153061 </v>
   <v>       0.00153061 </v>
   <v>       0.00153061 </v>
   <v>       0.00153061 </v>
   <v>       0.00153061 </v>
   <v>       0.00153061 </v>
   <v>       0.00153061 </v>
   <v>       0.00153061 </v>
   <v>       0.00153061 </v>
   <v>       0.00153061 </v>
   <v>       0.00153061 </v>
   <v>       0.00153061 </v>
   <v>       0.00153061 </v>
   <v>       0.00153061 </v>
   <v>       0.00153061 </v>
   <v>       0.00153061 </v>
   <v>       0.00153061 </v>
   <v>       0.00153061 </v>
   <v>       0.00153061 </v>
   <v>       0.00153061 </v>
   <v>       0.00153061 </v>
   <v>       0.00153061 </v>
   <v>       0.00153061 </v>
   <v>       0.00153061 </v>
   <v>       0.00153061 </v>
   <v>       0.00153061 </v>
   <v>       0.00153061 </v>
   <v>       0.00153061 </v>
   <v>       0.00153061 </v>
   <v>       0.00153061 </v>
   <v>       0.00153061 </v>
   <v>       0.00153061 </v>
   <v>       0.00153061 </v>
   <v>       0.00012755 </v>
   <v>       0.00076531 </v>
   <v>       0.00076531 </v>
   <v>       0.00076531 </v>
   <v>       0.00076531 </v>
   <v>       0.00076531 </v>
   <v>       0.00076531 </v>
   <v>       0.00076531 </v>
   <v>       0.00076531 </v>
   <v>       0.00076531 </v>
   <v>       0.00076531 </v>
   <v>       0.00076531 </v>
   <v>       0.00076531 </v>
   <v>       0.00076531 </v>
   <v>       0.00038265 </v>
   <v>       0.00076531 </v>
   <v>       0.00153061 </v>
   <v>       0.00153061 </v>
   <v>       0.00153061 </v>
   <v>       0.00153061 </v>
   <v>       0.00153061 </v>
   <v>       0.00153061 </v>
   <v>       0.00153061 </v>
   <v>       0.00153061 </v>
   <v>       0.00153061 </v>
   <v>       0.00153061 </v>
   <v>       0.00153061 </v>
   <v>       0.00153061 </v>
   <v>       0.00076531 </v>
   <v>       0.00153061 </v>
   <v>       0.00153061 </v>
   <v>       0.00153061 </v>
   <v>       0.00153061 </v>
   <v>       0.00153061 </v>
   <v>       0.00153061 </v>
   <v>       0.00153061 </v>
   <v>       0.00153061 </v>
   <v>       0.00153061 </v>
   <v>       0.00153061 </v>
   <v>       0.00076531 </v>
   <v>       0.00076531 </v>
   <v>       0.00153061 </v>
   <v>       0.00153061 </v>
   <v>       0.00153061 </v>
   <v>       0.00153061 </v>
   <v>       0.00153061 </v>
   <v>       0.00153061 </v>
   <v>       0.00153061 </v>
   <v>       0.00153061 </v>
   <v>       0.00153061 </v>
   <v>       0.00076531 </v>
   <v>       0.00153061 </v>
   <v>       0.00153061 </v>
   <v>       0.00153061 </v>
   <v>       0.00153061 </v>
   <v>       0.00153061 </v>
   <v>       0.00153061 </v>
   <v>       0.00153061 </v>
   <v>       0.00076531 </v>
   <v>       0.00076531 </v>
   <v>       0.00153061 </v>
   <v>       0.00153061 </v>
   <v>       0.00153061 </v>
   <v>       0.00153061 </v>
   <v>       0.00153061 </v>
   <v>       0.00153061 </v>
   <v>       0.00076531 </v>
   <v>       0.00153061 </v>
   <v>       0.00153061 </v>
   <v>       0.00153061 </v>
   <v>       0.00153061 </v>
   <v>       0.00076531 </v>
   <v>       0.00076531 </v>
   <v>       0.00153061 </v>
   <v>       0.00153061 </v>
   <v>       0.00153061 </v>
   <v>       0.00076531 </v>
   <v>       0.00153061 </v>
   <v>       0.00076531 </v>
   <v>       0.00076531 </v>
  </varray>
 </kpoints>
 <parameters>
  <separator name="general" >
   <i type="string" name="SYSTEM">unknown system</i>
   <i type="logical" name="LCOMPAT"> F  </i>
  </separator>
  <separator name="electronic" >
   <i type="string" name="PREC">accura</i>
   <i name="ENMAX">    500.00000000</i>
   <i name="ENAUG">    586.98000000</i>
   <i name="EDIFF">      0.00000100</i>
   <i type="int" name="IALGO">    68</i>
   <i type="int" name="IWAVPR">    11</i>
   <i type="int" name="NBANDS">    20</i>
   <i name="NELECT">     33.00000000</i>
   <i type="int" name="TURBO">     0</i>
   <i type="int" name="IRESTART">     0</i>
   <i type="int" name="NREBOOT">     0</i>
   <i type="int" name="NMIN">     0</i>
   <i name="EREF">      0.00000000</i>
   <separator name="electronic smearing" >
    <i type="int" name="ISMEAR">     1</i>
    <i name="SIGMA">      0.30000000</i>
    <i name="KSPACING">      0.50000000</i>
    <i type="logical" name="KGAMMA"> T  </i>
   </separator>
   <separator name="electronic projectors" >
    <i type="logical" name="LREAL"> F  </i>
    <v name="ROPT">      0.00000000      0.00000000</v>
    <i type="int" name="LMAXPAW">  -100</i>
    <i type="int" name="LMAXMIX">     2</i>
    <i type="logical" name="NLSPLINE"> F  </i>
   </separator>
   <separator name="electronic startup" >
    <i type="int" name="ISTART">     0</i>
    <i type="int" name="ICHARG">     2</i>
    <i type="int" name="INIWAV">     1</i>
   </separator>
   <separator name="electronic spin" >
    <i type="int" name="ISPIN">     1</i>
    <i type="logical" name="LNONCOLLINEAR"> F  </i>
    <v name="MAGMOM">      1.00000000      1.00000000      1.00000000</v>
    <i name="NUPDOWN">     -1.00000000</i>
    <i type="logical" name="LSORBIT"> F  </i>
    <v name="SAXIS">      0.00000000      0.00000000      1.00000000</v>
    <i type="logical" name="LSPIRAL"> F  </i>
    <v name="QSPIRAL">      0.00000000      0.00000000      0.00000000</v>
    <i type="logical" name="LZEROZ"> F  </i>
   </separator>
   <separator name="electronic exchange-correlation" >
    <i type="logical" name="LASPH"> F  </i>
    <i type="logical" name="LMETAGGA"> F  </i>
   </separator>
   <separator name="electronic convergence" >
    <i type="int" name="NELM">   200</i>
    <i type="int" name="NELMDL">     0</i>
    <i type="int" name="NELMIN">     4</i>
    <i name="ENINI">    500.00000000</i>
    <separator name="electronic convergence detail" >
     <i type="logical" name="LDIAG"> T  </i>
     <i type="logical" name="LSUBROT"> F  </i>
     <i name="WEIMIN">      0.00100000</i>
     <i name="EBREAK">      0.00000001</i>
     <i name="DEPER">      0.30000000</i>
     <i type="int" name="NRMM">     4</i>
     <i name="TIME">      0.40000000</i>
    </separator>
   </separator>
   <separator name="electronic mixer" >
    <i name="AMIX">      0.40000000</i>
    <i name="BMIX">      1.00000000</i>
    <i name="AMIN">      0.10000000</i>
    <i name="AMIX_MAG">      1.60000000</i>
    <i name="BMIX_MAG">      1.00000000</i>
    <separator name="electronic mixer details" >
     <i type="int" name="IMIX">     4</i>
     <i type="int" name="MAXMIX">   -45</i>
     <i name="WC">    100.00000000</i>
     <i type="int" name="INIMIX">     1</i>
     <i type="int" name="MIXPRE">     1</i>
     <i type="int" name="MREMOVE">     5</i>
    </separator>
   </separator>
   <separator name="electronic dipolcorrection" >
    <i type="logical" name="LDIPOL"> F  </i>
    <i type="logical" name="LMONO"> F  </i>
    <i type="int" name="IDIPOL">     0</i>
    <i name="EPSILON">      1.00000000</i>
    <v name="DIPOL">   -100.00000000   -100.00000000   -100.00000000</v>
    <i name="EFIELD">      0.00000000</i>
   </separator>
  </separator>
  <separator name="grids" >
   <i type="int" name="NGX">    24</i>
   <i type="int" name="NGY">    24</i>
   <i type="int" name="NGZ">    50</i>
   <i type="int" name="NGXF">    48</i>
   <i type="int" name="NGYF">    48</i>
   <i type="int" name="NGZF">   100</i>
   <i type="logical" name="ADDGRID"> T  </i>
  </separator>
  <separator name="ionic" >
   <i type="int" name="NSW">    30</i>
   <i type="int" name="IBRION">     2</i>
   <i type="int" name="ISIF">     3</i>
   <i name="PSTRESS">      0.00000000</i>
   <i name="EDIFFG">     -0.02000000</i>
   <i type="int" name="NFREE">     1</i>
   <i name="POTIM">      0.50000000</i>
   <i name="SMASS">     -3.00000000</i>
   <i name="SCALEE">      1.00000000</i>
  </separator>
  <separator name="ionic md" >
   <i name="TEBEG">      0.00010000</i>
   <i name="TEEND">      0.00010000</i>
   <i type="int" name="NBLOCK">     1</i>
   <i type="int" name="KBLOCK">    30</i>
   <i type="int" name="NPACO">   256</i>
   <i name="APACO">     16.00000000</i>
  </separator>
  <separator name="symmetry" >
   <i type="int" name="ISYM">     2</i>
   <i name="SYMPREC">      0.00001000</i>
  </separator>
  <separator name="dos" >
   <i type="logical" name="LORBIT"> F  </i>
   <v name="RWIGS">     -1.00000000     -1.00000000</v>
   <i type="int" name="NEDOS">   301</i>
   <i name="EMIN">     10.00000000</i>
   <i name="EMAX">    -10.00000000</i>
   <i name="EFERMI">      0.00000000</i>
  </separator>
  <separator name="writing" >
   <i type="int" name="NWRITE">     2</i>
   <i type="logical" name="LWAVE"> F  </i>
   <i type="logical" name="LCHARG"> F  </i>
   <i type="logical" name="LPARD"> F  </i>
   <i type="logical" name="LVTOT"> F  </i>
   <i type="logical" name="LVHAR"> F  </i>
   <i type="logical" name="LELF"> F  </i>
   <i type="logical" name="LOPTICS"> F  </i>
   <v name="STM">      0.00000000      0.00000000      0.00000000      0.00000000      0.00000000      0.00000000      0.00000000</v>
  </separator>
  <separator name="performance" >
   <i type="int" name="NPAR">     4</i>
   <i type="int" name="NSIM">     4</i>
   <i type="int" name="NBLK">    -1</i>
   <i type="logical" name="LPLANE"> T  </i>
   <i type="logical" name="LSCALAPACK"> T  </i>
   <i type="logical" name="LSCAAWARE"> F  </i>
   <i type="logical" name="LSCALU"> F  </i>
   <i type="logical" name="LASYNC"> F  </i>
   <i type="logical" name="LORBITALREAL"> F  </i>
  </separator>
  <separator name="miscellaneous" >
   <i type="int" name="IDIOT">     3</i>
   <i type="logical" name="LMUSIC"> F  </i>
   <v name="POMASS">     63.54600000    196.96600000</v>
   <v name="DARWINR">      0.00000000      0.00000000</v>
   <v name="DARWINV">      1.00000000      1.00000000</v>
   <i type="logical" name="LCORR"> T  </i>
  </separator>
  <i type="logical" name="GGA_COMPAT"> T  </i>
  <i type="logical" name="LBERRY"> F  </i>
  <i type="int" name="ICORELEVEL">     0</i>
  <i type="logical" name="LDAU"> F  </i>
  <i type="int" name="I_CONSTRAINED_M">     0</i>
  <separator name="electronic exchange-correlation" >
   <i type="string" name="GGA">--</i>
   <i type="int" name="VOSKOWN">     0</i>
   <i type="logical" name="LHFCALC"> F  </i>
   <i type="string" name="PRECFOCK"></i>
   <i type="logical" name="LSYMGRAD"> F  </i>
   <i type="logical" name="LHFONE"> F  </i>
   <i type="logical" name="LRHFCALC"> F  </i>
   <i type="logical" name="LTHOMAS"> F  </i>
   <i type="logical" name="LMODELHF"> F  </i>
   <i name="ENCUT4O">     -1.00000000</i>
   <i type="int" name="EXXOEP">     0</i>
   <i type="int" name="FOURORBIT">     0</i>
   <i name="AEXX">      0.00000000</i>
   <i name="HFALPHA">      0.00000000</i>
   <i name="MCALPHA">      0.00000000</i>
   <i name="ALDAX">      1.00000000</i>
   <i name="AGGAX">      1.00000000</i>
   <i name="ALDAC">      1.00000000</i>
   <i name="AGGAC">      1.00000000</i>
   <i type="int" name="NKREDX">     1</i>
   <i type="int" name="NKREDY">     1</i>
   <i type="int" name="NKREDZ">     1</i>
   <i type="logical" name="SHIFTRED"> F  </i>
   <i type="logical" name="ODDONLY"> F  </i>
   <i type="logical" name="EVENONLY"> F  </i>
   <i type="int" name="LMAXFOCK">     0</i>
   <i type="int" name="NMAXFOCKAE">     0</i>
   <i type="logical" name="LFOCKAEDFT"> F  </i>
   <i name="HFSCREEN">      0.00000000</i>
   <i name="HFSCREENC">      0.00000000</i>
   <i type="int" name="NBANDSGWLOW">     0</i>
  </separator>
  <separator name="vdW DFT" >
   <i type="logical" name="LUSE_VDW"> F  </i>
   <i name="Zab_VDW">     -0.84910000</i>
   <i name="PARAM1">      0.12340000</i>
   <i name="PARAM2">      1.00000000</i>
   <i name="PARAM3">      0.00000000</i>
  </separator>
  <separator name="model GW" >
   <i type="int" name="MODEL_GW">     0</i>
   <i name="MODEL_EPS0">      9.73642334</i>
   <i name="MODEL_ALPHA">      1.00000000</i>
  </separator>
  <separator name="linear response parameters" >
   <i type="logical" name="LEPSILON"> F  </i>
   <i type="logical" name="LRPA"> F  </i>
   <i type="logical" name="LNABLA"> F  </i>
   <i type="logical" name="LVEL"> F  </i>
   <i type="int" name="KINTER">     0</i>
   <i name="CSHIFT">      0.10000000</i>
   <i name="OMEGAMAX">     -1.00000000</i>
   <i name="DEG_THRESHOLD">      0.00200000</i>
  </separator>
  <separator name="orbital magnetization" >
   <i type="logical" name="NUCIND"> F  </i>
   <v name="MAGPOS">      0.00000000      0.00000000      0.00000000</v>
   <i type="logical" name="LNICSALL"> T  </i>
   <i type="logical" name="ORBITALMAG"> F  </i>
   <i type="logical" name="LMAGBLOCH"> F  </i>
   <i type="logical" name="LCHIMAG"> F  </i>
   <i type="logical" name="LGAUGE"> T  </i>
   <i type="int" name="MAGATOM">     0</i>
   <v name="MAGDIPOL">      0.00000000      0.00000000      0.00000000</v>
   <v name="AVECCONST">      0.00000000      0.00000000      0.00000000</v>
  </separator>
  <separator name="response functions" >
   <i type="logical" name="LADDER"> F  </i>
   <i type="logical" name="LFXC"> F  </i>
   <i type="logical" name="LHARTREE"> T  </i>
   <i type="int" name="IBSE">     0</i>
   <i type="logical" name="LTCTE"> F  </i>
   <i type="logical" name="LTETE"> F  </i>
   <i type="logical" name="LTRIPLET"> F  </i>
   <i type="logical" name="LFXCEPS"> F  </i>
   <i type="logical" name="LFXHEG"> F  </i>
   <i type="logical" name="L2ORDER"> F  </i>
   <i type="logical" name="LUSEW"> F  </i>
[...]
       <r>   13.8514    0.0000 </r>
      </set>
      <set comment="kpoint 736">
       <r>    2.4622    1.0000 </r>
       <r>    2.5456    1.0000 </r>
       <r>    2.8593    1.0000 </r>
       <r>    3.1799    1.0000 </r>
       <r>    3.2817    1.0000 </r>
       <r>    3.4797    1.0000 </r>
       <r>    3.9573    1.0000 </r>
       <r>    4.3165    1.0000 </r>
       <r>    4.5939    1.0000 </r>
       <r>    4.8502    1.0000 </r>
       <r>    5.9079    1.0000 </r>
       <r>    6.2005    1.0000 </r>
       <r>    6.4532    1.0000 </r>
       <r>    6.5360    1.0000 </r>
       <r>    6.6243    1.0000 </r>
       <r>    9.9211    0.0000 </r>
       <r>   10.5443    0.0000 </r>
       <r>   11.1100    0.0000 </r>
       <r>   11.3652    0.0000 </r>
       <r>   13.7453    0.0000 </r>
      </set>
      <set comment="kpoint 737">
       <r>    2.5161    1.0000 </r>
       <r>    2.5605    1.0000 </r>
       <r>    2.9358    1.0000 </r>
       <r>    3.2238    1.0000 </r>
       <r>    3.3452    1.0000 </r>
       <r>    3.4675    1.0000 </r>
       <r>    3.6665    1.0000 </r>
       <r>    4.3650    1.0000 </r>
       <r>    4.4435    1.0000 </r>
       <r>    4.8067    1.0000 </r>
       <r>    5.9441    1.0000 </r>
       <r>    6.1309    1.0000 </r>
       <r>    6.4443    1.0000 </r>
       <r>    6.5258    1.0000 </r>
       <r>    6.6810    1.0000 </r>
       <r>    9.3102    0.0000 </r>
       <r>    9.7733    0.0000 </r>
       <r>   12.2535    0.0000 </r>
       <r>   12.4462    0.0000 </r>
       <r>   13.4429    0.0000 </r>
      </set>
      <set comment="kpoint 738">
       <r>    2.6224    1.0000 </r>
       <r>    2.6364    1.0000 </r>
       <r>    2.9657    1.0000 </r>
       <r>    3.1874    1.0000 </r>
       <r>    3.2765    1.0000 </r>
       <r>    3.4429    1.0000 </r>
       <r>    3.7094    1.0000 </r>
       <r>    4.3715    1.0000 </r>
       <r>    4.4902    1.0000 </r>
       <r>    4.7554    1.0000 </r>
       <r>    5.9825    1.0000 </r>
       <r>    6.1433    1.0000 </r>
       <r>    6.4421    1.0000 </r>
       <r>    6.5142    1.0000 </r>
       <r>    6.6327    1.0000 </r>
       <r>    9.9774    0.0000 </r>
       <r>   10.5204    0.0000 </r>
       <r>   11.6464    0.0000 </r>
       <r>   11.9640    0.0000 </r>
       <r>   13.0683    0.0000 </r>
      </set>
      <set comment="kpoint 739">
       <r>    2.6677    1.0000 </r>
       <r>    2.6708    1.0000 </r>
       <r>    2.9592    1.0000 </r>
       <r>    3.1621    1.0000 </r>
       <r>    3.2612    1.0000 </r>
       <r>    3.4249    1.0000 </r>
       <r>    3.7389    1.0000 </r>
       <r>    4.3651    1.0000 </r>
       <r>    4.5296    1.0000 </r>
       <r>    4.7260    1.0000 </r>
       <r>    5.9935    1.0000 </r>
       <r>    6.1515    1.0000 </r>
       <r>    6.4477    1.0000 </r>
       <r>    6.5052    1.0000 </r>
       <r>    6.6091    1.0000 </r>
       <r>   10.4281    0.0000 </r>
       <r>   11.0624    0.0000 </r>
       <r>   11.3139    0.0000 </r>
       <r>   11.3837    0.0000 </r>
       <r>   12.9504    0.0000 </r>
      </set>
      <set comment="kpoint 740">
       <r>    2.7569    1.0000 </r>
       <r>    2.7871    1.0000 </r>
       <r>    2.9075    1.0000 </r>
       <r>    3.0748    1.0000 </r>
       <r>    3.3696    1.0000 </r>
       <r>    3.4654    1.0000 </r>
       <r>    3.5667    1.0000 </r>
       <r>    4.4312    1.0000 </r>
       <r>    4.4713    1.0000 </r>
       <r>    4.6689    1.0000 </r>
       <r>    6.0495    1.0000 </r>
       <r>    6.1109    1.0000 </r>
       <r>    6.4494    1.0000 </r>
       <r>    6.4836    1.0000 </r>
       <r>    6.6066    1.0000 </r>
       <r>   10.6038    0.0000 </r>
       <r>   11.0288    0.0000 </r>
       <r>   11.5512    0.0000 </r>
       <r>   11.8629    0.0000 </r>
       <r>   12.5057    0.0000 </r>
      </set>
     </set>
    </set>
   </array>
  </eigenvalues>
  <separator name="orbital magnetization" >
   <v name="MAGDIPOLOUT">      0.00000000      0.00000000      0.00000000</v>
  </separator>
  <dos>
   <i name="efermi">      8.23290210 </i>
   <total>
    <array>
     <dimension dim="1">gridpoints</dimension>
     <dimension dim="2">spin</dimension>
     <field>energy</field>
     <field>total</field>
     <field>integrated</field>
     <set>
      <set comment="spin 1">
       <r>    -4.1203     0.0000     0.0000 </r>
       <r>    -4.0342     0.0000     0.0000 </r>
       <r>    -3.9480     0.0000     0.0000 </r>
       <r>    -3.8618     0.0000     0.0000 </r>
       <r>    -3.7756     0.0000     0.0000 </r>
       <r>    -3.6894     0.0000     0.0000 </r>
       <r>    -3.6033     0.0000     0.0000 </r>
       <r>    -3.5171     0.0000     0.0000 </r>
       <r>    -3.4309     0.0000     0.0000 </r>
       <r>    -3.3447     0.0000     0.0000 </r>
       <r>    -3.2585     0.0000     0.0000 </r>
       <r>    -3.1724     0.0000     0.0000 </r>
       <r>    -3.0862     0.0000     0.0000 </r>
       <r>    -3.0000     0.0000     0.0000 </r>
       <r>    -2.9138     0.0000     0.0000 </r>
       <r>    -2.8276     0.0000     0.0000 </r>
       <r>    -2.7415     0.0000     0.0000 </r>
       <r>    -2.6553     0.0000     0.0000 </r>
       <r>    -2.5691     0.0000     0.0000 </r>
       <r>    -2.4829     0.0000     0.0000 </r>
       <r>    -2.3967     0.0000     0.0000 </r>
       <r>    -2.3106     0.0000     0.0000 </r>
       <r>    -2.2244     0.0000     0.0000 </r>
       <r>    -2.1382     0.0000     0.0000 </r>
       <r>    -2.0520     0.0000     0.0000 </r>
       <r>    -1.9658     0.0000     0.0000 </r>
       <r>    -1.8797     0.0000     0.0000 </r>
       <r>    -1.7935    -0.0001     0.0000 </r>
       <r>    -1.7073    -0.0004     0.0000 </r>
       <r>    -1.6211    -0.0010    -0.0001 </r>
       <r>    -1.5350    -0.0021    -0.0003 </r>
       <r>    -1.4488    -0.0034    -0.0006 </r>
       <r>    -1.3626    -0.0037    -0.0009 </r>
       <r>    -1.2764    -0.0005    -0.0010 </r>
       <r>    -1.1902     0.0095    -0.0001 </r>
       <r>    -1.1041     0.0282     0.0023 </r>
       <r>    -1.0179     0.0547     0.0070 </r>
       <r>    -0.9317     0.0856     0.0144 </r>
       <r>    -0.8455     0.1166     0.0244 </r>
       <r>    -0.7593     0.1453     0.0369 </r>
       <r>    -0.6732     0.1710     0.0517 </r>
       <r>    -0.5870     0.1943     0.0684 </r>
       <r>    -0.5008     0.2149     0.0869 </r>
       <r>    -0.4146     0.2319     0.1069 </r>
       <r>    -0.3284     0.2442     0.1280 </r>
       <r>    -0.2423     0.2526     0.1497 </r>
       <r>    -0.1561     0.2598     0.1721 </r>
       <r>    -0.0699     0.2689     0.1953 </r>
       <r>     0.0163     0.2823     0.2196 </r>
       <r>     0.1025     0.3009     0.2456 </r>
       <r>     0.1886     0.3238     0.2735 </r>
       <r>     0.2748     0.3490     0.3035 </r>
       <r>     0.3610     0.3750     0.3359 </r>
       <r>     0.4472     0.4028     0.3706 </r>
       <r>     0.5334     0.4351     0.4081 </r>
       <r>     0.6195     0.4727     0.4488 </r>
       <r>     0.7057     0.5133     0.4930 </r>
       <r>     0.7919     0.5528     0.5407 </r>
       <r>     0.8781     0.5881     0.5914 </r>
       <r>     0.9642     0.6173     0.6446 </r>
       <r>     1.0504     0.6433     0.7000 </r>
       <r>     1.1366     0.6814     0.7587 </r>
       <r>     1.2228     0.7647     0.8246 </r>
       <r>     1.3090     0.9349     0.9052 </r>
       <r>     1.3951     1.2201     1.0103 </r>
       <r>     1.4813     1.6122     1.1493 </r>
       <r>     1.5675     2.0605     1.3269 </r>
       <r>     1.6537     2.4859     1.5411 </r>
       <r>     1.7399     2.8178     1.7839 </r>
       <r>     1.8260     3.0388     2.0458 </r>
       <r>     1.9122     3.2056     2.3221 </r>
       <r>     1.9984     3.4168     2.6165 </r>
       <r>     2.0846     3.7421     2.9390 </r>
       <r>     2.1708     4.1637     3.2978 </r>
       <r>     2.2569     4.5759     3.6922 </r>
       <r>     2.3431     4.8435     4.1096 </r>
       <r>     2.4293     4.8833     4.5304 </r>
       <r>     2.5155     4.7128     4.9366 </r>
       <r>     2.6017     4.4346     5.3187 </r>
       <r>     2.6878     4.1746     5.6785 </r>
       <r>     2.7740     4.0267     6.0255 </r>
       <r>     2.8602     4.0330     6.3731 </r>
       <r>     2.9464     4.1830     6.7336 </r>
       <r>     3.0326     4.4257     7.1150 </r>
       <r>     3.1187     4.7039     7.5204 </r>
       <r>     3.2049     4.9991     7.9512 </r>
       <r>     3.2911     5.3322     8.4107 </r>
       <r>     3.3773     5.7065     8.9025 </r>
       <r>     3.4635     6.0590     9.4246 </r>
       <r>     3.5496     6.2840     9.9662 </r>
       <r>     3.6358     6.3086    10.5099 </r>
       <r>     3.7220     6.1439    11.0393 </r>
       <r>     3.8082     5.8781    11.5459 </r>
       <r>     3.8943     5.6271    12.0309 </r>
       <r>     3.9805     5.4818    12.5033 </r>
       <r>     4.0667     5.4736    12.9750 </r>
       <r>     4.1529     5.5645    13.4545 </r>
       <r>     4.2391     5.6645    13.9427 </r>
       <r>     4.3252     5.6898    14.4330 </r>
       <r>     4.4114     5.6422    14.9193 </r>
       <r>     4.4976     5.6424    15.4055 </r>
       <r>     4.5838     5.8508    15.9098 </r>
       <r>     4.6700     6.3185    16.4543 </r>
       <r>     4.7561     6.8926    17.0483 </r>
       <r>     4.8423     7.2772    17.6754 </r>
       <r>     4.9285     7.2161    18.2973 </r>
       <r>     5.0147     6.6606    18.8713 </r>
       <r>     5.1009     5.7956    19.3708 </r>
       <r>     5.1870     4.9171    19.7945 </r>
       <r>     5.2732     4.2761    20.1630 </r>
       <r>     5.3594     4.0016    20.5079 </r>
       <r>     5.4456     4.1070    20.8618 </r>
       <r>     5.5318     4.5146    21.2509 </r>
       <r>     5.6179     5.0724    21.6880 </r>
       <r>     5.7041     5.6062    22.1712 </r>
       <r>     5.7903     6.0198    22.6900 </r>
       <r>     5.8765     6.3609    23.2381 </r>
       <r>     5.9627     6.7727    23.8218 </r>
       <r>     6.0488     7.3683    24.4568 </r>
       <r>     6.1350     8.1547    25.1596 </r>
       <r>     6.2212     9.0639    25.9407 </r>
       <r>     6.3074    10.0088    26.8032 </r>
       <r>     6.3935    10.8512    27.7384 </r>
       <r>     6.4797    11.3126    28.7133 </r>
       <r>     6.5659    10.9997    29.6613 </r>
       <r>     6.6521     9.6478    30.4927 </r>
       <r>     6.7383     7.4097    31.1313 </r>
       <r>     6.8244     4.8758    31.5515 </r>
       <r>     6.9106     2.7404    31.7876 </r>
       <r>     6.9968     1.3994    31.9082 </r>
       <r>     7.0830     0.8198    31.9789 </r>
       <r>     7.1692     0.7170    32.0407 </r>
       <r>     7.2553     0.8003    32.1096 </r>
       <r>     7.3415     0.8941    32.1867 </r>
       <r>     7.4277     0.9347    32.2672 </r>
       <r>     7.5139     0.9296    32.3474 </r>
       <r>     7.6001     0.9177    32.4264 </r>
       <r>     7.6862     0.9291    32.5065 </r>
       <r>     7.7724     0.9576    32.5890 </r>
       <r>     7.8586     0.9694    32.6726 </r>
       <r>     7.9448     0.9400    32.7536 </r>
       <r>     8.0310     0.8823    32.8296 </r>
       <r>     8.1171     0.8381    32.9019 </r>
       <r>     8.2033     0.8411    32.9743 </r>
       <r>     8.2895     0.8846    33.0506 </r>
       <r>     8.3757     0.9260    33.1304 </r>
       <r>     8.4619     0.9240    33.2100 </r>
       <r>     8.5480     0.8758    33.2855 </r>
       <r>     8.6342     0.8177    33.3559 </r>
       <r>     8.7204     0.7912    33.4241 </r>
       <r>     8.8066     0.8086    33.4938 </r>
       <r>     8.8927     0.8478    33.5669 </r>
       <r>     8.9789     0.8744    33.6422 </r>
       <r>     9.0651     0.8683    33.7171 </r>
       <r>     9.1513     0.8336    33.7889 </r>
       <r>     9.2375     0.7922    33.8572 </r>
       <r>     9.3236     0.7678    33.9233 </r>
       <r>     9.4098     0.7715    33.9898 </r>
       <r>     9.4960     0.7946    34.0583 </r>
       <r>     9.5822     0.8183    34.1288 </r>
       <r>     9.6684     0.8317    34.2005 </r>
       <r>     9.7545     0.8381    34.2727 </r>
       <r>     9.8407     0.8422    34.3453 </r>
       <r>     9.9269     0.8392    34.4176 </r>
       <r>    10.0131     0.8228    34.4886 </r>
       <r>    10.0993     0.8005    34.5575 </r>
       <r>    10.1854     0.7895    34.6256 </r>
       <r>    10.2716     0.7958    34.6942 </r>
       <r>    10.3578     0.8028    34.7633 </r>
       <r>    10.4440     0.7885    34.8313 </r>
       <r>    10.5302     0.7512    34.8960 </r>
       <r>    10.6163     0.7129    34.9575 </r>
       <r>    10.7025     0.6991    35.0177 </r>
       <r>    10.7887     0.7170    35.0795 </r>
       <r>    10.8749     0.7557    35.1446 </r>
       <r>    10.9611     0.8016    35.2137 </r>
       <r>    11.0472     0.8481    35.2868 </r>
       <r>    11.1334     0.8910    35.3636 </r>
       <r>    11.2196     0.9236    35.4432 </r>
       <r>    11.3058     0.9423    35.5244 </r>
       <r>    11.3920     0.9531    35.6065 </r>
       <r>    11.4781     0.9657    35.6898 </r>
       <r>    11.5643     0.9804    35.7742 </r>
       <r>    11.6505     0.9863    35.8592 </r>
       <r>    11.7367     0.9755    35.9433 </r>
       <r>    11.8228     0.9548    36.0256 </r>
       <r>    11.9090     0.9395    36.1066 </r>
       <r>    11.9952     0.9361    36.1872 </r>
       <r>    12.0814     0.9368    36.2680 </r>
       <r>    12.1676     0.9324    36.3483 </r>
       <r>    12.2537     0.9239    36.4279 </r>
       <r>    12.3399     0.9174    36.5070 </r>
       <r>    12.4261     0.9129    36.5857 </r>
       <r>    12.5123     0.9032    36.6635 </r>
       <r>    12.5985     0.8838    36.7397 </r>
       <r>    12.6846     0.8598    36.8138 </r>
       <r>    12.7708     0.8400    36.8861 </r>
       <r>    12.8570     0.8288    36.9576 </r>
       <r>    12.9432     0.8264    37.0288 </r>
       <r>    13.0294     0.8340    37.1007 </r>
       <r>    13.1155     0.8535    37.1742 </r>
       <r>    13.2017     0.8799    37.2500 </r>
       <r>    13.2879     0.8996    37.3276 </r>
       <r>    13.3741     0.9002    37.4051 </r>
       <r>    13.4603     0.8832    37.4813 </r>
       <r>    13.5464     0.8655    37.5559 </r>
       <r>    13.6326     0.8683    37.6307 </r>
       <r>    13.7188     0.9038    37.7086 </r>
       <r>    13.8050     0.9711    37.7923 </r>
       <r>    13.8912     1.0564    37.8833 </r>
       <r>    13.9773     1.1358    37.9812 </r>
       <r>    14.0635     1.1830    38.0831 </r>
       <r>    14.1497     1.1829    38.1851 </r>
       <r>    14.2359     1.1410    38.2834 </r>
       <r>    14.3220     1.0749    38.3760 </r>
       <r>    14.4082     0.9980    38.4620 </r>
       <r>    14.4944     0.9134    38.5408 </r>
       <r>    14.5806     0.8248    38.6118 </r>
       <r>    14.6668     0.7453    38.6761 </r>
       <r>    14.7529     0.6919    38.7357 </r>
       <r>    14.8391     0.6716    38.7936 </r>
       <r>    14.9253     0.6742    38.8517 </r>
       <r>    15.0115     0.6786    38.9102 </r>
       <r>    15.0977     0.6667    38.9676 </r>
       <r>    15.1838     0.6359    39.0224 </r>
       <r>    15.2700     0.5999    39.0741 </r>
       <r>    15.3562     0.5761    39.1238 </r>
       <r>    15.4424     0.5708    39.1730 </r>
       <r>    15.5286     0.5748    39.2225 </r>
       <r>    15.6147     0.5748    39.2720 </r>
       <r>    15.7009     0.5651    39.3207 </r>
       <r>    15.7871     0.5501    39.3681 </r>
       <r>    15.8733     0.5370    39.4144 </r>
       <r>    15.9595     0.5287    39.4600 </r>
       <r>    16.0456     0.5240    39.5051 </r>
       <r>    16.1318     0.5228    39.5502 </r>
       <r>    16.2180     0.5300    39.5959 </r>
       <r>    16.3042     0.5510    39.6434 </r>
       <r>    16.3904     0.5811    39.6934 </r>
       <r>    16.4765     0.6003    39.7452 </r>
       <r>    16.5627     0.5815    39.7953 </r>
       <r>    16.6489     0.5090    39.8392 </r>
       <r>    16.7351     0.3934    39.8731 </r>
       <r>    16.8212     0.2671    39.8961 </r>
       <r>    16.9074     0.1646    39.9103 </r>
       <r>    16.9936     0.1031    39.9191 </r>
       <r>    17.0798     0.0788    39.9259 </r>
       <r>    17.1660     0.0757    39.9325 </r>
       <r>    17.2521     0.0772    39.9391 </r>
       <r>    17.3383     0.0729    39.9454 </r>
       <r>    17.4245     0.0604    39.9506 </r>
       <r>    17.5107     0.0433    39.9543 </r>
       <r>    17.5969     0.0271    39.9567 </r>
       <r>    17.6830     0.0157    39.9580 </r>
       <r>    17.7692     0.0111    39.9590 </r>
       <r>    17.8554     0.0134    39.9601 </r>
       <r>    17.9416     0.0226    39.9621 </r>
       <r>    18.0278     0.0369    39.9652 </r>
       <r>    18.1139     0.0523    39.9698 </r>
       <r>    18.2001     0.0634    39.9752 </r>
       <r>    18.2863     0.0658    39.9809 </r>
       <r>    18.3725     0.0596    39.9860 </r>
       <r>    18.4587     0.0488    39.9902 </r>
       <r>    18.5448     0.0381    39.9935 </r>
       <r>    18.6310     0.0296    39.9961 </r>
       <r>    18.7172     0.0224    39.9980 </r>
       <r>    18.8034     0.0153    39.9993 </r>
       <r>    18.8896     0.0083    40.0000 </r>
       <r>    18.9757     0.0029    40.0003 </r>
       <r>    19.0619    -0.0002    40.0003 </r>
       <r>    19.1481    -0.0012    40.0002 </r>
       <r>    19.2343    -0.0010    40.0001 </r>
       <r>    19.3205    -0.0006    40.0000 </r>
       <r>    19.4066    -0.0003    40.0000 </r>
       <r>    19.4928    -0.0001    40.0000 </r>
       <r>    19.5790     0.0000    40.0000 </r>
       <r>    19.6652     0.0000    40.0000 </r>
       <r>    19.7513     0.0000    40.0000 </r>
       <r>    19.8375     0.0000    40.0000 </r>
       <r>    19.9237     0.0000    40.0000 </r>
       <r>    20.0099     0.0000    40.0000 </r>
       <r>    20.0961     0.0000    40.0000 </r>
       <r>    20.1822     0.0000    40.0000 </r>
       <r>    20.2684     0.0000    40.0000 </r>
       <r>    20.3546     0.0000    40.0000 </r>
       <r>    20.4408     0.0000    40.0000 </r>
       <r>    20.5270     0.0000    40.0000 </r>
       <r>    20.6131     0.0000    40.0000 </r>
       <r>    20.6993     0.0000    40.0000 </r>
       <r>    20.7855     0.0000    40.0000 </r>
       <r>    20.8717     0.0000    40.0000 </r>
       <r>    20.9579     0.0000    40.0000 </r>
       <r>    21.0440     0.0000    40.0000 </r>
       <r>    21.1302     0.0000    40.0000 </r>
       <r>    21.2164     0.0000    40.0000 </r>
       <r>    21.3026     0.0000    40.0000 </r>
       <r>    21.3888     0.0000    40.0000 </r>
       <r>    21.4749     0.0000    40.0000 </r>
       <r>    21.5611     0.0000    40.0000 </r>
       <r>    21.6473     0.0000    40.0000 </r>
       <r>    21.7335     0.0000    40.0000 </r>
      </set>
     </set>
    </array>
   </total>
  </dos>
 </calculation>
 <structure name="finalpos" >
  <crystal>
   <varray name="basis" >
    <v>      -2.04071962       2.04071962       0.00000000 </v>
    <v>       0.00000000      -2.04071962      -2.04071962 </v>
    <v>      -3.89656135      -3.89656135       3.89656135 </v>
   </varray>
   <i name="volume">     48.68211671 </i>
   <varray name="rec_basis" >
    <v>      -0.32668215       0.16334107      -0.16334107 </v>
    <v>      -0.16334107      -0.16334107      -0.32668215 </v>
    <v>      -0.08554551      -0.08554551       0.08554551 </v>
   </varray>
  </crystal>
  <varray name="positions" >
   <v>       0.33333333       0.66666667       0.33333333 </v>
   <v>       0.00000000       0.00000000       0.01977940 </v>
   <v>       0.66666667       0.33333333       0.64688726 </v>
  </varray>
 </structure>
</modeling>
