<?xml version="1.0" encoding="ISO-8859-1"?>
<modeling>
 <generator>
  <i name="program" type="string">vasp </i>
  <i name="version" type="string">5.3.5  </i>
  <i name="subversion" type="string">31Mar14 (build Jun 20 2014 13:15:13) complex                          parallel </i>
  <i name="platform" type="string">LinuxIFC </i>
  <i name="date" type="string">2025 11 26 </i>
  <i name="time" type="string">21:53:39 </i>
 </generator>
 <incar>
  <i type="string" name="PREC">accurate</i>
  <i type="int" name="IALGO">    68</i>
  <i type="logical" name="ADDGRID"> T  </i>
  <i type="int" name="NELM">   200</i>
  <i type="int" name="NELMIN">     4</i>
  <i type="int" name="IBRION">     2</i>
  <i name="EDIFF">      0.00000100</i>
  <i name="EDIFFG">     -0.02000000</i>
  <i type="int" name="NSW">    30</i>
  <i type="int" name="ISIF">     3</i>
  <i name="ENCUT">    500.00000000</i>
  <i type="logical" name="LREAL"> F  </i>
  <i type="int" name="ISMEAR">     1</i>
  <i name="SIGMA">      0.30000000</i>
  <i type="logical" name="LWAVE"> F  </i>
  <i type="logical" name="LCHARG"> F  </i>
  <i type="int" name="NELM">   200</i>
 </incar>
 <kpoints>
  <generation param="Auto">
   <i name="subdivisionlength">     70.00000000 </i>
   <v type="int" name="divisions">      29       29        6 </v>
   <v name="usershift">      0.00000000       0.00000000       0.00000000 </v>
   <v name="genvec1">      0.03448276       0.00000000       0.00000000 </v>
   <v name="genvec2">      0.00000000       0.03448276       0.00000000 </v>
   <v name="genvec3">      0.00000000       0.00000000       0.16666667 </v>
   <v name="shift">      0.00000000       0.00000000       0.00000000 </v>
  </generation>
  <varray name="kpointlist" >
   <v>       0.00000000       0.00000000       0.00000000 </v>
   <v>       0.03448276       0.00000000       0.00000000 </v>
   <v>       0.06896552       0.00000000       0.00000000 </v>
   <v>       0.10344828       0.00000000       0.00000000 </v>
   <v>       0.13793103       0.00000000       0.00000000 </v>
   <v>       0.17241379       0.00000000       0.00000000 </v>
   <v>       0.20689655       0.00000000       0.00000000 </v>
   <v>       0.24137931       0.00000000       0.00000000 </v>
   <v>       0.27586207       0.00000000       0.00000000 </v>
   <v>       0.31034483       0.00000000       0.00000000 </v>
   <v>       0.34482759       0.00000000       0.00000000 </v>
   <v>       0.37931034       0.00000000       0.00000000 </v>
   <v>       0.41379310       0.00000000       0.00000000 </v>
   <v>       0.44827586       0.00000000       0.00000000 </v>
   <v>       0.48275862       0.00000000       0.00000000 </v>
   <v>       0.00000000       0.03448276       0.00000000 </v>
   <v>       0.03448276       0.03448276       0.00000000 </v>
   <v>       0.06896552       0.03448276       0.00000000 </v>
   <v>       0.10344828       0.03448276       0.00000000 </v>
   <v>       0.13793103       0.03448276       0.00000000 </v>
   <v>       0.17241379       0.03448276       0.00000000 </v>
   <v>       0.20689655       0.03448276       0.00000000 </v>
   <v>       0.24137931       0.03448276       0.00000000 </v>
   <v>       0.27586207       0.03448276       0.00000000 </v>
   <v>       0.31034483       0.03448276       0.00000000 </v>
   <v>       0.34482759       0.03448276       0.00000000 </v>
   <v>       0.37931034       0.03448276       0.00000000 </v>
   <v>       0.41379310       0.03448276       0.00000000 </v>
   <v>       0.44827586       0.03448276       0.00000000 </v>
   <v>       0.48275862       0.03448276       0.00000000 </v>
   <v>       0.00000000       0.06896552       0.00000000 </v>
   <v>       0.03448276       0.06896552       0.00000000 </v>
   <v>       0.06896552       0.06896552       0.00000000 </v>
   <v>       0.10344828       0.06896552       0.00000000 </v>
   <v>       0.13793103       0.06896552       0.00000000 </v>
   <v>       0.17241379       0.06896552       0.00000000 </v>
   <v>       0.20689655       0.06896552       0.00000000 </v>
   <v>       0.24137931       0.06896552       0.00000000 </v>
   <v>       0.27586207       0.06896552       0.00000000 </v>
   <v>       0.31034483       0.06896552       0.00000000 </v>
   <v>       0.34482759       0.06896552       0.00000000 </v>
   <v>       0.37931034       0.06896552       0.00000000 </v>
   <v>       0.41379310       0.06896552       0.00000000 </v>
   <v>       0.44827586       0.06896552       0.00000000 </v>
   <v>      -0.03448276       0.06896552       0.00000000 </v>
   <v>       0.00000000       0.10344828       0.00000000 </v>
   <v>       0.03448276       0.10344828       0.00000000 </v>
   <v>       0.06896552       0.10344828       0.00000000 </v>
   <v>       0.10344828       0.10344828       0.00000000 </v>
   <v>       0.13793103       0.10344828       0.00000000 </v>
   <v>       0.17241379       0.10344828       0.00000000 </v>
   <v>       0.20689655       0.10344828       0.00000000 </v>
   <v>       0.24137931       0.10344828       0.00000000 </v>
   <v>       0.27586207       0.10344828       0.00000000 </v>
   <v>       0.31034483       0.10344828       0.00000000 </v>
   <v>       0.34482759       0.10344828       0.00000000 </v>
   <v>       0.37931034       0.10344828       0.00000000 </v>
   <v>       0.41379310       0.10344828       0.00000000 </v>
   <v>       0.44827586       0.10344828       0.00000000 </v>
   <v>      -0.06896552       0.10344828       0.00000000 </v>
   <v>       0.00000000       0.13793103       0.00000000 </v>
   <v>       0.03448276       0.13793103       0.00000000 </v>
   <v>       0.06896552       0.13793103       0.00000000 </v>
   <v>       0.10344828       0.13793103       0.00000000 </v>
   <v>       0.13793103       0.13793103       0.00000000 </v>
   <v>       0.17241379       0.13793103       0.00000000 </v>
   <v>       0.20689655       0.13793103       0.00000000 </v>
   <v>       0.24137931       0.13793103       0.00000000 </v>
   <v>       0.27586207       0.13793103       0.00000000 </v>
   <v>       0.31034483       0.13793103       0.00000000 </v>
   <v>       0.34482759       0.13793103       0.00000000 </v>
   <v>       0.37931034       0.13793103       0.00000000 </v>
   <v>       0.41379310       0.13793103       0.00000000 </v>
   <v>      -0.10344828       0.13793103       0.00000000 </v>
   <v>      -0.06896552       0.13793103       0.00000000 </v>
   <v>       0.00000000       0.17241379       0.00000000 </v>
   <v>       0.03448276       0.17241379       0.00000000 </v>
   <v>       0.06896552       0.17241379       0.00000000 </v>
   <v>       0.10344828       0.17241379       0.00000000 </v>
   <v>       0.13793103       0.17241379       0.00000000 </v>
   <v>       0.17241379       0.17241379       0.00000000 </v>
   <v>       0.20689655       0.17241379       0.00000000 </v>
   <v>       0.24137931       0.17241379       0.00000000 </v>
   <v>       0.27586207       0.17241379       0.00000000 </v>
   <v>       0.31034483       0.17241379       0.00000000 </v>
   <v>       0.34482759       0.17241379       0.00000000 </v>
   <v>       0.37931034       0.17241379       0.00000000 </v>
   <v>       0.41379310       0.17241379       0.00000000 </v>
   <v>      -0.13793103       0.17241379       0.00000000 </v>
   <v>      -0.10344828       0.17241379       0.00000000 </v>
   <v>       0.00000000       0.20689655       0.00000000 </v>
   <v>       0.03448276       0.20689655       0.00000000 </v>
   <v>       0.06896552       0.20689655       0.00000000 </v>
   <v>       0.10344828       0.20689655       0.00000000 </v>
   <v>       0.13793103       0.20689655       0.00000000 </v>
   <v>       0.17241379       0.20689655       0.00000000 </v>
   <v>       0.20689655       0.20689655       0.00000000 </v>
   <v>       0.24137931       0.20689655       0.00000000 </v>
   <v>       0.27586207       0.20689655       0.00000000 </v>
   <v>       0.31034483       0.20689655       0.00000000 </v>
   <v>       0.34482759       0.20689655       0.00000000 </v>
   <v>       0.37931034       0.20689655       0.00000000 </v>
   <v>      -0.17241379       0.20689655       0.00000000 </v>
   <v>      -0.13793103       0.20689655       0.00000000 </v>
   <v>      -0.10344828       0.20689655       0.00000000 </v>
   <v>       0.00000000       0.24137931       0.00000000 </v>
   <v>       0.03448276       0.24137931       0.00000000 </v>
   <v>       0.06896552       0.24137931       0.00000000 </v>
   <v>       0.10344828       0.24137931       0.00000000 </v>
   <v>       0.13793103       0.24137931       0.00000000 </v>
   <v>       0.17241379       0.24137931       0.00000000 </v>
   <v>       0.20689655       0.24137931       0.00000000 </v>
   <v>       0.24137931       0.24137931       0.00000000 </v>
   <v>       0.27586207       0.24137931       0.00000000 </v>
   <v>       0.31034483       0.24137931       0.00000000 </v>
   <v>       0.34482759       0.24137931       0.00000000 </v>
   <v>       0.37931034       0.24137931       0.00000000 </v>
   <v>      -0.20689655       0.24137931       0.00000000 </v>
   <v>      -0.17241379       0.24137931       0.00000000 </v>
   <v>      -0.13793103       0.24137931       0.00000000 </v>
   <v>       0.00000000       0.27586207       0.00000000 </v>
   <v>       0.03448276       0.27586207       0.00000000 </v>
   <v>       0.06896552       0.27586207       0.00000000 </v>
   <v>       0.10344828       0.27586207       0.00000000 </v>
   <v>       0.13793103       0.27586207       0.00000000 </v>
   <v>       0.17241379       0.27586207       0.00000000 </v>
   <v>       0.20689655       0.27586207       0.00000000 </v>
   <v>       0.24137931       0.27586207       0.00000000 </v>
   <v>       0.27586207       0.27586207       0.00000000 </v>
   <v>       0.31034483       0.27586207       0.00000000 </v>
   <v>       0.34482759       0.27586207       0.00000000 </v>
   <v>      -0.24137931       0.27586207       0.00000000 </v>
   <v>      -0.20689655       0.27586207       0.00000000 </v>
   <v>      -0.17241379       0.27586207       0.00000000 </v>
   <v>      -0.13793103       0.27586207       0.00000000 </v>
   <v>       0.00000000       0.31034483       0.00000000 </v>
   <v>       0.03448276       0.31034483       0.00000000 </v>
   <v>       0.06896552       0.31034483       0.00000000 </v>
   <v>       0.10344828       0.31034483       0.00000000 </v>
   <v>       0.13793103       0.31034483       0.00000000 </v>
   <v>       0.17241379       0.31034483       0.00000000 </v>
   <v>       0.20689655       0.31034483       0.00000000 </v>
   <v>       0.24137931       0.31034483       0.00000000 </v>
   <v>       0.27586207       0.31034483       0.00000000 </v>
   <v>       0.31034483       0.31034483       0.00000000 </v>
   <v>       0.34482759       0.31034483       0.00000000 </v>
   <v>      -0.27586207       0.31034483       0.00000000 </v>
   <v>      -0.24137931       0.31034483       0.00000000 </v>
   <v>      -0.20689655       0.31034483       0.00000000 </v>
   <v>      -0.17241379       0.31034483       0.00000000 </v>
   <v>       0.00000000       0.34482759       0.00000000 </v>
   <v>       0.03448276       0.34482759       0.00000000 </v>
   <v>       0.06896552       0.34482759       0.00000000 </v>
   <v>       0.10344828       0.34482759       0.00000000 </v>
   <v>       0.13793103       0.34482759       0.00000000 </v>
   <v>       0.17241379       0.34482759       0.00000000 </v>
   <v>       0.20689655       0.34482759       0.00000000 </v>
   <v>       0.24137931       0.34482759       0.00000000 </v>
   <v>       0.27586207       0.34482759       0.00000000 </v>
   <v>       0.31034483       0.34482759       0.00000000 </v>
   <v>      -0.31034483       0.34482759       0.00000000 </v>
   <v>      -0.27586207       0.34482759       0.00000000 </v>
   <v>      -0.24137931       0.34482759       0.00000000 </v>
   <v>      -0.20689655       0.34482759       0.00000000 </v>
   <v>      -0.17241379       0.34482759       0.00000000 </v>
   <v>       0.00000000       0.37931034       0.00000000 </v>
   <v>       0.03448276       0.37931034       0.00000000 </v>
   <v>       0.06896552       0.37931034       0.00000000 </v>
   <v>       0.10344828       0.37931034       0.00000000 </v>
   <v>       0.13793103       0.37931034       0.00000000 </v>
   <v>       0.17241379       0.37931034       0.00000000 </v>
   <v>       0.20689655       0.37931034       0.00000000 </v>
   <v>       0.24137931       0.37931034       0.00000000 </v>
   <v>       0.27586207       0.37931034       0.00000000 </v>
   <v>       0.31034483       0.37931034       0.00000000 </v>
   <v>      -0.34482759       0.37931034       0.00000000 </v>
   <v>      -0.31034483       0.37931034       0.00000000 </v>
   <v>      -0.27586207       0.37931034       0.00000000 </v>
   <v>      -0.24137931       0.37931034       0.00000000 </v>
   <v>      -0.20689655       0.37931034       0.00000000 </v>
   <v>       0.00000000       0.41379310       0.00000000 </v>
   <v>       0.03448276       0.41379310       0.00000000 </v>
   <v>       0.06896552       0.41379310       0.00000000 </v>
   <v>       0.10344828       0.41379310       0.00000000 </v>
   <v>       0.13793103       0.41379310       0.00000000 </v>
   <v>       0.17241379       0.41379310       0.00000000 </v>
   <v>       0.20689655       0.41379310       0.00000000 </v>
   <v>       0.24137931       0.41379310       0.00000000 </v>
   <v>       0.27586207       0.41379310       0.00000000 </v>
   <v>      -0.37931034       0.41379310       0.00000000 </v>
   <v>      -0.34482759       0.41379310       0.00000000 </v>
   <v>      -0.31034483       0.41379310       0.00000000 </v>
   <v>      -0.27586207       0.41379310       0.00000000 </v>
   <v>      -0.24137931       0.41379310       0.00000000 </v>
   <v>      -0.20689655       0.41379310       0.00000000 </v>
   <v>       0.00000000       0.44827586       0.00000000 </v>
   <v>       0.03448276       0.44827586       0.00000000 </v>
   <v>       0.06896552       0.44827586       0.00000000 </v>
   <v>       0.10344828       0.44827586       0.00000000 </v>
   <v>       0.13793103       0.44827586       0.00000000 </v>
   <v>       0.17241379       0.44827586       0.00000000 </v>
   <v>       0.20689655       0.44827586       0.00000000 </v>
   <v>       0.24137931       0.44827586       0.00000000 </v>
   <v>       0.27586207       0.44827586       0.00000000 </v>
   <v>      -0.41379310       0.44827586       0.00000000 </v>
   <v>      -0.37931034       0.44827586       0.00000000 </v>
   <v>      -0.34482759       0.44827586       0.00000000 </v>
   <v>      -0.31034483       0.44827586       0.00000000 </v>
   <v>      -0.27586207       0.44827586       0.00000000 </v>
   <v>      -0.24137931       0.44827586       0.00000000 </v>
   <v>       0.00000000       0.48275862       0.00000000 </v>
   <v>       0.03448276       0.48275862       0.00000000 </v>
   <v>       0.06896552       0.48275862       0.00000000 </v>
   <v>       0.10344828       0.48275862       0.00000000 </v>
   <v>       0.13793103       0.48275862       0.00000000 </v>
   <v>       0.17241379       0.48275862       0.00000000 </v>
   <v>       0.20689655       0.48275862       0.00000000 </v>
   <v>       0.24137931       0.48275862       0.00000000 </v>
   <v>      -0.44827586       0.48275862       0.00000000 </v>
   <v>      -0.41379310       0.48275862       0.00000000 </v>
   <v>      -0.37931034       0.48275862       0.00000000 </v>
   <v>      -0.34482759       0.48275862       0.00000000 </v>
   <v>      -0.31034483       0.48275862       0.00000000 </v>
   <v>      -0.27586207       0.48275862       0.00000000 </v>
   <v>      -0.24137931       0.48275862       0.00000000 </v>
   <v>       0.00000000       0.00000000       0.16666667 </v>
   <v>       0.03448276       0.00000000       0.16666667 </v>
   <v>       0.06896552       0.00000000       0.16666667 </v>
   <v>       0.10344828       0.00000000       0.16666667 </v>
   <v>       0.13793103       0.00000000       0.16666667 </v>
   <v>       0.17241379       0.00000000       0.16666667 </v>
   <v>       0.20689655       0.00000000       0.16666667 </v>
   <v>       0.24137931       0.00000000       0.16666667 </v>
   <v>       0.27586207       0.00000000       0.16666667 </v>
   <v>       0.31034483       0.00000000       0.16666667 </v>
   <v>       0.34482759       0.00000000       0.16666667 </v>
   <v>       0.37931034       0.00000000       0.16666667 </v>
   <v>       0.41379310       0.00000000       0.16666667 </v>
   <v>       0.44827586       0.00000000       0.16666667 </v>
   <v>       0.48275862       0.00000000       0.16666667 </v>
   <v>      -0.48275862       0.00000000       0.16666667 </v>
   <v>      -0.44827586       0.00000000       0.16666667 </v>
   <v>      -0.41379310       0.00000000       0.16666667 </v>
   <v>      -0.37931034       0.00000000       0.16666667 </v>
   <v>      -0.34482759       0.00000000       0.16666667 </v>
   <v>      -0.31034483       0.00000000       0.16666667 </v>
   <v>      -0.27586207       0.00000000       0.16666667 </v>
   <v>      -0.24137931       0.00000000       0.16666667 </v>
   <v>      -0.20689655       0.00000000       0.16666667 </v>
   <v>      -0.17241379       0.00000000       0.16666667 </v>
   <v>      -0.13793103       0.00000000       0.16666667 </v>
   <v>      -0.10344828       0.00000000       0.16666667 </v>
   <v>      -0.06896552       0.00000000       0.16666667 </v>
   <v>      -0.03448276       0.00000000       0.16666667 </v>
   <v>       0.00000000       0.03448276       0.16666667 </v>
   <v>       0.03448276       0.03448276       0.16666667 </v>
   <v>       0.06896552       0.03448276       0.16666667 </v>
   <v>       0.10344828       0.03448276       0.16666667 </v>
   <v>       0.13793103       0.03448276       0.16666667 </v>
   <v>       0.17241379       0.03448276       0.16666667 </v>
   <v>       0.20689655       0.03448276       0.16666667 </v>
   <v>       0.24137931       0.03448276       0.16666667 </v>
   <v>       0.27586207       0.03448276       0.16666667 </v>
   <v>       0.31034483       0.03448276       0.16666667 </v>
   <v>       0.34482759       0.03448276       0.16666667 </v>
   <v>       0.37931034       0.03448276       0.16666667 </v>
   <v>       0.41379310       0.03448276       0.16666667 </v>
   <v>       0.44827586       0.03448276       0.16666667 </v>
   <v>       0.48275862       0.03448276       0.16666667 </v>
   <v>      -0.48275862       0.03448276       0.16666667 </v>
   <v>      -0.44827586       0.03448276       0.16666667 </v>
   <v>      -0.41379310       0.03448276       0.16666667 </v>
   <v>      -0.37931034       0.03448276       0.16666667 </v>
   <v>      -0.34482759       0.03448276       0.16666667 </v>
   <v>      -0.31034483       0.03448276       0.16666667 </v>
   <v>      -0.27586207       0.03448276       0.16666667 </v>
   <v>      -0.24137931       0.03448276       0.16666667 </v>
   <v>      -0.20689655       0.03448276       0.16666667 </v>
   <v>      -0.17241379       0.03448276       0.16666667 </v>
   <v>      -0.13793103       0.03448276       0.16666667 </v>
   <v>      -0.10344828       0.03448276       0.16666667 </v>
   <v>      -0.06896552       0.03448276       0.16666667 </v>
   <v>      -0.03448276       0.03448276       0.16666667 </v>
   <v>       0.00000000       0.06896552       0.16666667 </v>
   <v>       0.03448276       0.06896552       0.16666667 </v>
   <v>       0.06896552       0.06896552       0.16666667 </v>
   <v>       0.10344828       0.06896552       0.16666667 </v>
   <v>       0.13793103       0.06896552       0.16666667 </v>
   <v>       0.17241379       0.06896552       0.16666667 </v>
   <v>       0.20689655       0.06896552       0.16666667 </v>
   <v>       0.24137931       0.06896552       0.16666667 </v>
   <v>       0.27586207       0.06896552       0.16666667 </v>
   <v>       0.31034483       0.06896552       0.16666667 </v>
   <v>       0.34482759       0.06896552       0.16666667 </v>
   <v>       0.37931034       0.06896552       0.16666667 </v>
   <v>       0.41379310       0.06896552       0.16666667 </v>
   <v>       0.44827586       0.06896552       0.16666667 </v>
   <v>       0.48275862       0.06896552       0.16666667 </v>
   <v>      -0.48275862       0.06896552       0.16666667 </v>
   <v>      -0.44827586       0.06896552       0.16666667 </v>
   <v>      -0.41379310       0.06896552       0.16666667 </v>
   <v>      -0.37931034       0.06896552       0.16666667 </v>
   <v>      -0.34482759       0.06896552       0.16666667 </v>
   <v>      -0.31034483       0.06896552       0.16666667 </v>
   <v>      -0.27586207       0.06896552       0.16666667 </v>
   <v>      -0.24137931       0.06896552       0.16666667 </v>
   <v>      -0.20689655       0.06896552       0.16666667 </v>
   <v>      -0.17241379       0.06896552       0.16666667 </v>
   <v>      -0.13793103       0.06896552       0.16666667 </v>
   <v>      -0.10344828       0.06896552       0.16666667 </v>
   <v>      -0.06896552       0.06896552       0.16666667 </v>
   <v>      -0.03448276       0.06896552       0.16666667 </v>
   <v>       0.00000000       0.10344828       0.16666667 </v>
   <v>       0.03448276       0.10344828       0.16666667 </v>
   <v>       0.06896552       0.10344828       0.16666667 </v>
   <v>       0.10344828       0.10344828       0.16666667 </v>
   <v>       0.13793103       0.10344828       0.16666667 </v>
   <v>       0.17241379       0.10344828       0.16666667 </v>
   <v>       0.20689655       0.10344828       0.16666667 </v>
   <v>       0.24137931       0.10344828       0.16666667 </v>
   <v>       0.27586207       0.10344828       0.16666667 </v>
   <v>       0.31034483       0.10344828       0.16666667 </v>
   <v>       0.34482759       0.10344828       0.16666667 </v>
   <v>       0.37931034       0.10344828       0.16666667 </v>
   <v>       0.41379310       0.10344828       0.16666667 </v>
   <v>       0.44827586       0.10344828       0.16666667 </v>
   <v>       0.48275862       0.10344828       0.16666667 </v>
   <v>      -0.48275862       0.10344828       0.16666667 </v>
   <v>      -0.44827586       0.10344828       0.16666667 </v>
   <v>      -0.41379310       0.10344828       0.16666667 </v>
   <v>      -0.37931034       0.10344828       0.16666667 </v>
   <v>      -0.34482759       0.10344828       0.16666667 </v>
   <v>      -0.31034483       0.10344828       0.16666667 </v>
   <v>      -0.27586207       0.10344828       0.16666667 </v>
   <v>      -0.24137931       0.10344828       0.16666667 </v>
   <v>      -0.20689655       0.10344828       0.16666667 </v>
   <v>      -0.17241379       0.10344828       0.16666667 </v>
   <v>      -0.13793103       0.10344828       0.16666667 </v>
   <v>      -0.10344828       0.10344828       0.16666667 </v>
   <v>      -0.06896552       0.10344828       0.16666667 </v>
   <v>      -0.03448276       0.10344828       0.16666667 </v>
   <v>       0.00000000       0.13793103       0.16666667 </v>
   <v>       0.03448276       0.13793103       0.16666667 </v>
   <v>       0.06896552       0.13793103       0.16666667 </v>
   <v>       0.10344828       0.13793103       0.16666667 </v>
   <v>       0.13793103       0.13793103       0.16666667 </v>
   <v>       0.17241379       0.13793103       0.16666667 </v>
   <v>       0.20689655       0.13793103       0.16666667 </v>
   <v>       0.24137931       0.13793103       0.16666667 </v>
   <v>       0.27586207       0.13793103       0.16666667 </v>
   <v>       0.31034483       0.13793103       0.16666667 </v>
   <v>       0.34482759       0.13793103       0.16666667 </v>
   <v>       0.37931034       0.13793103       0.16666667 </v>
   <v>       0.41379310       0.13793103       0.16666667 </v>
   <v>       0.44827586       0.13793103       0.16666667 </v>
   <v>       0.48275862       0.13793103       0.16666667 </v>
   <v>      -0.48275862       0.13793103       0.16666667 </v>
   <v>      -0.44827586       0.13793103       0.16666667 </v>
   <v>      -0.41379310       0.13793103       0.16666667 </v>
   <v>      -0.37931034       0.13793103       0.16666667 </v>
   <v>      -0.34482759       0.13793103       0.16666667 </v>
   <v>      -0.31034483       0.13793103       0.16666667 </v>
   <v>      -0.27586207       0.13793103       0.16666667 </v>
   <v>      -0.24137931       0.13793103       0.16666667 </v>
   <v>      -0.20689655       0.13793103       0.16666667 </v>
   <v>      -0.17241379       0.13793103       0.16666667 </v>
   <v>      -0.13793103       0.13793103       0.16666667 </v>
   <v>      -0.10344828       0.13793103       0.16666667 </v>
   <v>      -0.06896552       0.13793103       0.16666667 </v>
   <v>      -0.03448276       0.13793103       0.16666667 </v>
   <v>       0.00000000       0.17241379       0.16666667 </v>
   <v>       0.03448276       0.17241379       0.16666667 </v>
   <v>       0.06896552       0.17241379       0.16666667 </v>
   <v>       0.10344828       0.17241379       0.16666667 </v>
   <v>       0.13793103       0.17241379       0.16666667 </v>
   <v>       0.17241379       0.17241379       0.16666667 </v>
   <v>       0.20689655       0.17241379       0.16666667 </v>
   <v>       0.24137931       0.17241379       0.16666667 </v>
   <v>       0.27586207       0.17241379       0.16666667 </v>
   <v>       0.31034483       0.17241379       0.16666667 </v>
   <v>       0.34482759       0.17241379       0.16666667 </v>
   <v>       0.37931034       0.17241379       0.16666667 </v>
   <v>       0.41379310       0.17241379       0.16666667 </v>
   <v>       0.44827586       0.17241379       0.16666667 </v>
   <v>       0.48275862       0.17241379       0.16666667 </v>
   <v>      -0.48275862       0.17241379       0.16666667 </v>
   <v>      -0.44827586       0.17241379       0.16666667 </v>
   <v>      -0.41379310       0.17241379       0.16666667 </v>
   <v>      -0.37931034       0.17241379       0.16666667 </v>
   <v>      -0.34482759       0.17241379       0.16666667 </v>
   <v>      -0.31034483       0.17241379       0.16666667 </v>
   <v>      -0.27586207       0.17241379       0.16666667 </v>
   <v>      -0.24137931       0.17241379       0.16666667 </v>
   <v>      -0.20689655       0.17241379       0.16666667 </v>
   <v>      -0.17241379       0.17241379       0.16666667 </v>
   <v>      -0.13793103       0.17241379       0.16666667 </v>
   <v>      -0.10344828       0.17241379       0.16666667 </v>
   <v>      -0.06896552       0.17241379       0.16666667 </v>
   <v>      -0.03448276       0.17241379       0.16666667 </v>
   <v>       0.00000000       0.20689655       0.16666667 </v>
   <v>       0.03448276       0.20689655       0.16666667 </v>
   <v>       0.06896552       0.20689655       0.16666667 </v>
   <v>       0.10344828       0.20689655       0.16666667 </v>
   <v>       0.13793103       0.20689655       0.16666667 </v>
   <v>       0.17241379       0.20689655       0.16666667 </v>
   <v>       0.20689655       0.20689655       0.16666667 </v>
   <v>       0.24137931       0.20689655       0.16666667 </v>
   <v>       0.27586207       0.20689655       0.16666667 </v>
   <v>       0.31034483       0.20689655       0.16666667 </v>
   <v>       0.34482759       0.20689655       0.16666667 </v>
   <v>       0.37931034       0.20689655       0.16666667 </v>
   <v>       0.41379310       0.20689655       0.16666667 </v>
   <v>       0.44827586       0.20689655       0.16666667 </v>
   <v>       0.48275862       0.20689655       0.16666667 </v>
   <v>      -0.48275862       0.20689655       0.16666667 </v>
   <v>      -0.44827586       0.20689655       0.16666667 </v>
   <v>      -0.41379310       0.20689655       0.16666667 </v>
   <v>      -0.37931034       0.20689655       0.16666667 </v>
   <v>      -0.34482759       0.20689655       0.16666667 </v>
   <v>      -0.31034483       0.20689655       0.16666667 </v>
   <v>      -0.27586207       0.20689655       0.16666667 </v>
   <v>      -0.24137931       0.20689655       0.16666667 </v>
   <v>      -0.20689655       0.20689655       0.16666667 </v>
   <v>      -0.17241379       0.20689655       0.16666667 </v>
   <v>      -0.13793103       0.20689655       0.16666667 </v>
   <v>      -0.10344828       0.20689655       0.16666667 </v>
   <v>      -0.06896552       0.20689655       0.16666667 </v>
   <v>      -0.03448276       0.20689655       0.16666667 </v>
   <v>       0.00000000       0.24137931       0.16666667 </v>
   <v>       0.03448276       0.24137931       0.16666667 </v>
   <v>       0.06896552       0.24137931       0.16666667 </v>
   <v>       0.10344828       0.24137931       0.16666667 </v>
   <v>       0.13793103       0.24137931       0.16666667 </v>
   <v>       0.17241379       0.24137931       0.16666667 </v>
   <v>       0.20689655       0.24137931       0.16666667 </v>
   <v>       0.24137931       0.24137931       0.16666667 </v>
   <v>       0.27586207       0.24137931       0.16666667 </v>
   <v>       0.31034483       0.24137931       0.16666667 </v>
   <v>       0.34482759       0.24137931       0.16666667 </v>
   <v>       0.37931034       0.24137931       0.16666667 </v>
   <v>       0.41379310       0.24137931       0.16666667 </v>
   <v>       0.44827586       0.24137931       0.16666667 </v>
   <v>       0.48275862       0.24137931       0.16666667 </v>
   <v>      -0.48275862       0.24137931       0.16666667 </v>
   <v>      -0.44827586       0.24137931       0.16666667 </v>
   <v>      -0.41379310       0.24137931       0.16666667 </v>
   <v>      -0.37931034       0.24137931       0.16666667 </v>
   <v>      -0.34482759       0.24137931       0.16666667 </v>
   <v>      -0.31034483       0.24137931       0.16666667 </v>
   <v>      -0.27586207       0.24137931       0.16666667 </v>
   <v>      -0.24137931       0.24137931       0.16666667 </v>
   <v>      -0.20689655       0.24137931       0.16666667 </v>
   <v>      -0.17241379       0.24137931       0.16666667 </v>
   <v>      -0.13793103       0.24137931       0.16666667 </v>
   <v>      -0.10344828       0.24137931       0.16666667 </v>
   <v>      -0.06896552       0.24137931       0.16666667 </v>
   <v>      -0.03448276       0.24137931       0.16666667 </v>
   <v>       0.00000000       0.27586207       0.16666667 </v>
   <v>       0.03448276       0.27586207       0.16666667 </v>
   <v>       0.06896552       0.27586207       0.16666667 </v>
   <v>       0.10344828       0.27586207       0.16666667 </v>
   <v>       0.13793103       0.27586207       0.16666667 </v>
   <v>       0.17241379       0.27586207       0.16666667 </v>
   <v>       0.20689655       0.27586207       0.16666667 </v>
   <v>       0.24137931       0.27586207       0.16666667 </v>
   <v>       0.27586207       0.27586207       0.16666667 </v>
   <v>       0.31034483       0.27586207       0.16666667 </v>
   <v>       0.34482759       0.27586207       0.16666667 </v>
   <v>       0.37931034       0.27586207       0.16666667 </v>
   <v>       0.41379310       0.27586207       0.16666667 </v>
   <v>       0.44827586       0.27586207       0.16666667 </v>
   <v>       0.48275862       0.27586207       0.16666667 </v>
   <v>      -0.48275862       0.27586207       0.16666667 </v>
   <v>      -0.44827586       0.27586207       0.16666667 </v>
   <v>      -0.41379310       0.27586207       0.16666667 </v>
   <v>      -0.37931034       0.27586207       0.16666667 </v>
   <v>      -0.34482759       0.27586207       0.16666667 </v>
   <v>      -0.31034483       0.27586207       0.16666667 </v>
   <v>      -0.27586207       0.27586207       0.16666667 </v>
   <v>      -0.24137931       0.27586207       0.16666667 </v>
   <v>      -0.20689655       0.27586207       0.16666667 </v>
   <v>      -0.17241379       0.27586207       0.16666667 </v>
   <v>      -0.13793103       0.27586207       0.16666667 </v>
   <v>      -0.10344828       0.27586207       0.16666667 </v>
   <v>      -0.06896552       0.27586207       0.16666667 </v>
   <v>      -0.03448276       0.27586207       0.16666667 </v>
   <v>       0.00000000       0.31034483       0.16666667 </v>
   <v>       0.03448276       0.31034483       0.16666667 </v>
   <v>       0.06896552       0.31034483       0.16666667 </v>
   <v>       0.10344828       0.31034483       0.16666667 </v>
   <v>       0.13793103       0.31034483       0.16666667 </v>
   <v>       0.17241379       0.31034483       0.16666667 </v>
   <v>       0.20689655       0.31034483       0.16666667 </v>
   <v>       0.24137931       0.31034483       0.16666667 </v>
   <v>       0.27586207       0.31034483       0.16666667 </v>
   <v>       0.31034483       0.31034483       0.16666667 </v>
   <v>       0.34482759       0.31034483       0.16666667 </v>
   <v>       0.37931034       0.31034483       0.16666667 </v>
   <v>       0.41379310       0.31034483       0.16666667 </v>
   <v>       0.44827586       0.31034483       0.16666667 </v>
   <v>       0.48275862       0.31034483       0.16666667 </v>
   <v>      -0.48275862       0.31034483       0.16666667 </v>
   <v>      -0.44827586       0.31034483       0.16666667 </v>
   <v>      -0.41379310       0.31034483       0.16666667 </v>
   <v>      -0.37931034       0.31034483       0.16666667 </v>
   <v>      -0.34482759       0.31034483       0.16666667 </v>
   <v>      -0.31034483       0.31034483       0.16666667 </v>
   <v>      -0.27586207       0.31034483       0.16666667 </v>
   <v>      -0.24137931       0.31034483       0.16666667 </v>
   <v>      -0.20689655       0.31034483       0.16666667 </v>
   <v>      -0.17241379       0.31034483       0.16666667 </v>
   <v>      -0.13793103       0.31034483       0.16666667 </v>
   <v>      -0.10344828       0.31034483       0.16666667 </v>
   <v>      -0.06896552       0.31034483       0.16666667 </v>
   <v>      -0.03448276       0.31034483       0.16666667 </v>
   <v>       0.00000000       0.34482759       0.16666667 </v>
   <v>       0.03448276       0.34482759       0.16666667 </v>
   <v>       0.06896552       0.34482759       0.16666667 </v>
   <v>       0.10344828       0.34482759       0.16666667 </v>
   <v>       0.13793103       0.34482759       0.16666667 </v>
   <v>       0.17241379       0.34482759       0.16666667 </v>
   <v>       0.20689655       0.34482759       0.16666667 </v>
   <v>       0.24137931       0.34482759       0.16666667 </v>
   <v>       0.27586207       0.34482759       0.16666667 </v>
   <v>       0.31034483       0.34482759       0.16666667 </v>
   <v>       0.34482759       0.34482759       0.16666667 </v>
   <v>       0.37931034       0.34482759       0.16666667 </v>
   <v>       0.41379310       0.34482759       0.16666667 </v>
   <v>       0.44827586       0.34482759       0.16666667 </v>
   <v>       0.48275862       0.34482759       0.16666667 </v>
   <v>      -0.48275862       0.34482759       0.16666667 </v>
   <v>      -0.44827586       0.34482759       0.16666667 </v>
   <v>      -0.41379310       0.34482759       0.16666667 </v>
   <v>      -0.37931034       0.34482759       0.16666667 </v>
   <v>      -0.34482759       0.34482759       0.16666667 </v>
   <v>      -0.31034483       0.34482759       0.16666667 </v>
   <v>      -0.27586207       0.34482759       0.16666667 </v>
   <v>      -0.24137931       0.34482759       0.16666667 </v>
   <v>      -0.20689655       0.34482759       0.16666667 </v>
   <v>      -0.17241379       0.34482759       0.16666667 </v>
   <v>      -0.13793103       0.34482759       0.16666667 </v>
   <v>      -0.10344828       0.34482759       0.16666667 </v>
   <v>      -0.06896552       0.34482759       0.16666667 </v>
   <v>      -0.03448276       0.34482759       0.16666667 </v>
   <v>       0.00000000       0.37931034       0.16666667 </v>
   <v>       0.03448276       0.37931034       0.16666667 </v>
   <v>       0.06896552       0.37931034       0.16666667 </v>
   <v>       0.10344828       0.37931034       0.16666667 </v>
   <v>       0.13793103       0.37931034       0.16666667 </v>
   <v>       0.17241379       0.37931034       0.16666667 </v>
   <v>       0.20689655       0.37931034       0.16666667 </v>
   <v>       0.24137931       0.37931034       0.16666667 </v>
   <v>       0.27586207       0.37931034       0.16666667 </v>
   <v>       0.31034483       0.37931034       0.16666667 </v>
   <v>       0.34482759       0.37931034       0.16666667 </v>
   <v>       0.37931034       0.37931034       0.16666667 </v>
   <v>       0.41379310       0.37931034       0.16666667 </v>
   <v>       0.44827586       0.37931034       0.16666667 </v>
   <v>       0.48275862       0.37931034       0.16666667 </v>
   <v>      -0.48275862       0.37931034       0.16666667 </v>
   <v>      -0.44827586       0.37931034       0.16666667 </v>
   <v>      -0.41379310       0.37931034       0.16666667 </v>
   <v>      -0.37931034       0.37931034       0.16666667 </v>
   <v>      -0.34482759       0.37931034       0.16666667 </v>
   <v>      -0.31034483       0.37931034       0.16666667 </v>
   <v>      -0.27586207       0.37931034       0.16666667 </v>
   <v>      -0.24137931       0.37931034       0.16666667 </v>
   <v>      -0.20689655       0.37931034       0.16666667 </v>
   <v>      -0.17241379       0.37931034       0.16666667 </v>
   <v>      -0.13793103       0.37931034       0.16666667 </v>
   <v>      -0.10344828       0.37931034       0.16666667 </v>
   <v>      -0.06896552       0.37931034       0.16666667 </v>
   <v>      -0.03448276       0.37931034       0.16666667 </v>
   <v>       0.00000000       0.41379310       0.16666667 </v>
   <v>       0.03448276       0.41379310       0.16666667 </v>
   <v>       0.06896552       0.41379310       0.16666667 </v>
   <v>       0.10344828       0.41379310       0.16666667 </v>
   <v>       0.13793103       0.41379310       0.16666667 </v>
   <v>       0.17241379       0.41379310       0.16666667 </v>
   <v>       0.20689655       0.41379310       0.16666667 </v>
   <v>       0.24137931       0.41379310       0.16666667 </v>
   <v>       0.27586207       0.41379310       0.16666667 </v>
   <v>       0.31034483       0.41379310       0.16666667 </v>
   <v>       0.34482759       0.41379310       0.16666667 </v>
   <v>       0.37931034       0.41379310       0.16666667 </v>
   <v>       0.41379310       0.41379310       0.16666667 </v>
   <v>       0.44827586       0.41379310       0.16666667 </v>
   <v>       0.48275862       0.41379310       0.16666667 </v>
   <v>      -0.48275862       0.41379310       0.16666667 </v>
   <v>      -0.44827586       0.41379310       0.16666667 </v>
   <v>      -0.41379310       0.41379310       0.16666667 </v>
   <v>      -0.37931034       0.41379310       0.16666667 </v>
   <v>      -0.34482759       0.41379310       0.16666667 </v>
   <v>      -0.31034483       0.41379310       0.16666667 </v>
   <v>      -0.27586207       0.41379310       0.16666667 </v>
   <v>      -0.24137931       0.41379310       0.16666667 </v>
   <v>      -0.20689655       0.41379310       0.16666667 </v>
   <v>      -0.17241379       0.41379310       0.16666667 </v>
   <v>      -0.13793103       0.41379310       0.16666667 </v>
   <v>      -0.10344828       0.41379310       0.16666667 </v>
   <v>      -0.06896552       0.41379310       0.16666667 </v>
   <v>      -0.03448276       0.41379310       0.16666667 </v>
   <v>       0.00000000       0.44827586       0.16666667 </v>
   <v>       0.03448276       0.44827586       0.16666667 </v>
   <v>       0.06896552       0.44827586       0.16666667 </v>
   <v>       0.10344828       0.44827586       0.16666667 </v>
   <v>       0.13793103       0.44827586       0.16666667 </v>
   <v>       0.17241379       0.44827586       0.16666667 </v>
   <v>       0.20689655       0.44827586       0.16666667 </v>
   <v>       0.24137931       0.44827586       0.16666667 </v>
   <v>       0.27586207       0.44827586       0.16666667 </v>
   <v>       0.31034483       0.44827586       0.16666667 </v>
   <v>       0.34482759       0.44827586       0.16666667 </v>
   <v>       0.37931034       0.44827586       0.16666667 </v>
   <v>       0.41379310       0.44827586       0.16666667 </v>
   <v>       0.44827586       0.44827586       0.16666667 </v>
   <v>       0.48275862       0.44827586       0.16666667 </v>
   <v>      -0.48275862       0.44827586       0.16666667 </v>
   <v>      -0.44827586       0.44827586       0.16666667 </v>
   <v>      -0.41379310       0.44827586       0.16666667 </v>
   <v>      -0.37931034       0.44827586       0.16666667 </v>
   <v>      -0.34482759       0.44827586       0.16666667 </v>
   <v>      -0.31034483       0.44827586       0.16666667 </v>
   <v>      -0.27586207       0.44827586       0.16666667 </v>
   <v>      -0.24137931       0.44827586       0.16666667 </v>
   <v>      -0.20689655       0.44827586       0.16666667 </v>
   <v>      -0.17241379       0.44827586       0.16666667 </v>
   <v>      -0.13793103       0.44827586       0.16666667 </v>
   <v>      -0.10344828       0.44827586       0.16666667 </v>
   <v>      -0.06896552       0.44827586       0.16666667 </v>
   <v>      -0.03448276       0.44827586       0.16666667 </v>
   <v>       0.00000000       0.48275862       0.16666667 </v>
   <v>       0.03448276       0.48275862       0.16666667 </v>
   <v>       0.06896552       0.48275862       0.16666667 </v>
   <v>       0.10344828       0.48275862       0.16666667 </v>
   <v>       0.13793103       0.48275862       0.16666667 </v>
   <v>       0.17241379       0.48275862       0.16666667 </v>
   <v>       0.20689655       0.48275862       0.16666667 </v>
   <v>       0.24137931       0.48275862       0.16666667 </v>
   <v>       0.27586207       0.48275862       0.16666667 </v>
   <v>       0.31034483       0.48275862       0.16666667 </v>
   <v>       0.34482759       0.48275862       0.16666667 </v>
   <v>       0.37931034       0.48275862       0.16666667 </v>
   <v>       0.41379310       0.48275862       0.16666667 </v>
   <v>       0.44827586       0.48275862       0.16666667 </v>
   <v>       0.48275862       0.48275862       0.16666667 </v>
   <v>      -0.48275862       0.48275862       0.16666667 </v>
   <v>      -0.44827586       0.48275862       0.16666667 </v>
   <v>      -0.41379310       0.48275862       0.16666667 </v>
   <v>      -0.37931034       0.48275862       0.16666667 </v>
   <v>      -0.34482759       0.48275862       0.16666667 </v>
   <v>      -0.31034483       0.48275862       0.16666667 </v>
   <v>      -0.27586207       0.48275862       0.16666667 </v>
   <v>      -0.24137931       0.48275862       0.16666667 </v>
   <v>      -0.20689655       0.48275862       0.16666667 </v>
   <v>      -0.17241379       0.48275862       0.16666667 </v>
   <v>      -0.13793103       0.48275862       0.16666667 </v>
   <v>      -0.10344828       0.48275862       0.16666667 </v>
   <v>      -0.06896552       0.48275862       0.16666667 </v>
   <v>      -0.03448276       0.48275862       0.16666667 </v>
   <v>       0.00000000       0.00000000       0.33333333 </v>
   <v>       0.03448276       0.00000000       0.33333333 </v>
   <v>       0.06896552       0.00000000       0.33333333 </v>
   <v>       0.10344828       0.00000000       0.33333333 </v>
   <v>       0.13793103       0.00000000       0.33333333 </v>
   <v>       0.17241379       0.00000000       0.33333333 </v>
   <v>       0.20689655       0.00000000       0.33333333 </v>
   <v>       0.24137931       0.00000000       0.33333333 </v>
   <v>       0.27586207       0.00000000       0.33333333 </v>
   <v>       0.31034483       0.00000000       0.33333333 </v>
   <v>       0.34482759       0.00000000       0.33333333 </v>
   <v>       0.37931034       0.00000000       0.33333333 </v>
   <v>       0.41379310       0.00000000       0.33333333 </v>
   <v>       0.44827586       0.00000000       0.33333333 </v>
   <v>       0.48275862       0.00000000       0.33333333 </v>
   <v>      -0.48275862       0.00000000       0.33333333 </v>
   <v>      -0.44827586       0.00000000       0.33333333 </v>
   <v>      -0.41379310       0.00000000       0.33333333 </v>
   <v>      -0.37931034       0.00000000       0.33333333 </v>
   <v>      -0.34482759       0.00000000       0.33333333 </v>
   <v>      -0.31034483       0.00000000       0.33333333 </v>
   <v>      -0.27586207       0.00000000       0.33333333 </v>
   <v>      -0.24137931       0.00000000       0.33333333 </v>
   <v>      -0.20689655       0.00000000       0.33333333 </v>
   <v>      -0.17241379       0.00000000       0.33333333 </v>
   <v>      -0.13793103       0.00000000       0.33333333 </v>
   <v>      -0.10344828       0.00000000       0.33333333 </v>
   <v>      -0.06896552       0.00000000       0.33333333 </v>
   <v>      -0.03448276       0.00000000       0.33333333 </v>
   <v>       0.00000000       0.03448276       0.33333333 </v>
   <v>       0.03448276       0.03448276       0.33333333 </v>
   <v>       0.06896552       0.03448276       0.33333333 </v>
   <v>       0.10344828       0.03448276       0.33333333 </v>
   <v>       0.13793103       0.03448276       0.33333333 </v>
   <v>       0.17241379       0.03448276       0.33333333 </v>
   <v>       0.20689655       0.03448276       0.33333333 </v>
   <v>       0.24137931       0.03448276       0.33333333 </v>
   <v>       0.27586207       0.03448276       0.33333333 </v>
   <v>       0.31034483       0.03448276       0.33333333 </v>
   <v>       0.34482759       0.03448276       0.33333333 </v>
   <v>       0.37931034       0.03448276       0.33333333 </v>
   <v>       0.41379310       0.03448276       0.33333333 </v>
   <v>       0.44827586       0.03448276       0.33333333 </v>
   <v>       0.48275862       0.03448276       0.33333333 </v>
   <v>      -0.48275862       0.03448276       0.33333333 </v>
   <v>      -0.44827586       0.03448276       0.33333333 </v>
   <v>      -0.41379310       0.03448276       0.33333333 </v>
   <v>      -0.37931034       0.03448276       0.33333333 </v>
   <v>      -0.34482759       0.03448276       0.33333333 </v>
   <v>      -0.31034483       0.03448276       0.33333333 </v>
   <v>      -0.27586207       0.03448276       0.33333333 </v>
   <v>      -0.24137931       0.03448276       0.33333333 </v>
   <v>      -0.20689655       0.03448276       0.33333333 </v>
   <v>      -0.17241379       0.03448276       0.33333333 </v>
   <v>      -0.13793103       0.03448276       0.33333333 </v>
   <v>      -0.10344828       0.03448276       0.33333333 </v>
   <v>      -0.06896552       0.03448276       0.33333333 </v>
   <v>      -0.03448276       0.03448276       0.33333333 </v>
   <v>       0.00000000       0.06896552       0.33333333 </v>
   <v>       0.03448276       0.06896552       0.33333333 </v>
   <v>       0.06896552       0.06896552       0.33333333 </v>
   <v>       0.10344828       0.06896552       0.33333333 </v>
   <v>       0.13793103       0.06896552       0.33333333 </v>
   <v>       0.17241379       0.06896552       0.33333333 </v>
   <v>       0.20689655       0.06896552       0.33333333 </v>
   <v>       0.24137931       0.06896552       0.33333333 </v>
   <v>       0.27586207       0.06896552       0.33333333 </v>
   <v>       0.31034483       0.06896552       0.33333333 </v>
   <v>       0.34482759       0.06896552       0.33333333 </v>
   <v>       0.37931034       0.06896552       0.33333333 </v>
   <v>       0.41379310       0.06896552       0.33333333 </v>
   <v>       0.44827586       0.06896552       0.33333333 </v>
   <v>       0.48275862       0.06896552       0.33333333 </v>
   <v>      -0.48275862       0.06896552       0.33333333 </v>
   <v>      -0.44827586       0.06896552       0.33333333 </v>
   <v>      -0.41379310       0.06896552       0.33333333 </v>
   <v>      -0.37931034       0.06896552       0.33333333 </v>
   <v>      -0.34482759       0.06896552       0.33333333 </v>
   <v>      -0.31034483       0.06896552       0.33333333 </v>
   <v>      -0.27586207       0.06896552       0.33333333 </v>
   <v>      -0.24137931       0.06896552       0.33333333 </v>
   <v>      -0.20689655       0.06896552       0.33333333 </v>
   <v>      -0.17241379       0.06896552       0.33333333 </v>
   <v>      -0.13793103       0.06896552       0.33333333 </v>
   <v>      -0.10344828       0.06896552       0.33333333 </v>
   <v>      -0.06896552       0.06896552       0.33333333 </v>
   <v>      -0.03448276       0.06896552       0.33333333 </v>
   <v>       0.00000000       0.10344828       0.33333333 </v>
   <v>       0.03448276       0.10344828       0.33333333 </v>
   <v>       0.06896552       0.10344828       0.33333333 </v>
   <v>       0.10344828       0.10344828       0.33333333 </v>
   <v>       0.13793103       0.10344828       0.33333333 </v>
   <v>       0.17241379       0.10344828       0.33333333 </v>
   <v>       0.20689655       0.10344828       0.33333333 </v>
   <v>       0.24137931       0.10344828       0.33333333 </v>
   <v>       0.27586207       0.10344828       0.33333333 </v>
   <v>       0.31034483       0.10344828       0.33333333 </v>
   <v>       0.34482759       0.10344828       0.33333333 </v>
   <v>       0.37931034       0.10344828       0.33333333 </v>
   <v>       0.41379310       0.10344828       0.33333333 </v>
   <v>       0.44827586       0.10344828       0.33333333 </v>
   <v>       0.48275862       0.10344828       0.33333333 </v>
   <v>      -0.48275862       0.10344828       0.33333333 </v>
   <v>      -0.44827586       0.10344828       0.33333333 </v>
   <v>      -0.41379310       0.10344828       0.33333333 </v>
   <v>      -0.37931034       0.10344828       0.33333333 </v>
   <v>      -0.34482759       0.10344828       0.33333333 </v>
   <v>      -0.31034483       0.10344828       0.33333333 </v>
   <v>      -0.27586207       0.10344828       0.33333333 </v>
   <v>      -0.24137931       0.10344828       0.33333333 </v>
   <v>      -0.20689655       0.10344828       0.33333333 </v>
   <v>      -0.17241379       0.10344828       0.33333333 </v>
   <v>      -0.13793103       0.10344828       0.33333333 </v>
   <v>      -0.10344828       0.10344828       0.33333333 </v>
   <v>      -0.06896552       0.10344828       0.33333333 </v>
   <v>      -0.03448276       0.10344828       0.33333333 </v>
   <v>       0.00000000       0.13793103       0.33333333 </v>
   <v>       0.03448276       0.13793103       0.33333333 </v>
   <v>       0.06896552       0.13793103       0.33333333 </v>
   <v>       0.10344828       0.13793103       0.33333333 </v>
   <v>       0.13793103       0.13793103       0.33333333 </v>
   <v>       0.17241379       0.13793103       0.33333333 </v>
   <v>       0.20689655       0.13793103       0.33333333 </v>
   <v>       0.24137931       0.13793103       0.33333333 </v>
   <v>       0.27586207       0.13793103       0.33333333 </v>
   <v>       0.31034483       0.13793103       0.33333333 </v>
   <v>       0.34482759       0.13793103       0.33333333 </v>
   <v>       0.37931034       0.13793103       0.33333333 </v>
   <v>       0.41379310       0.13793103       0.33333333 </v>
   <v>       0.44827586       0.13793103       0.33333333 </v>
   <v>       0.48275862       0.13793103       0.33333333 </v>
   <v>      -0.48275862       0.13793103       0.33333333 </v>
   <v>      -0.44827586       0.13793103       0.33333333 </v>
   <v>      -0.41379310       0.13793103       0.33333333 </v>
   <v>      -0.37931034       0.13793103       0.33333333 </v>
   <v>      -0.34482759       0.13793103       0.33333333 </v>
   <v>      -0.31034483       0.13793103       0.33333333 </v>
   <v>      -0.27586207       0.13793103       0.33333333 </v>
   <v>      -0.24137931       0.13793103       0.33333333 </v>
   <v>      -0.20689655       0.13793103       0.33333333 </v>
   <v>      -0.17241379       0.13793103       0.33333333 </v>
   <v>      -0.13793103       0.13793103       0.33333333 </v>
   <v>      -0.10344828       0.13793103       0.33333333 </v>
   <v>      -0.06896552       0.13793103       0.33333333 </v>
   <v>      -0.03448276       0.13793103       0.33333333 </v>
   <v>       0.00000000       0.17241379       0.33333333 </v>
   <v>       0.03448276       0.17241379       0.33333333 </v>
   <v>       0.06896552       0.17241379       0.33333333 </v>
   <v>       0.10344828       0.17241379       0.33333333 </v>
   <v>       0.13793103       0.17241379       0.33333333 </v>
   <v>       0.17241379       0.17241379       0.33333333 </v>
   <v>       0.20689655       0.17241379       0.33333333 </v>
   <v>       0.24137931       0.17241379       0.33333333 </v>
   <v>       0.27586207       0.17241379       0.33333333 </v>
   <v>       0.31034483       0.17241379       0.33333333 </v>
   <v>       0.34482759       0.17241379       0.33333333 </v>
   <v>       0.37931034       0.17241379       0.33333333 </v>
   <v>       0.41379310       0.17241379       0.33333333 </v>
   <v>       0.44827586       0.17241379       0.33333333 </v>
   <v>       0.48275862       0.17241379       0.33333333 </v>
   <v>      -0.48275862       0.17241379       0.33333333 </v>
   <v>      -0.44827586       0.17241379       0.33333333 </v>
   <v>      -0.41379310       0.17241379       0.33333333 </v>
   <v>      -0.37931034       0.17241379       0.33333333 </v>
   <v>      -0.34482759       0.17241379       0.33333333 </v>
   <v>      -0.31034483       0.17241379       0.33333333 </v>
   <v>      -0.27586207       0.17241379       0.33333333 </v>
   <v>      -0.24137931       0.17241379       0.33333333 </v>
   <v>      -0.20689655       0.17241379       0.33333333 </v>
   <v>      -0.17241379       0.17241379       0.33333333 </v>
   <v>      -0.13793103       0.17241379       0.33333333 </v>
   <v>      -0.10344828       0.17241379       0.33333333 </v>
   <v>      -0.06896552       0.17241379       0.33333333 </v>
   <v>      -0.03448276       0.17241379       0.33333333 </v>
   <v>       0.00000000       0.20689655       0.33333333 </v>
   <v>       0.03448276       0.20689655       0.33333333 </v>
   <v>       0.06896552       0.20689655       0.33333333 </v>
   <v>       0.10344828       0.20689655       0.33333333 </v>
   <v>       0.13793103       0.20689655       0.33333333 </v>
   <v>       0.17241379       0.20689655       0.33333333 </v>
   <v>       0.20689655       0.20689655       0.33333333 </v>
   <v>       0.24137931       0.20689655       0.33333333 </v>
   <v>       0.27586207       0.20689655       0.33333333 </v>
   <v>       0.31034483       0.20689655       0.33333333 </v>
   <v>       0.34482759       0.20689655       0.33333333 </v>
   <v>       0.37931034       0.20689655       0.33333333 </v>
   <v>       0.41379310       0.20689655       0.33333333 </v>
   <v>       0.44827586       0.20689655       0.33333333 </v>
   <v>       0.48275862       0.20689655       0.33333333 </v>
   <v>      -0.48275862       0.20689655       0.33333333 </v>
   <v>      -0.44827586       0.20689655       0.33333333 </v>
   <v>      -0.41379310       0.20689655       0.33333333 </v>
   <v>      -0.37931034       0.20689655       0.33333333 </v>
   <v>      -0.34482759       0.20689655       0.33333333 </v>
   <v>      -0.31034483       0.20689655       0.33333333 </v>
   <v>      -0.27586207       0.20689655       0.33333333 </v>
   <v>      -0.24137931       0.20689655       0.33333333 </v>
   <v>      -0.20689655       0.20689655       0.33333333 </v>
   <v>      -0.17241379       0.20689655       0.33333333 </v>
   <v>      -0.13793103       0.20689655       0.33333333 </v>
   <v>      -0.10344828       0.20689655       0.33333333 </v>
   <v>      -0.06896552       0.20689655       0.33333333 </v>
   <v>      -0.03448276       0.20689655       0.33333333 </v>
   <v>       0.00000000       0.24137931       0.33333333 </v>
   <v>       0.03448276       0.24137931       0.33333333 </v>
   <v>       0.06896552       0.24137931       0.33333333 </v>
   <v>       0.10344828       0.24137931       0.33333333 </v>
   <v>       0.13793103       0.24137931       0.33333333 </v>
   <v>       0.17241379       0.24137931       0.33333333 </v>
   <v>       0.20689655       0.24137931       0.33333333 </v>
   <v>       0.24137931       0.24137931       0.33333333 </v>
   <v>       0.27586207       0.24137931       0.33333333 </v>
   <v>       0.31034483       0.24137931       0.33333333 </v>
   <v>       0.34482759       0.24137931       0.33333333 </v>
   <v>       0.37931034       0.24137931       0.33333333 </v>
   <v>       0.41379310       0.24137931       0.33333333 </v>
   <v>       0.44827586       0.24137931       0.33333333 </v>
   <v>       0.48275862       0.24137931       0.33333333 </v>
   <v>      -0.48275862       0.24137931       0.33333333 </v>
   <v>      -0.44827586       0.24137931       0.33333333 </v>
   <v>      -0.41379310       0.24137931       0.33333333 </v>
   <v>      -0.37931034       0.24137931       0.33333333 </v>
   <v>      -0.34482759       0.24137931       0.33333333 </v>
   <v>      -0.31034483       0.24137931       0.33333333 </v>
   <v>      -0.27586207       0.24137931       0.33333333 </v>
   <v>      -0.24137931       0.24137931       0.33333333 </v>
   <v>      -0.20689655       0.24137931       0.33333333 </v>
   <v>      -0.17241379       0.24137931       0.33333333 </v>
   <v>      -0.13793103       0.24137931       0.33333333 </v>
   <v>      -0.10344828       0.24137931       0.33333333 </v>
   <v>      -0.06896552       0.24137931       0.33333333 </v>
   <v>      -0.03448276       0.24137931       0.33333333 </v>
   <v>       0.00000000       0.27586207       0.33333333 </v>
   <v>       0.03448276       0.27586207       0.33333333 </v>
   <v>       0.06896552       0.27586207       0.33333333 </v>
   <v>       0.10344828       0.27586207       0.33333333 </v>
   <v>       0.13793103       0.27586207       0.33333333 </v>
   <v>       0.17241379       0.27586207       0.33333333 </v>
   <v>       0.20689655       0.27586207       0.33333333 </v>
   <v>       0.24137931       0.27586207       0.33333333 </v>
   <v>       0.27586207       0.27586207       0.33333333 </v>
   <v>       0.31034483       0.27586207       0.33333333 </v>
   <v>       0.34482759       0.27586207       0.33333333 </v>
   <v>       0.37931034       0.27586207       0.33333333 </v>
   <v>       0.41379310       0.27586207       0.33333333 </v>
   <v>       0.44827586       0.27586207       0.33333333 </v>
   <v>       0.48275862       0.27586207       0.33333333 </v>
   <v>      -0.48275862       0.27586207       0.33333333 </v>
   <v>      -0.44827586       0.27586207       0.33333333 </v>
   <v>      -0.41379310       0.27586207       0.33333333 </v>
   <v>      -0.37931034       0.27586207       0.33333333 </v>
   <v>      -0.34482759       0.27586207       0.33333333 </v>
   <v>      -0.31034483       0.27586207       0.33333333 </v>
   <v>      -0.27586207       0.27586207       0.33333333 </v>
   <v>      -0.24137931       0.27586207       0.33333333 </v>
   <v>      -0.20689655       0.27586207       0.33333333 </v>
   <v>      -0.17241379       0.27586207       0.33333333 </v>
   <v>      -0.13793103       0.27586207       0.33333333 </v>
   <v>      -0.10344828       0.27586207       0.33333333 </v>
   <v>      -0.06896552       0.27586207       0.33333333 </v>
   <v>      -0.03448276       0.27586207       0.33333333 </v>
   <v>       0.00000000       0.31034483       0.33333333 </v>
   <v>       0.03448276       0.31034483       0.33333333 </v>
   <v>       0.06896552       0.31034483       0.33333333 </v>
   <v>       0.10344828       0.31034483       0.33333333 </v>
   <v>       0.13793103       0.31034483       0.33333333 </v>
   <v>       0.17241379       0.31034483       0.33333333 </v>
   <v>       0.20689655       0.31034483       0.33333333 </v>
   <v>       0.24137931       0.31034483       0.33333333 </v>
   <v>       0.27586207       0.31034483       0.33333333 </v>
   <v>       0.31034483       0.31034483       0.33333333 </v>
   <v>       0.34482759       0.31034483       0.33333333 </v>
   <v>       0.37931034       0.31034483       0.33333333 </v>
   <v>       0.41379310       0.31034483       0.33333333 </v>
   <v>       0.44827586       0.31034483       0.33333333 </v>
   <v>       0.48275862       0.31034483       0.33333333 </v>
   <v>      -0.48275862       0.31034483       0.33333333 </v>
   <v>      -0.44827586       0.31034483       0.33333333 </v>
   <v>      -0.41379310       0.31034483       0.33333333 </v>
   <v>      -0.37931034       0.31034483       0.33333333 </v>
   <v>      -0.34482759       0.31034483       0.33333333 </v>
   <v>      -0.31034483       0.31034483       0.33333333 </v>
   <v>      -0.27586207       0.31034483       0.33333333 </v>
   <v>      -0.24137931       0.31034483       0.33333333 </v>
   <v>      -0.20689655       0.31034483       0.33333333 </v>
   <v>      -0.17241379       0.31034483       0.33333333 </v>
   <v>      -0.13793103       0.31034483       0.33333333 </v>
   <v>      -0.10344828       0.31034483       0.33333333 </v>
   <v>      -0.06896552       0.31034483       0.33333333 </v>
   <v>      -0.03448276       0.31034483       0.33333333 </v>
   <v>       0.00000000       0.34482759       0.33333333 </v>
   <v>       0.03448276       0.34482759       0.33333333 </v>
   <v>       0.06896552       0.34482759       0.33333333 </v>
   <v>       0.10344828       0.34482759       0.33333333 </v>
   <v>       0.13793103       0.34482759       0.33333333 </v>
   <v>       0.17241379       0.34482759       0.33333333 </v>
   <v>       0.20689655       0.34482759       0.33333333 </v>
   <v>       0.24137931       0.34482759       0.33333333 </v>
   <v>       0.27586207       0.34482759       0.33333333 </v>
   <v>       0.31034483       0.34482759       0.33333333 </v>
   <v>       0.34482759       0.34482759       0.33333333 </v>
   <v>       0.37931034       0.34482759       0.33333333 </v>
   <v>       0.41379310       0.34482759       0.33333333 </v>
   <v>       0.44827586       0.34482759       0.33333333 </v>
   <v>       0.48275862       0.34482759       0.33333333 </v>
   <v>      -0.48275862       0.34482759       0.33333333 </v>
   <v>      -0.44827586       0.34482759       0.33333333 </v>
   <v>      -0.41379310       0.34482759       0.33333333 </v>
   <v>      -0.37931034       0.34482759       0.33333333 </v>
   <v>      -0.34482759       0.34482759       0.33333333 </v>
   <v>      -0.31034483       0.34482759       0.33333333 </v>
   <v>      -0.27586207       0.34482759       0.33333333 </v>
   <v>      -0.24137931       0.34482759       0.33333333 </v>
   <v>      -0.20689655       0.34482759       0.33333333 </v>
   <v>      -0.17241379       0.34482759       0.33333333 </v>
   <v>      -0.13793103       0.34482759       0.33333333 </v>
   <v>      -0.10344828       0.34482759       0.33333333 </v>
   <v>      -0.06896552       0.34482759       0.33333333 </v>
   <v>      -0.03448276       0.34482759       0.33333333 </v>
   <v>       0.00000000       0.37931034       0.33333333 </v>
   <v>       0.03448276       0.37931034       0.33333333 </v>
   <v>       0.06896552       0.37931034       0.33333333 </v>
   <v>       0.10344828       0.37931034       0.33333333 </v>
   <v>       0.13793103       0.37931034       0.33333333 </v>
   <v>       0.17241379       0.37931034       0.33333333 </v>
   <v>       0.20689655       0.37931034       0.33333333 </v>
   <v>       0.24137931       0.37931034       0.33333333 </v>
   <v>       0.27586207       0.37931034       0.33333333 </v>
   <v>       0.31034483       0.37931034       0.33333333 </v>
   <v>       0.34482759       0.37931034       0.33333333 </v>
   <v>       0.37931034       0.37931034       0.33333333 </v>
   <v>       0.41379310       0.37931034       0.33333333 </v>
   <v>       0.44827586       0.37931034       0.33333333 </v>
   <v>       0.48275862       0.37931034       0.33333333 </v>
   <v>      -0.48275862       0.37931034       0.33333333 </v>
   <v>      -0.44827586       0.37931034       0.33333333 </v>
   <v>      -0.41379310       0.37931034       0.33333333 </v>
   <v>      -0.37931034       0.37931034       0.33333333 </v>
   <v>      -0.34482759       0.37931034       0.33333333 </v>
   <v>      -0.31034483       0.37931034       0.33333333 </v>
   <v>      -0.27586207       0.37931034       0.33333333 </v>
   <v>      -0.24137931       0.37931034       0.33333333 </v>
   <v>      -0.20689655       0.37931034       0.33333333 </v>
   <v>      -0.17241379       0.37931034       0.33333333 </v>
   <v>      -0.13793103       0.37931034       0.33333333 </v>
   <v>      -0.10344828       0.37931034       0.33333333 </v>
   <v>      -0.06896552       0.37931034       0.33333333 </v>
   <v>      -0.03448276       0.37931034       0.33333333 </v>
   <v>       0.00000000       0.41379310       0.33333333 </v>
   <v>       0.03448276       0.41379310       0.33333333 </v>
   <v>       0.06896552       0.41379310       0.33333333 </v>
   <v>       0.10344828       0.41379310       0.33333333 </v>
   <v>       0.13793103       0.41379310       0.33333333 </v>
   <v>       0.17241379       0.41379310       0.33333333 </v>
   <v>       0.20689655       0.41379310       0.33333333 </v>
   <v>       0.24137931       0.41379310       0.33333333 </v>
   <v>       0.27586207       0.41379310       0.33333333 </v>
   <v>       0.31034483       0.41379310       0.33333333 </v>
   <v>       0.34482759       0.41379310       0.33333333 </v>
   <v>       0.37931034       0.41379310       0.33333333 </v>
   <v>       0.41379310       0.41379310       0.33333333 </v>
   <v>       0.44827586       0.41379310       0.33333333 </v>
   <v>       0.48275862       0.41379310       0.33333333 </v>
   <v>      -0.48275862       0.41379310       0.33333333 </v>
   <v>      -0.44827586       0.41379310       0.33333333 </v>
   <v>      -0.41379310       0.41379310       0.33333333 </v>
   <v>      -0.37931034       0.41379310       0.33333333 </v>
   <v>      -0.34482759       0.41379310       0.33333333 </v>
   <v>      -0.31034483       0.41379310       0.33333333 </v>
   <v>      -0.27586207       0.41379310       0.33333333 </v>
   <v>      -0.24137931       0.41379310       0.33333333 </v>
   <v>      -0.20689655       0.41379310       0.33333333 </v>
   <v>      -0.17241379       0.41379310       0.33333333 </v>
   <v>      -0.13793103       0.41379310       0.33333333 </v>
   <v>      -0.10344828       0.41379310       0.33333333 </v>
   <v>      -0.06896552       0.41379310       0.33333333 </v>
   <v>      -0.03448276       0.41379310       0.33333333 </v>
   <v>       0.00000000       0.44827586       0.33333333 </v>
   <v>       0.03448276       0.44827586       0.33333333 </v>
   <v>       0.06896552       0.44827586       0.33333333 </v>
   <v>       0.10344828       0.44827586       0.33333333 </v>
   <v>       0.13793103       0.44827586       0.33333333 </v>
   <v>       0.17241379       0.44827586       0.33333333 </v>
   <v>       0.20689655       0.44827586       0.33333333 </v>
   <v>       0.24137931       0.44827586       0.33333333 </v>
   <v>       0.27586207       0.44827586       0.33333333 </v>
   <v>       0.31034483       0.44827586       0.33333333 </v>
   <v>       0.34482759       0.44827586       0.33333333 </v>
   <v>       0.37931034       0.44827586       0.33333333 </v>
   <v>       0.41379310       0.44827586       0.33333333 </v>
   <v>       0.44827586       0.44827586       0.33333333 </v>
   <v>       0.48275862       0.44827586       0.33333333 </v>
   <v>      -0.48275862       0.44827586       0.33333333 </v>
   <v>      -0.44827586       0.44827586       0.33333333 </v>
   <v>      -0.41379310       0.44827586       0.33333333 </v>
   <v>      -0.37931034       0.44827586       0.33333333 </v>
   <v>      -0.34482759       0.44827586       0.33333333 </v>
   <v>      -0.31034483       0.44827586       0.33333333 </v>
   <v>      -0.27586207       0.44827586       0.33333333 </v>
   <v>      -0.24137931       0.44827586       0.33333333 </v>
   <v>      -0.20689655       0.44827586       0.33333333 </v>
   <v>      -0.17241379       0.44827586       0.33333333 </v>
   <v>      -0.13793103       0.44827586       0.33333333 </v>
   <v>      -0.10344828       0.44827586       0.33333333 </v>
   <v>      -0.06896552       0.44827586       0.33333333 </v>
   <v>      -0.03448276       0.44827586       0.33333333 </v>
   <v>       0.00000000       0.48275862       0.33333333 </v>
   <v>       0.03448276       0.48275862       0.33333333 </v>
   <v>       0.06896552       0.48275862       0.33333333 </v>
   <v>       0.10344828       0.48275862       0.33333333 </v>
   <v>       0.13793103       0.48275862       0.33333333 </v>
   <v>       0.17241379       0.48275862       0.33333333 </v>
   <v>       0.20689655       0.48275862       0.33333333 </v>
   <v>       0.24137931       0.48275862       0.33333333 </v>
   <v>       0.27586207       0.48275862       0.33333333 </v>
   <v>       0.31034483       0.48275862       0.33333333 </v>
   <v>       0.34482759       0.48275862       0.33333333 </v>
   <v>       0.37931034       0.48275862       0.33333333 </v>
   <v>       0.41379310       0.48275862       0.33333333 </v>
   <v>       0.44827586       0.48275862       0.33333333 </v>
   <v>       0.48275862       0.48275862       0.33333333 </v>
   <v>      -0.48275862       0.48275862       0.33333333 </v>
   <v>      -0.44827586       0.48275862       0.33333333 </v>
   <v>      -0.41379310       0.48275862       0.33333333 </v>
   <v>      -0.37931034       0.48275862       0.33333333 </v>
   <v>      -0.34482759       0.48275862       0.33333333 </v>
   <v>      -0.31034483       0.48275862       0.33333333 </v>
   <v>      -0.27586207       0.48275862       0.33333333 </v>
   <v>      -0.24137931       0.48275862       0.33333333 </v>
   <v>      -0.20689655       0.48275862       0.33333333 </v>
   <v>      -0.17241379       0.48275862       0.33333333 </v>
   <v>      -0.13793103       0.48275862       0.33333333 </v>
   <v>      -0.10344828       0.48275862       0.33333333 </v>
   <v>      -0.06896552       0.48275862       0.33333333 </v>
   <v>      -0.03448276       0.48275862       0.33333333 </v>
   <v>       0.00000000       0.00000000       0.50000000 </v>
   <v>       0.03448276       0.00000000       0.50000000 </v>
   <v>       0.06896552       0.00000000       0.50000000 </v>
   <v>       0.10344828       0.00000000       0.50000000 </v>
   <v>       0.13793103       0.00000000       0.50000000 </v>
   <v>       0.17241379       0.00000000       0.50000000 </v>
   <v>       0.20689655       0.00000000       0.50000000 </v>
   <v>       0.24137931       0.00000000       0.50000000 </v>
   <v>       0.27586207       0.00000000       0.50000000 </v>
   <v>       0.31034483       0.00000000       0.50000000 </v>
   <v>       0.34482759       0.00000000       0.50000000 </v>
   <v>       0.37931034       0.00000000       0.50000000 </v>
   <v>       0.41379310       0.00000000       0.50000000 </v>
   <v>       0.44827586       0.00000000       0.50000000 </v>
   <v>       0.48275862       0.00000000       0.50000000 </v>
   <v>       0.00000000       0.03448276       0.50000000 </v>
   <v>       0.03448276       0.03448276       0.50000000 </v>
   <v>       0.06896552       0.03448276       0.50000000 </v>
   <v>       0.10344828       0.03448276       0.50000000 </v>
   <v>       0.13793103       0.03448276       0.50000000 </v>
   <v>       0.17241379       0.03448276       0.50000000 </v>
   <v>       0.20689655       0.03448276       0.50000000 </v>
   <v>       0.24137931       0.03448276       0.50000000 </v>
   <v>       0.27586207       0.03448276       0.50000000 </v>
   <v>       0.31034483       0.03448276       0.50000000 </v>
   <v>       0.34482759       0.03448276       0.50000000 </v>
   <v>       0.37931034       0.03448276       0.50000000 </v>
   <v>       0.41379310       0.03448276       0.50000000 </v>
   <v>       0.44827586       0.03448276       0.50000000 </v>
   <v>       0.48275862       0.03448276       0.50000000 </v>
   <v>       0.00000000       0.06896552       0.50000000 </v>
   <v>       0.03448276       0.06896552       0.50000000 </v>
   <v>       0.06896552       0.06896552       0.50000000 </v>
   <v>       0.10344828       0.06896552       0.50000000 </v>
   <v>       0.13793103       0.06896552       0.50000000 </v>
   <v>       0.17241379       0.06896552       0.50000000 </v>
   <v>       0.20689655       0.06896552       0.50000000 </v>
   <v>       0.24137931       0.06896552       0.50000000 </v>
   <v>       0.27586207       0.06896552       0.50000000 </v>
   <v>       0.31034483       0.06896552       0.50000000 </v>
   <v>       0.34482759       0.06896552       0.50000000 </v>
   <v>       0.37931034       0.06896552       0.50000000 </v>
   <v>       0.41379310       0.06896552       0.50000000 </v>
   <v>       0.44827586       0.06896552       0.50000000 </v>
   <v>      -0.03448276       0.06896552       0.50000000 </v>
   <v>       0.00000000       0.10344828       0.50000000 </v>
   <v>       0.03448276       0.10344828       0.50000000 </v>
   <v>       0.06896552       0.10344828       0.50000000 </v>
   <v>       0.10344828       0.10344828       0.50000000 </v>
   <v>       0.13793103       0.10344828       0.50000000 </v>
   <v>       0.17241379       0.10344828       0.50000000 </v>
   <v>       0.20689655       0.10344828       0.50000000 </v>
   <v>       0.24137931       0.10344828       0.50000000 </v>
   <v>       0.27586207       0.10344828       0.50000000 </v>
   <v>       0.31034483       0.10344828       0.50000000 </v>
   <v>       0.34482759       0.10344828       0.50000000 </v>
   <v>       0.37931034       0.10344828       0.50000000 </v>
   <v>       0.41379310       0.10344828       0.50000000 </v>
   <v>       0.44827586       0.10344828       0.50000000 </v>
   <v>      -0.06896552       0.10344828       0.50000000 </v>
   <v>       0.00000000       0.13793103       0.50000000 </v>
   <v>       0.03448276       0.13793103       0.50000000 </v>
   <v>       0.06896552       0.13793103       0.50000000 </v>
   <v>       0.10344828       0.13793103       0.50000000 </v>
   <v>       0.13793103       0.13793103       0.50000000 </v>
   <v>       0.17241379       0.13793103       0.50000000 </v>
   <v>       0.20689655       0.13793103       0.50000000 </v>
   <v>       0.24137931       0.13793103       0.50000000 </v>
   <v>       0.27586207       0.13793103       0.50000000 </v>
   <v>       0.31034483       0.13793103       0.50000000 </v>
   <v>       0.34482759       0.13793103       0.50000000 </v>
   <v>       0.37931034       0.13793103       0.50000000 </v>
   <v>       0.41379310       0.13793103       0.50000000 </v>
   <v>      -0.10344828       0.13793103       0.50000000 </v>
   <v>      -0.06896552       0.13793103       0.50000000 </v>
   <v>       0.00000000       0.17241379       0.50000000 </v>
   <v>       0.03448276       0.17241379       0.50000000 </v>
   <v>       0.06896552       0.17241379       0.50000000 </v>
   <v>       0.10344828       0.17241379       0.50000000 </v>
   <v>       0.13793103       0.17241379       0.50000000 </v>
   <v>       0.17241379       0.17241379       0.50000000 </v>
   <v>       0.20689655       0.17241379       0.50000000 </v>
   <v>       0.24137931       0.17241379       0.50000000 </v>
   <v>       0.27586207       0.17241379       0.50000000 </v>
   <v>       0.31034483       0.17241379       0.50000000 </v>
   <v>       0.34482759       0.17241379       0.50000000 </v>
   <v>       0.37931034       0.17241379       0.50000000 </v>
   <v>       0.41379310       0.17241379       0.50000000 </v>
   <v>      -0.13793103       0.17241379       0.50000000 </v>
   <v>      -0.10344828       0.17241379       0.50000000 </v>
   <v>       0.00000000       0.20689655       0.50000000 </v>
   <v>       0.03448276       0.20689655       0.50000000 </v>
   <v>       0.06896552       0.20689655       0.50000000 </v>
   <v>       0.10344828       0.20689655       0.50000000 </v>
   <v>       0.13793103       0.20689655       0.50000000 </v>
   <v>       0.17241379       0.20689655       0.50000000 </v>
   <v>       0.20689655       0.20689655       0.50000000 </v>
   <v>       0.24137931       0.20689655       0.50000000 </v>
   <v>       0.27586207       0.20689655       0.50000000 </v>
   <v>       0.31034483       0.20689655       0.50000000 </v>
   <v>       0.34482759       0.20689655       0.50000000 </v>
   <v>       0.37931034       0.20689655       0.50000000 </v>
   <v>      -0.17241379       0.20689655       0.50000000 </v>
   <v>      -0.13793103       0.20689655       0.50000000 </v>
   <v>      -0.10344828       0.20689655       0.50000000 </v>
   <v>       0.00000000       0.24137931       0.50000000 </v>
   <v>       0.03448276       0.24137931       0.50000000 </v>
   <v>       0.06896552       0.24137931       0.50000000 </v>
   <v>       0.10344828       0.24137931       0.50000000 </v>
   <v>       0.13793103       0.24137931       0.50000000 </v>
   <v>       0.17241379       0.24137931       0.50000000 </v>
   <v>       0.20689655       0.24137931       0.50000000 </v>
   <v>       0.24137931       0.24137931       0.50000000 </v>
   <v>       0.27586207       0.24137931       0.50000000 </v>
   <v>       0.31034483       0.24137931       0.50000000 </v>
   <v>       0.34482759       0.24137931       0.50000000 </v>
   <v>       0.37931034       0.24137931       0.50000000 </v>
   <v>      -0.20689655       0.24137931       0.50000000 </v>
   <v>      -0.17241379       0.24137931       0.50000000 </v>
   <v>      -0.13793103       0.24137931       0.50000000 </v>
   <v>       0.00000000       0.27586207       0.50000000 </v>
   <v>       0.03448276       0.27586207       0.50000000 </v>
   <v>       0.06896552       0.27586207       0.50000000 </v>
   <v>       0.10344828       0.27586207       0.50000000 </v>
   <v>       0.13793103       0.27586207       0.50000000 </v>
   <v>       0.17241379       0.27586207       0.50000000 </v>
   <v>       0.20689655       0.27586207       0.50000000 </v>
   <v>       0.24137931       0.27586207       0.50000000 </v>
   <v>       0.27586207       0.27586207       0.50000000 </v>
   <v>       0.31034483       0.27586207       0.50000000 </v>
   <v>       0.34482759       0.27586207       0.50000000 </v>
   <v>      -0.24137931       0.27586207       0.50000000 </v>
   <v>      -0.20689655       0.27586207       0.50000000 </v>
   <v>      -0.17241379       0.27586207       0.50000000 </v>
   <v>      -0.13793103       0.27586207       0.50000000 </v>
   <v>       0.00000000       0.31034483       0.50000000 </v>
   <v>       0.03448276       0.31034483       0.50000000 </v>
   <v>       0.06896552       0.31034483       0.50000000 </v>
   <v>       0.10344828       0.31034483       0.50000000 </v>
   <v>       0.13793103       0.31034483       0.50000000 </v>
   <v>       0.17241379       0.31034483       0.50000000 </v>
   <v>       0.20689655       0.31034483       0.50000000 </v>
   <v>       0.24137931       0.31034483       0.50000000 </v>
   <v>       0.27586207       0.31034483       0.50000000 </v>
   <v>       0.31034483       0.31034483       0.50000000 </v>
   <v>       0.34482759       0.31034483       0.50000000 </v>
   <v>      -0.27586207       0.31034483       0.50000000 </v>
[...]
       <r>    2.8870    1.0000 </r>
       <r>    2.9900    1.0000 </r>
       <r>    3.1111    1.0000 </r>
       <r>    3.2262    1.0000 </r>
       <r>    3.3554    1.0000 </r>
       <r>    3.5673    1.0000 </r>
       <r>    3.7422    1.0000 </r>
       <r>    4.0438    1.0000 </r>
       <r>    4.7868    1.0000 </r>
       <r>    4.9862    1.0000 </r>
       <r>    5.0886    1.0000 </r>
       <r>    5.2977    1.0000 </r>
       <r>    5.4149    1.0000 </r>
       <r>    5.4731    1.0000 </r>
       <r>    5.5222    1.0000 </r>
       <r>    5.5495    1.0000 </r>
       <r>    5.7352    1.0000 </r>
       <r>    5.7911    1.0000 </r>
       <r>    6.7829    1.0003 </r>
       <r>    6.9947    1.0060 </r>
       <r>    9.0005    0.0000 </r>
       <r>    9.0522    0.0000 </r>
       <r>   11.9060    0.0000 </r>
       <r>   12.2081    0.0000 </r>
       <r>   13.8454    0.0000 </r>
       <r>   14.0925    0.0000 </r>
       <r>   14.9062    0.0000 </r>
       <r>   15.1472    0.0000 </r>
       <r>   15.9289    0.0000 </r>
      </set>
      <set comment="kpoint 1319">
       <r>    1.8066    1.0000 </r>
       <r>    1.9314    1.0000 </r>
       <r>    2.0176    1.0000 </r>
       <r>    2.0804    1.0000 </r>
       <r>    2.1922    1.0000 </r>
       <r>    2.4381    1.0000 </r>
       <r>    2.7641    1.0000 </r>
       <r>    2.8052    1.0000 </r>
       <r>    2.8845    1.0000 </r>
       <r>    3.0388    1.0000 </r>
       <r>    3.0656    1.0000 </r>
       <r>    3.1474    1.0000 </r>
       <r>    3.4262    1.0000 </r>
       <r>    3.6767    1.0000 </r>
       <r>    4.0020    1.0000 </r>
       <r>    4.8525    1.0000 </r>
       <r>    5.0597    1.0000 </r>
       <r>    5.1226    1.0000 </r>
       <r>    5.2835    1.0000 </r>
       <r>    5.3502    1.0000 </r>
       <r>    5.4238    1.0000 </r>
       <r>    5.4647    1.0000 </r>
       <r>    5.4993    1.0000 </r>
       <r>    5.7392    1.0000 </r>
       <r>    5.7884    1.0000 </r>
       <r>    6.8169    1.0005 </r>
       <r>    6.9377    1.0030 </r>
       <r>    9.0428    0.0000 </r>
       <r>    9.0668    0.0000 </r>
       <r>   12.5583    0.0000 </r>
       <r>   12.8690    0.0000 </r>
       <r>   13.7542    0.0000 </r>
       <r>   14.1337    0.0000 </r>
       <r>   14.6055    0.0000 </r>
       <r>   14.9584    0.0000 </r>
       <r>   15.6048    0.0000 </r>
      </set>
      <set comment="kpoint 1320">
       <r>    1.8441    1.0000 </r>
       <r>    1.9598    1.0000 </r>
       <r>    2.0530    1.0000 </r>
       <r>    2.1601    1.0000 </r>
       <r>    2.2806    1.0000 </r>
       <r>    2.4734    1.0000 </r>
       <r>    2.7244    1.0000 </r>
       <r>    2.7755    1.0000 </r>
       <r>    2.8237    1.0000 </r>
       <r>    2.9975    1.0000 </r>
       <r>    3.0238    1.0000 </r>
       <r>    3.0381    1.0000 </r>
       <r>    3.3859    1.0000 </r>
       <r>    3.6556    1.0000 </r>
       <r>    3.9920    1.0000 </r>
       <r>    4.8808    1.0000 </r>
       <r>    5.0820    1.0000 </r>
       <r>    5.1621    1.0000 </r>
       <r>    5.2582    1.0000 </r>
       <r>    5.3240    1.0000 </r>
       <r>    5.3809    1.0000 </r>
       <r>    5.4537    1.0000 </r>
       <r>    5.4882    1.0000 </r>
       <r>    5.7437    1.0000 </r>
       <r>    5.7876    1.0000 </r>
       <r>    6.8363    1.0007 </r>
       <r>    6.9126    1.0021 </r>
       <r>    9.0525    0.0000 </r>
       <r>    9.0744    0.0000 </r>
       <r>   13.1892    0.0000 </r>
       <r>   13.2985    0.0000 </r>
       <r>   13.4375    0.0000 </r>
       <r>   13.5935    0.0000 </r>
       <r>   14.6342    0.0000 </r>
       <r>   15.1329    0.0000 </r>
       <r>   15.5666    0.0000 </r>
      </set>
     </set>
    </set>
   </array>
  </eigenvalues>
  <separator name="orbital magnetization" >
   <v name="MAGDIPOLOUT">      0.00000000      0.00000000      0.00000000</v>
  </separator>
  <dos>
   <i name="efermi">      7.62061271 </i>
   <total>
    <array>
     <dimension dim="1">gridpoints</dimension>
     <dimension dim="2">spin</dimension>
     <field>energy</field>
     <field>total</field>
     <field>integrated</field>
     <set>
      <set comment="spin 1">
       <r>    -3.4040     0.0000     0.0000 </r>
       <r>    -3.3009     0.0000     0.0000 </r>
       <r>    -3.1978     0.0000     0.0000 </r>
       <r>    -3.0947     0.0000     0.0000 </r>
       <r>    -2.9915     0.0000     0.0000 </r>
       <r>    -2.8884     0.0000     0.0000 </r>
       <r>    -2.7853     0.0000     0.0000 </r>
       <r>    -2.6822     0.0000     0.0000 </r>
       <r>    -2.5791     0.0000     0.0000 </r>
       <r>    -2.4760     0.0000     0.0000 </r>
       <r>    -2.3729     0.0000     0.0000 </r>
       <r>    -2.2697     0.0000     0.0000 </r>
       <r>    -2.1666     0.0000     0.0000 </r>
       <r>    -2.0635     0.0000     0.0000 </r>
       <r>    -1.9604     0.0000     0.0000 </r>
       <r>    -1.8573     0.0000     0.0000 </r>
       <r>    -1.7542     0.0000     0.0000 </r>
       <r>    -1.6510     0.0000     0.0000 </r>
       <r>    -1.5479     0.0000     0.0000 </r>
       <r>    -1.4448     0.0000     0.0000 </r>
       <r>    -1.3417     0.0000     0.0000 </r>
       <r>    -1.2386     0.0000     0.0000 </r>
       <r>    -1.1355    -0.0001     0.0000 </r>
       <r>    -1.0324    -0.0004     0.0000 </r>
       <r>    -0.9292    -0.0013    -0.0002 </r>
       <r>    -0.8261    -0.0034    -0.0005 </r>
       <r>    -0.7230    -0.0063    -0.0012 </r>
       <r>    -0.6199    -0.0062    -0.0018 </r>
       <r>    -0.5168     0.0052    -0.0013 </r>
       <r>    -0.4137     0.0370     0.0025 </r>
       <r>    -0.3106     0.0909     0.0119 </r>
       <r>    -0.2074     0.1572     0.0281 </r>
       <r>    -0.1043     0.2215     0.0510 </r>
       <r>    -0.0012     0.2759     0.0794 </r>
       <r>     0.1019     0.3216     0.1126 </r>
       <r>     0.2050     0.3637     0.1501 </r>
       <r>     0.3081     0.4054     0.1919 </r>
       <r>     0.4112     0.4477     0.2380 </r>
       <r>     0.5144     0.4904     0.2886 </r>
       <r>     0.6175     0.5312     0.3434 </r>
       <r>     0.7206     0.5643     0.4016 </r>
       <r>     0.8237     0.5801     0.4614 </r>
       <r>     0.9268     0.5850     0.5217 </r>
       <r>     1.0299     0.6545     0.5892 </r>
       <r>     1.1330     0.9818     0.6905 </r>
       <r>     1.2362     1.8207     0.8782 </r>
       <r>     1.3393     3.2897     1.2174 </r>
       <r>     1.4424     5.2217     1.7559 </r>
       <r>     1.5455     7.2764     2.5062 </r>
       <r>     1.6486     9.1790     3.4527 </r>
       <r>     1.7517    10.7452     4.5606 </r>
       <r>     1.8548    11.7213     5.7693 </r>
       <r>     1.9580    11.8242     6.9885 </r>
       <r>     2.0611    11.0426     8.1272 </r>
       <r>     2.1642     9.7701     9.1346 </r>
       <r>     2.2673     8.5656    10.0179 </r>
       <r>     2.3704     7.8852    10.8309 </r>
       <r>     2.4735     8.0166    11.6576 </r>
       <r>     2.5767     9.0044    12.5861 </r>
       <r>     2.6798    10.5153    13.6703 </r>
       <r>     2.7829    11.9482    14.9024 </r>
       <r>     2.8860    12.8387    16.2262 </r>
       <r>     2.9891    13.1437    17.5815 </r>
       <r>     3.0922    13.1091    18.9333 </r>
       <r>     3.1953    12.9362    20.2672 </r>
       <r>     3.2985    12.6301    21.5695 </r>
       <r>     3.4016    12.1162    22.8189 </r>
       <r>     3.5047    11.4601    24.0006 </r>
       <r>     3.6078    10.9288    25.1275 </r>
       <r>     3.7109    10.7264    26.2336 </r>
       <r>     3.8140    10.6737    27.3342 </r>
       <r>     3.9171    10.3104    28.3973 </r>
       <r>     4.0203     9.3337    29.3598 </r>
       <r>     4.1234     7.8513    30.1694 </r>
       <r>     4.2265     6.2788    30.8168 </r>
       <r>     4.3296     5.1076    31.3435 </r>
       <r>     4.4327     4.7104    31.8292 </r>
       <r>     4.5358     5.2114    32.3665 </r>
       <r>     4.6389     6.4326    33.0298 </r>
       <r>     4.7421     7.9664    33.8513 </r>
       <r>     4.8452     9.3952    34.8201 </r>
       <r>     4.9483    10.5429    35.9072 </r>
       <r>     5.0514    11.5583    37.0990 </r>
       <r>     5.1545    12.7405    38.4128 </r>
       <r>     5.2576    14.2341    39.8805 </r>
       <r>     5.3607    15.8984    41.5199 </r>
       <r>     5.4639    17.4872    43.3230 </r>
       <r>     5.5670    18.8107    45.2627 </r>
       <r>     5.6701    19.4755    47.2709 </r>
       <r>     5.7732    18.6332    49.1923 </r>
       <r>     5.8763    15.6058    50.8014 </r>
       <r>     5.9794    10.9337    51.9289 </r>
       <r>     6.0825     6.2893    52.5774 </r>
       <r>     6.1857     3.1238    52.8995 </r>
       <r>     6.2888     1.6884    53.0736 </r>
       <r>     6.3919     1.3379    53.2116 </r>
       <r>     6.4950     1.3623    53.3520 </r>
       <r>     6.5981     1.4246    53.4989 </r>
       <r>     6.7012     1.4770    53.6512 </r>
       <r>     6.8044     1.5181    53.8078 </r>
       <r>     6.9075     1.5071    53.9632 </r>
       <r>     7.0106     1.4436    54.1120 </r>
       <r>     7.1137     1.4063    54.2570 </r>
       <r>     7.2168     1.4544    54.4070 </r>
       <r>     7.3199     1.5338    54.5652 </r>
       <r>     7.4230     1.5360    54.7235 </r>
       <r>     7.5262     1.4416    54.8722 </r>
       <r>     7.6293     1.3517    55.0116 </r>
       <r>     7.7324     1.3655    55.1524 </r>
       <r>     7.8355     1.4661    55.3035 </r>
       <r>     7.9386     1.5393    55.4623 </r>
       <r>     8.0417     1.4963    55.6166 </r>
       <r>     8.1448     1.3698    55.7578 </r>
       <r>     8.2480     1.2780    55.8896 </r>
       <r>     8.3511     1.2952    56.0231 </r>
       <r>     8.4542     1.3832    56.1658 </r>
       <r>     8.5573     1.4438    56.3146 </r>
       <r>     8.6604     1.4151    56.4606 </r>
       <r>     8.7635     1.3211    56.5968 </r>
       <r>     8.8666     1.2404    56.7247 </r>
       <r>     8.9698     1.2295    56.8515 </r>
       <r>     9.0729     1.2814    56.9836 </r>
       <r>     9.1760     1.3526    57.1231 </r>
       <r>     9.2791     1.4040    57.2678 </r>
       <r>     9.3822     1.4099    57.4132 </r>
       <r>     9.4853     1.3601    57.5535 </r>
       <r>     9.5884     1.2734    57.6848 </r>
       <r>     9.6916     1.1948    57.8080 </r>
       <r>     9.7947     1.1634    57.9279 </r>
       <r>     9.8978     1.1808    58.0497 </r>
       <r>    10.0009     1.2117    58.1746 </r>
       <r>    10.1040     1.2135    58.2998 </r>
       <r>    10.2071     1.1698    58.4204 </r>
       <r>    10.3102     1.0987    58.5337 </r>
       <r>    10.4134     1.0285    58.6397 </r>
       <r>    10.5165     0.9704    58.7398 </r>
       <r>    10.6196     0.9303    58.8357 </r>
       <r>    10.7227     0.9366    58.9323 </r>
       <r>    10.8258     1.0277    59.0383 </r>
       <r>    10.9289     1.1985    59.1618 </r>
       <r>    11.0321     1.3807    59.3042 </r>
       <r>    11.1352     1.4962    59.4585 </r>
       <r>    11.2383     1.5210    59.6153 </r>
       <r>    11.3414     1.4888    59.7689 </r>
       <r>    11.4445     1.4507    59.9184 </r>
       <r>    11.5476     1.4425    60.0672 </r>
       <r>    11.6507     1.4786    60.2197 </r>
       <r>    11.7539     1.5584    60.3804 </r>
       <r>    11.8570     1.6586    60.5514 </r>
       <r>    11.9601     1.7240    60.7291 </r>
       <r>    12.0632     1.7002    60.9045 </r>
       <r>    12.1663     1.5902    61.0684 </r>
       <r>    12.2694     1.4626    61.2192 </r>
       <r>    12.3725     1.3949    61.3631 </r>
       <r>    12.4757     1.4142    61.5089 </r>
       <r>    12.5788     1.4892    61.6625 </r>
       <r>    12.6819     1.5635    61.8237 </r>
       <r>    12.7850     1.5888    61.9875 </r>
       <r>    12.8881     1.5357    62.1459 </r>
       <r>    12.9912     1.4067    62.2909 </r>
       <r>    13.0943     1.2584    62.4207 </r>
       <r>    13.1975     1.2051    62.5449 </r>
       <r>    13.3006     1.3712    62.6863 </r>
       <r>    13.4037     1.8007    62.8720 </r>
       <r>    13.5068     2.3944    63.1189 </r>
       <r>    13.6099     2.9442    63.4225 </r>
       <r>    13.7130     3.2495    63.7576 </r>
       <r>    13.8161     3.2297    64.0906 </r>
       <r>    13.9193     2.9642    64.3962 </r>
       <r>    14.0224     2.6426    64.6687 </r>
       <r>    14.1255     2.4529    64.9217 </r>
       <r>    14.2286     2.4699    65.1764 </r>
       <r>    14.3317     2.6255    65.4471 </r>
       <r>    14.4348     2.7902    65.7348 </r>
       <r>    14.5379     2.8880    66.0326 </r>
       <r>    14.6411     2.9302    66.3347 </r>
       <r>    14.7442     2.9554    66.6395 </r>
       <r>    14.8473     2.9753    66.9463 </r>
       <r>    14.9504     2.9839    67.2540 </r>
       <r>    15.0535     2.9729    67.5605 </r>
       <r>    15.1566     2.9299    67.8626 </r>
       <r>    15.2598     2.8589    68.1574 </r>
       <r>    15.3629     2.8057    68.4467 </r>
       <r>    15.4660     2.8343    68.7390 </r>
       <r>    15.5691     2.9837    69.0467 </r>
       <r>    15.6722     3.2524    69.3820 </r>
       <r>    15.7753     3.5644    69.7496 </r>
       <r>    15.8784     3.7065    70.1318 </r>
       <r>    15.9816     3.4046    70.4828 </r>
       <r>    16.0847     2.5946    70.7504 </r>
       <r>    16.1878     1.5712    70.9124 </r>
       <r>    16.2909     0.7584    70.9906 </r>
       <r>    16.3940     0.3577    71.0275 </r>
       <r>    16.4971     0.2720    71.0555 </r>
       <r>    16.6002     0.3007    71.0865 </r>
       <r>    16.7034     0.3196    71.1195 </r>
       <r>    16.8065     0.3068    71.1511 </r>
       <r>    16.9096     0.2821    71.1802 </r>
       <r>    17.0127     0.2607    71.2071 </r>
       <r>    17.1158     0.2484    71.2327 </r>
       <r>    17.2189     0.2487    71.2583 </r>
       <r>    17.3220     0.2615    71.2853 </r>
       <r>    17.4252     0.2774    71.3139 </r>
       <r>    17.5283     0.2836    71.3432 </r>
       <r>    17.6314     0.2743    71.3714 </r>
       <r>    17.7345     0.2565    71.3979 </r>
       <r>    17.8376     0.2448    71.4231 </r>
       <r>    17.9407     0.2482    71.4487 </r>
       <r>    18.0438     0.2602    71.4756 </r>
       <r>    18.1470     0.2623    71.5026 </r>
       <r>    18.2501     0.2416    71.5275 </r>
       <r>    18.3532     0.2028    71.5484 </r>
       <r>    18.4563     0.1614    71.5651 </r>
       <r>    18.5594     0.1314    71.5786 </r>
       <r>    18.6625     0.1167    71.5907 </r>
       <r>    18.7657     0.1120    71.6022 </r>
       <r>    18.8688     0.1100    71.6135 </r>
       <r>    18.9719     0.1101    71.6249 </r>
       <r>    19.0750     0.1164    71.6369 </r>
       <r>    19.1781     0.1283    71.6501 </r>
       <r>    19.2812     0.1375    71.6643 </r>
       <r>    19.3843     0.1361    71.6783 </r>
       <r>    19.4875     0.1252    71.6912 </r>
       <r>    19.5906     0.1130    71.7029 </r>
       <r>    19.6937     0.1053    71.7138 </r>
       <r>    19.7968     0.1008    71.7241 </r>
       <r>    19.8999     0.0953    71.7340 </r>
       <r>    20.0030     0.0863    71.7429 </r>
       <r>    20.1061     0.0743    71.7505 </r>
       <r>    20.2093     0.0619    71.7569 </r>
       <r>    20.3124     0.0531    71.7624 </r>
       <r>    20.4155     0.0506    71.7676 </r>
       <r>    20.5186     0.0525    71.7730 </r>
       <r>    20.6217     0.0534    71.7785 </r>
       <r>    20.7248     0.0513    71.7838 </r>
       <r>    20.8279     0.0497    71.7889 </r>
       <r>    20.9311     0.0519    71.7943 </r>
       <r>    21.0342     0.0557    71.8000 </r>
       <r>    21.1373     0.0574    71.8059 </r>
       <r>    21.2404     0.0562    71.8117 </r>
       <r>    21.3435     0.0530    71.8172 </r>
       <r>    21.4466     0.0499    71.8223 </r>
       <r>    21.5497     0.0509    71.8276 </r>
       <r>    21.6529     0.0594    71.8337 </r>
       <r>    21.7560     0.0720    71.8411 </r>
       <r>    21.8591     0.0799    71.8494 </r>
       <r>    21.9622     0.0785    71.8575 </r>
       <r>    22.0653     0.0717    71.8649 </r>
       <r>    22.1684     0.0661    71.8717 </r>
       <r>    22.2715     0.0638    71.8783 </r>
       <r>    22.3747     0.0630    71.8848 </r>
       <r>    22.4778     0.0627    71.8912 </r>
       <r>    22.5809     0.0648    71.8979 </r>
       <r>    22.6840     0.0715    71.9053 </r>
       <r>    22.7871     0.0820    71.9137 </r>
       <r>    22.8902     0.0932    71.9234 </r>
       <r>    22.9934     0.1021    71.9339 </r>
       <r>    23.0965     0.1074    71.9450 </r>
       <r>    23.1996     0.1067    71.9560 </r>
       <r>    23.3027     0.0978    71.9660 </r>
       <r>    23.4058     0.0819    71.9745 </r>
       <r>    23.5089     0.0631    71.9810 </r>
       <r>    23.6120     0.0459    71.9857 </r>
       <r>    23.7152     0.0338    71.9892 </r>
       <r>    23.8183     0.0278    71.9921 </r>
       <r>    23.9214     0.0257    71.9947 </r>
       <r>    24.0245     0.0226    71.9971 </r>
       <r>    24.1276     0.0163    71.9987 </r>
       <r>    24.2307     0.0084    71.9996 </r>
       <r>    24.3338     0.0026    71.9999 </r>
       <r>    24.4370     0.0002    71.9999 </r>
       <r>    24.5401     0.0001    71.9999 </r>
       <r>    24.6432     0.0004    72.0000 </r>
       <r>    24.7463     0.0004    72.0000 </r>
       <r>    24.8494     0.0002    72.0000 </r>
       <r>    24.9525     0.0000    72.0000 </r>
       <r>    25.0556    -0.0001    72.0000 </r>
       <r>    25.1588     0.0000    72.0000 </r>
       <r>    25.2619     0.0000    72.0000 </r>
       <r>    25.3650     0.0000    72.0000 </r>
       <r>    25.4681     0.0000    72.0000 </r>
       <r>    25.5712     0.0000    72.0000 </r>
       <r>    25.6743     0.0000    72.0000 </r>
       <r>    25.7774     0.0000    72.0000 </r>
       <r>    25.8806     0.0000    72.0000 </r>
       <r>    25.9837     0.0000    72.0000 </r>
       <r>    26.0868     0.0000    72.0000 </r>
       <r>    26.1899     0.0000    72.0000 </r>
       <r>    26.2930     0.0000    72.0000 </r>
       <r>    26.3961     0.0000    72.0000 </r>
       <r>    26.4992     0.0000    72.0000 </r>
       <r>    26.6024     0.0000    72.0000 </r>
       <r>    26.7055     0.0000    72.0000 </r>
       <r>    26.8086     0.0000    72.0000 </r>
       <r>    26.9117     0.0000    72.0000 </r>
       <r>    27.0148     0.0000    72.0000 </r>
       <r>    27.1179     0.0000    72.0000 </r>
       <r>    27.2211     0.0000    72.0000 </r>
       <r>    27.3242     0.0000    72.0000 </r>
       <r>    27.4273     0.0000    72.0000 </r>
       <r>    27.5304     0.0000    72.0000 </r>
      </set>
     </set>
    </array>
   </total>
  </dos>
 </calculation>
 <structure name="finalpos" >
  <crystal>
   <varray name="basis" >
    <v>       0.00000000       2.01056397       2.01056397 </v>
    <v>      -2.01056397       0.00000000      -2.01056397 </v>
    <v>      -5.79312764      -7.80369161       5.79312764 </v>
   </varray>
   <i name="volume">     78.38129091 </i>
   <varray name="rec_basis" >
    <v>      -0.20017304       0.29719984       0.20017304 </v>
    <v>      -0.34877296       0.14859992      -0.14859992 </v>
    <v>      -0.05157312      -0.05157312       0.05157312 </v>
   </varray>
  </crystal>
  <varray name="positions" >
   <v>       0.39690223       0.19845111       0.59535334 </v>
   <v>       0.80309777       0.40154889       0.20464666 </v>
   <v>       0.00676378       0.00338189       0.01014568 </v>
   <v>       0.19323622       0.59661811       0.78985432 </v>
   <v>       0.60000000       0.80000000       0.40000000 </v>
  </varray>
 </structure>
</modeling>
