<?xml version="1.0" encoding="ISO-8859-1"?>
<modeling>
 <generator>
  <i name="program" type="string">vasp </i>
  <i name="version" type="string">5.3.5  </i>
  <i name="subversion" type="string">31Mar14 (build Jun 20 2014 13:15:13) complex                          parallel </i>
  <i name="platform" type="string">LinuxIFC </i>
  <i name="date" type="string">2025 12 12 </i>
  <i name="time" type="string">12:37:39 </i>
 </generator>
 <incar>
  <i type="string" name="PREC">accurate</i>
  <i type="int" name="IALGO">    38</i>
  <i type="logical" name="ADDGRID"> T  </i>
  <i type="int" name="ISPIN">     2</i>
  <i type="int" name="NELM">   100</i>
  <i type="int" name="NELMIN">     4</i>
  <i name="EDIFF">      0.00000100</i>
  <i name="ENCUT">    500.00000000</i>
  <i type="logical" name="LREAL"> F  </i>
  <i type="int" name="ISMEAR">     0</i>
  <i name="SIGMA">      0.05000000</i>
  <i type="logical" name="LWAVE"> F  </i>
  <i type="logical" name="LCHARG"> F  </i>
  <i type="int" name="NELM">   100</i>
  <i type="logical" name="LDAU"> T  </i>
  <v name="LDAUU">      0.00000000      4.00000000      0.00000000</v>
  <v name="LDAUJ">      0.00000000      0.00000000      0.00000000</v>
 </incar>
 <kpoints>
  <generation param="Auto">
   <i name="subdivisionlength">     20.00000000 </i>
   <v type="int" name="divisions">       2        3        4 </v>
   <v name="usershift">      0.00000000       0.00000000       0.00000000 </v>
   <v name="genvec1">      0.50000000       0.00000000       0.00000000 </v>
   <v name="genvec2">      0.00000000       0.33333333       0.00000000 </v>
   <v name="genvec3">      0.00000000       0.00000000       0.25000000 </v>
   <v name="shift">      0.00000000       0.00000000       0.00000000 </v>
  </generation>
  <varray name="kpointlist" >
   <v>       0.00000000       0.00000000       0.00000000 </v>
   <v>       0.50000000       0.00000000       0.00000000 </v>
   <v>       0.00000000       0.33333333       0.00000000 </v>
   <v>       0.50000000       0.33333333       0.00000000 </v>
   <v>       0.00000000       0.00000000       0.25000000 </v>
   <v>       0.50000000       0.00000000       0.25000000 </v>
   <v>       0.00000000       0.33333333       0.25000000 </v>
   <v>       0.50000000       0.33333333       0.25000000 </v>
   <v>       0.00000000       0.00000000       0.50000000 </v>
   <v>       0.50000000       0.00000000       0.50000000 </v>
   <v>       0.00000000       0.33333333       0.50000000 </v>
   <v>       0.50000000       0.33333333       0.50000000 </v>
  </varray>
  <varray name="weights" >
   <v>       0.04166667 </v>
   <v>       0.04166667 </v>
   <v>       0.08333333 </v>
   <v>       0.08333333 </v>
   <v>       0.08333333 </v>
   <v>       0.08333333 </v>
   <v>       0.16666667 </v>
   <v>       0.16666667 </v>
   <v>       0.04166667 </v>
   <v>       0.04166667 </v>
   <v>       0.08333333 </v>
   <v>       0.08333333 </v>
  </varray>
 </kpoints>
 <parameters>
  <separator name="general" >
   <i type="string" name="SYSTEM">unknown system</i>
   <i type="logical" name="LCOMPAT"> F  </i>
  </separator>
  <separator name="electronic" >
   <i type="string" name="PREC">accura</i>
   <i name="ENMAX">    500.00000000</i>
   <i name="ENAUG">    586.98000000</i>
   <i name="EDIFF">      0.00000100</i>
   <i type="int" name="IALGO">    38</i>
   <i type="int" name="IWAVPR">    10</i>
   <i type="int" name="NBANDS">   176</i>
   <i name="NELECT">    264.00000000</i>
   <i type="int" name="TURBO">     0</i>
   <i type="int" name="IRESTART">     0</i>
   <i type="int" name="NREBOOT">     0</i>
   <i type="int" name="NMIN">     0</i>
   <i name="EREF">      0.00000000</i>
   <separator name="electronic smearing" >
    <i type="int" name="ISMEAR">     0</i>
    <i name="SIGMA">      0.05000000</i>
    <i name="KSPACING">      0.50000000</i>
    <i type="logical" name="KGAMMA"> T  </i>
   </separator>
   <separator name="electronic projectors" >
    <i type="logical" name="LREAL"> F  </i>
    <v name="ROPT">      0.00000000      0.00000000      0.00000000</v>
    <i type="int" name="LMAXPAW">  -100</i>
    <i type="int" name="LMAXMIX">     2</i>
    <i type="logical" name="NLSPLINE"> F  </i>
   </separator>
   <separator name="electronic startup" >
    <i type="int" name="ISTART">     0</i>
    <i type="int" name="ICHARG">     2</i>
    <i type="int" name="INIWAV">     1</i>
   </separator>
   <separator name="electronic spin" >
    <i type="int" name="ISPIN">     2</i>
    <i type="logical" name="LNONCOLLINEAR"> F  </i>
    <v name="MAGMOM">      1.00000000      1.00000000      1.00000000      1.00000000      1.00000000      1.00000000      1.00000000      1.00000000      1.00000000      1.00000000      1.00000000      1.00000000      1.00000000      1.00000000      1.00000000      1.00000000      1.00000000      1.00000000      1.00000000      1.00000000
      1.00000000      1.00000000      1.00000000      1.00000000      1.00000000      1.00000000      1.00000000      1.00000000      1.00000000      1.00000000      1.00000000      1.00000000</v>
    <i name="NUPDOWN">     -1.00000000</i>
    <i type="logical" name="LSORBIT"> F  </i>
    <v name="SAXIS">      0.00000000      0.00000000      1.00000000</v>
    <i type="logical" name="LSPIRAL"> F  </i>
    <v name="QSPIRAL">      0.00000000      0.00000000      0.00000000</v>
    <i type="logical" name="LZEROZ"> F  </i>
   </separator>
   <separator name="electronic exchange-correlation" >
    <i type="logical" name="LASPH"> F  </i>
    <i type="logical" name="LMETAGGA"> F  </i>
   </separator>
   <separator name="electronic convergence" >
    <i type="int" name="NELM">   100</i>
    <i type="int" name="NELMDL">    -5</i>
    <i type="int" name="NELMIN">     4</i>
    <i name="ENINI">    500.00000000</i>
    <separator name="electronic convergence detail" >
     <i type="logical" name="LDIAG"> T  </i>
     <i type="logical" name="LSUBROT"> F  </i>
     <i name="WEIMIN">      0.00000000</i>
     <i name="EBREAK">      0.00000000</i>
     <i name="DEPER">      0.30000000</i>
     <i type="int" name="NRMM">     4</i>
     <i name="TIME">      0.40000000</i>
    </separator>
   </separator>
   <separator name="electronic mixer" >
    <i name="AMIX">      0.40000000</i>
    <i name="BMIX">      1.00000000</i>
    <i name="AMIN">      0.10000000</i>
    <i name="AMIX_MAG">      1.60000000</i>
    <i name="BMIX_MAG">      1.00000000</i>
    <separator name="electronic mixer details" >
     <i type="int" name="IMIX">     4</i>
     <i type="int" name="MAXMIX">   -45</i>
     <i name="WC">    100.00000000</i>
     <i type="int" name="INIMIX">     1</i>
     <i type="int" name="MIXPRE">     1</i>
     <i type="int" name="MREMOVE">     5</i>
    </separator>
   </separator>
   <separator name="electronic dipolcorrection" >
    <i type="logical" name="LDIPOL"> F  </i>
    <i type="logical" name="LMONO"> F  </i>
    <i type="int" name="IDIPOL">     0</i>
    <i name="EPSILON">      1.00000000</i>
    <v name="DIPOL">   -100.00000000   -100.00000000   -100.00000000</v>
    <i name="EFIELD">      0.00000000</i>
   </separator>
  </separator>
  <separator name="grids" >
   <i type="int" name="NGX">    84</i>
   <i type="int" name="NGY">    60</i>
   <i type="int" name="NGZ">    42</i>
   <i type="int" name="NGXF">   168</i>
   <i type="int" name="NGYF">   120</i>
   <i type="int" name="NGZF">    84</i>
   <i type="logical" name="ADDGRID"> T  </i>
  </separator>
  <separator name="ionic" >
   <i type="int" name="NSW">     0</i>
   <i type="int" name="IBRION">    -1</i>
   <i type="int" name="ISIF">     2</i>
   <i name="PSTRESS">      0.00000000</i>
   <i name="EDIFFG">      0.00001000</i>
   <i type="int" name="NFREE">     0</i>
   <i name="POTIM">      0.50000000</i>
   <i name="SMASS">     -3.00000000</i>
   <i name="SCALEE">      1.00000000</i>
  </separator>
  <separator name="ionic md" >
   <i name="TEBEG">      0.00010000</i>
   <i name="TEEND">      0.00010000</i>
   <i type="int" name="NBLOCK">     1</i>
   <i type="int" name="KBLOCK">     1</i>
   <i type="int" name="NPACO">   256</i>
   <i name="APACO">     16.00000000</i>
  </separator>
  <separator name="symmetry" >
   <i type="int" name="ISYM">     2</i>
   <i name="SYMPREC">      0.00001000</i>
  </separator>
  <separator name="dos" >
   <i type="logical" name="LORBIT"> F  </i>
   <v name="RWIGS">     -1.00000000     -1.00000000     -1.00000000</v>
   <i type="int" name="NEDOS">   301</i>
   <i name="EMIN">     10.00000000</i>
   <i name="EMAX">    -10.00000000</i>
   <i name="EFERMI">      0.00000000</i>
  </separator>
  <separator name="writing" >
   <i type="int" name="NWRITE">     2</i>
   <i type="logical" name="LWAVE"> F  </i>
   <i type="logical" name="LCHARG"> F  </i>
   <i type="logical" name="LPARD"> F  </i>
   <i type="logical" name="LVTOT"> F  </i>
   <i type="logical" name="LVHAR"> F  </i>
   <i type="logical" name="LELF"> F  </i>
   <i type="logical" name="LOPTICS"> F  </i>
   <v name="STM">      0.00000000      0.00000000      0.00000000      0.00000000      0.00000000      0.00000000      0.00000000</v>
  </separator>
  <separator name="performance" >
   <i type="int" name="NPAR">     4</i>
   <i type="int" name="NSIM">     4</i>
   <i type="int" name="NBLK">    -1</i>
   <i type="logical" name="LPLANE"> T  </i>
   <i type="logical" name="LSCALAPACK"> T  </i>
   <i type="logical" name="LSCAAWARE"> F  </i>
   <i type="logical" name="LSCALU"> F  </i>
   <i type="logical" name="LASYNC"> F  </i>
   <i type="logical" name="LORBITALREAL"> F  </i>
  </separator>
  <separator name="miscellaneous" >
   <i type="int" name="IDIOT">     3</i>
   <i type="logical" name="LMUSIC"> F  </i>
   <v name="POMASS">     87.62000000     63.54600000     16.00000000</v>
   <v name="DARWINR">      0.00000000      0.00000000      0.00000000</v>
   <v name="DARWINV">      1.00000000      1.00000000      1.00000000</v>
   <i type="logical" name="LCORR"> T  </i>
  </separator>
  <i type="logical" name="GGA_COMPAT"> T  </i>
  <i type="logical" name="LBERRY"> F  </i>
  <i type="int" name="ICORELEVEL">     0</i>
  <i type="logical" name="LDAU"> T  </i>
  <v type="int" name="LDAUTYPE">     2</v>
  <v type="int" name="LDAUL">     2</v>
  <v name="LDAUU">      0.00000000</v>
  <v name="LDAUJ">      0.00000000</v>
  <i type="int" name="LDAUPRINT">     0</i>
  <i type="int" name="I_CONSTRAINED_M">     0</i>
  <separator name="electronic exchange-correlation" >
   <i type="string" name="GGA">--</i>
   <i type="int" name="VOSKOWN">     0</i>
   <i type="logical" name="LHFCALC"> F  </i>
   <i type="string" name="PRECFOCK"></i>
   <i type="logical" name="LSYMGRAD"> F  </i>
   <i type="logical" name="LHFONE"> F  </i>
   <i type="logical" name="LRHFCALC"> F  </i>
   <i type="logical" name="LTHOMAS"> F  </i>
   <i type="logical" name="LMODELHF"> F  </i>
   <i name="ENCUT4O">     -1.00000000</i>
   <i type="int" name="EXXOEP">     0</i>
   <i type="int" name="FOURORBIT">     0</i>
   <i name="AEXX">      0.00000000</i>
   <i name="HFALPHA">      0.00000000</i>
   <i name="MCALPHA">      0.00000000</i>
   <i name="ALDAX">      1.00000000</i>
   <i name="AGGAX">      1.00000000</i>
   <i name="ALDAC">      1.00000000</i>
   <i name="AGGAC">      1.00000000</i>
   <i type="int" name="NKREDX">     1</i>
   <i type="int" name="NKREDY">     1</i>
   <i type="int" name="NKREDZ">     1</i>
   <i type="logical" name="SHIFTRED"> F  </i>
   <i type="logical" name="ODDONLY"> F  </i>
   <i type="logical" name="EVENONLY"> F  </i>
   <i type="int" name="LMAXFOCK">     0</i>
   <i type="int" name="NMAXFOCKAE">     0</i>
   <i type="logical" name="LFOCKAEDFT"> F  </i>
   <i name="HFSCREEN">      0.00000000</i>
   <i name="HFSCREENC">      0.00000000</i>
   <i type="int" name="NBANDSGWLOW">     0</i>
  </separator>
  <separator name="vdW DFT" >
   <i type="logical" name="LUSE_VDW"> F  </i>
   <i name="Zab_VDW">     -0.84910000</i>
   <i name="PARAM1">      0.12340000</i>
   <i name="PARAM2">      1.00000000</i>
   <i name="PARAM3">      0.00000000</i>
  </separator>
  <separator name="model GW" >
   <i type="int" name="MODEL_GW">     0</i>
   <i name="MODEL_EPS0">      9.60000000</i>
   <i name="MODEL_ALPHA">      1.00000000</i>
  </separator>
  <separator name="linear response parameters" >
   <i type="logical" name="LEPSILON"> F  </i>
   <i type="logical" name="LRPA"> F  </i>
   <i type="logical" name="LNABLA"> F  </i>
   <i type="logical" name="LVEL"> F  </i>
   <i type="int" name="KINTER">     0</i>
   <i name="CSHIFT">      0.10000000</i>
   <i name="OMEGAMAX">     -1.00000000</i>
   <i name="DEG_THRESHOLD">      0.00200000</i>
  </separator>
  <separator name="orbital magnetization" >
   <i type="logical" name="NUCIND"> F  </i>
   <v name="MAGPOS">      0.00000000      0.00000000      0.00000000</v>
   <i type="logical" name="LNICSALL"> T  </i>
   <i type="logical" name="ORBITALMAG"> F  </i>
   <i type="logical" name="LMAGBLOCH"> F  </i>
   <i type="logical" name="LCHIMAG"> F  </i>
   <i type="logical" name="LGAUGE"> T  </i>
   <i type="int" name="MAGATOM">     0</i>
   <v name="MAGDIPOL">      0.00000000      0.00000000      0.00000000</v>
   <v name="AVECCONST">      0.00000000      0.00000000      0.00000000</v>
  </separator>
  <separator name="response functions" >
   <i type="logical" name="LADDER"> F  </i>
   <i type="logical" name="LFXC"> F  </i>
   <i type="logical" name="LHARTREE"> T  </i>
   <i type="int" name="IBSE">     0</i>
   <i type="logical" name="LTCTE"> F  </i>
   <i type="logical" name="LTETE"> F  </i>
   <i type="logical" name="LTRIPLET"> F  </i>
   <i type="logical" name="LFXCEPS"> F  </i>
   <i type="logical" name="LFXHEG"> F  </i>
   <i type="logical" name="L2ORDER"> F  </i>
   <i type="logical" name="LUSEW"> F  </i>
   <i name="ENCUTGW">     -2.00000000</i>
   <i name="ENCUTGWSOFT">     -2.00000000</i>
   <i name="ENCUTLF">     -1.00000000</i>
   <i type="int" name="LMAXMP2">    -1</i>
   <i name="SCISSOR">      0.00000000</i>
   <i type="int" name="NOMEGA">     0</i>
   <i type="int" name="NOMEGAR">     0</i>
   <i type="int" name="NBANDSGW">    -1</i>
   <i type="int" name="NBANDSO">    -1</i>
   <i type="int" name="NBANDSV">    -1</i>
   <i type="int" name="NELM">   100</i>
   <i type="int" name="DIM">     3</i>
   <i type="int" name="ANTIRES">     0</i>
   <i name="OMEGAMAX">    -30.00000000</i>
   <i name="OMEGAMIN">    -30.00000000</i>
   <i name="OMEGATL">   -200.00000000</i>
   <i type="int" name="OMEGAGRID">     0</i>
   <i name="CSHIFT">     -0.10000000</i>
   <i type="logical" name="SELFENERGY"> F  </i>
   <i type="logical" name="LSPECTRAL"> F  </i>
   <i type="logical" name="ODDONLYGW"> F  </i>
   <i type="logical" name="EVENONLYGW"> F  </i>
   <i type="int" name="NKREDLFX">     1</i>
   <i type="int" name="NKREDLFY">     1</i>
   <i type="int" name="NKREDLFZ">     1</i>
   <i type="int" name="MAXMEM">  1800</i>
   <i type="int" name="TELESCOPE">     0</i>
   <i type="int" name="TAUPAR">     1</i>
  </separator>
  <separator name="External order field" >
   <i name="OFIELD_KAPPA">      0.00000000</i>
   <v name="OFIELD_K">      0.00000000      0.00000000      0.00000000</v>
   <i name="OFIELD_Q6_NEAR">      0.00000000</i>
   <i name="OFIELD_Q6_FAR">      0.00000000</i>
   <i name="OFIELD_A">      0.00000000</i>
  </separator>
 </parameters>
 <atominfo>
  <atoms>      32 </atoms>
  <types>       3 </types>
  <array name="atoms" >
   <dimension dim="1">ion</dimension>
   <field type="string">element</field>
   <field type="int">atomtype</field>
   <set>
    <rc><c>Sr</c><c>   1</c></rc>
    <rc><c>Sr</c><c>   1</c></rc>
    <rc><c>Sr</c><c>   1</c></rc>
    <rc><c>Sr</c><c>   1</c></rc>
    <rc><c>Sr</c><c>   1</c></rc>
    <rc><c>Sr</c><c>   1</c></rc>
    <rc><c>Sr</c><c>   1</c></rc>
    <rc><c>Sr</c><c>   1</c></rc>
    <rc><c>Cu</c><c>   2</c></rc>
    <rc><c>Cu</c><c>   2</c></rc>
    <rc><c>Cu</c><c>   2</c></rc>
    <rc><c>Cu</c><c>   2</c></rc>
    <rc><c>Cu</c><c>   2</c></rc>
    <rc><c>Cu</c><c>   2</c></rc>
    <rc><c>Cu</c><c>   2</c></rc>
    <rc><c>Cu</c><c>   2</c></rc>
    <rc><c>O </c><c>   3</c></rc>
    <rc><c>O </c><c>   3</c></rc>
    <rc><c>O </c><c>   3</c></rc>
    <rc><c>O </c><c>   3</c></rc>
    <rc><c>O </c><c>   3</c></rc>
    <rc><c>O </c><c>   3</c></rc>
    <rc><c>O </c><c>   3</c></rc>
    <rc><c>O </c><c>   3</c></rc>
    <rc><c>O </c><c>   3</c></rc>
    <rc><c>O </c><c>   3</c></rc>
    <rc><c>O </c><c>   3</c></rc>
    <rc><c>O </c><c>   3</c></rc>
    <rc><c>O </c><c>   3</c></rc>
    <rc><c>O </c><c>   3</c></rc>
    <rc><c>O </c><c>   3</c></rc>
    <rc><c>O </c><c>   3</c></rc>
   </set>
  </array>
  <array name="atomtypes" >
   <dimension dim="1">type</dimension>
   <field type="int">atomspertype</field>
   <field type="string">element</field>
   <field>mass</field>
   <field>valence</field>
   <field type="string">pseudopotential</field>
   <set>
    <rc><c>   8</c><c>Sr</c><c>     87.62000000</c><c>     10.00000000</c><c>  PAW_PBE Sr_sv 07Sep2000               </c></rc>
    <rc><c>   8</c><c>Cu</c><c>     63.54600000</c><c>     11.00000000</c><c>  PAW_PBE Cu 22Jun2005                  </c></rc>
    <rc><c>  16</c><c>O </c><c>     16.00000000</c><c>      6.00000000</c><c>  PAW_PBE O_s 07Sep2000                 </c></rc>
   </set>
  </array>
 </atominfo>
 <structure name="initialpos" >
  <crystal>
   <varray name="basis" >
    <v>      11.31370850       0.00000000       0.00000000 </v>
    <v>       0.00000000       8.00000000       0.00000000 </v>
    <v>       0.00000000       0.00000000       5.65685425 </v>
   </varray>
   <i name="volume">    512.00000000 </i>
   <varray name="rec_basis" >
    <v>       0.08838835       0.00000000       0.00000000 </v>
    <v>       0.00000000       0.12500000       0.00000000 </v>
    <v>       0.00000000       0.00000000       0.17677670 </v>
   </varray>
  </crystal>
  <varray name="positions" >
   <v>       0.50000000       0.75000000       0.00000000 </v>
   <v>       0.75000000       0.25000000       0.50000000 </v>
   <v>       0.50000000       0.25000000       0.00000000 </v>
   <v>       0.25000000       0.25000000       0.50000000 </v>
   <v>       0.00000000       0.25000000       0.00000000 </v>
   <v>       0.25000000       0.75000000       0.50000000 </v>
   <v>       0.00000000       0.75000000       0.00000000 </v>
   <v>       0.75000000       0.75000000       0.50000000 </v>
   <v>       0.50000000       0.50000000       0.50000000 </v>
   <v>       0.75000000       0.00000000       0.00000000 </v>
   <v>       0.50000000       0.00000000       0.50000000 </v>
   <v>       0.25000000       0.00000000       0.00000000 </v>
   <v>       0.00000000       0.00000000       0.50000000 </v>
   <v>       0.25000000       0.50000000       0.00000000 </v>
   <v>       0.00000000       0.50000000       0.50000000 </v>
   <v>       0.75000000       0.50000000       0.00000000 </v>
   <v>       0.62500000       0.00000000       0.75000000 </v>
   <v>       0.37500000       0.00000000       0.25000000 </v>
   <v>       0.37500000       0.50000000       0.75000000 </v>
   <v>       0.62500000       0.00000000       0.25000000 </v>
   <v>       0.37500000       0.00000000       0.75000000 </v>
   <v>       0.62500000       0.50000000       0.25000000 </v>
   <v>       0.50000000       0.75000000       0.50000000 </v>
   <v>       0.50000000       0.25000000       0.50000000 </v>
   <v>       0.12500000       0.50000000       0.75000000 </v>
   <v>       0.87500000       0.50000000       0.25000000 </v>
   <v>       0.87500000       0.00000000       0.75000000 </v>
   <v>       0.12500000       0.50000000       0.25000000 </v>
   <v>       0.87500000       0.50000000       0.75000000 </v>
   <v>       0.12500000       0.00000000       0.25000000 </v>
   <v>       0.00000000       0.25000000       0.50000000 </v>
   <v>       0.00000000       0.75000000       0.50000000 </v>
  </varray>
 </structure>
 <calculation>
  <scstep>
   <time name="dav">    7.65    7.65</time>
   <time name="total">    7.84    7.86</time>
   <energy>
    <i name="alphaZ">   1197.30728287 </i>
    <i name="ewald"> -17282.11882909 </i>
    <i name="hartreedc">  -7606.19121863 </i>
    <i name="XCdc">   1086.30045295 </i>
    <i name="pawpsdc">  20377.93945936 </i>
    <i name="pawaedc"> -21035.46554250 </i>
    <i name="eentropy">     -0.00575911 </i>
    <i name="bandstr">   1938.94253628 </i>
    <i name="atom">  24790.01456472 </i>
    <i name="e_fr_energy">   3466.72294687 </i>
    <i name="e_wo_entrp">   3466.72870598 </i>
    <i name="e_0_energy">   3466.72582642 </i>
   </energy>
  </scstep>
  <scstep>
   <time name="dav">    7.68    7.69</time>
   <time name="total">    7.68    7.70</time>
   <energy>
    <i name="e_fr_energy">    407.92743270 </i>
    <i name="e_wo_entrp">    407.94033247 </i>
    <i name="e_0_energy">    407.93388259 </i>
   </energy>
  </scstep>
  <scstep>
   <time name="dav">    7.64    7.64</time>
   <time name="total">    7.64    7.66</time>
   <energy>
    <i name="e_fr_energy">   -140.56927061 </i>
    <i name="e_wo_entrp">   -140.55304776 </i>
    <i name="e_0_energy">   -140.56115918 </i>
   </energy>
  </scstep>
  <scstep>
   <time name="dav">   10.20   10.21</time>
   <time name="total">   10.21   10.22</time>
   <energy>
    <i name="e_fr_energy">   -191.52078605 </i>
    <i name="e_wo_entrp">   -191.51079135 </i>
    <i name="e_0_energy">   -191.51578870 </i>
   </energy>
  </scstep>
  <scstep>
   <time name="dav">   12.16   12.16</time>
   <time name="total">   12.57   12.59</time>
   <energy>
    <i name="e_fr_energy">   -194.56805808 </i>
    <i name="e_wo_entrp">   -194.55717256 </i>
    <i name="e_0_energy">   -194.56261532 </i>
   </energy>
  </scstep>
  <scstep>
   <time name="dav">   10.77   10.78</time>
   <time name="total">   11.37   11.39</time>
   <energy>
    <i name="e_fr_energy">   -169.08814331 </i>
    <i name="e_wo_entrp">   -169.05882500 </i>
    <i name="e_0_energy">   -169.07348416 </i>
   </energy>
  </scstep>
  <scstep>
   <time name="dav">   10.31   10.32</time>
   <time name="total">   10.92   10.94</time>
   <energy>
    <i name="e_fr_energy">   -158.18295019 </i>
    <i name="e_wo_entrp">   -158.16449269 </i>
    <i name="e_0_energy">   -158.17372144 </i>
   </energy>
  </scstep>
  <scstep>
   <time name="dav">   10.70   10.71</time>
   <time name="total">   11.30   11.33</time>
   <energy>
    <i name="e_fr_energy">   -159.14097927 </i>
    <i name="e_wo_entrp">   -159.12595550 </i>
    <i name="e_0_energy">   -159.13346739 </i>
   </energy>
  </scstep>
  <scstep>
   <time name="dav">   10.79   10.81</time>
   <time name="total">   11.40   11.43</time>
   <energy>
    <i name="e_fr_energy">   -160.49305478 </i>
    <i name="e_wo_entrp">   -160.48785765 </i>
    <i name="e_0_energy">   -160.49045621 </i>
   </energy>
  </scstep>
  <scstep>
   <time name="dav">   10.49   10.49</time>
   <time name="total">   11.09   11.16</time>
   <energy>
    <i name="e_fr_energy">   -157.14258482 </i>
    <i name="e_wo_entrp">   -157.12808363 </i>
    <i name="e_0_energy">   -157.13533422 </i>
   </energy>
  </scstep>
  <scstep>
   <time name="dav">   11.46   11.46</time>
   <time name="total">   12.06   12.08</time>
   <energy>
    <i name="e_fr_energy">   -157.82365546 </i>
    <i name="e_wo_entrp">   -157.80383856 </i>
    <i name="e_0_energy">   -157.81374701 </i>
   </energy>
  </scstep>
  <scstep>
   <time name="dav">   10.24   10.24</time>
   <time name="total">   10.84   10.86</time>
   <energy>
    <i name="e_fr_energy">   -157.88925858 </i>
    <i name="e_wo_entrp">   -157.87164257 </i>
    <i name="e_0_energy">   -157.88045057 </i>
   </energy>
  </scstep>
  <scstep>
   <time name="dav">   10.51   10.51</time>
   <time name="total">   11.11   11.13</time>
   <energy>
    <i name="e_fr_energy">   -157.95256141 </i>
    <i name="e_wo_entrp">   -157.93769365 </i>
    <i name="e_0_energy">   -157.94512753 </i>
   </energy>
  </scstep>
  <scstep>
   <time name="dav">   10.96   10.96</time>
   <time name="total">   11.56   11.58</time>
   <energy>
    <i name="e_fr_energy">   -158.00589920 </i>
    <i name="e_wo_entrp">   -157.98728212 </i>
    <i name="e_0_energy">   -157.99659066 </i>
   </energy>
  </scstep>
  <scstep>
   <time name="dav">   10.80   10.82</time>
   <time name="total">   11.40   11.43</time>
   <energy>
    <i name="e_fr_energy">   -158.04217212 </i>
    <i name="e_wo_entrp">   -158.02241438 </i>
    <i name="e_0_energy">   -158.03229325 </i>
   </energy>
  </scstep>
  <scstep>
   <time name="dav">   11.55   11.56</time>
   <time name="total">   12.16   12.17</time>
   <energy>
    <i name="e_fr_energy">   -158.06496572 </i>
    <i name="e_wo_entrp">   -158.04672091 </i>
    <i name="e_0_energy">   -158.05584332 </i>
   </energy>
  </scstep>
  <scstep>
   <time name="dav">   11.50   11.51</time>
   <time name="total">   12.11   12.12</time>
   <energy>
    <i name="e_fr_energy">   -158.08011524 </i>
    <i name="e_wo_entrp">   -158.06123586 </i>
    <i name="e_0_energy">   -158.07067555 </i>
   </energy>
  </scstep>
  <scstep>
   <time name="dav">   11.46   11.47</time>
   <time name="total">   12.07   12.08</time>
   <energy>
    <i name="e_fr_energy">   -158.08766887 </i>
    <i name="e_wo_entrp">   -158.06862311 </i>
    <i name="e_0_energy">   -158.07814599 </i>
   </energy>
  </scstep>
  <scstep>
   <time name="dav">    9.87    9.87</time>
   <time name="total">   10.47   10.49</time>
   <energy>
    <i name="e_fr_energy">   -158.07971028 </i>
    <i name="e_wo_entrp">   -158.06060027 </i>
    <i name="e_0_energy">   -158.07015527 </i>
   </energy>
  </scstep>
  <scstep>
   <time name="dav">    9.91    9.91</time>
   <time name="total">   10.51   10.53</time>
   <energy>
    <i name="e_fr_energy">   -158.09863417 </i>
    <i name="e_wo_entrp">   -158.07991047 </i>
    <i name="e_0_energy">   -158.08927232 </i>
   </energy>
  </scstep>
  <scstep>
   <time name="dav">   11.57   11.57</time>
   <time name="total">   12.17   12.19</time>
   <energy>
    <i name="e_fr_energy">   -158.10741744 </i>
    <i name="e_wo_entrp">   -158.08979394 </i>
    <i name="e_0_energy">   -158.09860569 </i>
   </energy>
  </scstep>
  <scstep>
   <time name="dav">   11.03   11.03</time>
   <time name="total">   11.69   11.70</time>
   <energy>
    <i name="e_fr_energy">   -158.11023716 </i>
    <i name="e_wo_entrp">   -158.09422952 </i>
    <i name="e_0_energy">   -158.10223334 </i>
   </energy>
  </scstep>
  <scstep>
   <time name="dav">   10.07   10.07</time>
   <time name="total">   10.67   10.69</time>
   <energy>
    <i name="e_fr_energy">   -158.10876120 </i>
    <i name="e_wo_entrp">   -158.09210600 </i>
    <i name="e_0_energy">   -158.10043360 </i>
   </energy>
  </scstep>
  <scstep>
   <time name="dav">   10.75   10.76</time>
   <time name="total">   11.35   11.37</time>
   <energy>
    <i name="e_fr_energy">   -158.11601533 </i>
    <i name="e_wo_entrp">   -158.10186760 </i>
    <i name="e_0_energy">   -158.10894146 </i>
   </energy>
  </scstep>
  <scstep>
   <time name="dav">   11.02   11.02</time>
   <time name="total">   11.62   11.64</time>
   <energy>
    <i name="e_fr_energy">   -158.12096907 </i>
    <i name="e_wo_entrp">   -158.11035462 </i>
    <i name="e_0_energy">   -158.11566184 </i>
   </energy>
  </scstep>
  <scstep>
   <time name="dav">   11.87   11.87</time>
   <time name="total">   12.47   12.49</time>
   <energy>
    <i name="e_fr_energy">   -158.12350009 </i>
    <i name="e_wo_entrp">   -158.11369575 </i>
    <i name="e_0_energy">   -158.11859792 </i>
   </energy>
  </scstep>
  <scstep>
   <time name="dav">   10.51   10.51</time>
   <time name="total">   11.12   11.13</time>
   <energy>
    <i name="e_fr_energy">   -158.12408714 </i>
    <i name="e_wo_entrp">   -158.11437584 </i>
    <i name="e_0_energy">   -158.11923149 </i>
   </energy>
  </scstep>
  <scstep>
   <time name="dav">    9.56    9.56</time>
   <time name="total">   10.16   10.18</time>
   <energy>
    <i name="e_fr_energy">   -158.12366606 </i>
    <i name="e_wo_entrp">   -158.11384301 </i>
    <i name="e_0_energy">   -158.11875454 </i>
   </energy>
  </scstep>
  <scstep>
   <time name="dav">   10.59   10.59</time>
   <time name="total">   11.19   11.20</time>
   <energy>
    <i name="e_fr_energy">   -158.12427704 </i>
    <i name="e_wo_entrp">   -158.11427855 </i>
    <i name="e_0_energy">   -158.11927780 </i>
   </energy>
  </scstep>
  <scstep>
   <time name="dav">   10.60   10.61</time>
   <time name="total">   11.21   11.22</time>
   <energy>
    <i name="e_fr_energy">   -158.12528315 </i>
    <i name="e_wo_entrp">   -158.11569632 </i>
    <i name="e_0_energy">   -158.12048974 </i>
   </energy>
  </scstep>
  <scstep>
   <time name="dav">   11.23   11.24</time>
   <time name="total">   11.84   11.85</time>
   <energy>
    <i name="e_fr_energy">   -158.12563413 </i>
    <i name="e_wo_entrp">   -158.11635687 </i>
    <i name="e_0_energy">   -158.12099550 </i>
   </energy>
  </scstep>
  <scstep>
   <time name="dav">   10.40   10.42</time>
   <time name="total">   10.99   11.07</time>
   <energy>
    <i name="e_fr_energy">   -158.12576045 </i>
    <i name="e_wo_entrp">   -158.11641509 </i>
    <i name="e_0_energy">   -158.12108777 </i>
   </energy>
  </scstep>
  <scstep>
   <time name="dav">   10.70   10.70</time>
   <time name="total">   11.30   11.32</time>
   <energy>
    <i name="e_fr_energy">   -158.12573490 </i>
    <i name="e_wo_entrp">   -158.11640509 </i>
    <i name="e_0_energy">   -158.12106999 </i>
   </energy>
  </scstep>
  <scstep>
   <time name="dav">   10.19   10.19</time>
   <time name="total">   10.79   10.81</time>
   <energy>
    <i name="e_fr_energy">   -158.12582318 </i>
    <i name="e_wo_entrp">   -158.11652246 </i>
    <i name="e_0_energy">   -158.12117282 </i>
   </energy>
  </scstep>
  <scstep>
   <time name="dav">   10.10   10.10</time>
   <time name="total">   10.70   10.72</time>
   <energy>
    <i name="e_fr_energy">   -158.12582562 </i>
    <i name="e_wo_entrp">   -158.11656945 </i>
    <i name="e_0_energy">   -158.12119754 </i>
   </energy>
  </scstep>
  <scstep>
   <time name="dav">    7.54    7.55</time>
   <time name="total">    8.15    8.16</time>
   <energy>
    <i name="e_fr_energy">   -158.12582395 </i>
    <i name="e_wo_entrp">   -158.11655624 </i>
    <i name="e_0_energy">   -158.12119009 </i>
   </energy>
  </scstep>
  <scstep>
   <time name="dav">    6.42    6.42</time>
   <time name="total">    6.61    6.63</time>
   <energy>
    <i name="alphaZ">   1197.30728287 </i>
    <i name="ewald"> -17282.11882909 </i>
    <i name="hartreedc">  -7615.16101174 </i>
    <i name="XCdc">   1086.98676249 </i>
    <i name="pawpsdc">  31091.13173076 </i>
    <i name="pawaedc"> -31821.94098280 </i>
    <i name="eentropy">     -0.00927948 </i>
    <i name="bandstr">  -1604.33606209 </i>
    <i name="atom">  24790.01456472 </i>
    <i name="e_fr_energy">   -158.12582436 </i>
    <i name="e_wo_entrp">   -158.11654488 </i>
    <i name="e_0_energy">   -158.12118462 </i>
   </energy>
  </scstep>
  <structure>
   <crystal>
    <varray name="basis" >
     <v>      11.31370850       0.00000000       0.00000000 </v>
     <v>       0.00000000       8.00000000       0.00000000 </v>
     <v>       0.00000000       0.00000000       5.65685425 </v>
    </varray>
    <i name="volume">    512.00000000 </i>
    <varray name="rec_basis" >
     <v>       0.08838835       0.00000000       0.00000000 </v>
     <v>       0.00000000       0.12500000       0.00000000 </v>
     <v>       0.00000000       0.00000000       0.17677670 </v>
    </varray>
   </crystal>
   <varray name="positions" >
    <v>       0.50000000       0.75000000       0.00000000 </v>
    <v>       0.75000000       0.25000000       0.50000000 </v>
    <v>       0.50000000       0.25000000       0.00000000 </v>
    <v>       0.25000000       0.25000000       0.50000000 </v>
    <v>       0.00000000       0.25000000       0.00000000 </v>
    <v>       0.25000000       0.75000000       0.50000000 </v>
    <v>       0.00000000       0.75000000       0.00000000 </v>
    <v>       0.75000000       0.75000000       0.50000000 </v>
    <v>       0.50000000       0.50000000       0.50000000 </v>
    <v>       0.75000000       0.00000000       0.00000000 </v>
    <v>       0.50000000       0.00000000       0.50000000 </v>
    <v>       0.25000000       0.00000000       0.00000000 </v>
    <v>       0.00000000       0.00000000       0.50000000 </v>
    <v>       0.25000000       0.50000000       0.00000000 </v>
    <v>       0.00000000       0.50000000       0.50000000 </v>
    <v>       0.75000000       0.50000000       0.00000000 </v>
    <v>       0.62500000       0.00000000       0.75000000 </v>
    <v>       0.37500000       0.00000000       0.25000000 </v>
    <v>       0.37500000       0.50000000       0.75000000 </v>
    <v>       0.62500000       0.00000000       0.25000000 </v>
    <v>       0.37500000       0.00000000       0.75000000 </v>
    <v>       0.62500000       0.50000000       0.25000000 </v>
    <v>       0.50000000       0.75000000       0.50000000 </v>
    <v>       0.50000000       0.25000000       0.50000000 </v>
    <v>       0.12500000       0.50000000       0.75000000 </v>
    <v>       0.87500000       0.50000000       0.25000000 </v>
    <v>       0.87500000       0.00000000       0.75000000 </v>
    <v>       0.12500000       0.50000000       0.25000000 </v>
    <v>       0.87500000       0.50000000       0.75000000 </v>
    <v>       0.12500000       0.00000000       0.25000000 </v>
    <v>       0.00000000       0.25000000       0.50000000 </v>
    <v>       0.00000000       0.75000000       0.50000000 </v>
   </varray>
  </structure>
  <varray name="forces" >
   <v>       0.00000000       1.39422469       0.00000000 </v>
   <v>       0.00000000       0.00000000       0.00000000 </v>
   <v>       0.00000000      -1.39422469       0.00000000 </v>
   <v>       0.00000000       0.00000000       0.00000000 </v>
   <v>       0.00000000       1.39422469       0.00000000 </v>
   <v>       0.00000000       0.00000000       0.00000000 </v>
   <v>       0.00000000      -1.39422469       0.00000000 </v>
   <v>       0.00000000       0.00000000       0.00000000 </v>
   <v>       0.00000000       0.00000000       0.00000000 </v>
   <v>      -0.84670772       0.00000000      -0.43554283 </v>
   <v>       0.00000000       0.00000000       0.00000000 </v>
   <v>       0.84670772       0.00000000       0.43554283 </v>
   <v>       0.00000000       0.00000000       0.00000000 </v>
   <v>      -0.84670772       0.00000000      -0.43554283 </v>
   <v>       0.00000000       0.00000000       0.00000000 </v>
   <v>       0.84670772       0.00000000       0.43554283 </v>
   <v>       0.26816032       0.00000000       0.33053469 </v>
   <v>      -0.26816032       0.00000000      -0.33053469 </v>
   <v>      -0.05430161       0.00000000       0.94236339 </v>
   <v>       1.95265448       0.00000000      -1.24221082 </v>
   <v>      -1.95265448       0.00000000       1.24221082 </v>
   <v>       0.05430161       0.00000000      -0.94236339 </v>
   <v>       0.00000000      -1.10726928       0.00000000 </v>
   <v>       0.00000000       1.10726928       0.00000000 </v>
   <v>       0.26816032       0.00000000       0.33053469 </v>
   <v>      -0.26816032       0.00000000      -0.33053469 </v>
   <v>      -0.05430161       0.00000000       0.94236339 </v>
   <v>       1.95265448       0.00000000      -1.24221082 </v>
   <v>      -1.95265448       0.00000000       1.24221082 </v>
   <v>       0.05430161       0.00000000      -0.94236339 </v>
   <v>       0.00000000      -1.10726928       0.00000000 </v>
   <v>       0.00000000       1.10726928       0.00000000 </v>
  </varray>
  <varray name="stress" >
   <v>     -89.51550852       0.00000000      -1.91229355 </v>
   <v>       0.00000000    -100.87166661       0.00000000 </v>
   <v>      -1.91229349       0.00000000     -89.96490700 </v>
  </varray>
  <energy>
   <i name="e_fr_energy">   -158.12582436 </i>
   <i name="e_wo_entrp">   -158.12118462 </i>
   <i name="e_0_energy">     -0.00927948 </i>
  </energy>
  <time name="totalsc">  411.14  411.92</time>
  <eigenvalues>
   <array>
    <dimension dim="1">band</dimension>
    <dimension dim="2">kpoint</dimension>
    <dimension dim="3">spin</dimension>
    <field>eigene</field>
    <field>occ</field>
    <set>
     <set comment="spin 1">
      <set comment="kpoint 1">
       <r>  -31.3847    1.0000 </r>
       <r>  -31.3731    1.0000 </r>
       <r>  -31.3709    1.0000 </r>
       <r>  -31.3694    1.0000 </r>
       <r>  -31.3603    1.0000 </r>
       <r>  -31.3582    1.0000 </r>
       <r>  -31.3567    1.0000 </r>
       <r>  -31.3464    1.0000 </r>
       <r>  -14.9764    1.0000 </r>
       <r>  -14.7054    1.0000 </r>
       <r>  -14.6632    1.0000 </r>
       <r>  -14.6100    1.0000 </r>
       <r>  -14.5013    1.0000 </r>
       <r>  -14.4682    1.0000 </r>
       <r>  -14.4671    1.0000 </r>
       <r>  -14.1105    1.0000 </r>
       <r>  -14.0328    1.0000 </r>
       <r>  -14.0327    1.0000 </r>
       <r>  -14.0248    1.0000 </r>
       <r>  -13.9426    1.0000 </r>
       <r>  -13.6321    1.0000 </r>
       <r>  -13.6207    1.0000 </r>
       <r>  -13.6142    1.0000 </r>
       <r>  -13.6102    1.0000 </r>
       <r>  -13.5422    1.0000 </r>
       <r>  -13.5367    1.0000 </r>
       <r>  -13.5325    1.0000 </r>
       <r>  -13.5260    1.0000 </r>
       <r>  -13.4501    1.0000 </r>
       <r>  -13.4147    1.0000 </r>
       <r>  -13.3295    1.0000 </r>
       <r>  -13.3214    1.0000 </r>
       <r>  -13.2735    1.0000 </r>
       <r>  -13.2689    1.0000 </r>
       <r>  -13.2608    1.0000 </r>
       <r>  -13.2472    1.0000 </r>
       <r>  -13.2120    1.0000 </r>
       <r>  -13.2101    1.0000 </r>
       <r>  -13.2046    1.0000 </r>
       <r>  -13.1651    1.0000 </r>
       <r>  -13.1555    1.0000 </r>
       <r>  -12.9800    1.0000 </r>
       <r>  -12.9332    1.0000 </r>
       <r>  -12.8429    1.0000 </r>
       <r>  -12.7987    1.0000 </r>
       <r>  -12.7902    1.0000 </r>
       <r>  -12.7541    1.0000 </r>
       <r>  -12.6780    1.0000 </r>
       <r>   -3.0555    1.0000 </r>
       <r>   -3.0228    1.0000 </r>
       <r>   -2.7913    1.0000 </r>
       <r>   -2.7542    1.0000 </r>
       <r>   -2.3221    1.0000 </r>
       <r>   -2.3028    1.0000 </r>
       <r>   -2.1255    1.0000 </r>
       <r>   -2.0299    1.0000 </r>
       <r>   -2.0174    1.0000 </r>
       <r>   -1.9565    1.0000 </r>
       <r>   -1.9026    1.0000 </r>
       <r>   -1.8836    1.0000 </r>
       <r>   -1.8364    1.0000 </r>
       <r>   -1.8115    1.0000 </r>
       <r>   -1.7865    1.0000 </r>
       <r>   -1.7477    1.0000 </r>
       <r>   -1.5079    1.0000 </r>
       <r>   -1.4846    1.0000 </r>
       <r>   -1.4767    1.0000 </r>
       <r>   -1.3439    1.0000 </r>
       <r>   -1.3120    1.0000 </r>
       <r>   -1.2598    1.0000 </r>
       <r>   -1.1963    1.0000 </r>
       <r>   -1.0591    1.0000 </r>
       <r>   -0.9844    1.0000 </r>
       <r>   -0.9761    1.0000 </r>
       <r>   -0.9355    1.0000 </r>
       <r>   -0.9344    1.0000 </r>
       <r>   -0.7379    1.0000 </r>
       <r>   -0.7218    1.0000 </r>
       <r>   -0.6894    1.0000 </r>
       <r>   -0.6527    1.0000 </r>
       <r>   -0.6382    1.0000 </r>
       <r>   -0.6376    1.0000 </r>
       <r>   -0.6164    1.0000 </r>
       <r>   -0.6040    1.0000 </r>
       <r>   -0.5091    1.0000 </r>
       <r>   -0.4905    1.0000 </r>
       <r>   -0.4798    1.0000 </r>
       <r>   -0.4457    1.0000 </r>
       <r>   -0.4012    1.0000 </r>
       <r>   -0.3763    1.0000 </r>
       <r>   -0.2795    1.0000 </r>
       <r>   -0.2088    1.0000 </r>
       <r>   -0.1690    1.0000 </r>
       <r>   -0.0258    1.0000 </r>
       <r>    0.1655    1.0000 </r>
       <r>    0.3185    1.0000 </r>
       <r>    0.3768    1.0000 </r>
       <r>    0.3800    1.0000 </r>
       <r>    0.4794    1.0000 </r>
       <r>    0.4996    1.0000 </r>
       <r>    0.7353    1.0000 </r>
       <r>    0.8138    1.0000 </r>
       <r>    0.8325    1.0000 </r>
       <r>    0.9586    1.0000 </r>
       <r>    1.0186    1.0000 </r>
       <r>    1.0264    1.0000 </r>
       <r>    1.0551    1.0000 </r>
       <r>    1.0603    1.0000 </r>
       <r>    1.1469    1.0000 </r>
       <r>    1.1528    1.0000 </r>
       <r>    1.1750    1.0000 </r>
       <r>    1.1852    1.0000 </r>
       <r>    1.2888    1.0000 </r>
       <r>    1.3364    1.0000 </r>
       <r>    1.3977    1.0000 </r>
       <r>    1.4276    1.0000 </r>
       <r>    1.4535    1.0000 </r>
       <r>    1.4594    1.0000 </r>
       <r>    1.4635    1.0000 </r>
       <r>    1.5197    1.0000 </r>
       <r>    1.5796    1.0000 </r>
       <r>    1.7474    1.0000 </r>
       <r>    1.7818    1.0000 </r>
       <r>    1.7995    1.0000 </r>
       <r>    1.8245    1.0000 </r>
       <r>    2.0128    1.0000 </r>
       <r>    2.1223    1.0000 </r>
       <r>    2.1921    1.0000 </r>
       <r>    2.2407    1.0000 </r>
       <r>    2.4002    1.0000 </r>
       <r>    2.4224    1.0000 </r>
       <r>    2.5054    0.9825 </r>
       <r>    2.8712    0.0000 </r>
       <r>    3.1593    0.0000 </r>
       <r>    3.3817    0.0000 </r>
       <r>    3.3975    0.0000 </r>
       <r>    4.2736    0.0000 </r>
       <r>    4.3349    0.0000 </r>
       <r>    4.3934    0.0000 </r>
       <r>    4.9894    0.0000 </r>
       <r>    5.0313    0.0000 </r>
       <r>    5.1703    0.0000 </r>
       <r>    5.9691    0.0000 </r>
       <r>    6.0011    0.0000 </r>
       <r>    7.2296    0.0000 </r>
       <r>    7.4907    0.0000 </r>
       <r>    7.5608    0.0000 </r>
       <r>    7.6579    0.0000 </r>
       <r>    7.9604    0.0000 </r>
       <r>    8.1012    0.0000 </r>
       <r>    8.1871    0.0000 </r>
       <r>    8.2976    0.0000 </r>
       <r>    8.3149    0.0000 </r>
       <r>    8.4058    0.0000 </r>
       <r>    8.5200    0.0000 </r>
       <r>    8.6043    0.0000 </r>
       <r>    8.6289    0.0000 </r>
       <r>    8.7025    0.0000 </r>
       <r>    8.8553    0.0000 </r>
       <r>    8.8756    0.0000 </r>
       <r>    9.0767    0.0000 </r>
       <r>    9.2597    0.0000 </r>
       <r>    9.5646    0.0000 </r>
       <r>    9.5842    0.0000 </r>
       <r>    9.5869    0.0000 </r>
       <r>    9.6239    0.0000 </r>
       <r>    9.7209    0.0000 </r>
       <r>    9.7314    0.0000 </r>
       <r>    9.7706    0.0000 </r>
       <r>    9.8187    0.0000 </r>
       <r>    9.8882    0.0000 </r>
       <r>   10.1546    0.0000 </r>
       <r>   10.2037    0.0000 </r>
       <r>   10.2101    0.0000 </r>
       <r>   10.3898    0.0000 </r>
       <r>   10.6776    0.0000 </r>
      </set>
      <set comment="kpoint 2">
       <r>  -31.3808    1.0000 </r>
       <r>  -31.3808    1.0000 </r>
       <r>  -31.3674    1.0000 </r>
       <r>  -31.3674    1.0000 </r>
       <r>  -31.3619    1.0000 </r>
       <r>  -31.3619    1.0000 </r>
       <r>  -31.3498    1.0000 </r>
       <r>  -31.3498    1.0000 </r>
       <r>  -14.8775    1.0000 </r>
       <r>  -14.8775    1.0000 </r>
       <r>  -14.6430    1.0000 </r>
       <r>  -14.6430    1.0000 </r>
       <r>  -14.4756    1.0000 </r>
       <r>  -14.4756    1.0000 </r>
       <r>  -14.2312    1.0000 </r>
       <r>  -14.2312    1.0000 </r>
       <r>  -14.0951    1.0000 </r>
       <r>  -14.0951    1.0000 </r>
       <r>  -13.8935    1.0000 </r>
       <r>  -13.8935    1.0000 </r>
       <r>  -13.7926    1.0000 </r>
       <r>  -13.7926    1.0000 </r>
       <r>  -13.5866    1.0000 </r>
       <r>  -13.5866    1.0000 </r>
       <r>  -13.5604    1.0000 </r>
       <r>  -13.5604    1.0000 </r>
       <r>  -13.5240    1.0000 </r>
       <r>  -13.5240    1.0000 </r>
       <r>  -13.3478    1.0000 </r>
       <r>  -13.3478    1.0000 </r>
       <r>  -13.2784    1.0000 </r>
       <r>  -13.2784    1.0000 </r>
       <r>  -13.2740    1.0000 </r>
       <r>  -13.2740    1.0000 </r>
       <r>  -13.2510    1.0000 </r>
       <r>  -13.2510    1.0000 </r>
       <r>  -13.2080    1.0000 </r>
       <r>  -13.2080    1.0000 </r>
       <r>  -13.1979    1.0000 </r>
       <r>  -13.1979    1.0000 </r>
       <r>  -12.9981    1.0000 </r>
       <r>  -12.9981    1.0000 </r>
       <r>  -12.9610    1.0000 </r>
       <r>  -12.9610    1.0000 </r>
       <r>  -12.8050    1.0000 </r>
       <r>  -12.8050    1.0000 </r>
       <r>  -12.7197    1.0000 </r>
       <r>  -12.7197    1.0000 </r>
       <r>   -2.9319    1.0000 </r>
       <r>   -2.9319    1.0000 </r>
       <r>   -2.8673    1.0000 </r>
       <r>   -2.8673    1.0000 </r>
       <r>   -2.3271    1.0000 </r>
       <r>   -2.3271    1.0000 </r>
       <r>   -2.2453    1.0000 </r>
       <r>   -2.2453    1.0000 </r>
       <r>   -1.9919    1.0000 </r>
       <r>   -1.9919    1.0000 </r>
       <r>   -1.9195    1.0000 </r>
       <r>   -1.9195    1.0000 </r>
       <r>   -1.8064    1.0000 </r>
       <r>   -1.8064    1.0000 </r>
       <r>   -1.5259    1.0000 </r>
       <r>   -1.5259    1.0000 </r>
       <r>   -1.4258    1.0000 </r>
       <r>   -1.4258    1.0000 </r>
       <r>   -1.4104    1.0000 </r>
       <r>   -1.4104    1.0000 </r>
       <r>   -1.2400    1.0000 </r>
       <r>   -1.2400    1.0000 </r>
       <r>   -1.1684    1.0000 </r>
       <r>   -1.1684    1.0000 </r>
       <r>   -0.9576    1.0000 </r>
       <r>   -0.9576    1.0000 </r>
       <r>   -0.8649    1.0000 </r>
       <r>   -0.8649    1.0000 </r>
       <r>   -0.8438    1.0000 </r>
       <r>   -0.8438    1.0000 </r>
       <r>   -0.8379    1.0000 </r>
       <r>   -0.8379    1.0000 </r>
       <r>   -0.6966    1.0000 </r>
       <r>   -0.6966    1.0000 </r>
       <r>   -0.6242    1.0000 </r>
       <r>   -0.6242    1.0000 </r>
       <r>   -0.4889    1.0000 </r>
       <r>   -0.4889    1.0000 </r>
       <r>   -0.4509    1.0000 </r>
       <r>   -0.4509    1.0000 </r>
       <r>   -0.3286    1.0000 </r>
       <r>   -0.3286    1.0000 </r>
       <r>   -0.2814    1.0000 </r>
       <r>   -0.2814    1.0000 </r>
       <r>    0.0716    1.0000 </r>
       <r>    0.0716    1.0000 </r>
       <r>    0.1512    1.0000 </r>
       <r>    0.1512    1.0000 </r>
       <r>    0.4001    1.0000 </r>
       <r>    0.4001    1.0000 </r>
       <r>    0.5258    1.0000 </r>
       <r>    0.5258    1.0000 </r>
       <r>    0.6708    1.0000 </r>
       <r>    0.6708    1.0000 </r>
       <r>    0.9043    1.0000 </r>
       <r>    0.9043    1.0000 </r>
       <r>    0.9667    1.0000 </r>
       <r>    0.9667    1.0000 </r>
       <r>    1.1200    1.0000 </r>
       <r>    1.1200    1.0000 </r>
       <r>    1.2157    1.0000 </r>
       <r>    1.2157    1.0000 </r>
       <r>    1.2434    1.0000 </r>
       <r>    1.2434    1.0000 </r>
       <r>    1.3251    1.0000 </r>
       <r>    1.3251    1.0000 </r>
       <r>    1.4348    1.0000 </r>
       <r>    1.4348    1.0000 </r>
       <r>    1.4486    1.0000 </r>
       <r>    1.4486    1.0000 </r>
       <r>    1.4849    1.0000 </r>
       <r>    1.4849    1.0000 </r>
       <r>    1.6338    1.0000 </r>
       <r>    1.6338    1.0000 </r>
       <r>    1.6750    1.0000 </r>
       <r>    1.6750    1.0000 </r>
       <r>    1.9945    1.0000 </r>
       <r>    1.9945    1.0000 </r>
       <r>    2.0576    1.0000 </r>
       <r>    2.0576    1.0000 </r>
       <r>    2.2975    1.0000 </r>
       <r>    2.2975    1.0000 </r>
       <r>    2.4281    1.0000 </r>
       <r>    2.4281    1.0000 </r>
       <r>    3.1348    0.0000 </r>
       <r>    3.1348    0.0000 </r>
       <r>    3.3708    0.0000 </r>
       <r>    3.3708    0.0000 </r>
       <r>    4.2447    0.0000 </r>
       <r>    4.2447    0.0000 </r>
       <r>    4.6567    0.0000 </r>
       <r>    4.6567    0.0000 </r>
       <r>    5.1371    0.0000 </r>
       <r>    5.1371    0.0000 </r>
       <r>    6.0535    0.0000 </r>
       <r>    6.0535    0.0000 </r>
       <r>    7.4971    0.0000 </r>
       <r>    7.4971    0.0000 </r>
       <r>    7.7583    0.0000 </r>
       <r>    7.7583    0.0000 </r>
       <r>    7.8645    0.0000 </r>
       <r>    7.8645    0.0000 </r>
       <r>    8.2272    0.0000 </r>
       <r>    8.2272    0.0000 </r>
       <r>    8.3527    0.0000 </r>
       <r>    8.3527    0.0000 </r>
       <r>    8.3637    0.0000 </r>
       <r>    8.3637    0.0000 </r>
       <r>    8.8567    0.0000 </r>
       <r>    8.8567    0.0000 </r>
       <r>    9.2306    0.0000 </r>
       <r>    9.2306    0.0000 </r>
       <r>    9.2539    0.0000 </r>
       <r>    9.2539    0.0000 </r>
       <r>    9.4708    0.0000 </r>
       <r>    9.4708    0.0000 </r>
       <r>    9.4803    0.0000 </r>
       <r>    9.4803    0.0000 </r>
       <r>    9.7353    0.0000 </r>
       <r>    9.7353    0.0000 </r>
       <r>    9.7477    0.0000 </r>
       <r>    9.7477    0.0000 </r>
       <r>    9.7872    0.0000 </r>
       <r>    9.7872    0.0000 </r>
       <r>   10.2914    0.0000 </r>
       <r>   10.2917    0.0000 </r>
       <r>   10.3856    0.0000 </r>
       <r>   10.3893    0.0000 </r>
      </set>
      <set comment="kpoint 3">
       <r>  -31.3813    1.0000 </r>
       <r>  -31.3744    1.0000 </r>
       <r>  -31.3699    1.0000 </r>
       <r>  -31.3663    1.0000 </r>
       <r>  -31.3635    1.0000 </r>
       <r>  -31.3599    1.0000 </r>
       <r>  -31.3552    1.0000 </r>
       <r>  -31.3493    1.0000 </r>
       <r>  -14.8957    1.0000 </r>
       <r>  -14.7355    1.0000 </r>
       <r>  -14.6492    1.0000 </r>
       <r>  -14.5620    1.0000 </r>
       <r>  -14.5291    1.0000 </r>
       <r>  -14.4889    1.0000 </r>
       <r>  -14.4138    1.0000 </r>
       <r>  -14.1777    1.0000 </r>
       <r>  -14.0939    1.0000 </r>
       <r>  -14.0421    1.0000 </r>
       <r>  -13.9901    1.0000 </r>
       <r>  -13.9800    1.0000 </r>
       <r>  -13.7639    1.0000 </r>
       <r>  -13.6928    1.0000 </r>
       <r>  -13.6872    1.0000 </r>
       <r>  -13.6618    1.0000 </r>
       <r>  -13.5770    1.0000 </r>
       <r>  -13.5349    1.0000 </r>
       <r>  -13.4687    1.0000 </r>
       <r>  -13.4659    1.0000 </r>
       <r>  -13.3991    1.0000 </r>
       <r>  -13.3877    1.0000 </r>
       <r>  -13.3855    1.0000 </r>
       <r>  -13.3818    1.0000 </r>
       <r>  -13.2590    1.0000 </r>
       <r>  -13.2460    1.0000 </r>
       <r>  -13.2323    1.0000 </r>
       <r>  -13.2240    1.0000 </r>
       <r>  -13.1579    1.0000 </r>
       <r>  -13.1147    1.0000 </r>
       <r>  -13.0895    1.0000 </r>
       <r>  -13.0881    1.0000 </r>
       <r>  -13.0139    1.0000 </r>
       <r>  -12.9885    1.0000 </r>
       <r>  -12.9573    1.0000 </r>
       <r>  -12.8895    1.0000 </r>
       <r>  -12.8643    1.0000 </r>
       <r>  -12.8352    1.0000 </r>
       <r>  -12.7863    1.0000 </r>
       <r>  -12.7378    1.0000 </r>
       <r>   -2.9964    1.0000 </r>
       <r>   -2.9580    1.0000 </r>
       <r>   -2.5881    1.0000 </r>
       <r>   -2.4990    1.0000 </r>
       <r>   -2.3318    1.0000 </r>
       <r>   -2.2713    1.0000 </r>
       <r>   -2.1290    1.0000 </r>
       <r>   -2.0177    1.0000 </r>
       <r>   -2.0070    1.0000 </r>
       <r>   -1.9822    1.0000 </r>
       <r>   -1.9520    1.0000 </r>
       <r>   -1.8412    1.0000 </r>
       <r>   -1.7918    1.0000 </r>
       <r>   -1.7845    1.0000 </r>
       <r>   -1.7686    1.0000 </r>
       <r>   -1.7356    1.0000 </r>
       <r>   -1.5762    1.0000 </r>
       <r>   -1.5139    1.0000 </r>
       <r>   -1.4942    1.0000 </r>
       <r>   -1.4864    1.0000 </r>
       <r>   -1.3396    1.0000 </r>
       <r>   -1.3155    1.0000 </r>
       <r>   -1.2765    1.0000 </r>
       <r>   -1.2149    1.0000 </r>
       <r>   -1.1469    1.0000 </r>
       <r>   -1.0842    1.0000 </r>
       <r>   -1.0225    1.0000 </r>
       <r>   -1.0120    1.0000 </r>
       <r>   -0.8761    1.0000 </r>
       <r>   -0.7567    1.0000 </r>
       <r>   -0.6950    1.0000 </r>
       <r>   -0.6611    1.0000 </r>
       <r>   -0.6463    1.0000 </r>
       <r>   -0.6271    1.0000 </r>
       <r>   -0.6163    1.0000 </r>
       <r>   -0.6045    1.0000 </r>
       <r>   -0.5841    1.0000 </r>
       <r>   -0.5606    1.0000 </r>
       <r>   -0.4898    1.0000 </r>
       <r>   -0.4843    1.0000 </r>
       <r>   -0.4036    1.0000 </r>
       <r>   -0.3699    1.0000 </r>
       <r>   -0.3181    1.0000 </r>
       <r>   -0.2095    1.0000 </r>
       <r>   -0.1902    1.0000 </r>
       <r>    0.0231    1.0000 </r>
       <r>    0.1376    1.0000 </r>
       <r>    0.3539    1.0000 </r>
       <r>    0.4160    1.0000 </r>
       <r>    0.5104    1.0000 </r>
       <r>    0.5131    1.0000 </r>
       <r>    0.5476    1.0000 </r>
       <r>    0.6387    1.0000 </r>
       <r>    0.7646    1.0000 </r>
       <r>    0.8346    1.0000 </r>
       <r>    0.8771    1.0000 </r>
       <r>    0.9495    1.0000 </r>
       <r>    0.9990    1.0000 </r>
       <r>    1.0715    1.0000 </r>
       <r>    1.1328    1.0000 </r>
       <r>    1.2146    1.0000 </r>
       <r>    1.2288    1.0000 </r>
       <r>    1.2627    1.0000 </r>
       <r>    1.2996    1.0000 </r>
       <r>    1.3948    1.0000 </r>
       <r>    1.4007    1.0000 </r>
       <r>    1.4070    1.0000 </r>
       <r>    1.4313    1.0000 </r>
       <r>    1.4397    1.0000 </r>
       <r>    1.4782    1.0000 </r>
       <r>    1.5304    1.0000 </r>
       <r>    1.6170    1.0000 </r>
       <r>    1.6628    1.0000 </r>
       <r>    1.7219    1.0000 </r>
       <r>    1.7846    1.0000 </r>
       <r>    1.9263    1.0000 </r>
       <r>    1.9767    1.0000 </r>
       <r>    2.0278    1.0000 </r>
       <r>    2.0686    1.0000 </r>
       <r>    2.1051    1.0000 </r>
       <r>    2.2067    1.0000 </r>
       <r>    2.2613    1.0000 </r>
       <r>    2.4695    0.9991 </r>
       <r>    2.5009    0.9874 </r>
       <r>    2.9331    0.0000 </r>
       <r>    3.1872    0.0000 </r>
       <r>    3.2749    0.0000 </r>
       <r>    3.3621    0.0000 </r>
       <r>    4.3288    0.0000 </r>
       <r>    4.3988    0.0000 </r>
       <r>    4.5114    0.0000 </r>
       <r>    4.7121    0.0000 </r>
       <r>    5.1457    0.0000 </r>
       <r>    5.7031    0.0000 </r>
       <r>    5.7782    0.0000 </r>
       <r>    6.0267    0.0000 </r>
       <r>    7.1140    0.0000 </r>
       <r>    7.2250    0.0000 </r>
       <r>    7.8509    0.0000 </r>
       <r>    7.8767    0.0000 </r>
       <r>    8.0451    0.0000 </r>
       <r>    8.1051    0.0000 </r>
       <r>    8.2348    0.0000 </r>
       <r>    8.2525    0.0000 </r>
       <r>    8.2558    0.0000 </r>
       <r>    8.4439    0.0000 </r>
       <r>    8.4442    0.0000 </r>
       <r>    8.5715    0.0000 </r>
       <r>    8.6505    0.0000 </r>
       <r>    8.7232    0.0000 </r>
       <r>    8.9134    0.0000 </r>
       <r>    8.9763    0.0000 </r>
       <r>    9.0561    0.0000 </r>
       <r>    9.2047    0.0000 </r>
       <r>    9.2875    0.0000 </r>
       <r>    9.4528    0.0000 </r>
       <r>    9.4671    0.0000 </r>
       <r>    9.5526    0.0000 </r>
       <r>    9.6333    0.0000 </r>
       <r>    9.7281    0.0000 </r>
       <r>    9.8776    0.0000 </r>
       <r>    9.8926    0.0000 </r>
       <r>    9.9239    0.0000 </r>
       <r>    9.9420    0.0000 </r>
       <r>    9.9746    0.0000 </r>
       <r>   10.0120    0.0000 </r>
       <r>   10.1135    0.0000 </r>
       <r>   10.2614    0.0000 </r>
      </set>
      <set comment="kpoint 4">
       <r>  -31.3775    1.0000 </r>
       <r>  -31.3775    1.0000 </r>
       <r>  -31.3707    1.0000 </r>
       <r>  -31.3707    1.0000 </r>
       <r>  -31.3589    1.0000 </r>
       <r>  -31.3589    1.0000 </r>
       <r>  -31.3528    1.0000 </r>
       <r>  -31.3528    1.0000 </r>
       <r>  -14.8287    1.0000 </r>
       <r>  -14.8287    1.0000 </r>
       <r>  -14.6261    1.0000 </r>
       <r>  -14.6261    1.0000 </r>
       <r>  -14.4579    1.0000 </r>
       <r>  -14.4579    1.0000 </r>
       <r>  -14.3184    1.0000 </r>
       <r>  -14.3184    1.0000 </r>
       <r>  -14.1070    1.0000 </r>
       <r>  -14.1070    1.0000 </r>
       <r>  -13.8991    1.0000 </r>
       <r>  -13.8991    1.0000 </r>
       <r>  -13.8109    1.0000 </r>
       <r>  -13.8109    1.0000 </r>
       <r>  -13.7066    1.0000 </r>
       <r>  -13.7066    1.0000 </r>
       <r>  -13.5305    1.0000 </r>
       <r>  -13.5305    1.0000 </r>
       <r>  -13.4554    1.0000 </r>
       <r>  -13.4554    1.0000 </r>
       <r>  -13.4285    1.0000 </r>
       <r>  -13.4285    1.0000 </r>
       <r>  -13.3304    1.0000 </r>
       <r>  -13.3304    1.0000 </r>
       <r>  -13.2198    1.0000 </r>
       <r>  -13.2198    1.0000 </r>
       <r>  -13.1954    1.0000 </r>
       <r>  -13.1954    1.0000 </r>
       <r>  -13.1358    1.0000 </r>
       <r>  -13.1358    1.0000 </r>
       <r>  -13.0739    1.0000 </r>
       <r>  -13.0739    1.0000 </r>
       <r>  -13.0248    1.0000 </r>
       <r>  -13.0248    1.0000 </r>
       <r>  -12.9202    1.0000 </r>
       <r>  -12.9202    1.0000 </r>
       <r>  -12.8749    1.0000 </r>
       <r>  -12.8749    1.0000 </r>
       <r>  -12.7806    1.0000 </r>
       <r>  -12.7806    1.0000 </r>
       <r>   -2.8829    1.0000 </r>
       <r>   -2.8829    1.0000 </r>
       <r>   -2.6523    1.0000 </r>
       <r>   -2.6523    1.0000 </r>
       <r>   -2.3421    1.0000 </r>
       <r>   -2.3421    1.0000 </r>
       <r>   -2.2314    1.0000 </r>
       <r>   -2.2314    1.0000 </r>
       <r>   -1.9795    1.0000 </r>
       <r>   -1.9795    1.0000 </r>
       <r>   -1.8424    1.0000 </r>
       <r>   -1.8424    1.0000 </r>
       <r>   -1.7625    1.0000 </r>
       <r>   -1.7625    1.0000 </r>
       <r>   -1.5992    1.0000 </r>
       <r>   -1.5992    1.0000 </r>
       <r>   -1.5241    1.0000 </r>
       <r>   -1.5241    1.0000 </r>
       <r>   -1.4131    1.0000 </r>
       <r>   -1.4131    1.0000 </r>
       <r>   -1.3641    1.0000 </r>
       <r>   -1.3641    1.0000 </r>
       <r>   -1.2009    1.0000 </r>
       <r>   -1.2009    1.0000 </r>
       <r>   -1.0846    1.0000 </r>
       <r>   -1.0846    1.0000 </r>
       <r>   -1.0198    1.0000 </r>
       <r>   -1.0198    1.0000 </r>
       <r>   -0.8469    1.0000 </r>
       <r>   -0.8469    1.0000 </r>
       <r>   -0.7938    1.0000 </r>
       <r>   -0.7938    1.0000 </r>
       <r>   -0.6978    1.0000 </r>
       <r>   -0.6978    1.0000 </r>
       <r>   -0.6700    1.0000 </r>
       <r>   -0.6700    1.0000 </r>
       <r>   -0.5688    1.0000 </r>
       <r>   -0.5688    1.0000 </r>
       <r>   -0.4871    1.0000 </r>
       <r>   -0.4871    1.0000 </r>
       <r>   -0.3534    1.0000 </r>
       <r>   -0.3534    1.0000 </r>
       <r>   -0.2536    1.0000 </r>
       <r>   -0.2536    1.0000 </r>
       <r>   -0.0607    1.0000 </r>
       <r>   -0.0607    1.0000 </r>
       <r>    0.2924    1.0000 </r>
       <r>    0.2924    1.0000 </r>
       <r>    0.4126    1.0000 </r>
       <r>    0.4126    1.0000 </r>
       <r>    0.5299    1.0000 </r>
       <r>    0.5299    1.0000 </r>
       <r>    0.6834    1.0000 </r>
       <r>    0.6834    1.0000 </r>
       <r>    0.8970    1.0000 </r>
       <r>    0.8970    1.0000 </r>
       <r>    0.9940    1.0000 </r>
       <r>    0.9940    1.0000 </r>
       <r>    1.1641    1.0000 </r>
       <r>    1.1641    1.0000 </r>
       <r>    1.2562    1.0000 </r>
       <r>    1.2562    1.0000 </r>
       <r>    1.2992    1.0000 </r>
       <r>    1.2992    1.0000 </r>
       <r>    1.3285    1.0000 </r>
       <r>    1.3285    1.0000 </r>
       <r>    1.4247    1.0000 </r>
       <r>    1.4247    1.0000 </r>
       <r>    1.4407    1.0000 </r>
       <r>    1.4407    1.0000 </r>
       <r>    1.5557    1.0000 </r>
       <r>    1.5557    1.0000 </r>
       <r>    1.7748    1.0000 </r>
       <r>    1.7748    1.0000 </r>
       <r>    1.7864    1.0000 </r>
       <r>    1.7864    1.0000 </r>
       <r>    1.9168    1.0000 </r>
       <r>    1.9168    1.0000 </r>
       <r>    2.0984    1.0000 </r>
       <r>    2.0984    1.0000 </r>
       <r>    2.2513    1.0000 </r>
       <r>    2.2513    1.0000 </r>
       <r>    2.4548    0.9998 </r>
       <r>    2.4548    0.9998 </r>
       <r>    3.1215    0.0000 </r>
       <r>    3.1215    0.0000 </r>
       <r>    3.2491    0.0000 </r>
       <r>    3.2491    0.0000 </r>
       <r>    4.3248    0.0000 </r>
       <r>    4.3248    0.0000 </r>
       <r>    4.6747    0.0000 </r>
       <r>    4.6747    0.0000 </r>
       <r>    5.3831    0.0000 </r>
       <r>    5.3831    0.0000 </r>
       <r>    5.9197    0.0000 </r>
       <r>    5.9197    0.0000 </r>
       <r>    7.3532    0.0000 </r>
       <r>    7.3532    0.0000 </r>
       <r>    7.9001    0.0000 </r>
       <r>    7.9001    0.0000 </r>
       <r>    8.0590    0.0000 </r>
       <r>    8.0590    0.0000 </r>
       <r>    8.3109    0.0000 </r>
       <r>    8.3109    0.0000 </r>
       <r>    8.4736    0.0000 </r>
       <r>    8.4736    0.0000 </r>
       <r>    8.4973    0.0000 </r>
       <r>    8.4973    0.0000 </r>
       <r>    8.8001    0.0000 </r>
       <r>    8.8001    0.0000 </r>
       <r>    8.9736    0.0000 </r>
       <r>    8.9736    0.0000 </r>
       <r>    8.9820    0.0000 </r>
       <r>    8.9820    0.0000 </r>
       <r>    9.1487    0.0000 </r>
       <r>    9.1487    0.0000 </r>
       <r>    9.4177    0.0000 </r>
       <r>    9.4177    0.0000 </r>
       <r>    9.5178    0.0000 </r>
       <r>    9.5178    0.0000 </r>
       <r>    9.9152    0.0000 </r>
       <r>    9.9152    0.0000 </r>
       <r>   10.0260    0.0000 </r>
       <r>   10.0260    0.0000 </r>
       <r>   10.1484    0.0000 </r>
       <r>   10.1502    0.0000 </r>
       <r>   10.2069    0.0000 </r>
       <r>   10.2256    0.0000 </r>
      </set>
      <set comment="kpoint 5">
       <r>  -31.3808    1.0000 </r>
       <r>  -31.3729    1.0000 </r>
       <r>  -31.3694    1.0000 </r>
       <r>  -31.3673    1.0000 </r>
       <r>  -31.3619    1.0000 </r>
       <r>  -31.3602    1.0000 </r>
       <r>  -31.3567    1.0000 </r>
       <r>  -31.3498    1.0000 </r>
       <r>  -14.9252    1.0000 </r>
       <r>  -14.8152    1.0000 </r>
       <r>  -14.7065    1.0000 </r>
       <r>  -14.5560    1.0000 </r>
       <r>  -14.5132    1.0000 </r>
       <r>  -14.4307    1.0000 </r>
       <r>  -14.4043    1.0000 </r>
       <r>  -14.1707    1.0000 </r>
       <r>  -14.1548    1.0000 </r>
       <r>  -14.1447    1.0000 </r>
       <r>  -14.0723    1.0000 </r>
       <r>  -13.8886    1.0000 </r>
       <r>  -13.8412    1.0000 </r>
       <r>  -13.8410    1.0000 </r>
       <r>  -13.6277    1.0000 </r>
       <r>  -13.6081    1.0000 </r>
       <r>  -13.5734    1.0000 </r>
       <r>  -13.5410    1.0000 </r>
       <r>  -13.5221    1.0000 </r>
       <r>  -13.4672    1.0000 </r>
       <r>  -13.4550    1.0000 </r>
       <r>  -13.3612    1.0000 </r>
       <r>  -13.2985    1.0000 </r>
       <r>  -13.2651    1.0000 </r>
       <r>  -13.2614    1.0000 </r>
       <r>  -13.2469    1.0000 </r>
       <r>  -13.2301    1.0000 </r>
       <r>  -13.2235    1.0000 </r>
       <r>  -13.1719    1.0000 </r>
       <r>  -13.1620    1.0000 </r>
       <r>  -13.1307    1.0000 </r>
       <r>  -13.1045    1.0000 </r>
       <r>  -13.0759    1.0000 </r>
       <r>  -12.9749    1.0000 </r>
       <r>  -12.8787    1.0000 </r>
       <r>  -12.8114    1.0000 </r>
       <r>  -12.7721    1.0000 </r>
       <r>  -12.7484    1.0000 </r>
       <r>  -12.7047    1.0000 </r>
       <r>  -12.6469    1.0000 </r>
       <r>   -2.9651    1.0000 </r>
       <r>   -2.9531    1.0000 </r>
       <r>   -2.7574    1.0000 </r>
       <r>   -2.7326    1.0000 </r>
       <r>   -2.4853    1.0000 </r>
       <r>   -2.4280    1.0000 </r>
       <r>   -2.1909    1.0000 </r>
       <r>   -2.1672    1.0000 </r>
       <r>   -2.0680    1.0000 </r>
       <r>   -1.9554    1.0000 </r>
       <r>   -1.9254    1.0000 </r>
       <r>   -1.9098    1.0000 </r>
       <r>   -1.8036    1.0000 </r>
       <r>   -1.7773    1.0000 </r>
       <r>   -1.5177    1.0000 </r>
       <r>   -1.4920    1.0000 </r>
       <r>   -1.4321    1.0000 </r>
       <r>   -1.3577    1.0000 </r>
       <r>   -1.3181    1.0000 </r>
       <r>   -1.2893    1.0000 </r>
       <r>   -1.2588    1.0000 </r>
       <r>   -1.2346    1.0000 </r>
       <r>   -1.1995    1.0000 </r>
       <r>   -1.1166    1.0000 </r>
       <r>   -0.9785    1.0000 </r>
       <r>   -0.9489    1.0000 </r>
       <r>   -0.9364    1.0000 </r>
       <r>   -0.9100    1.0000 </r>
       <r>   -0.8850    1.0000 </r>
       <r>   -0.8559    1.0000 </r>
       <r>   -0.8447    1.0000 </r>
       <r>   -0.8206    1.0000 </r>
       <r>   -0.7349    1.0000 </r>
       <r>   -0.7335    1.0000 </r>
       <r>   -0.6308    1.0000 </r>
       <r>   -0.6285    1.0000 </r>
       <r>   -0.5206    1.0000 </r>
       <r>   -0.4691    1.0000 </r>
       <r>   -0.4441    1.0000 </r>
       <r>   -0.4156    1.0000 </r>
       <r>   -0.3266    1.0000 </r>
       <r>   -0.3055    1.0000 </r>
       <r>   -0.2832    1.0000 </r>
       <r>   -0.2747    1.0000 </r>
       <r>   -0.0443    1.0000 </r>
       <r>    0.0592    1.0000 </r>
       <r>    0.1245    1.0000 </r>
       <r>    0.1471    1.0000 </r>
       <r>    0.3073    1.0000 </r>
       <r>    0.4669    1.0000 </r>
       <r>    0.5468    1.0000 </r>
       <r>    0.6000    1.0000 </r>
       <r>    0.6897    1.0000 </r>
       <r>    0.8035    1.0000 </r>
       <r>    0.8361    1.0000 </r>
       <r>    0.8558    1.0000 </r>
       <r>    0.9239    1.0000 </r>
       <r>    0.9407    1.0000 </r>
       <r>    0.9895    1.0000 </r>
       <r>    1.0576    1.0000 </r>
       <r>    1.0861    1.0000 </r>
       <r>    1.1313    1.0000 </r>
       <r>    1.2172    1.0000 </r>
       <r>    1.2451    1.0000 </r>
       <r>    1.2471    1.0000 </r>
       <r>    1.3567    1.0000 </r>
       <r>    1.3578    1.0000 </r>
       <r>    1.3631    1.0000 </r>
       <r>    1.3841    1.0000 </r>
       <r>    1.4797    1.0000 </r>
       <r>    1.5054    1.0000 </r>
       <r>    1.5200    1.0000 </r>
       <r>    1.6938    1.0000 </r>
       <r>    1.7207    1.0000 </r>
       <r>    1.7611    1.0000 </r>
       <r>    1.7883    1.0000 </r>
       <r>    1.9322    1.0000 </r>
       <r>    1.9578    1.0000 </r>
       <r>    2.0132    1.0000 </r>
       <r>    2.0170    1.0000 </r>
       <r>    2.0829    1.0000 </r>
       <r>    2.1853    1.0000 </r>
       <r>    2.2761    1.0000 </r>
       <r>    2.3110    1.0000 </r>
       <r>    2.7317    0.0000 </r>
       <r>    2.8826    0.0000 </r>
       <r>    3.3623    0.0000 </r>
       <r>    3.6335    0.0000 </r>
       <r>    4.2380    0.0000 </r>
       <r>    4.5848    0.0000 </r>
       <r>    4.7005    0.0000 </r>
       <r>    5.2482    0.0000 </r>
       <r>    5.2665    0.0000 </r>
       <r>    5.3185    0.0000 </r>
       <r>    6.1983    0.0000 </r>
       <r>    6.3227    0.0000 </r>
       <r>    7.2629    0.0000 </r>
       <r>    7.3596    0.0000 </r>
       <r>    7.3625    0.0000 </r>
       <r>    7.5541    0.0000 </r>
       <r>    7.6478    0.0000 </r>
       <r>    7.8650    0.0000 </r>
       <r>    7.9065    0.0000 </r>
       <r>    8.1681    0.0000 </r>
       <r>    8.2245    0.0000 </r>
       <r>    8.3983    0.0000 </r>
       <r>    8.5233    0.0000 </r>
       <r>    8.5935    0.0000 </r>
       <r>    8.7620    0.0000 </r>
       <r>    8.7656    0.0000 </r>
       <r>    9.0268    0.0000 </r>
       <r>    9.2307    0.0000 </r>
       <r>    9.3193    0.0000 </r>
       <r>    9.3213    0.0000 </r>
       <r>    9.3719    0.0000 </r>
       <r>    9.4827    0.0000 </r>
       <r>    9.5336    0.0000 </r>
       <r>    9.7098    0.0000 </r>
       <r>    9.7603    0.0000 </r>
       <r>    9.7850    0.0000 </r>
       <r>    9.8679    0.0000 </r>
       <r>    9.9382    0.0000 </r>
       <r>    9.9787    0.0000 </r>
       <r>    9.9877    0.0000 </r>
       <r>   10.1335    0.0000 </r>
       <r>   10.2110    0.0000 </r>
       <r>   10.2129    0.0000 </r>
       <r>   10.3743    0.0000 </r>
      </set>
      <set comment="kpoint 6">
       <r>  -31.3781    1.0000 </r>
       <r>  -31.3780    1.0000 </r>
       <r>  -31.3649    1.0000 </r>
       <r>  -31.3648    1.0000 </r>
       <r>  -31.3645    1.0000 </r>
       <r>  -31.3644    1.0000 </r>
       <r>  -31.3523    1.0000 </r>
       <r>  -31.3521    1.0000 </r>
       <r>  -14.8553    1.0000 </r>
       <r>  -14.8146    1.0000 </r>
       <r>  -14.7481    1.0000 </r>
       <r>  -14.7188    1.0000 </r>
       <r>  -14.4356    1.0000 </r>
       <r>  -14.3692    1.0000 </r>
       <r>  -14.3091    1.0000 </r>
       <r>  -14.3090    1.0000 </r>
       <r>  -14.0643    1.0000 </r>
       <r>  -14.0585    1.0000 </r>
       <r>  -14.0492    1.0000 </r>
       <r>  -14.0173    1.0000 </r>
       <r>  -13.9064    1.0000 </r>
       <r>  -13.9043    1.0000 </r>
       <r>  -13.5855    1.0000 </r>
       <r>  -13.5843    1.0000 </r>
       <r>  -13.5829    1.0000 </r>
       <r>  -13.5750    1.0000 </r>
       <r>  -13.5192    1.0000 </r>
       <r>  -13.4716    1.0000 </r>
       <r>  -13.4108    1.0000 </r>
       <r>  -13.3576    1.0000 </r>
       <r>  -13.3017    1.0000 </r>
       <r>  -13.2803    1.0000 </r>
       <r>  -13.2549    1.0000 </r>
       <r>  -13.2443    1.0000 </r>
       <r>  -13.2276    1.0000 </r>
       <r>  -13.2206    1.0000 </r>
       <r>  -13.1636    1.0000 </r>
       <r>  -13.1555    1.0000 </r>
       <r>  -13.1278    1.0000 </r>
       <r>  -13.0616    1.0000 </r>
       <r>  -13.0381    1.0000 </r>
       <r>  -12.9438    1.0000 </r>
       <r>  -12.8452    1.0000 </r>
       <r>  -12.8347    1.0000 </r>
       <r>  -12.8122    1.0000 </r>
       <r>  -12.7902    1.0000 </r>
       <r>  -12.6992    1.0000 </r>
       <r>  -12.6807    1.0000 </r>
       <r>   -3.0225    1.0000 </r>
       <r>   -3.0045    1.0000 </r>
       <r>   -2.7555    1.0000 </r>
       <r>   -2.6169    1.0000 </r>
       <r>   -2.4697    1.0000 </r>
       <r>   -2.4180    1.0000 </r>
       <r>   -2.0085    1.0000 </r>
       <r>   -1.9801    1.0000 </r>
       <r>   -1.9563    1.0000 </r>
       <r>   -1.9237    1.0000 </r>
       <r>   -1.8913    1.0000 </r>
       <r>   -1.8838    1.0000 </r>
       <r>   -1.8823    1.0000 </r>
       <r>   -1.8612    1.0000 </r>
       <r>   -1.7992    1.0000 </r>
       <r>   -1.7967    1.0000 </r>
       <r>   -1.5001    1.0000 </r>
       <r>   -1.4891    1.0000 </r>
       <r>   -1.4264    1.0000 </r>
       <r>   -1.3714    1.0000 </r>
       <r>   -1.3607    1.0000 </r>
       <r>   -1.3244    1.0000 </r>
       <r>   -0.9797    1.0000 </r>
       <r>   -0.9612    1.0000 </r>
       <r>   -0.9586    1.0000 </r>
       <r>   -0.9579    1.0000 </r>
       <r>   -0.9378    1.0000 </r>
       <r>   -0.9337    1.0000 </r>
       <r>   -0.8150    1.0000 </r>
       <r>   -0.8100    1.0000 </r>
       <r>   -0.7574    1.0000 </r>
       <r>   -0.6930    1.0000 </r>
       <r>   -0.6863    1.0000 </r>
       <r>   -0.6479    1.0000 </r>
       <r>   -0.5780    1.0000 </r>
       <r>   -0.5396    1.0000 </r>
       <r>   -0.4922    1.0000 </r>
       <r>   -0.4906    1.0000 </r>
       <r>   -0.4544    1.0000 </r>
       <r>   -0.4168    1.0000 </r>
       <r>   -0.4047    1.0000 </r>
       <r>   -0.3200    1.0000 </r>
       <r>   -0.2803    1.0000 </r>
       <r>   -0.2306    1.0000 </r>
       <r>   -0.0875    1.0000 </r>
       <r>    0.0985    1.0000 </r>
       <r>    0.1038    1.0000 </r>
       <r>    0.1867    1.0000 </r>
       <r>    0.2536    1.0000 </r>
       <r>    0.4431    1.0000 </r>
       <r>    0.5499    1.0000 </r>
       <r>    0.6355    1.0000 </r>
       <r>    0.6877    1.0000 </r>
       <r>    0.7429    1.0000 </r>
       <r>    0.7670    1.0000 </r>
       <r>    0.9335    1.0000 </r>
       <r>    0.9448    1.0000 </r>
       <r>    0.9803    1.0000 </r>
       <r>    0.9825    1.0000 </r>
       <r>    1.0739    1.0000 </r>
       <r>    1.1059    1.0000 </r>
       <r>    1.1432    1.0000 </r>
       <r>    1.1868    1.0000 </r>
       <r>    1.2131    1.0000 </r>
       <r>    1.2598    1.0000 </r>
       <r>    1.2898    1.0000 </r>
       <r>    1.3207    1.0000 </r>
       <r>    1.3855    1.0000 </r>
       <r>    1.4378    1.0000 </r>
       <r>    1.4628    1.0000 </r>
       <r>    1.4766    1.0000 </r>
       <r>    1.4810    1.0000 </r>
       <r>    1.5587    1.0000 </r>
       <r>    1.6594    1.0000 </r>
       <r>    1.7360    1.0000 </r>
       <r>    1.7991    1.0000 </r>
       <r>    1.9376    1.0000 </r>
       <r>    1.9900    1.0000 </r>
       <r>    2.0270    1.0000 </r>
       <r>    2.0319    1.0000 </r>
       <r>    2.0550    1.0000 </r>
       <r>    2.0908    1.0000 </r>
       <r>    2.3087    1.0000 </r>
       <r>    2.3236    1.0000 </r>
       <r>    2.7249    0.0000 </r>
       <r>    2.8579    0.0000 </r>
       <r>    3.6007    0.0000 </r>
       <r>    3.6208    0.0000 </r>
       <r>    4.2963    0.0000 </r>
       <r>    4.4712    0.0000 </r>
       <r>    4.8643    0.0000 </r>
       <r>    5.0121    0.0000 </r>
       <r>    5.2573    0.0000 </r>
       <r>    5.3386    0.0000 </r>
       <r>    6.2020    0.0000 </r>
       <r>    6.3207    0.0000 </r>
       <r>    7.3665    0.0000 </r>
       <r>    7.4866    0.0000 </r>
       <r>    7.5452    0.0000 </r>
       <r>    7.5864    0.0000 </r>
       <r>    7.7558    0.0000 </r>
       <r>    7.7952    0.0000 </r>
       <r>    7.8262    0.0000 </r>
       <r>    8.0382    0.0000 </r>
       <r>    8.1725    0.0000 </r>
       <r>    8.2844    0.0000 </r>
       <r>    8.4194    0.0000 </r>
       <r>    8.7493    0.0000 </r>
       <r>    8.8134    0.0000 </r>
       <r>    8.9188    0.0000 </r>
       <r>    9.0024    0.0000 </r>
       <r>    9.1981    0.0000 </r>
       <r>    9.4210    0.0000 </r>
       <r>    9.4306    0.0000 </r>
       <r>    9.6003    0.0000 </r>
       <r>    9.6093    0.0000 </r>
       <r>    9.6516    0.0000 </r>
       <r>    9.6643    0.0000 </r>
       <r>    9.7092    0.0000 </r>
       <r>    9.7162    0.0000 </r>
       <r>    9.7877    0.0000 </r>
       <r>    9.9194    0.0000 </r>
       <r>    9.9745    0.0000 </r>
       <r>   10.0249    0.0000 </r>
       <r>   10.0330    0.0000 </r>
       <r>   10.0997    0.0000 </r>
       <r>   10.2926    0.0000 </r>
       <r>   10.3115    0.0000 </r>
      </set>
      <set comment="kpoint 7">
       <r>  -31.3774    1.0000 </r>
       <r>  -31.3707    1.0000 </r>
       <r>  -31.3697    1.0000 </r>
       <r>  -31.3662    1.0000 </r>
       <r>  -31.3634    1.0000 </r>
       <r>  -31.3599    1.0000 </r>
       <r>  -31.3589    1.0000 </r>
       <r>  -31.3529    1.0000 </r>
       <r>  -14.8479    1.0000 </r>
       <r>  -14.7427    1.0000 </r>
       <r>  -14.7179    1.0000 </r>
       <r>  -14.5843    1.0000 </r>
       <r>  -14.5163    1.0000 </r>
       <r>  -14.4480    1.0000 </r>
       <r>  -14.3882    1.0000 </r>
       <r>  -14.2542    1.0000 </r>
       <r>  -14.2427    1.0000 </r>
       <r>  -14.1539    1.0000 </r>
       <r>  -13.9863    1.0000 </r>
       <r>  -13.9435    1.0000 </r>
       <r>  -13.8951    1.0000 </r>
       <r>  -13.8418    1.0000 </r>
       <r>  -13.7258    1.0000 </r>
       <r>  -13.6876    1.0000 </r>
       <r>  -13.5372    1.0000 </r>
       <r>  -13.5006    1.0000 </r>
       <r>  -13.4717    1.0000 </r>
       <r>  -13.4442    1.0000 </r>
       <r>  -13.4339    1.0000 </r>
       <r>  -13.4065    1.0000 </r>
       <r>  -13.3344    1.0000 </r>
       <r>  -13.2966    1.0000 </r>
       <r>  -13.2389    1.0000 </r>
       <r>  -13.2341    1.0000 </r>
       <r>  -13.1934    1.0000 </r>
       <r>  -13.1798    1.0000 </r>
       <r>  -13.1380    1.0000 </r>
       <r>  -13.1135    1.0000 </r>
       <r>  -13.0447    1.0000 </r>
       <r>  -13.0396    1.0000 </r>
       <r>  -12.9990    1.0000 </r>
       <r>  -12.9513    1.0000 </r>
       <r>  -12.9074    1.0000 </r>
       <r>  -12.8597    1.0000 </r>
       <r>  -12.8355    1.0000 </r>
       <r>  -12.8194    1.0000 </r>
       <r>  -12.7050    1.0000 </r>
       <r>  -12.6752    1.0000 </r>
       <r>   -2.8087    1.0000 </r>
       <r>   -2.7638    1.0000 </r>
       <r>   -2.7235    1.0000 </r>
       <r>   -2.6483    1.0000 </r>
       <r>   -2.4522    1.0000 </r>
       <r>   -2.3796    1.0000 </r>
       <r>   -2.2058    1.0000 </r>
       <r>   -2.1943    1.0000 </r>
       <r>   -1.9548    1.0000 </r>
       <r>   -1.9043    1.0000 </r>
       <r>   -1.8609    1.0000 </r>
       <r>   -1.8606    1.0000 </r>
       <r>   -1.8120    1.0000 </r>
       <r>   -1.7847    1.0000 </r>
       <r>   -1.5805    1.0000 </r>
       <r>   -1.5749    1.0000 </r>
       <r>   -1.5157    1.0000 </r>
       <r>   -1.4942    1.0000 </r>
       <r>   -1.4032    1.0000 </r>
       <r>   -1.3704    1.0000 </r>
       <r>   -1.3077    1.0000 </r>
       <r>   -1.2741    1.0000 </r>
       <r>   -1.2229    1.0000 </r>
       <r>   -1.1982    1.0000 </r>
       <r>   -1.1160    1.0000 </r>
       <r>   -1.0628    1.0000 </r>
       <r>   -1.0326    1.0000 </r>
       <r>   -1.0217    1.0000 </r>
       <r>   -0.9031    1.0000 </r>
       <r>   -0.8833    1.0000 </r>
       <r>   -0.7944    1.0000 </r>
       <r>   -0.7792    1.0000 </r>
       <r>   -0.7340    1.0000 </r>
       <r>   -0.7284    1.0000 </r>
       <r>   -0.6724    1.0000 </r>
       <r>   -0.6646    1.0000 </r>
       <r>   -0.5716    1.0000 </r>
       <r>   -0.5715    1.0000 </r>
       <r>   -0.5006    1.0000 </r>
       <r>   -0.4820    1.0000 </r>
       <r>   -0.3612    1.0000 </r>
       <r>   -0.3460    1.0000 </r>
       <r>   -0.2466    1.0000 </r>
       <r>   -0.1980    1.0000 </r>
       <r>   -0.0535    1.0000 </r>
       <r>   -0.0122    1.0000 </r>
       <r>    0.0628    1.0000 </r>
       <r>    0.2219    1.0000 </r>
       <r>    0.3494    1.0000 </r>
       <r>    0.4631    1.0000 </r>
       <r>    0.5685    1.0000 </r>
       <r>    0.6991    1.0000 </r>
       <r>    0.7512    1.0000 </r>
       <r>    0.7576    1.0000 </r>
       <r>    0.8319    1.0000 </r>
       <r>    0.8591    1.0000 </r>
       <r>    0.9298    1.0000 </r>
       <r>    1.0176    1.0000 </r>
       <r>    1.0214    1.0000 </r>
       <r>    1.0880    1.0000 </r>
       <r>    1.1285    1.0000 </r>
       <r>    1.1898    1.0000 </r>
       <r>    1.2315    1.0000 </r>
       <r>    1.2755    1.0000 </r>
       <r>    1.2924    1.0000 </r>
       <r>    1.3335    1.0000 </r>
       <r>    1.3543    1.0000 </r>
       <r>    1.3879    1.0000 </r>
       <r>    1.4334    1.0000 </r>
       <r>    1.4782    1.0000 </r>
       <r>    1.5289    1.0000 </r>
       <r>    1.6239    1.0000 </r>
       <r>    1.7097    1.0000 </r>
       <r>    1.7896    1.0000 </r>
       <r>    1.8162    1.0000 </r>
       <r>    1.8559    1.0000 </r>
       <r>    1.8882    1.0000 </r>
       <r>    1.9405    1.0000 </r>
       <r>    1.9923    1.0000 </r>
       <r>    2.0179    1.0000 </r>
       <r>    2.0896    1.0000 </r>
       <r>    2.1618    1.0000 </r>
       <r>    2.3672    1.0000 </r>
       <r>    2.4819    0.9972 </r>
       <r>    2.7801    0.0000 </r>
       <r>    2.9416    0.0000 </r>
       <r>    3.1495    0.0000 </r>
       <r>    3.4837    0.0000 </r>
       <r>    4.3617    0.0000 </r>
       <r>    4.6499    0.0000 </r>
       <r>    4.7352    0.0000 </r>
       <r>    4.9210    0.0000 </r>
       <r>    5.4040    0.0000 </r>
       <r>    5.8086    0.0000 </r>
[...]
       <r>     5.2382     3.2647   139.9781 </r>
       <r>     5.3925     5.9149   140.8907 </r>
       <r>     5.5468     2.8697   141.3335 </r>
       <r>     5.7011     2.0991   141.6574 </r>
       <r>     5.8554     2.2716   142.0079 </r>
       <r>     6.0097     3.3602   142.5263 </r>
       <r>     6.1640     3.7615   143.1067 </r>
       <r>     6.3183     3.6294   143.6667 </r>
       <r>     6.4726     1.0795   143.8332 </r>
       <r>     6.6269     0.0040   143.8338 </r>
       <r>     6.7812     0.5002   143.9110 </r>
       <r>     6.9355     0.6647   144.0136 </r>
       <r>     7.0898     1.2376   144.2045 </r>
       <r>     7.2440     3.4039   144.7297 </r>
       <r>     7.3983     8.5479   146.0486 </r>
       <r>     7.5526     5.5141   146.8994 </r>
       <r>     7.7069     6.9329   147.9691 </r>
       <r>     7.8612     6.8777   149.0303 </r>
       <r>     8.0155     8.0776   150.2766 </r>
       <r>     8.1698     8.0717   151.5220 </r>
       <r>     8.3241     9.8736   153.0454 </r>
       <r>     8.4784    12.8836   155.0332 </r>
       <r>     8.6327     7.0754   156.1249 </r>
       <r>     8.7870     7.8779   157.3404 </r>
       <r>     8.9413     6.1953   158.2963 </r>
       <r>     9.0956    11.2151   160.0267 </r>
       <r>     9.2498     7.7050   161.2155 </r>
       <r>     9.4041     8.1699   162.4761 </r>
       <r>     9.5584    15.5882   164.8812 </r>
       <r>     9.7127    12.6933   166.8397 </r>
       <r>     9.8670    12.0720   168.7023 </r>
       <r>    10.0213    17.3360   171.3771 </r>
       <r>    10.1756    14.4417   173.6054 </r>
       <r>    10.3299    12.0160   175.4593 </r>
       <r>    10.4842     3.2300   175.9577 </r>
       <r>    10.6385     0.0403   175.9639 </r>
       <r>    10.7928     0.2337   176.0000 </r>
       <r>    10.9471     0.0002   176.0000 </r>
       <r>    11.1014     0.0000   176.0000 </r>
       <r>    11.2556     0.0000   176.0000 </r>
       <r>    11.4099     0.0000   176.0000 </r>
       <r>    11.5642     0.0000   176.0000 </r>
       <r>    11.7185     0.0000   176.0000 </r>
       <r>    11.8728     0.0000   176.0000 </r>
       <r>    12.0271     0.0000   176.0000 </r>
       <r>    12.1814     0.0000   176.0000 </r>
       <r>    12.3357     0.0000   176.0000 </r>
       <r>    12.4900     0.0000   176.0000 </r>
       <r>    12.6443     0.0000   176.0000 </r>
       <r>    12.7986     0.0000   176.0000 </r>
      </set>
      <set comment="spin 2">
       <r>   -33.4892     0.0000     0.0000 </r>
       <r>   -33.3349     0.0000     0.0000 </r>
       <r>   -33.1806     0.0000     0.0000 </r>
       <r>   -33.0263     0.0000     0.0000 </r>
       <r>   -32.8720     0.0000     0.0000 </r>
       <r>   -32.7177     0.0000     0.0000 </r>
       <r>   -32.5634     0.0000     0.0000 </r>
       <r>   -32.4091     0.0000     0.0000 </r>
       <r>   -32.2548     0.0000     0.0000 </r>
       <r>   -32.1005     0.0000     0.0000 </r>
       <r>   -31.9463     0.0000     0.0000 </r>
       <r>   -31.7920     0.0000     0.0000 </r>
       <r>   -31.6377     0.0000     0.0000 </r>
       <r>   -31.4834     0.0292     0.0045 </r>
       <r>   -31.3291    43.6126     6.7336 </r>
       <r>   -31.1748     8.2077     8.0000 </r>
       <r>   -31.0205     0.0000     8.0000 </r>
       <r>   -30.8662     0.0000     8.0000 </r>
       <r>   -30.7119     0.0000     8.0000 </r>
       <r>   -30.5576     0.0000     8.0000 </r>
       <r>   -30.4033     0.0000     8.0000 </r>
       <r>   -30.2490     0.0000     8.0000 </r>
       <r>   -30.0947     0.0000     8.0000 </r>
       <r>   -29.9405     0.0000     8.0000 </r>
       <r>   -29.7862     0.0000     8.0000 </r>
       <r>   -29.6319     0.0000     8.0000 </r>
       <r>   -29.4776     0.0000     8.0000 </r>
       <r>   -29.3233     0.0000     8.0000 </r>
       <r>   -29.1690     0.0000     8.0000 </r>
       <r>   -29.0147     0.0000     8.0000 </r>
       <r>   -28.8604     0.0000     8.0000 </r>
       <r>   -28.7061     0.0000     8.0000 </r>
       <r>   -28.5518     0.0000     8.0000 </r>
       <r>   -28.3975     0.0000     8.0000 </r>
       <r>   -28.2432     0.0000     8.0000 </r>
       <r>   -28.0889     0.0000     8.0000 </r>
       <r>   -27.9347     0.0000     8.0000 </r>
       <r>   -27.7804     0.0000     8.0000 </r>
       <r>   -27.6261     0.0000     8.0000 </r>
       <r>   -27.4718     0.0000     8.0000 </r>
       <r>   -27.3175     0.0000     8.0000 </r>
       <r>   -27.1632     0.0000     8.0000 </r>
       <r>   -27.0089     0.0000     8.0000 </r>
       <r>   -26.8546     0.0000     8.0000 </r>
       <r>   -26.7003     0.0000     8.0000 </r>
       <r>   -26.5460     0.0000     8.0000 </r>
       <r>   -26.3917     0.0000     8.0000 </r>
       <r>   -26.2374     0.0000     8.0000 </r>
       <r>   -26.0831     0.0000     8.0000 </r>
       <r>   -25.9288     0.0000     8.0000 </r>
       <r>   -25.7746     0.0000     8.0000 </r>
       <r>   -25.6203     0.0000     8.0000 </r>
       <r>   -25.4660     0.0000     8.0000 </r>
       <r>   -25.3117     0.0000     8.0000 </r>
       <r>   -25.1574     0.0000     8.0000 </r>
       <r>   -25.0031     0.0000     8.0000 </r>
       <r>   -24.8488     0.0000     8.0000 </r>
       <r>   -24.6945     0.0000     8.0000 </r>
       <r>   -24.5402     0.0000     8.0000 </r>
       <r>   -24.3859     0.0000     8.0000 </r>
       <r>   -24.2316     0.0000     8.0000 </r>
       <r>   -24.0773     0.0000     8.0000 </r>
       <r>   -23.9230     0.0000     8.0000 </r>
       <r>   -23.7688     0.0000     8.0000 </r>
       <r>   -23.6145     0.0000     8.0000 </r>
       <r>   -23.4602     0.0000     8.0000 </r>
       <r>   -23.3059     0.0000     8.0000 </r>
       <r>   -23.1516     0.0000     8.0000 </r>
       <r>   -22.9973     0.0000     8.0000 </r>
       <r>   -22.8430     0.0000     8.0000 </r>
       <r>   -22.6887     0.0000     8.0000 </r>
       <r>   -22.5344     0.0000     8.0000 </r>
       <r>   -22.3801     0.0000     8.0000 </r>
       <r>   -22.2258     0.0000     8.0000 </r>
       <r>   -22.0715     0.0000     8.0000 </r>
       <r>   -21.9172     0.0000     8.0000 </r>
       <r>   -21.7629     0.0000     8.0000 </r>
       <r>   -21.6087     0.0000     8.0000 </r>
       <r>   -21.4544     0.0000     8.0000 </r>
       <r>   -21.3001     0.0000     8.0000 </r>
       <r>   -21.1458     0.0000     8.0000 </r>
       <r>   -20.9915     0.0000     8.0000 </r>
       <r>   -20.8372     0.0000     8.0000 </r>
       <r>   -20.6829     0.0000     8.0000 </r>
       <r>   -20.5286     0.0000     8.0000 </r>
       <r>   -20.3743     0.0000     8.0000 </r>
       <r>   -20.2200     0.0000     8.0000 </r>
       <r>   -20.0657     0.0000     8.0000 </r>
       <r>   -19.9114     0.0000     8.0000 </r>
       <r>   -19.7571     0.0000     8.0000 </r>
       <r>   -19.6029     0.0000     8.0000 </r>
       <r>   -19.4486     0.0000     8.0000 </r>
       <r>   -19.2943     0.0000     8.0000 </r>
       <r>   -19.1400     0.0000     8.0000 </r>
       <r>   -18.9857     0.0000     8.0000 </r>
       <r>   -18.8314     0.0000     8.0000 </r>
       <r>   -18.6771     0.0000     8.0000 </r>
       <r>   -18.5228     0.0000     8.0000 </r>
       <r>   -18.3685     0.0000     8.0000 </r>
       <r>   -18.2142     0.0000     8.0000 </r>
       <r>   -18.0599     0.0000     8.0000 </r>
       <r>   -17.9056     0.0000     8.0000 </r>
       <r>   -17.7513     0.0000     8.0000 </r>
       <r>   -17.5971     0.0000     8.0000 </r>
       <r>   -17.4428     0.0000     8.0000 </r>
       <r>   -17.2885     0.0000     8.0000 </r>
       <r>   -17.1342     0.0000     8.0000 </r>
       <r>   -16.9799     0.0000     8.0000 </r>
       <r>   -16.8256     0.0000     8.0000 </r>
       <r>   -16.6713     0.0000     8.0000 </r>
       <r>   -16.5170     0.0000     8.0000 </r>
       <r>   -16.3627     0.0000     8.0000 </r>
       <r>   -16.2084     0.0000     8.0000 </r>
       <r>   -16.0541     0.0000     8.0000 </r>
       <r>   -15.8998     0.0000     8.0000 </r>
       <r>   -15.7455     0.0000     8.0000 </r>
       <r>   -15.5912     0.0000     8.0000 </r>
       <r>   -15.4370     0.0000     8.0000 </r>
       <r>   -15.2827     0.0000     8.0000 </r>
       <r>   -15.1284     0.0000     8.0000 </r>
       <r>   -14.9741     0.1416     8.0218 </r>
       <r>   -14.8198     4.0956     8.6538 </r>
       <r>   -14.6655    13.5188    10.7396 </r>
       <r>   -14.5112    11.8911    12.5743 </r>
       <r>   -14.3569    10.2328    14.1532 </r>
       <r>   -14.2026    11.2158    15.8837 </r>
       <r>   -14.0483    13.0542    17.8978 </r>
       <r>   -13.8940    12.3089    19.7970 </r>
       <r>   -13.7397    12.4467    21.7174 </r>
       <r>   -13.5854    14.1467    23.9002 </r>
       <r>   -13.4312    27.0301    28.0707 </r>
       <r>   -13.2769    23.1672    31.6452 </r>
       <r>   -13.1226    37.3380    37.4062 </r>
       <r>   -12.9683    21.5872    40.7369 </r>
       <r>   -12.8140    22.7816    44.2520 </r>
       <r>   -12.6597    19.3027    47.2302 </r>
       <r>   -12.5054     4.9471    47.9935 </r>
       <r>   -12.3511     0.0420    48.0000 </r>
       <r>   -12.1968     0.0000    48.0000 </r>
       <r>   -12.0425     0.0000    48.0000 </r>
       <r>   -11.8882     0.0000    48.0000 </r>
       <r>   -11.7339     0.0000    48.0000 </r>
       <r>   -11.5796     0.0000    48.0000 </r>
       <r>   -11.4254     0.0000    48.0000 </r>
       <r>   -11.2711     0.0000    48.0000 </r>
       <r>   -11.1168     0.0000    48.0000 </r>
       <r>   -10.9625     0.0000    48.0000 </r>
       <r>   -10.8082     0.0000    48.0000 </r>
       <r>   -10.6539     0.0000    48.0000 </r>
       <r>   -10.4996     0.0000    48.0000 </r>
       <r>   -10.3453     0.0000    48.0000 </r>
       <r>   -10.1910     0.0000    48.0000 </r>
       <r>   -10.0367     0.0000    48.0000 </r>
       <r>    -9.8824     0.0000    48.0000 </r>
       <r>    -9.7281     0.0000    48.0000 </r>
       <r>    -9.5738     0.0000    48.0000 </r>
       <r>    -9.4195     0.0000    48.0000 </r>
       <r>    -9.2653     0.0000    48.0000 </r>
       <r>    -9.1110     0.0000    48.0000 </r>
       <r>    -8.9567     0.0000    48.0000 </r>
       <r>    -8.8024     0.0000    48.0000 </r>
       <r>    -8.6481     0.0000    48.0000 </r>
       <r>    -8.4938     0.0000    48.0000 </r>
       <r>    -8.3395     0.0000    48.0000 </r>
       <r>    -8.1852     0.0000    48.0000 </r>
       <r>    -8.0309     0.0000    48.0000 </r>
       <r>    -7.8766     0.0000    48.0000 </r>
       <r>    -7.7223     0.0000    48.0000 </r>
       <r>    -7.5680     0.0000    48.0000 </r>
       <r>    -7.4137     0.0000    48.0000 </r>
       <r>    -7.2595     0.0000    48.0000 </r>
       <r>    -7.1052     0.0000    48.0000 </r>
       <r>    -6.9509     0.0000    48.0000 </r>
       <r>    -6.7966     0.0000    48.0000 </r>
       <r>    -6.6423     0.0000    48.0000 </r>
       <r>    -6.4880     0.0000    48.0000 </r>
       <r>    -6.3337     0.0000    48.0000 </r>
       <r>    -6.1794     0.0000    48.0000 </r>
       <r>    -6.0251     0.0000    48.0000 </r>
       <r>    -5.8708     0.0000    48.0000 </r>
       <r>    -5.7165     0.0000    48.0000 </r>
       <r>    -5.5622     0.0000    48.0000 </r>
       <r>    -5.4079     0.0000    48.0000 </r>
       <r>    -5.2537     0.0000    48.0000 </r>
       <r>    -5.0994     0.0000    48.0000 </r>
       <r>    -4.9451     0.0000    48.0000 </r>
       <r>    -4.7908     0.0000    48.0000 </r>
       <r>    -4.6365     0.0000    48.0000 </r>
       <r>    -4.4822     0.0000    48.0000 </r>
       <r>    -4.3279     0.0000    48.0000 </r>
       <r>    -4.1736     0.0000    48.0000 </r>
       <r>    -4.0193     0.0000    48.0000 </r>
       <r>    -3.8650     0.0000    48.0000 </r>
       <r>    -3.7107     0.0000    48.0000 </r>
       <r>    -3.5564     0.0000    48.0000 </r>
       <r>    -3.4021     0.0000    48.0000 </r>
       <r>    -3.2478     0.0000    48.0000 </r>
       <r>    -3.0936     0.1820    48.0281 </r>
       <r>    -2.9393     4.6909    48.7519 </r>
       <r>    -2.7850    10.2564    50.3344 </r>
       <r>    -2.6307     3.3348    50.8489 </r>
       <r>    -2.4764     5.4757    51.6937 </r>
       <r>    -2.3221     3.7333    52.2698 </r>
       <r>    -2.1678    10.3639    53.8689 </r>
       <r>    -2.0135    11.0654    55.5762 </r>
       <r>    -1.8592    16.9523    58.1918 </r>
       <r>    -1.7049    19.4793    61.1973 </r>
       <r>    -1.5506    13.8067    63.3276 </r>
       <r>    -1.3963    25.5630    67.2717 </r>
       <r>    -1.2420    20.5399    70.4409 </r>
       <r>    -1.0878    20.7798    73.6470 </r>
       <r>    -0.9335    12.9396    75.6435 </r>
       <r>    -0.7792    20.6591    78.8311 </r>
       <r>    -0.6249    29.0607    83.3149 </r>
       <r>    -0.4706    26.8993    87.4653 </r>
       <r>    -0.3163    13.9868    89.6233 </r>
       <r>    -0.1620    13.7018    91.7374 </r>
       <r>    -0.0077     8.5546    93.0573 </r>
       <r>     0.1466    11.5409    94.8380 </r>
       <r>     0.3009     6.7845    95.8848 </r>
       <r>     0.4552     4.8220    96.6288 </r>
       <r>     0.6095    15.1011    98.9588 </r>
       <r>     0.7638    14.4288   101.1850 </r>
       <r>     0.9180    14.5139   103.4244 </r>
       <r>     1.0723    17.3709   106.1046 </r>
       <r>     1.2266    23.5657   109.7406 </r>
       <r>     1.3809    32.5066   114.7562 </r>
       <r>     1.5352    24.1912   118.4887 </r>
       <r>     1.6895    12.8268   120.4678 </r>
       <r>     1.8438    18.4236   123.3104 </r>
       <r>     1.9981    17.4880   126.0086 </r>
       <r>     2.1524    15.7990   128.4463 </r>
       <r>     2.3067    11.4788   130.2174 </r>
       <r>     2.4610     7.0456   131.3045 </r>
       <r>     2.6153     4.4681   131.9939 </r>
       <r>     2.7696     3.0168   132.4593 </r>
       <r>     2.9239     1.8335   132.7422 </r>
       <r>     3.0781     6.4882   133.7433 </r>
       <r>     3.2324     2.3266   134.1023 </r>
       <r>     3.3867     3.3234   134.6151 </r>
       <r>     3.5410     5.0552   135.3950 </r>
       <r>     3.6953     3.4740   135.9311 </r>
       <r>     3.8496     0.2660   135.9721 </r>
       <r>     4.0039     0.1808   136.0000 </r>
       <r>     4.1582     0.2259   136.0348 </r>
       <r>     4.3125     3.1671   136.5235 </r>
       <r>     4.4668     3.4242   137.0518 </r>
       <r>     4.6211     3.6298   137.6119 </r>
       <r>     4.7754     5.3843   138.4426 </r>
       <r>     4.9297     4.9004   139.1987 </r>
       <r>     5.0839     1.6978   139.4607 </r>
       <r>     5.2382     3.3512   139.9778 </r>
       <r>     5.3925     5.1594   140.7738 </r>
       <r>     5.5468     3.5539   141.3222 </r>
       <r>     5.7011     2.0683   141.6413 </r>
       <r>     5.8554     2.3531   142.0044 </r>
       <r>     6.0097     3.1332   142.4878 </r>
       <r>     6.1640     3.8843   143.0871 </r>
       <r>     6.3183     3.5776   143.6391 </r>
       <r>     6.4726     1.2582   143.8332 </r>
       <r>     6.6269     0.0020   143.8336 </r>
       <r>     6.7812     0.4671   143.9056 </r>
       <r>     6.9355     0.6976   144.0133 </r>
       <r>     7.0898     1.2438   144.2052 </r>
       <r>     7.2440     3.3956   144.7291 </r>
       <r>     7.3983     8.5919   146.0547 </r>
       <r>     7.5526     5.4998   146.9033 </r>
       <r>     7.7069     6.9580   147.9769 </r>
       <r>     7.8612     6.7377   149.0165 </r>
       <r>     8.0155     7.8605   150.2293 </r>
       <r>     8.1698     8.2230   151.4980 </r>
       <r>     8.3241     9.9178   153.0283 </r>
       <r>     8.4784    12.8479   155.0106 </r>
       <r>     8.6327     7.1313   156.1109 </r>
       <r>     8.7870     7.7918   157.3131 </r>
       <r>     8.9413     6.2696   158.2805 </r>
       <r>     9.0956    11.1080   159.9944 </r>
       <r>     9.2498     7.6157   161.1694 </r>
       <r>     9.4041     8.0887   162.4174 </r>
       <r>     9.5584    15.5734   164.8203 </r>
       <r>     9.7127    12.8508   166.8031 </r>
       <r>     9.8670    11.7888   168.6220 </r>
       <r>    10.0213    17.3758   171.3030 </r>
       <r>    10.1756    14.6197   173.5587 </r>
       <r>    10.3299    11.9748   175.4063 </r>
       <r>    10.4842     3.5383   175.9522 </r>
       <r>    10.6385     0.0547   175.9607 </r>
       <r>    10.7928     0.2541   175.9999 </r>
       <r>    10.9471     0.0007   176.0000 </r>
       <r>    11.1014     0.0000   176.0000 </r>
       <r>    11.2556     0.0000   176.0000 </r>
       <r>    11.4099     0.0000   176.0000 </r>
       <r>    11.5642     0.0000   176.0000 </r>
       <r>    11.7185     0.0000   176.0000 </r>
       <r>    11.8728     0.0000   176.0000 </r>
       <r>    12.0271     0.0000   176.0000 </r>
       <r>    12.1814     0.0000   176.0000 </r>
       <r>    12.3357     0.0000   176.0000 </r>
       <r>    12.4900     0.0000   176.0000 </r>
       <r>    12.6443     0.0000   176.0000 </r>
       <r>    12.7986     0.0000   176.0000 </r>
      </set>
     </set>
    </array>
   </total>
  </dos>
 </calculation>
 <structure name="finalpos" >
  <crystal>
   <varray name="basis" >
    <v>      11.31370850       0.00000000       0.00000000 </v>
    <v>       0.00000000       8.00000000       0.00000000 </v>
    <v>       0.00000000       0.00000000       5.65685425 </v>
   </varray>
   <i name="volume">    512.00000000 </i>
   <varray name="rec_basis" >
    <v>       0.08838835       0.00000000       0.00000000 </v>
    <v>       0.00000000       0.12500000       0.00000000 </v>
    <v>       0.00000000       0.00000000       0.17677670 </v>
   </varray>
  </crystal>
  <varray name="positions" >
   <v>       0.50000000       0.75000000       0.00000000 </v>
   <v>       0.75000000       0.25000000       0.50000000 </v>
   <v>       0.50000000       0.25000000       0.00000000 </v>
   <v>       0.25000000       0.25000000       0.50000000 </v>
   <v>       0.00000000       0.25000000       0.00000000 </v>
   <v>       0.25000000       0.75000000       0.50000000 </v>
   <v>       0.00000000       0.75000000       0.00000000 </v>
   <v>       0.75000000       0.75000000       0.50000000 </v>
   <v>       0.50000000       0.50000000       0.50000000 </v>
   <v>       0.75000000       0.00000000       0.00000000 </v>
   <v>       0.50000000       0.00000000       0.50000000 </v>
   <v>       0.25000000       0.00000000       0.00000000 </v>
   <v>       0.00000000       0.00000000       0.50000000 </v>
   <v>       0.25000000       0.50000000       0.00000000 </v>
   <v>       0.00000000       0.50000000       0.50000000 </v>
   <v>       0.75000000       0.50000000       0.00000000 </v>
   <v>       0.62500000       0.00000000       0.75000000 </v>
   <v>       0.37500000       0.00000000       0.25000000 </v>
   <v>       0.37500000       0.50000000       0.75000000 </v>
   <v>       0.62500000       0.00000000       0.25000000 </v>
   <v>       0.37500000       0.00000000       0.75000000 </v>
   <v>       0.62500000       0.50000000       0.25000000 </v>
   <v>       0.50000000       0.75000000       0.50000000 </v>
   <v>       0.50000000       0.25000000       0.50000000 </v>
   <v>       0.12500000       0.50000000       0.75000000 </v>
   <v>       0.87500000       0.50000000       0.25000000 </v>
   <v>       0.87500000       0.00000000       0.75000000 </v>
   <v>       0.12500000       0.50000000       0.25000000 </v>
   <v>       0.87500000       0.50000000       0.75000000 </v>
   <v>       0.12500000       0.00000000       0.25000000 </v>
   <v>       0.00000000       0.25000000       0.50000000 </v>
   <v>       0.00000000       0.75000000       0.50000000 </v>
  </varray>
 </structure>
</modeling>
