<?xml version="1.0" encoding="ISO-8859-1"?>
<modeling>
 <generator>
  <i name="program" type="string">vasp </i>
  <i name="version" type="string">5.3.5  </i>
  <i name="subversion" type="string">31Mar14 (build Jun 20 2014 13:15:13) complex                          parallel </i>
  <i name="platform" type="string">LinuxIFC </i>
  <i name="date" type="string">2025 11 28 </i>
  <i name="time" type="string">16:04:03 </i>
 </generator>
 <incar>
  <i type="string" name="PREC">accurate</i>
  <i type="int" name="IALGO">    68</i>
  <i type="logical" name="ADDGRID"> T  </i>
  <i type="int" name="NELM">   200</i>
  <i type="int" name="NELMIN">     4</i>
  <i type="int" name="IBRION">     2</i>
  <i name="EDIFF">      0.00000100</i>
  <i name="EDIFFG">     -0.02000000</i>
  <i type="int" name="NSW">    30</i>
  <i type="int" name="ISIF">     3</i>
  <i name="ENCUT">    500.00000000</i>
  <i type="logical" name="LREAL"> F  </i>
  <i type="int" name="ISMEAR">     1</i>
  <i name="SIGMA">      0.30000000</i>
  <i type="logical" name="LWAVE"> F  </i>
  <i type="logical" name="LCHARG"> F  </i>
  <i type="int" name="NELM">   200</i>
 </incar>
 <kpoints>
  <generation param="Auto">
   <i name="subdivisionlength">     70.00000000 </i>
   <v type="int" name="divisions">      19       16       13 </v>
   <v name="usershift">      0.00000000       0.00000000       0.00000000 </v>
   <v name="genvec1">      0.05263158       0.00000000       0.00000000 </v>
   <v name="genvec2">      0.00000000       0.06250000       0.00000000 </v>
   <v name="genvec3">      0.00000000       0.00000000       0.07692308 </v>
   <v name="shift">      0.00000000       0.00000000       0.00000000 </v>
  </generation>
  <varray name="kpointlist" >
   <v>       0.00000000       0.00000000       0.00000000 </v>
   <v>       0.05263158       0.00000000       0.00000000 </v>
   <v>       0.10526316       0.00000000       0.00000000 </v>
   <v>       0.15789474       0.00000000       0.00000000 </v>
   <v>       0.21052632       0.00000000       0.00000000 </v>
   <v>       0.26315789       0.00000000       0.00000000 </v>
   <v>       0.31578947       0.00000000       0.00000000 </v>
   <v>       0.36842105       0.00000000       0.00000000 </v>
   <v>       0.42105263       0.00000000       0.00000000 </v>
   <v>       0.47368421       0.00000000       0.00000000 </v>
   <v>       0.00000000       0.06250000       0.00000000 </v>
   <v>       0.05263158       0.06250000       0.00000000 </v>
   <v>       0.10526316       0.06250000       0.00000000 </v>
   <v>       0.15789474       0.06250000       0.00000000 </v>
   <v>       0.21052632       0.06250000       0.00000000 </v>
   <v>       0.26315789       0.06250000       0.00000000 </v>
   <v>       0.31578947       0.06250000       0.00000000 </v>
   <v>       0.36842105       0.06250000       0.00000000 </v>
   <v>       0.42105263       0.06250000       0.00000000 </v>
   <v>       0.47368421       0.06250000       0.00000000 </v>
   <v>      -0.47368421       0.06250000       0.00000000 </v>
   <v>      -0.42105263       0.06250000       0.00000000 </v>
   <v>      -0.36842105       0.06250000       0.00000000 </v>
   <v>      -0.31578947       0.06250000       0.00000000 </v>
   <v>      -0.26315789       0.06250000       0.00000000 </v>
   <v>      -0.21052632       0.06250000       0.00000000 </v>
   <v>      -0.15789474       0.06250000       0.00000000 </v>
   <v>      -0.10526316       0.06250000       0.00000000 </v>
   <v>      -0.05263158       0.06250000       0.00000000 </v>
   <v>       0.00000000       0.12500000       0.00000000 </v>
   <v>       0.05263158       0.12500000       0.00000000 </v>
   <v>       0.10526316       0.12500000       0.00000000 </v>
   <v>       0.15789474       0.12500000       0.00000000 </v>
   <v>       0.21052632       0.12500000       0.00000000 </v>
   <v>       0.26315789       0.12500000       0.00000000 </v>
   <v>       0.31578947       0.12500000       0.00000000 </v>
   <v>       0.36842105       0.12500000       0.00000000 </v>
   <v>       0.42105263       0.12500000       0.00000000 </v>
   <v>       0.47368421       0.12500000       0.00000000 </v>
   <v>      -0.47368421       0.12500000       0.00000000 </v>
   <v>      -0.42105263       0.12500000       0.00000000 </v>
   <v>      -0.36842105       0.12500000       0.00000000 </v>
   <v>      -0.31578947       0.12500000       0.00000000 </v>
   <v>      -0.26315789       0.12500000       0.00000000 </v>
   <v>      -0.21052632       0.12500000       0.00000000 </v>
   <v>      -0.15789474       0.12500000       0.00000000 </v>
   <v>      -0.10526316       0.12500000       0.00000000 </v>
   <v>      -0.05263158       0.12500000       0.00000000 </v>
   <v>       0.00000000       0.18750000       0.00000000 </v>
   <v>       0.05263158       0.18750000       0.00000000 </v>
   <v>       0.10526316       0.18750000       0.00000000 </v>
   <v>       0.15789474       0.18750000       0.00000000 </v>
   <v>       0.21052632       0.18750000       0.00000000 </v>
   <v>       0.26315789       0.18750000       0.00000000 </v>
   <v>       0.31578947       0.18750000       0.00000000 </v>
   <v>       0.36842105       0.18750000       0.00000000 </v>
   <v>       0.42105263       0.18750000       0.00000000 </v>
   <v>       0.47368421       0.18750000       0.00000000 </v>
   <v>      -0.47368421       0.18750000       0.00000000 </v>
   <v>      -0.42105263       0.18750000       0.00000000 </v>
   <v>      -0.36842105       0.18750000       0.00000000 </v>
   <v>      -0.31578947       0.18750000       0.00000000 </v>
   <v>      -0.26315789       0.18750000       0.00000000 </v>
   <v>      -0.21052632       0.18750000       0.00000000 </v>
   <v>      -0.15789474       0.18750000       0.00000000 </v>
   <v>      -0.10526316       0.18750000       0.00000000 </v>
   <v>      -0.05263158       0.18750000       0.00000000 </v>
   <v>       0.00000000       0.25000000       0.00000000 </v>
   <v>       0.05263158       0.25000000       0.00000000 </v>
   <v>       0.10526316       0.25000000       0.00000000 </v>
   <v>       0.15789474       0.25000000       0.00000000 </v>
   <v>       0.21052632       0.25000000       0.00000000 </v>
   <v>       0.26315789       0.25000000       0.00000000 </v>
   <v>       0.31578947       0.25000000       0.00000000 </v>
   <v>       0.36842105       0.25000000       0.00000000 </v>
   <v>       0.42105263       0.25000000       0.00000000 </v>
   <v>       0.47368421       0.25000000       0.00000000 </v>
   <v>      -0.47368421       0.25000000       0.00000000 </v>
   <v>      -0.42105263       0.25000000       0.00000000 </v>
   <v>      -0.36842105       0.25000000       0.00000000 </v>
   <v>      -0.31578947       0.25000000       0.00000000 </v>
   <v>      -0.26315789       0.25000000       0.00000000 </v>
   <v>      -0.21052632       0.25000000       0.00000000 </v>
   <v>      -0.15789474       0.25000000       0.00000000 </v>
   <v>      -0.10526316       0.25000000       0.00000000 </v>
   <v>      -0.05263158       0.25000000       0.00000000 </v>
   <v>       0.00000000       0.31250000       0.00000000 </v>
   <v>       0.05263158       0.31250000       0.00000000 </v>
   <v>       0.10526316       0.31250000       0.00000000 </v>
   <v>       0.15789474       0.31250000       0.00000000 </v>
   <v>       0.21052632       0.31250000       0.00000000 </v>
   <v>       0.26315789       0.31250000       0.00000000 </v>
   <v>       0.31578947       0.31250000       0.00000000 </v>
   <v>       0.36842105       0.31250000       0.00000000 </v>
   <v>       0.42105263       0.31250000       0.00000000 </v>
   <v>       0.47368421       0.31250000       0.00000000 </v>
   <v>      -0.47368421       0.31250000       0.00000000 </v>
   <v>      -0.42105263       0.31250000       0.00000000 </v>
   <v>      -0.36842105       0.31250000       0.00000000 </v>
   <v>      -0.31578947       0.31250000       0.00000000 </v>
   <v>      -0.26315789       0.31250000       0.00000000 </v>
   <v>      -0.21052632       0.31250000       0.00000000 </v>
   <v>      -0.15789474       0.31250000       0.00000000 </v>
   <v>      -0.10526316       0.31250000       0.00000000 </v>
   <v>      -0.05263158       0.31250000       0.00000000 </v>
   <v>       0.00000000       0.37500000       0.00000000 </v>
   <v>       0.05263158       0.37500000       0.00000000 </v>
   <v>       0.10526316       0.37500000       0.00000000 </v>
   <v>       0.15789474       0.37500000       0.00000000 </v>
   <v>       0.21052632       0.37500000       0.00000000 </v>
   <v>       0.26315789       0.37500000       0.00000000 </v>
   <v>       0.31578947       0.37500000       0.00000000 </v>
   <v>       0.36842105       0.37500000       0.00000000 </v>
   <v>       0.42105263       0.37500000       0.00000000 </v>
   <v>       0.47368421       0.37500000       0.00000000 </v>
   <v>      -0.47368421       0.37500000       0.00000000 </v>
   <v>      -0.42105263       0.37500000       0.00000000 </v>
   <v>      -0.36842105       0.37500000       0.00000000 </v>
   <v>      -0.31578947       0.37500000       0.00000000 </v>
   <v>      -0.26315789       0.37500000       0.00000000 </v>
   <v>      -0.21052632       0.37500000       0.00000000 </v>
   <v>      -0.15789474       0.37500000       0.00000000 </v>
   <v>      -0.10526316       0.37500000       0.00000000 </v>
   <v>      -0.05263158       0.37500000       0.00000000 </v>
   <v>       0.00000000       0.43750000       0.00000000 </v>
   <v>       0.05263158       0.43750000       0.00000000 </v>
   <v>       0.10526316       0.43750000       0.00000000 </v>
   <v>       0.15789474       0.43750000       0.00000000 </v>
   <v>       0.21052632       0.43750000       0.00000000 </v>
   <v>       0.26315789       0.43750000       0.00000000 </v>
   <v>       0.31578947       0.43750000       0.00000000 </v>
   <v>       0.36842105       0.43750000       0.00000000 </v>
   <v>       0.42105263       0.43750000       0.00000000 </v>
   <v>       0.47368421       0.43750000       0.00000000 </v>
   <v>      -0.47368421       0.43750000       0.00000000 </v>
   <v>      -0.42105263       0.43750000       0.00000000 </v>
   <v>      -0.36842105       0.43750000       0.00000000 </v>
   <v>      -0.31578947       0.43750000       0.00000000 </v>
   <v>      -0.26315789       0.43750000       0.00000000 </v>
   <v>      -0.21052632       0.43750000       0.00000000 </v>
   <v>      -0.15789474       0.43750000       0.00000000 </v>
   <v>      -0.10526316       0.43750000       0.00000000 </v>
   <v>      -0.05263158       0.43750000       0.00000000 </v>
   <v>       0.00000000       0.50000000       0.00000000 </v>
   <v>       0.05263158       0.50000000       0.00000000 </v>
   <v>       0.10526316       0.50000000       0.00000000 </v>
   <v>       0.15789474       0.50000000       0.00000000 </v>
   <v>       0.21052632       0.50000000       0.00000000 </v>
   <v>       0.26315789       0.50000000       0.00000000 </v>
   <v>       0.31578947       0.50000000       0.00000000 </v>
   <v>       0.36842105       0.50000000       0.00000000 </v>
   <v>       0.42105263       0.50000000       0.00000000 </v>
   <v>       0.47368421       0.50000000       0.00000000 </v>
   <v>       0.00000000       0.00000000       0.07692308 </v>
   <v>       0.05263158       0.00000000       0.07692308 </v>
   <v>       0.10526316       0.00000000       0.07692308 </v>
   <v>       0.15789474       0.00000000       0.07692308 </v>
   <v>       0.21052632       0.00000000       0.07692308 </v>
   <v>       0.26315789       0.00000000       0.07692308 </v>
   <v>       0.31578947       0.00000000       0.07692308 </v>
   <v>       0.36842105       0.00000000       0.07692308 </v>
   <v>       0.42105263       0.00000000       0.07692308 </v>
   <v>       0.47368421       0.00000000       0.07692308 </v>
   <v>      -0.47368421       0.00000000       0.07692308 </v>
   <v>      -0.42105263       0.00000000       0.07692308 </v>
   <v>      -0.36842105       0.00000000       0.07692308 </v>
   <v>      -0.31578947       0.00000000       0.07692308 </v>
   <v>      -0.26315789       0.00000000       0.07692308 </v>
   <v>      -0.21052632       0.00000000       0.07692308 </v>
   <v>      -0.15789474       0.00000000       0.07692308 </v>
   <v>      -0.10526316       0.00000000       0.07692308 </v>
   <v>      -0.05263158       0.00000000       0.07692308 </v>
   <v>       0.00000000       0.06250000       0.07692308 </v>
   <v>       0.05263158       0.06250000       0.07692308 </v>
   <v>       0.10526316       0.06250000       0.07692308 </v>
   <v>       0.15789474       0.06250000       0.07692308 </v>
   <v>       0.21052632       0.06250000       0.07692308 </v>
   <v>       0.26315789       0.06250000       0.07692308 </v>
   <v>       0.31578947       0.06250000       0.07692308 </v>
   <v>       0.36842105       0.06250000       0.07692308 </v>
   <v>       0.42105263       0.06250000       0.07692308 </v>
   <v>       0.47368421       0.06250000       0.07692308 </v>
   <v>      -0.47368421       0.06250000       0.07692308 </v>
   <v>      -0.42105263       0.06250000       0.07692308 </v>
   <v>      -0.36842105       0.06250000       0.07692308 </v>
   <v>      -0.31578947       0.06250000       0.07692308 </v>
   <v>      -0.26315789       0.06250000       0.07692308 </v>
   <v>      -0.21052632       0.06250000       0.07692308 </v>
   <v>      -0.15789474       0.06250000       0.07692308 </v>
   <v>      -0.10526316       0.06250000       0.07692308 </v>
   <v>      -0.05263158       0.06250000       0.07692308 </v>
   <v>       0.00000000       0.12500000       0.07692308 </v>
   <v>       0.05263158       0.12500000       0.07692308 </v>
   <v>       0.10526316       0.12500000       0.07692308 </v>
   <v>       0.15789474       0.12500000       0.07692308 </v>
   <v>       0.21052632       0.12500000       0.07692308 </v>
   <v>       0.26315789       0.12500000       0.07692308 </v>
   <v>       0.31578947       0.12500000       0.07692308 </v>
   <v>       0.36842105       0.12500000       0.07692308 </v>
   <v>       0.42105263       0.12500000       0.07692308 </v>
   <v>       0.47368421       0.12500000       0.07692308 </v>
   <v>      -0.47368421       0.12500000       0.07692308 </v>
   <v>      -0.42105263       0.12500000       0.07692308 </v>
   <v>      -0.36842105       0.12500000       0.07692308 </v>
   <v>      -0.31578947       0.12500000       0.07692308 </v>
   <v>      -0.26315789       0.12500000       0.07692308 </v>
   <v>      -0.21052632       0.12500000       0.07692308 </v>
   <v>      -0.15789474       0.12500000       0.07692308 </v>
   <v>      -0.10526316       0.12500000       0.07692308 </v>
   <v>      -0.05263158       0.12500000       0.07692308 </v>
   <v>       0.00000000       0.18750000       0.07692308 </v>
   <v>       0.05263158       0.18750000       0.07692308 </v>
   <v>       0.10526316       0.18750000       0.07692308 </v>
   <v>       0.15789474       0.18750000       0.07692308 </v>
   <v>       0.21052632       0.18750000       0.07692308 </v>
   <v>       0.26315789       0.18750000       0.07692308 </v>
   <v>       0.31578947       0.18750000       0.07692308 </v>
   <v>       0.36842105       0.18750000       0.07692308 </v>
   <v>       0.42105263       0.18750000       0.07692308 </v>
   <v>       0.47368421       0.18750000       0.07692308 </v>
   <v>      -0.47368421       0.18750000       0.07692308 </v>
   <v>      -0.42105263       0.18750000       0.07692308 </v>
   <v>      -0.36842105       0.18750000       0.07692308 </v>
   <v>      -0.31578947       0.18750000       0.07692308 </v>
   <v>      -0.26315789       0.18750000       0.07692308 </v>
   <v>      -0.21052632       0.18750000       0.07692308 </v>
   <v>      -0.15789474       0.18750000       0.07692308 </v>
   <v>      -0.10526316       0.18750000       0.07692308 </v>
   <v>      -0.05263158       0.18750000       0.07692308 </v>
   <v>       0.00000000       0.25000000       0.07692308 </v>
   <v>       0.05263158       0.25000000       0.07692308 </v>
   <v>       0.10526316       0.25000000       0.07692308 </v>
   <v>       0.15789474       0.25000000       0.07692308 </v>
   <v>       0.21052632       0.25000000       0.07692308 </v>
   <v>       0.26315789       0.25000000       0.07692308 </v>
   <v>       0.31578947       0.25000000       0.07692308 </v>
   <v>       0.36842105       0.25000000       0.07692308 </v>
   <v>       0.42105263       0.25000000       0.07692308 </v>
   <v>       0.47368421       0.25000000       0.07692308 </v>
   <v>      -0.47368421       0.25000000       0.07692308 </v>
   <v>      -0.42105263       0.25000000       0.07692308 </v>
   <v>      -0.36842105       0.25000000       0.07692308 </v>
   <v>      -0.31578947       0.25000000       0.07692308 </v>
   <v>      -0.26315789       0.25000000       0.07692308 </v>
   <v>      -0.21052632       0.25000000       0.07692308 </v>
   <v>      -0.15789474       0.25000000       0.07692308 </v>
   <v>      -0.10526316       0.25000000       0.07692308 </v>
   <v>      -0.05263158       0.25000000       0.07692308 </v>
   <v>       0.00000000       0.31250000       0.07692308 </v>
   <v>       0.05263158       0.31250000       0.07692308 </v>
   <v>       0.10526316       0.31250000       0.07692308 </v>
   <v>       0.15789474       0.31250000       0.07692308 </v>
   <v>       0.21052632       0.31250000       0.07692308 </v>
   <v>       0.26315789       0.31250000       0.07692308 </v>
   <v>       0.31578947       0.31250000       0.07692308 </v>
   <v>       0.36842105       0.31250000       0.07692308 </v>
   <v>       0.42105263       0.31250000       0.07692308 </v>
   <v>       0.47368421       0.31250000       0.07692308 </v>
   <v>      -0.47368421       0.31250000       0.07692308 </v>
   <v>      -0.42105263       0.31250000       0.07692308 </v>
   <v>      -0.36842105       0.31250000       0.07692308 </v>
   <v>      -0.31578947       0.31250000       0.07692308 </v>
   <v>      -0.26315789       0.31250000       0.07692308 </v>
   <v>      -0.21052632       0.31250000       0.07692308 </v>
   <v>      -0.15789474       0.31250000       0.07692308 </v>
   <v>      -0.10526316       0.31250000       0.07692308 </v>
   <v>      -0.05263158       0.31250000       0.07692308 </v>
   <v>       0.00000000       0.37500000       0.07692308 </v>
   <v>       0.05263158       0.37500000       0.07692308 </v>
   <v>       0.10526316       0.37500000       0.07692308 </v>
   <v>       0.15789474       0.37500000       0.07692308 </v>
   <v>       0.21052632       0.37500000       0.07692308 </v>
   <v>       0.26315789       0.37500000       0.07692308 </v>
   <v>       0.31578947       0.37500000       0.07692308 </v>
   <v>       0.36842105       0.37500000       0.07692308 </v>
   <v>       0.42105263       0.37500000       0.07692308 </v>
   <v>       0.47368421       0.37500000       0.07692308 </v>
   <v>      -0.47368421       0.37500000       0.07692308 </v>
   <v>      -0.42105263       0.37500000       0.07692308 </v>
   <v>      -0.36842105       0.37500000       0.07692308 </v>
   <v>      -0.31578947       0.37500000       0.07692308 </v>
   <v>      -0.26315789       0.37500000       0.07692308 </v>
   <v>      -0.21052632       0.37500000       0.07692308 </v>
   <v>      -0.15789474       0.37500000       0.07692308 </v>
   <v>      -0.10526316       0.37500000       0.07692308 </v>
   <v>      -0.05263158       0.37500000       0.07692308 </v>
   <v>       0.00000000       0.43750000       0.07692308 </v>
   <v>       0.05263158       0.43750000       0.07692308 </v>
   <v>       0.10526316       0.43750000       0.07692308 </v>
   <v>       0.15789474       0.43750000       0.07692308 </v>
   <v>       0.21052632       0.43750000       0.07692308 </v>
   <v>       0.26315789       0.43750000       0.07692308 </v>
   <v>       0.31578947       0.43750000       0.07692308 </v>
   <v>       0.36842105       0.43750000       0.07692308 </v>
   <v>       0.42105263       0.43750000       0.07692308 </v>
   <v>       0.47368421       0.43750000       0.07692308 </v>
   <v>      -0.47368421       0.43750000       0.07692308 </v>
   <v>      -0.42105263       0.43750000       0.07692308 </v>
   <v>      -0.36842105       0.43750000       0.07692308 </v>
   <v>      -0.31578947       0.43750000       0.07692308 </v>
   <v>      -0.26315789       0.43750000       0.07692308 </v>
   <v>      -0.21052632       0.43750000       0.07692308 </v>
   <v>      -0.15789474       0.43750000       0.07692308 </v>
   <v>      -0.10526316       0.43750000       0.07692308 </v>
   <v>      -0.05263158       0.43750000       0.07692308 </v>
   <v>       0.00000000       0.50000000       0.07692308 </v>
   <v>       0.05263158       0.50000000       0.07692308 </v>
   <v>       0.10526316       0.50000000       0.07692308 </v>
   <v>       0.15789474       0.50000000       0.07692308 </v>
   <v>       0.21052632       0.50000000       0.07692308 </v>
   <v>       0.26315789       0.50000000       0.07692308 </v>
   <v>       0.31578947       0.50000000       0.07692308 </v>
   <v>       0.36842105       0.50000000       0.07692308 </v>
   <v>       0.42105263       0.50000000       0.07692308 </v>
   <v>       0.47368421       0.50000000       0.07692308 </v>
   <v>      -0.47368421       0.50000000       0.07692308 </v>
   <v>      -0.42105263       0.50000000       0.07692308 </v>
   <v>      -0.36842105       0.50000000       0.07692308 </v>
   <v>      -0.31578947       0.50000000       0.07692308 </v>
   <v>      -0.26315789       0.50000000       0.07692308 </v>
   <v>      -0.21052632       0.50000000       0.07692308 </v>
   <v>      -0.15789474       0.50000000       0.07692308 </v>
   <v>      -0.10526316       0.50000000       0.07692308 </v>
   <v>      -0.05263158       0.50000000       0.07692308 </v>
   <v>       0.00000000      -0.43750000       0.07692308 </v>
   <v>       0.05263158      -0.43750000       0.07692308 </v>
   <v>       0.10526316      -0.43750000       0.07692308 </v>
   <v>       0.15789474      -0.43750000       0.07692308 </v>
   <v>       0.21052632      -0.43750000       0.07692308 </v>
   <v>       0.26315789      -0.43750000       0.07692308 </v>
   <v>       0.31578947      -0.43750000       0.07692308 </v>
   <v>       0.36842105      -0.43750000       0.07692308 </v>
   <v>       0.42105263      -0.43750000       0.07692308 </v>
   <v>       0.47368421      -0.43750000       0.07692308 </v>
   <v>      -0.47368421      -0.43750000       0.07692308 </v>
   <v>      -0.42105263      -0.43750000       0.07692308 </v>
   <v>      -0.36842105      -0.43750000       0.07692308 </v>
   <v>      -0.31578947      -0.43750000       0.07692308 </v>
   <v>      -0.26315789      -0.43750000       0.07692308 </v>
   <v>      -0.21052632      -0.43750000       0.07692308 </v>
   <v>      -0.15789474      -0.43750000       0.07692308 </v>
   <v>      -0.10526316      -0.43750000       0.07692308 </v>
   <v>      -0.05263158      -0.43750000       0.07692308 </v>
   <v>       0.00000000      -0.37500000       0.07692308 </v>
   <v>       0.05263158      -0.37500000       0.07692308 </v>
   <v>       0.10526316      -0.37500000       0.07692308 </v>
   <v>       0.15789474      -0.37500000       0.07692308 </v>
   <v>       0.21052632      -0.37500000       0.07692308 </v>
   <v>       0.26315789      -0.37500000       0.07692308 </v>
   <v>       0.31578947      -0.37500000       0.07692308 </v>
   <v>       0.36842105      -0.37500000       0.07692308 </v>
   <v>       0.42105263      -0.37500000       0.07692308 </v>
   <v>       0.47368421      -0.37500000       0.07692308 </v>
   <v>      -0.47368421      -0.37500000       0.07692308 </v>
   <v>      -0.42105263      -0.37500000       0.07692308 </v>
   <v>      -0.36842105      -0.37500000       0.07692308 </v>
   <v>      -0.31578947      -0.37500000       0.07692308 </v>
   <v>      -0.26315789      -0.37500000       0.07692308 </v>
   <v>      -0.21052632      -0.37500000       0.07692308 </v>
   <v>      -0.15789474      -0.37500000       0.07692308 </v>
   <v>      -0.10526316      -0.37500000       0.07692308 </v>
   <v>      -0.05263158      -0.37500000       0.07692308 </v>
   <v>       0.00000000      -0.31250000       0.07692308 </v>
   <v>       0.05263158      -0.31250000       0.07692308 </v>
   <v>       0.10526316      -0.31250000       0.07692308 </v>
   <v>       0.15789474      -0.31250000       0.07692308 </v>
   <v>       0.21052632      -0.31250000       0.07692308 </v>
   <v>       0.26315789      -0.31250000       0.07692308 </v>
   <v>       0.31578947      -0.31250000       0.07692308 </v>
   <v>       0.36842105      -0.31250000       0.07692308 </v>
   <v>       0.42105263      -0.31250000       0.07692308 </v>
   <v>       0.47368421      -0.31250000       0.07692308 </v>
   <v>      -0.47368421      -0.31250000       0.07692308 </v>
   <v>      -0.42105263      -0.31250000       0.07692308 </v>
   <v>      -0.36842105      -0.31250000       0.07692308 </v>
   <v>      -0.31578947      -0.31250000       0.07692308 </v>
   <v>      -0.26315789      -0.31250000       0.07692308 </v>
   <v>      -0.21052632      -0.31250000       0.07692308 </v>
   <v>      -0.15789474      -0.31250000       0.07692308 </v>
   <v>      -0.10526316      -0.31250000       0.07692308 </v>
   <v>      -0.05263158      -0.31250000       0.07692308 </v>
   <v>       0.00000000      -0.25000000       0.07692308 </v>
   <v>       0.05263158      -0.25000000       0.07692308 </v>
   <v>       0.10526316      -0.25000000       0.07692308 </v>
   <v>       0.15789474      -0.25000000       0.07692308 </v>
   <v>       0.21052632      -0.25000000       0.07692308 </v>
   <v>       0.26315789      -0.25000000       0.07692308 </v>
   <v>       0.31578947      -0.25000000       0.07692308 </v>
   <v>       0.36842105      -0.25000000       0.07692308 </v>
   <v>       0.42105263      -0.25000000       0.07692308 </v>
   <v>       0.47368421      -0.25000000       0.07692308 </v>
   <v>      -0.47368421      -0.25000000       0.07692308 </v>
   <v>      -0.42105263      -0.25000000       0.07692308 </v>
   <v>      -0.36842105      -0.25000000       0.07692308 </v>
   <v>      -0.31578947      -0.25000000       0.07692308 </v>
   <v>      -0.26315789      -0.25000000       0.07692308 </v>
   <v>      -0.21052632      -0.25000000       0.07692308 </v>
   <v>      -0.15789474      -0.25000000       0.07692308 </v>
   <v>      -0.10526316      -0.25000000       0.07692308 </v>
   <v>      -0.05263158      -0.25000000       0.07692308 </v>
   <v>       0.00000000      -0.18750000       0.07692308 </v>
   <v>       0.05263158      -0.18750000       0.07692308 </v>
   <v>       0.10526316      -0.18750000       0.07692308 </v>
   <v>       0.15789474      -0.18750000       0.07692308 </v>
   <v>       0.21052632      -0.18750000       0.07692308 </v>
   <v>       0.26315789      -0.18750000       0.07692308 </v>
   <v>       0.31578947      -0.18750000       0.07692308 </v>
   <v>       0.36842105      -0.18750000       0.07692308 </v>
   <v>       0.42105263      -0.18750000       0.07692308 </v>
   <v>       0.47368421      -0.18750000       0.07692308 </v>
   <v>      -0.47368421      -0.18750000       0.07692308 </v>
   <v>      -0.42105263      -0.18750000       0.07692308 </v>
   <v>      -0.36842105      -0.18750000       0.07692308 </v>
   <v>      -0.31578947      -0.18750000       0.07692308 </v>
   <v>      -0.26315789      -0.18750000       0.07692308 </v>
   <v>      -0.21052632      -0.18750000       0.07692308 </v>
   <v>      -0.15789474      -0.18750000       0.07692308 </v>
   <v>      -0.10526316      -0.18750000       0.07692308 </v>
   <v>      -0.05263158      -0.18750000       0.07692308 </v>
   <v>       0.00000000      -0.12500000       0.07692308 </v>
   <v>       0.05263158      -0.12500000       0.07692308 </v>
   <v>       0.10526316      -0.12500000       0.07692308 </v>
   <v>       0.15789474      -0.12500000       0.07692308 </v>
   <v>       0.21052632      -0.12500000       0.07692308 </v>
   <v>       0.26315789      -0.12500000       0.07692308 </v>
   <v>       0.31578947      -0.12500000       0.07692308 </v>
   <v>       0.36842105      -0.12500000       0.07692308 </v>
   <v>       0.42105263      -0.12500000       0.07692308 </v>
   <v>       0.47368421      -0.12500000       0.07692308 </v>
   <v>      -0.47368421      -0.12500000       0.07692308 </v>
   <v>      -0.42105263      -0.12500000       0.07692308 </v>
   <v>      -0.36842105      -0.12500000       0.07692308 </v>
   <v>      -0.31578947      -0.12500000       0.07692308 </v>
   <v>      -0.26315789      -0.12500000       0.07692308 </v>
   <v>      -0.21052632      -0.12500000       0.07692308 </v>
   <v>      -0.15789474      -0.12500000       0.07692308 </v>
   <v>      -0.10526316      -0.12500000       0.07692308 </v>
   <v>      -0.05263158      -0.12500000       0.07692308 </v>
   <v>       0.00000000      -0.06250000       0.07692308 </v>
   <v>       0.05263158      -0.06250000       0.07692308 </v>
   <v>       0.10526316      -0.06250000       0.07692308 </v>
   <v>       0.15789474      -0.06250000       0.07692308 </v>
   <v>       0.21052632      -0.06250000       0.07692308 </v>
   <v>       0.26315789      -0.06250000       0.07692308 </v>
   <v>       0.31578947      -0.06250000       0.07692308 </v>
   <v>       0.36842105      -0.06250000       0.07692308 </v>
   <v>       0.42105263      -0.06250000       0.07692308 </v>
   <v>       0.47368421      -0.06250000       0.07692308 </v>
   <v>      -0.47368421      -0.06250000       0.07692308 </v>
   <v>      -0.42105263      -0.06250000       0.07692308 </v>
   <v>      -0.36842105      -0.06250000       0.07692308 </v>
   <v>      -0.31578947      -0.06250000       0.07692308 </v>
   <v>      -0.26315789      -0.06250000       0.07692308 </v>
   <v>      -0.21052632      -0.06250000       0.07692308 </v>
   <v>      -0.15789474      -0.06250000       0.07692308 </v>
   <v>      -0.10526316      -0.06250000       0.07692308 </v>
   <v>      -0.05263158      -0.06250000       0.07692308 </v>
   <v>       0.00000000       0.00000000       0.15384615 </v>
   <v>       0.05263158       0.00000000       0.15384615 </v>
   <v>       0.10526316       0.00000000       0.15384615 </v>
   <v>       0.15789474       0.00000000       0.15384615 </v>
   <v>       0.21052632       0.00000000       0.15384615 </v>
   <v>       0.26315789       0.00000000       0.15384615 </v>
   <v>       0.31578947       0.00000000       0.15384615 </v>
   <v>       0.36842105       0.00000000       0.15384615 </v>
   <v>       0.42105263       0.00000000       0.15384615 </v>
   <v>       0.47368421       0.00000000       0.15384615 </v>
   <v>      -0.47368421       0.00000000       0.15384615 </v>
   <v>      -0.42105263       0.00000000       0.15384615 </v>
   <v>      -0.36842105       0.00000000       0.15384615 </v>
   <v>      -0.31578947       0.00000000       0.15384615 </v>
   <v>      -0.26315789       0.00000000       0.15384615 </v>
   <v>      -0.21052632       0.00000000       0.15384615 </v>
   <v>      -0.15789474       0.00000000       0.15384615 </v>
   <v>      -0.10526316       0.00000000       0.15384615 </v>
   <v>      -0.05263158       0.00000000       0.15384615 </v>
   <v>       0.00000000       0.06250000       0.15384615 </v>
   <v>       0.05263158       0.06250000       0.15384615 </v>
   <v>       0.10526316       0.06250000       0.15384615 </v>
   <v>       0.15789474       0.06250000       0.15384615 </v>
   <v>       0.21052632       0.06250000       0.15384615 </v>
   <v>       0.26315789       0.06250000       0.15384615 </v>
   <v>       0.31578947       0.06250000       0.15384615 </v>
   <v>       0.36842105       0.06250000       0.15384615 </v>
   <v>       0.42105263       0.06250000       0.15384615 </v>
   <v>       0.47368421       0.06250000       0.15384615 </v>
   <v>      -0.47368421       0.06250000       0.15384615 </v>
   <v>      -0.42105263       0.06250000       0.15384615 </v>
   <v>      -0.36842105       0.06250000       0.15384615 </v>
   <v>      -0.31578947       0.06250000       0.15384615 </v>
   <v>      -0.26315789       0.06250000       0.15384615 </v>
   <v>      -0.21052632       0.06250000       0.15384615 </v>
   <v>      -0.15789474       0.06250000       0.15384615 </v>
   <v>      -0.10526316       0.06250000       0.15384615 </v>
   <v>      -0.05263158       0.06250000       0.15384615 </v>
   <v>       0.00000000       0.12500000       0.15384615 </v>
   <v>       0.05263158       0.12500000       0.15384615 </v>
   <v>       0.10526316       0.12500000       0.15384615 </v>
   <v>       0.15789474       0.12500000       0.15384615 </v>
   <v>       0.21052632       0.12500000       0.15384615 </v>
   <v>       0.26315789       0.12500000       0.15384615 </v>
   <v>       0.31578947       0.12500000       0.15384615 </v>
   <v>       0.36842105       0.12500000       0.15384615 </v>
   <v>       0.42105263       0.12500000       0.15384615 </v>
   <v>       0.47368421       0.12500000       0.15384615 </v>
   <v>      -0.47368421       0.12500000       0.15384615 </v>
   <v>      -0.42105263       0.12500000       0.15384615 </v>
   <v>      -0.36842105       0.12500000       0.15384615 </v>
   <v>      -0.31578947       0.12500000       0.15384615 </v>
   <v>      -0.26315789       0.12500000       0.15384615 </v>
   <v>      -0.21052632       0.12500000       0.15384615 </v>
   <v>      -0.15789474       0.12500000       0.15384615 </v>
   <v>      -0.10526316       0.12500000       0.15384615 </v>
   <v>      -0.05263158       0.12500000       0.15384615 </v>
   <v>       0.00000000       0.18750000       0.15384615 </v>
   <v>       0.05263158       0.18750000       0.15384615 </v>
   <v>       0.10526316       0.18750000       0.15384615 </v>
   <v>       0.15789474       0.18750000       0.15384615 </v>
   <v>       0.21052632       0.18750000       0.15384615 </v>
   <v>       0.26315789       0.18750000       0.15384615 </v>
   <v>       0.31578947       0.18750000       0.15384615 </v>
   <v>       0.36842105       0.18750000       0.15384615 </v>
   <v>       0.42105263       0.18750000       0.15384615 </v>
   <v>       0.47368421       0.18750000       0.15384615 </v>
   <v>      -0.47368421       0.18750000       0.15384615 </v>
   <v>      -0.42105263       0.18750000       0.15384615 </v>
   <v>      -0.36842105       0.18750000       0.15384615 </v>
   <v>      -0.31578947       0.18750000       0.15384615 </v>
   <v>      -0.26315789       0.18750000       0.15384615 </v>
   <v>      -0.21052632       0.18750000       0.15384615 </v>
   <v>      -0.15789474       0.18750000       0.15384615 </v>
   <v>      -0.10526316       0.18750000       0.15384615 </v>
   <v>      -0.05263158       0.18750000       0.15384615 </v>
   <v>       0.00000000       0.25000000       0.15384615 </v>
   <v>       0.05263158       0.25000000       0.15384615 </v>
   <v>       0.10526316       0.25000000       0.15384615 </v>
   <v>       0.15789474       0.25000000       0.15384615 </v>
   <v>       0.21052632       0.25000000       0.15384615 </v>
   <v>       0.26315789       0.25000000       0.15384615 </v>
   <v>       0.31578947       0.25000000       0.15384615 </v>
   <v>       0.36842105       0.25000000       0.15384615 </v>
   <v>       0.42105263       0.25000000       0.15384615 </v>
   <v>       0.47368421       0.25000000       0.15384615 </v>
   <v>      -0.47368421       0.25000000       0.15384615 </v>
   <v>      -0.42105263       0.25000000       0.15384615 </v>
   <v>      -0.36842105       0.25000000       0.15384615 </v>
   <v>      -0.31578947       0.25000000       0.15384615 </v>
   <v>      -0.26315789       0.25000000       0.15384615 </v>
   <v>      -0.21052632       0.25000000       0.15384615 </v>
   <v>      -0.15789474       0.25000000       0.15384615 </v>
   <v>      -0.10526316       0.25000000       0.15384615 </v>
   <v>      -0.05263158       0.25000000       0.15384615 </v>
   <v>       0.00000000       0.31250000       0.15384615 </v>
   <v>       0.05263158       0.31250000       0.15384615 </v>
   <v>       0.10526316       0.31250000       0.15384615 </v>
   <v>       0.15789474       0.31250000       0.15384615 </v>
   <v>       0.21052632       0.31250000       0.15384615 </v>
   <v>       0.26315789       0.31250000       0.15384615 </v>
   <v>       0.31578947       0.31250000       0.15384615 </v>
   <v>       0.36842105       0.31250000       0.15384615 </v>
   <v>       0.42105263       0.31250000       0.15384615 </v>
   <v>       0.47368421       0.31250000       0.15384615 </v>
   <v>      -0.47368421       0.31250000       0.15384615 </v>
   <v>      -0.42105263       0.31250000       0.15384615 </v>
   <v>      -0.36842105       0.31250000       0.15384615 </v>
   <v>      -0.31578947       0.31250000       0.15384615 </v>
   <v>      -0.26315789       0.31250000       0.15384615 </v>
   <v>      -0.21052632       0.31250000       0.15384615 </v>
   <v>      -0.15789474       0.31250000       0.15384615 </v>
   <v>      -0.10526316       0.31250000       0.15384615 </v>
   <v>      -0.05263158       0.31250000       0.15384615 </v>
   <v>       0.00000000       0.37500000       0.15384615 </v>
   <v>       0.05263158       0.37500000       0.15384615 </v>
   <v>       0.10526316       0.37500000       0.15384615 </v>
   <v>       0.15789474       0.37500000       0.15384615 </v>
   <v>       0.21052632       0.37500000       0.15384615 </v>
   <v>       0.26315789       0.37500000       0.15384615 </v>
   <v>       0.31578947       0.37500000       0.15384615 </v>
   <v>       0.36842105       0.37500000       0.15384615 </v>
   <v>       0.42105263       0.37500000       0.15384615 </v>
   <v>       0.47368421       0.37500000       0.15384615 </v>
   <v>      -0.47368421       0.37500000       0.15384615 </v>
   <v>      -0.42105263       0.37500000       0.15384615 </v>
   <v>      -0.36842105       0.37500000       0.15384615 </v>
   <v>      -0.31578947       0.37500000       0.15384615 </v>
   <v>      -0.26315789       0.37500000       0.15384615 </v>
   <v>      -0.21052632       0.37500000       0.15384615 </v>
   <v>      -0.15789474       0.37500000       0.15384615 </v>
   <v>      -0.10526316       0.37500000       0.15384615 </v>
   <v>      -0.05263158       0.37500000       0.15384615 </v>
   <v>       0.00000000       0.43750000       0.15384615 </v>
   <v>       0.05263158       0.43750000       0.15384615 </v>
   <v>       0.10526316       0.43750000       0.15384615 </v>
   <v>       0.15789474       0.43750000       0.15384615 </v>
   <v>       0.21052632       0.43750000       0.15384615 </v>
   <v>       0.26315789       0.43750000       0.15384615 </v>
   <v>       0.31578947       0.43750000       0.15384615 </v>
   <v>       0.36842105       0.43750000       0.15384615 </v>
   <v>       0.42105263       0.43750000       0.15384615 </v>
   <v>       0.47368421       0.43750000       0.15384615 </v>
   <v>      -0.47368421       0.43750000       0.15384615 </v>
   <v>      -0.42105263       0.43750000       0.15384615 </v>
   <v>      -0.36842105       0.43750000       0.15384615 </v>
   <v>      -0.31578947       0.43750000       0.15384615 </v>
   <v>      -0.26315789       0.43750000       0.15384615 </v>
   <v>      -0.21052632       0.43750000       0.15384615 </v>
   <v>      -0.15789474       0.43750000       0.15384615 </v>
   <v>      -0.10526316       0.43750000       0.15384615 </v>
   <v>      -0.05263158       0.43750000       0.15384615 </v>
   <v>       0.00000000       0.50000000       0.15384615 </v>
   <v>       0.05263158       0.50000000       0.15384615 </v>
   <v>       0.10526316       0.50000000       0.15384615 </v>
   <v>       0.15789474       0.50000000       0.15384615 </v>
   <v>       0.21052632       0.50000000       0.15384615 </v>
   <v>       0.26315789       0.50000000       0.15384615 </v>
   <v>       0.31578947       0.50000000       0.15384615 </v>
   <v>       0.36842105       0.50000000       0.15384615 </v>
   <v>       0.42105263       0.50000000       0.15384615 </v>
   <v>       0.47368421       0.50000000       0.15384615 </v>
   <v>      -0.47368421       0.50000000       0.15384615 </v>
   <v>      -0.42105263       0.50000000       0.15384615 </v>
   <v>      -0.36842105       0.50000000       0.15384615 </v>
   <v>      -0.31578947       0.50000000       0.15384615 </v>
   <v>      -0.26315789       0.50000000       0.15384615 </v>
   <v>      -0.21052632       0.50000000       0.15384615 </v>
   <v>      -0.15789474       0.50000000       0.15384615 </v>
   <v>      -0.10526316       0.50000000       0.15384615 </v>
   <v>      -0.05263158       0.50000000       0.15384615 </v>
   <v>       0.00000000      -0.43750000       0.15384615 </v>
   <v>       0.05263158      -0.43750000       0.15384615 </v>
   <v>       0.10526316      -0.43750000       0.15384615 </v>
   <v>       0.15789474      -0.43750000       0.15384615 </v>
   <v>       0.21052632      -0.43750000       0.15384615 </v>
   <v>       0.26315789      -0.43750000       0.15384615 </v>
   <v>       0.31578947      -0.43750000       0.15384615 </v>
   <v>       0.36842105      -0.43750000       0.15384615 </v>
   <v>       0.42105263      -0.43750000       0.15384615 </v>
   <v>       0.47368421      -0.43750000       0.15384615 </v>
   <v>      -0.47368421      -0.43750000       0.15384615 </v>
   <v>      -0.42105263      -0.43750000       0.15384615 </v>
   <v>      -0.36842105      -0.43750000       0.15384615 </v>
   <v>      -0.31578947      -0.43750000       0.15384615 </v>
   <v>      -0.26315789      -0.43750000       0.15384615 </v>
   <v>      -0.21052632      -0.43750000       0.15384615 </v>
   <v>      -0.15789474      -0.43750000       0.15384615 </v>
   <v>      -0.10526316      -0.43750000       0.15384615 </v>
   <v>      -0.05263158      -0.43750000       0.15384615 </v>
   <v>       0.00000000      -0.37500000       0.15384615 </v>
   <v>       0.05263158      -0.37500000       0.15384615 </v>
   <v>       0.10526316      -0.37500000       0.15384615 </v>
   <v>       0.15789474      -0.37500000       0.15384615 </v>
   <v>       0.21052632      -0.37500000       0.15384615 </v>
   <v>       0.26315789      -0.37500000       0.15384615 </v>
   <v>       0.31578947      -0.37500000       0.15384615 </v>
   <v>       0.36842105      -0.37500000       0.15384615 </v>
   <v>       0.42105263      -0.37500000       0.15384615 </v>
   <v>       0.47368421      -0.37500000       0.15384615 </v>
   <v>      -0.47368421      -0.37500000       0.15384615 </v>
   <v>      -0.42105263      -0.37500000       0.15384615 </v>
   <v>      -0.36842105      -0.37500000       0.15384615 </v>
   <v>      -0.31578947      -0.37500000       0.15384615 </v>
   <v>      -0.26315789      -0.37500000       0.15384615 </v>
   <v>      -0.21052632      -0.37500000       0.15384615 </v>
   <v>      -0.15789474      -0.37500000       0.15384615 </v>
   <v>      -0.10526316      -0.37500000       0.15384615 </v>
   <v>      -0.05263158      -0.37500000       0.15384615 </v>
   <v>       0.00000000      -0.31250000       0.15384615 </v>
   <v>       0.05263158      -0.31250000       0.15384615 </v>
   <v>       0.10526316      -0.31250000       0.15384615 </v>
   <v>       0.15789474      -0.31250000       0.15384615 </v>
   <v>       0.21052632      -0.31250000       0.15384615 </v>
   <v>       0.26315789      -0.31250000       0.15384615 </v>
   <v>       0.31578947      -0.31250000       0.15384615 </v>
   <v>       0.36842105      -0.31250000       0.15384615 </v>
   <v>       0.42105263      -0.31250000       0.15384615 </v>
   <v>       0.47368421      -0.31250000       0.15384615 </v>
   <v>      -0.47368421      -0.31250000       0.15384615 </v>
   <v>      -0.42105263      -0.31250000       0.15384615 </v>
   <v>      -0.36842105      -0.31250000       0.15384615 </v>
   <v>      -0.31578947      -0.31250000       0.15384615 </v>
   <v>      -0.26315789      -0.31250000       0.15384615 </v>
   <v>      -0.21052632      -0.31250000       0.15384615 </v>
   <v>      -0.15789474      -0.31250000       0.15384615 </v>
   <v>      -0.10526316      -0.31250000       0.15384615 </v>
   <v>      -0.05263158      -0.31250000       0.15384615 </v>
   <v>       0.00000000      -0.25000000       0.15384615 </v>
   <v>       0.05263158      -0.25000000       0.15384615 </v>
   <v>       0.10526316      -0.25000000       0.15384615 </v>
   <v>       0.15789474      -0.25000000       0.15384615 </v>
   <v>       0.21052632      -0.25000000       0.15384615 </v>
   <v>       0.26315789      -0.25000000       0.15384615 </v>
   <v>       0.31578947      -0.25000000       0.15384615 </v>
   <v>       0.36842105      -0.25000000       0.15384615 </v>
   <v>       0.42105263      -0.25000000       0.15384615 </v>
   <v>       0.47368421      -0.25000000       0.15384615 </v>
   <v>      -0.47368421      -0.25000000       0.15384615 </v>
   <v>      -0.42105263      -0.25000000       0.15384615 </v>
   <v>      -0.36842105      -0.25000000       0.15384615 </v>
   <v>      -0.31578947      -0.25000000       0.15384615 </v>
   <v>      -0.26315789      -0.25000000       0.15384615 </v>
   <v>      -0.21052632      -0.25000000       0.15384615 </v>
   <v>      -0.15789474      -0.25000000       0.15384615 </v>
   <v>      -0.10526316      -0.25000000       0.15384615 </v>
   <v>      -0.05263158      -0.25000000       0.15384615 </v>
   <v>       0.00000000      -0.18750000       0.15384615 </v>
   <v>       0.05263158      -0.18750000       0.15384615 </v>
   <v>       0.10526316      -0.18750000       0.15384615 </v>
   <v>       0.15789474      -0.18750000       0.15384615 </v>
   <v>       0.21052632      -0.18750000       0.15384615 </v>
   <v>       0.26315789      -0.18750000       0.15384615 </v>
   <v>       0.31578947      -0.18750000       0.15384615 </v>
   <v>       0.36842105      -0.18750000       0.15384615 </v>
   <v>       0.42105263      -0.18750000       0.15384615 </v>
   <v>       0.47368421      -0.18750000       0.15384615 </v>
   <v>      -0.47368421      -0.18750000       0.15384615 </v>
   <v>      -0.42105263      -0.18750000       0.15384615 </v>
   <v>      -0.36842105      -0.18750000       0.15384615 </v>
   <v>      -0.31578947      -0.18750000       0.15384615 </v>
   <v>      -0.26315789      -0.18750000       0.15384615 </v>
   <v>      -0.21052632      -0.18750000       0.15384615 </v>
   <v>      -0.15789474      -0.18750000       0.15384615 </v>
   <v>      -0.10526316      -0.18750000       0.15384615 </v>
   <v>      -0.05263158      -0.18750000       0.15384615 </v>
   <v>       0.00000000      -0.12500000       0.15384615 </v>
   <v>       0.05263158      -0.12500000       0.15384615 </v>
   <v>       0.10526316      -0.12500000       0.15384615 </v>
   <v>       0.15789474      -0.12500000       0.15384615 </v>
   <v>       0.21052632      -0.12500000       0.15384615 </v>
   <v>       0.26315789      -0.12500000       0.15384615 </v>
   <v>       0.31578947      -0.12500000       0.15384615 </v>
   <v>       0.36842105      -0.12500000       0.15384615 </v>
   <v>       0.42105263      -0.12500000       0.15384615 </v>
   <v>       0.47368421      -0.12500000       0.15384615 </v>
   <v>      -0.47368421      -0.12500000       0.15384615 </v>
   <v>      -0.42105263      -0.12500000       0.15384615 </v>
   <v>      -0.36842105      -0.12500000       0.15384615 </v>
   <v>      -0.31578947      -0.12500000       0.15384615 </v>
   <v>      -0.26315789      -0.12500000       0.15384615 </v>
   <v>      -0.21052632      -0.12500000       0.15384615 </v>
   <v>      -0.15789474      -0.12500000       0.15384615 </v>
   <v>      -0.10526316      -0.12500000       0.15384615 </v>
   <v>      -0.05263158      -0.12500000       0.15384615 </v>
   <v>       0.00000000      -0.06250000       0.15384615 </v>
   <v>       0.05263158      -0.06250000       0.15384615 </v>
   <v>       0.10526316      -0.06250000       0.15384615 </v>
   <v>       0.15789474      -0.06250000       0.15384615 </v>
   <v>       0.21052632      -0.06250000       0.15384615 </v>
   <v>       0.26315789      -0.06250000       0.15384615 </v>
   <v>       0.31578947      -0.06250000       0.15384615 </v>
   <v>       0.36842105      -0.06250000       0.15384615 </v>
   <v>       0.42105263      -0.06250000       0.15384615 </v>
   <v>       0.47368421      -0.06250000       0.15384615 </v>
   <v>      -0.47368421      -0.06250000       0.15384615 </v>
   <v>      -0.42105263      -0.06250000       0.15384615 </v>
   <v>      -0.36842105      -0.06250000       0.15384615 </v>
   <v>      -0.31578947      -0.06250000       0.15384615 </v>
   <v>      -0.26315789      -0.06250000       0.15384615 </v>
   <v>      -0.21052632      -0.06250000       0.15384615 </v>
   <v>      -0.15789474      -0.06250000       0.15384615 </v>
   <v>      -0.10526316      -0.06250000       0.15384615 </v>
   <v>      -0.05263158      -0.06250000       0.15384615 </v>
   <v>       0.00000000       0.00000000       0.23076923 </v>
   <v>       0.05263158       0.00000000       0.23076923 </v>
   <v>       0.10526316       0.00000000       0.23076923 </v>
   <v>       0.15789474       0.00000000       0.23076923 </v>
   <v>       0.21052632       0.00000000       0.23076923 </v>
   <v>       0.26315789       0.00000000       0.23076923 </v>
   <v>       0.31578947       0.00000000       0.23076923 </v>
   <v>       0.36842105       0.00000000       0.23076923 </v>
   <v>       0.42105263       0.00000000       0.23076923 </v>
   <v>       0.47368421       0.00000000       0.23076923 </v>
   <v>      -0.47368421       0.00000000       0.23076923 </v>
   <v>      -0.42105263       0.00000000       0.23076923 </v>
   <v>      -0.36842105       0.00000000       0.23076923 </v>
   <v>      -0.31578947       0.00000000       0.23076923 </v>
   <v>      -0.26315789       0.00000000       0.23076923 </v>
   <v>      -0.21052632       0.00000000       0.23076923 </v>
   <v>      -0.15789474       0.00000000       0.23076923 </v>
   <v>      -0.10526316       0.00000000       0.23076923 </v>
   <v>      -0.05263158       0.00000000       0.23076923 </v>
   <v>       0.00000000       0.06250000       0.23076923 </v>
   <v>       0.05263158       0.06250000       0.23076923 </v>
   <v>       0.10526316       0.06250000       0.23076923 </v>
   <v>       0.15789474       0.06250000       0.23076923 </v>
   <v>       0.21052632       0.06250000       0.23076923 </v>
   <v>       0.26315789       0.06250000       0.23076923 </v>
   <v>       0.31578947       0.06250000       0.23076923 </v>
   <v>       0.36842105       0.06250000       0.23076923 </v>
   <v>       0.42105263       0.06250000       0.23076923 </v>
   <v>       0.47368421       0.06250000       0.23076923 </v>
   <v>      -0.47368421       0.06250000       0.23076923 </v>
   <v>      -0.42105263       0.06250000       0.23076923 </v>
   <v>      -0.36842105       0.06250000       0.23076923 </v>
   <v>      -0.31578947       0.06250000       0.23076923 </v>
   <v>      -0.26315789       0.06250000       0.23076923 </v>
   <v>      -0.21052632       0.06250000       0.23076923 </v>
   <v>      -0.15789474       0.06250000       0.23076923 </v>
   <v>      -0.10526316       0.06250000       0.23076923 </v>
   <v>      -0.05263158       0.06250000       0.23076923 </v>
   <v>       0.00000000       0.12500000       0.23076923 </v>
   <v>       0.05263158       0.12500000       0.23076923 </v>
   <v>       0.10526316       0.12500000       0.23076923 </v>
   <v>       0.15789474       0.12500000       0.23076923 </v>
   <v>       0.21052632       0.12500000       0.23076923 </v>
   <v>       0.26315789       0.12500000       0.23076923 </v>
   <v>       0.31578947       0.12500000       0.23076923 </v>
   <v>       0.36842105       0.12500000       0.23076923 </v>
   <v>       0.42105263       0.12500000       0.23076923 </v>
   <v>       0.47368421       0.12500000       0.23076923 </v>
   <v>      -0.47368421       0.12500000       0.23076923 </v>
   <v>      -0.42105263       0.12500000       0.23076923 </v>
   <v>      -0.36842105       0.12500000       0.23076923 </v>
   <v>      -0.31578947       0.12500000       0.23076923 </v>
   <v>      -0.26315789       0.12500000       0.23076923 </v>
   <v>      -0.21052632       0.12500000       0.23076923 </v>
   <v>      -0.15789474       0.12500000       0.23076923 </v>
   <v>      -0.10526316       0.12500000       0.23076923 </v>
   <v>      -0.05263158       0.12500000       0.23076923 </v>
   <v>       0.00000000       0.18750000       0.23076923 </v>
   <v>       0.05263158       0.18750000       0.23076923 </v>
   <v>       0.10526316       0.18750000       0.23076923 </v>
   <v>       0.15789474       0.18750000       0.23076923 </v>
   <v>       0.21052632       0.18750000       0.23076923 </v>
   <v>       0.26315789       0.18750000       0.23076923 </v>
   <v>       0.31578947       0.18750000       0.23076923 </v>
   <v>       0.36842105       0.18750000       0.23076923 </v>
   <v>       0.42105263       0.18750000       0.23076923 </v>
   <v>       0.47368421       0.18750000       0.23076923 </v>
   <v>      -0.47368421       0.18750000       0.23076923 </v>
   <v>      -0.42105263       0.18750000       0.23076923 </v>
   <v>      -0.36842105       0.18750000       0.23076923 </v>
   <v>      -0.31578947       0.18750000       0.23076923 </v>
   <v>      -0.26315789       0.18750000       0.23076923 </v>
   <v>      -0.21052632       0.18750000       0.23076923 </v>
   <v>      -0.15789474       0.18750000       0.23076923 </v>
   <v>      -0.10526316       0.18750000       0.23076923 </v>
   <v>      -0.05263158       0.18750000       0.23076923 </v>
   <v>       0.00000000       0.25000000       0.23076923 </v>
   <v>       0.05263158       0.25000000       0.23076923 </v>
   <v>       0.10526316       0.25000000       0.23076923 </v>
   <v>       0.15789474       0.25000000       0.23076923 </v>
   <v>       0.21052632       0.25000000       0.23076923 </v>
   <v>       0.26315789       0.25000000       0.23076923 </v>
   <v>       0.31578947       0.25000000       0.23076923 </v>
   <v>       0.36842105       0.25000000       0.23076923 </v>
   <v>       0.42105263       0.25000000       0.23076923 </v>
   <v>       0.47368421       0.25000000       0.23076923 </v>
   <v>      -0.47368421       0.25000000       0.23076923 </v>
   <v>      -0.42105263       0.25000000       0.23076923 </v>
   <v>      -0.36842105       0.25000000       0.23076923 </v>
   <v>      -0.31578947       0.25000000       0.23076923 </v>
   <v>      -0.26315789       0.25000000       0.23076923 </v>
   <v>      -0.21052632       0.25000000       0.23076923 </v>
   <v>      -0.15789474       0.25000000       0.23076923 </v>
   <v>      -0.10526316       0.25000000       0.23076923 </v>
   <v>      -0.05263158       0.25000000       0.23076923 </v>
   <v>       0.00000000       0.31250000       0.23076923 </v>
   <v>       0.05263158       0.31250000       0.23076923 </v>
   <v>       0.10526316       0.31250000       0.23076923 </v>
   <v>       0.15789474       0.31250000       0.23076923 </v>
   <v>       0.21052632       0.31250000       0.23076923 </v>
   <v>       0.26315789       0.31250000       0.23076923 </v>
   <v>       0.31578947       0.31250000       0.23076923 </v>
   <v>       0.36842105       0.31250000       0.23076923 </v>
   <v>       0.42105263       0.31250000       0.23076923 </v>
   <v>       0.47368421       0.31250000       0.23076923 </v>
   <v>      -0.47368421       0.31250000       0.23076923 </v>
   <v>      -0.42105263       0.31250000       0.23076923 </v>
   <v>      -0.36842105       0.31250000       0.23076923 </v>
   <v>      -0.31578947       0.31250000       0.23076923 </v>
   <v>      -0.26315789       0.31250000       0.23076923 </v>
   <v>      -0.21052632       0.31250000       0.23076923 </v>
   <v>      -0.15789474       0.31250000       0.23076923 </v>
   <v>      -0.10526316       0.31250000       0.23076923 </v>
   <v>      -0.05263158       0.31250000       0.23076923 </v>
   <v>       0.00000000       0.37500000       0.23076923 </v>
   <v>       0.05263158       0.37500000       0.23076923 </v>
   <v>       0.10526316       0.37500000       0.23076923 </v>
   <v>       0.15789474       0.37500000       0.23076923 </v>
   <v>       0.21052632       0.37500000       0.23076923 </v>
   <v>       0.26315789       0.37500000       0.23076923 </v>
   <v>       0.31578947       0.37500000       0.23076923 </v>
   <v>       0.36842105       0.37500000       0.23076923 </v>
   <v>       0.42105263       0.37500000       0.23076923 </v>
   <v>       0.47368421       0.37500000       0.23076923 </v>
   <v>      -0.47368421       0.37500000       0.23076923 </v>
   <v>      -0.42105263       0.37500000       0.23076923 </v>
   <v>      -0.36842105       0.37500000       0.23076923 </v>
   <v>      -0.31578947       0.37500000       0.23076923 </v>
   <v>      -0.26315789       0.37500000       0.23076923 </v>
   <v>      -0.21052632       0.37500000       0.23076923 </v>
   <v>      -0.15789474       0.37500000       0.23076923 </v>
   <v>      -0.10526316       0.37500000       0.23076923 </v>
   <v>      -0.05263158       0.37500000       0.23076923 </v>
   <v>       0.00000000       0.43750000       0.23076923 </v>
   <v>       0.05263158       0.43750000       0.23076923 </v>
   <v>       0.10526316       0.43750000       0.23076923 </v>
   <v>       0.15789474       0.43750000       0.23076923 </v>
   <v>       0.21052632       0.43750000       0.23076923 </v>
   <v>       0.26315789       0.43750000       0.23076923 </v>
   <v>       0.31578947       0.43750000       0.23076923 </v>
   <v>       0.36842105       0.43750000       0.23076923 </v>
   <v>       0.42105263       0.43750000       0.23076923 </v>
   <v>       0.47368421       0.43750000       0.23076923 </v>
   <v>      -0.47368421       0.43750000       0.23076923 </v>
   <v>      -0.42105263       0.43750000       0.23076923 </v>
   <v>      -0.36842105       0.43750000       0.23076923 </v>
   <v>      -0.31578947       0.43750000       0.23076923 </v>
   <v>      -0.26315789       0.43750000       0.23076923 </v>
   <v>      -0.21052632       0.43750000       0.23076923 </v>
   <v>      -0.15789474       0.43750000       0.23076923 </v>
   <v>      -0.10526316       0.43750000       0.23076923 </v>
   <v>      -0.05263158       0.43750000       0.23076923 </v>
   <v>       0.00000000       0.50000000       0.23076923 </v>
   <v>       0.05263158       0.50000000       0.23076923 </v>
   <v>       0.10526316       0.50000000       0.23076923 </v>
   <v>       0.15789474       0.50000000       0.23076923 </v>
   <v>       0.21052632       0.50000000       0.23076923 </v>
   <v>       0.26315789       0.50000000       0.23076923 </v>
   <v>       0.31578947       0.50000000       0.23076923 </v>
   <v>       0.36842105       0.50000000       0.23076923 </v>
   <v>       0.42105263       0.50000000       0.23076923 </v>
   <v>       0.47368421       0.50000000       0.23076923 </v>
   <v>      -0.47368421       0.50000000       0.23076923 </v>
   <v>      -0.42105263       0.50000000       0.23076923 </v>
   <v>      -0.36842105       0.50000000       0.23076923 </v>
   <v>      -0.31578947       0.50000000       0.23076923 </v>
   <v>      -0.26315789       0.50000000       0.23076923 </v>
   <v>      -0.21052632       0.50000000       0.23076923 </v>
   <v>      -0.15789474       0.50000000       0.23076923 </v>
   <v>      -0.10526316       0.50000000       0.23076923 </v>
   <v>      -0.05263158       0.50000000       0.23076923 </v>
   <v>       0.00000000      -0.43750000       0.23076923 </v>
   <v>       0.05263158      -0.43750000       0.23076923 </v>
   <v>       0.10526316      -0.43750000       0.23076923 </v>
   <v>       0.15789474      -0.43750000       0.23076923 </v>
   <v>       0.21052632      -0.43750000       0.23076923 </v>
   <v>       0.26315789      -0.43750000       0.23076923 </v>
   <v>       0.31578947      -0.43750000       0.23076923 </v>
   <v>       0.36842105      -0.43750000       0.23076923 </v>
   <v>       0.42105263      -0.43750000       0.23076923 </v>
   <v>       0.47368421      -0.43750000       0.23076923 </v>
   <v>      -0.47368421      -0.43750000       0.23076923 </v>
   <v>      -0.42105263      -0.43750000       0.23076923 </v>
   <v>      -0.36842105      -0.43750000       0.23076923 </v>
   <v>      -0.31578947      -0.43750000       0.23076923 </v>
   <v>      -0.26315789      -0.43750000       0.23076923 </v>
   <v>      -0.21052632      -0.43750000       0.23076923 </v>
   <v>      -0.15789474      -0.43750000       0.23076923 </v>
   <v>      -0.10526316      -0.43750000       0.23076923 </v>
   <v>      -0.05263158      -0.43750000       0.23076923 </v>
   <v>       0.00000000      -0.37500000       0.23076923 </v>
   <v>       0.05263158      -0.37500000       0.23076923 </v>
   <v>       0.10526316      -0.37500000       0.23076923 </v>
   <v>       0.15789474      -0.37500000       0.23076923 </v>
   <v>       0.21052632      -0.37500000       0.23076923 </v>
   <v>       0.26315789      -0.37500000       0.23076923 </v>
   <v>       0.31578947      -0.37500000       0.23076923 </v>
   <v>       0.36842105      -0.37500000       0.23076923 </v>
   <v>       0.42105263      -0.37500000       0.23076923 </v>
   <v>       0.47368421      -0.37500000       0.23076923 </v>
   <v>      -0.47368421      -0.37500000       0.23076923 </v>
   <v>      -0.42105263      -0.37500000       0.23076923 </v>
   <v>      -0.36842105      -0.37500000       0.23076923 </v>
   <v>      -0.31578947      -0.37500000       0.23076923 </v>
   <v>      -0.26315789      -0.37500000       0.23076923 </v>
   <v>      -0.21052632      -0.37500000       0.23076923 </v>
   <v>      -0.15789474      -0.37500000       0.23076923 </v>
   <v>      -0.10526316      -0.37500000       0.23076923 </v>
   <v>      -0.05263158      -0.37500000       0.23076923 </v>
   <v>       0.00000000      -0.31250000       0.23076923 </v>
   <v>       0.05263158      -0.31250000       0.23076923 </v>
   <v>       0.10526316      -0.31250000       0.23076923 </v>
   <v>       0.15789474      -0.31250000       0.23076923 </v>
   <v>       0.21052632      -0.31250000       0.23076923 </v>
   <v>       0.26315789      -0.31250000       0.23076923 </v>
   <v>       0.31578947      -0.31250000       0.23076923 </v>
   <v>       0.36842105      -0.31250000       0.23076923 </v>
   <v>       0.42105263      -0.31250000       0.23076923 </v>
   <v>       0.47368421      -0.31250000       0.23076923 </v>
   <v>      -0.47368421      -0.31250000       0.23076923 </v>
   <v>      -0.42105263      -0.31250000       0.23076923 </v>
   <v>      -0.36842105      -0.31250000       0.23076923 </v>
   <v>      -0.31578947      -0.31250000       0.23076923 </v>
   <v>      -0.26315789      -0.31250000       0.23076923 </v>
   <v>      -0.21052632      -0.31250000       0.23076923 </v>
   <v>      -0.15789474      -0.31250000       0.23076923 </v>
   <v>      -0.10526316      -0.31250000       0.23076923 </v>
   <v>      -0.05263158      -0.31250000       0.23076923 </v>
   <v>       0.00000000      -0.25000000       0.23076923 </v>
   <v>       0.05263158      -0.25000000       0.23076923 </v>
   <v>       0.10526316      -0.25000000       0.23076923 </v>
   <v>       0.15789474      -0.25000000       0.23076923 </v>
   <v>       0.21052632      -0.25000000       0.23076923 </v>
   <v>       0.26315789      -0.25000000       0.23076923 </v>
   <v>       0.31578947      -0.25000000       0.23076923 </v>
   <v>       0.36842105      -0.25000000       0.23076923 </v>
   <v>       0.42105263      -0.25000000       0.23076923 </v>
   <v>       0.47368421      -0.25000000       0.23076923 </v>
   <v>      -0.47368421      -0.25000000       0.23076923 </v>
   <v>      -0.42105263      -0.25000000       0.23076923 </v>
   <v>      -0.36842105      -0.25000000       0.23076923 </v>
   <v>      -0.31578947      -0.25000000       0.23076923 </v>
   <v>      -0.26315789      -0.25000000       0.23076923 </v>
   <v>      -0.21052632      -0.25000000       0.23076923 </v>
   <v>      -0.15789474      -0.25000000       0.23076923 </v>
   <v>      -0.10526316      -0.25000000       0.23076923 </v>
   <v>      -0.05263158      -0.25000000       0.23076923 </v>
   <v>       0.00000000      -0.18750000       0.23076923 </v>
   <v>       0.05263158      -0.18750000       0.23076923 </v>
   <v>       0.10526316      -0.18750000       0.23076923 </v>
   <v>       0.15789474      -0.18750000       0.23076923 </v>
   <v>       0.21052632      -0.18750000       0.23076923 </v>
   <v>       0.26315789      -0.18750000       0.23076923 </v>
   <v>       0.31578947      -0.18750000       0.23076923 </v>
   <v>       0.36842105      -0.18750000       0.23076923 </v>
   <v>       0.42105263      -0.18750000       0.23076923 </v>
   <v>       0.47368421      -0.18750000       0.23076923 </v>
   <v>      -0.47368421      -0.18750000       0.23076923 </v>
   <v>      -0.42105263      -0.18750000       0.23076923 </v>
   <v>      -0.36842105      -0.18750000       0.23076923 </v>
   <v>      -0.31578947      -0.18750000       0.23076923 </v>
   <v>      -0.26315789      -0.18750000       0.23076923 </v>
   <v>      -0.21052632      -0.18750000       0.23076923 </v>
   <v>      -0.15789474      -0.18750000       0.23076923 </v>
   <v>      -0.10526316      -0.18750000       0.23076923 </v>
   <v>      -0.05263158      -0.18750000       0.23076923 </v>
   <v>       0.00000000      -0.12500000       0.23076923 </v>
   <v>       0.05263158      -0.12500000       0.23076923 </v>
   <v>       0.10526316      -0.12500000       0.23076923 </v>
   <v>       0.15789474      -0.12500000       0.23076923 </v>
   <v>       0.21052632      -0.12500000       0.23076923 </v>
   <v>       0.26315789      -0.12500000       0.23076923 </v>
   <v>       0.31578947      -0.12500000       0.23076923 </v>
   <v>       0.36842105      -0.12500000       0.23076923 </v>
   <v>       0.42105263      -0.12500000       0.23076923 </v>
   <v>       0.47368421      -0.12500000       0.23076923 </v>
   <v>      -0.47368421      -0.12500000       0.23076923 </v>
   <v>      -0.42105263      -0.12500000       0.23076923 </v>
   <v>      -0.36842105      -0.12500000       0.23076923 </v>
   <v>      -0.31578947      -0.12500000       0.23076923 </v>
   <v>      -0.26315789      -0.12500000       0.23076923 </v>
   <v>      -0.21052632      -0.12500000       0.23076923 </v>
   <v>      -0.15789474      -0.12500000       0.23076923 </v>
   <v>      -0.10526316      -0.12500000       0.23076923 </v>
   <v>      -0.05263158      -0.12500000       0.23076923 </v>
   <v>       0.00000000      -0.06250000       0.23076923 </v>
   <v>       0.05263158      -0.06250000       0.23076923 </v>
   <v>       0.10526316      -0.06250000       0.23076923 </v>
   <v>       0.15789474      -0.06250000       0.23076923 </v>
   <v>       0.21052632      -0.06250000       0.23076923 </v>
   <v>       0.26315789      -0.06250000       0.23076923 </v>
   <v>       0.31578947      -0.06250000       0.23076923 </v>
   <v>       0.36842105      -0.06250000       0.23076923 </v>
   <v>       0.42105263      -0.06250000       0.23076923 </v>
   <v>       0.47368421      -0.06250000       0.23076923 </v>
   <v>      -0.47368421      -0.06250000       0.23076923 </v>
   <v>      -0.42105263      -0.06250000       0.23076923 </v>
   <v>      -0.36842105      -0.06250000       0.23076923 </v>
   <v>      -0.31578947      -0.06250000       0.23076923 </v>
   <v>      -0.26315789      -0.06250000       0.23076923 </v>
   <v>      -0.21052632      -0.06250000       0.23076923 </v>
   <v>      -0.15789474      -0.06250000       0.23076923 </v>
   <v>      -0.10526316      -0.06250000       0.23076923 </v>
   <v>      -0.05263158      -0.06250000       0.23076923 </v>
   <v>       0.00000000       0.00000000       0.30769231 </v>
   <v>       0.05263158       0.00000000       0.30769231 </v>
   <v>       0.10526316       0.00000000       0.30769231 </v>
   <v>       0.15789474       0.00000000       0.30769231 </v>
   <v>       0.21052632       0.00000000       0.30769231 </v>
   <v>       0.26315789       0.00000000       0.30769231 </v>
   <v>       0.31578947       0.00000000       0.30769231 </v>
   <v>       0.36842105       0.00000000       0.30769231 </v>
   <v>       0.42105263       0.00000000       0.30769231 </v>
   <v>       0.47368421       0.00000000       0.30769231 </v>
   <v>      -0.47368421       0.00000000       0.30769231 </v>
   <v>      -0.42105263       0.00000000       0.30769231 </v>
   <v>      -0.36842105       0.00000000       0.30769231 </v>
   <v>      -0.31578947       0.00000000       0.30769231 </v>
   <v>      -0.26315789       0.00000000       0.30769231 </v>
   <v>      -0.21052632       0.00000000       0.30769231 </v>
   <v>      -0.15789474       0.00000000       0.30769231 </v>
   <v>      -0.10526316       0.00000000       0.30769231 </v>
   <v>      -0.05263158       0.00000000       0.30769231 </v>
   <v>       0.00000000       0.06250000       0.30769231 </v>
   <v>       0.05263158       0.06250000       0.30769231 </v>
   <v>       0.10526316       0.06250000       0.30769231 </v>
   <v>       0.15789474       0.06250000       0.30769231 </v>
   <v>       0.21052632       0.06250000       0.30769231 </v>
   <v>       0.26315789       0.06250000       0.30769231 </v>
   <v>       0.31578947       0.06250000       0.30769231 </v>
   <v>       0.36842105       0.06250000       0.30769231 </v>
   <v>       0.42105263       0.06250000       0.30769231 </v>
   <v>       0.47368421       0.06250000       0.30769231 </v>
   <v>      -0.47368421       0.06250000       0.30769231 </v>
   <v>      -0.42105263       0.06250000       0.30769231 </v>
   <v>      -0.36842105       0.06250000       0.30769231 </v>
   <v>      -0.31578947       0.06250000       0.30769231 </v>
   <v>      -0.26315789       0.06250000       0.30769231 </v>
   <v>      -0.21052632       0.06250000       0.30769231 </v>
   <v>      -0.15789474       0.06250000       0.30769231 </v>
   <v>      -0.10526316       0.06250000       0.30769231 </v>
   <v>      -0.05263158       0.06250000       0.30769231 </v>
   <v>       0.00000000       0.12500000       0.30769231 </v>
   <v>       0.05263158       0.12500000       0.30769231 </v>
   <v>       0.10526316       0.12500000       0.30769231 </v>
   <v>       0.15789474       0.12500000       0.30769231 </v>
   <v>       0.21052632       0.12500000       0.30769231 </v>
   <v>       0.26315789       0.12500000       0.30769231 </v>
   <v>       0.31578947       0.12500000       0.30769231 </v>
   <v>       0.36842105       0.12500000       0.30769231 </v>
   <v>       0.42105263       0.12500000       0.30769231 </v>
   <v>       0.47368421       0.12500000       0.30769231 </v>
   <v>      -0.47368421       0.12500000       0.30769231 </v>
   <v>      -0.42105263       0.12500000       0.30769231 </v>
   <v>      -0.36842105       0.12500000       0.30769231 </v>
   <v>      -0.31578947       0.12500000       0.30769231 </v>
   <v>      -0.26315789       0.12500000       0.30769231 </v>
   <v>      -0.21052632       0.12500000       0.30769231 </v>
   <v>      -0.15789474       0.12500000       0.30769231 </v>
   <v>      -0.10526316       0.12500000       0.30769231 </v>
   <v>      -0.05263158       0.12500000       0.30769231 </v>
   <v>       0.00000000       0.18750000       0.30769231 </v>
   <v>       0.05263158       0.18750000       0.30769231 </v>
   <v>       0.10526316       0.18750000       0.30769231 </v>
   <v>       0.15789474       0.18750000       0.30769231 </v>
   <v>       0.21052632       0.18750000       0.30769231 </v>
   <v>       0.26315789       0.18750000       0.30769231 </v>
   <v>       0.31578947       0.18750000       0.30769231 </v>
   <v>       0.36842105       0.18750000       0.30769231 </v>
   <v>       0.42105263       0.18750000       0.30769231 </v>
   <v>       0.47368421       0.18750000       0.30769231 </v>
   <v>      -0.47368421       0.18750000       0.30769231 </v>
   <v>      -0.42105263       0.18750000       0.30769231 </v>
   <v>      -0.36842105       0.18750000       0.30769231 </v>
   <v>      -0.31578947       0.18750000       0.30769231 </v>
   <v>      -0.26315789       0.18750000       0.30769231 </v>
   <v>      -0.21052632       0.18750000       0.30769231 </v>
   <v>      -0.15789474       0.18750000       0.30769231 </v>
   <v>      -0.10526316       0.18750000       0.30769231 </v>
   <v>      -0.05263158       0.18750000       0.30769231 </v>
   <v>       0.00000000       0.25000000       0.30769231 </v>
   <v>       0.05263158       0.25000000       0.30769231 </v>
   <v>       0.10526316       0.25000000       0.30769231 </v>
   <v>       0.15789474       0.25000000       0.30769231 </v>
   <v>       0.21052632       0.25000000       0.30769231 </v>
   <v>       0.26315789       0.25000000       0.30769231 </v>
   <v>       0.31578947       0.25000000       0.30769231 </v>
   <v>       0.36842105       0.25000000       0.30769231 </v>
   <v>       0.42105263       0.25000000       0.30769231 </v>
   <v>       0.47368421       0.25000000       0.30769231 </v>
   <v>      -0.47368421       0.25000000       0.30769231 </v>
   <v>      -0.42105263       0.25000000       0.30769231 </v>
   <v>      -0.36842105       0.25000000       0.30769231 </v>
   <v>      -0.31578947       0.25000000       0.30769231 </v>
   <v>      -0.26315789       0.25000000       0.30769231 </v>
   <v>      -0.21052632       0.25000000       0.30769231 </v>
   <v>      -0.15789474       0.25000000       0.30769231 </v>
   <v>      -0.10526316       0.25000000       0.30769231 </v>
   <v>      -0.05263158       0.25000000       0.30769231 </v>
   <v>       0.00000000       0.31250000       0.30769231 </v>
   <v>       0.05263158       0.31250000       0.30769231 </v>
   <v>       0.10526316       0.31250000       0.30769231 </v>
   <v>       0.15789474       0.31250000       0.30769231 </v>
   <v>       0.21052632       0.31250000       0.30769231 </v>
   <v>       0.26315789       0.31250000       0.30769231 </v>
   <v>       0.31578947       0.31250000       0.30769231 </v>
   <v>       0.36842105       0.31250000       0.30769231 </v>
   <v>       0.42105263       0.31250000       0.30769231 </v>
   <v>       0.47368421       0.31250000       0.30769231 </v>
   <v>      -0.47368421       0.31250000       0.30769231 </v>
   <v>      -0.42105263       0.31250000       0.30769231 </v>
   <v>      -0.36842105       0.31250000       0.30769231 </v>
   <v>      -0.31578947       0.31250000       0.30769231 </v>
   <v>      -0.26315789       0.31250000       0.30769231 </v>
   <v>      -0.21052632       0.31250000       0.30769231 </v>
   <v>      -0.15789474       0.31250000       0.30769231 </v>
   <v>      -0.10526316       0.31250000       0.30769231 </v>
   <v>      -0.05263158       0.31250000       0.30769231 </v>
   <v>       0.00000000       0.37500000       0.30769231 </v>
   <v>       0.05263158       0.37500000       0.30769231 </v>
   <v>       0.10526316       0.37500000       0.30769231 </v>
   <v>       0.15789474       0.37500000       0.30769231 </v>
   <v>       0.21052632       0.37500000       0.30769231 </v>
   <v>       0.26315789       0.37500000       0.30769231 </v>
   <v>       0.31578947       0.37500000       0.30769231 </v>
   <v>       0.36842105       0.37500000       0.30769231 </v>
   <v>       0.42105263       0.37500000       0.30769231 </v>
   <v>       0.47368421       0.37500000       0.30769231 </v>
   <v>      -0.47368421       0.37500000       0.30769231 </v>
   <v>      -0.42105263       0.37500000       0.30769231 </v>
   <v>      -0.36842105       0.37500000       0.30769231 </v>
   <v>      -0.31578947       0.37500000       0.30769231 </v>
   <v>      -0.26315789       0.37500000       0.30769231 </v>
   <v>      -0.21052632       0.37500000       0.30769231 </v>
   <v>      -0.15789474       0.37500000       0.30769231 </v>
   <v>      -0.10526316       0.37500000       0.30769231 </v>
   <v>      -0.05263158       0.37500000       0.30769231 </v>
   <v>       0.00000000       0.43750000       0.30769231 </v>
   <v>       0.05263158       0.43750000       0.30769231 </v>
   <v>       0.10526316       0.43750000       0.30769231 </v>
   <v>       0.15789474       0.43750000       0.30769231 </v>
   <v>       0.21052632       0.43750000       0.30769231 </v>
   <v>       0.26315789       0.43750000       0.30769231 </v>
   <v>       0.31578947       0.43750000       0.30769231 </v>
   <v>       0.36842105       0.43750000       0.30769231 </v>
   <v>       0.42105263       0.43750000       0.30769231 </v>
   <v>       0.47368421       0.43750000       0.30769231 </v>
   <v>      -0.47368421       0.43750000       0.30769231 </v>
   <v>      -0.42105263       0.43750000       0.30769231 </v>
   <v>      -0.36842105       0.43750000       0.30769231 </v>
   <v>      -0.31578947       0.43750000       0.30769231 </v>
   <v>      -0.26315789       0.43750000       0.30769231 </v>
   <v>      -0.21052632       0.43750000       0.30769231 </v>
   <v>      -0.15789474       0.43750000       0.30769231 </v>
   <v>      -0.10526316       0.43750000       0.30769231 </v>
   <v>      -0.05263158       0.43750000       0.30769231 </v>
   <v>       0.00000000       0.50000000       0.30769231 </v>
   <v>       0.05263158       0.50000000       0.30769231 </v>
   <v>       0.10526316       0.50000000       0.30769231 </v>
   <v>       0.15789474       0.50000000       0.30769231 </v>
   <v>       0.21052632       0.50000000       0.30769231 </v>
   <v>       0.26315789       0.50000000       0.30769231 </v>
   <v>       0.31578947       0.50000000       0.30769231 </v>
   <v>       0.36842105       0.50000000       0.30769231 </v>
   <v>       0.42105263       0.50000000       0.30769231 </v>
   <v>       0.47368421       0.50000000       0.30769231 </v>
   <v>      -0.47368421       0.50000000       0.30769231 </v>
   <v>      -0.42105263       0.50000000       0.30769231 </v>
   <v>      -0.36842105       0.50000000       0.30769231 </v>
   <v>      -0.31578947       0.50000000       0.30769231 </v>
   <v>      -0.26315789       0.50000000       0.30769231 </v>
   <v>      -0.21052632       0.50000000       0.30769231 </v>
   <v>      -0.15789474       0.50000000       0.30769231 </v>
   <v>      -0.10526316       0.50000000       0.30769231 </v>
   <v>      -0.05263158       0.50000000       0.30769231 </v>
   <v>       0.00000000      -0.43750000       0.30769231 </v>
   <v>       0.05263158      -0.43750000       0.30769231 </v>
   <v>       0.10526316      -0.43750000       0.30769231 </v>
   <v>       0.15789474      -0.43750000       0.30769231 </v>
   <v>       0.21052632      -0.43750000       0.30769231 </v>
   <v>       0.26315789      -0.43750000       0.30769231 </v>
[...]
       <r>    4.5585    1.0000 </r>
       <r>    5.1373    1.0000 </r>
       <r>    5.1931    1.0000 </r>
       <r>    5.2511    1.0000 </r>
       <r>    5.2857    1.0000 </r>
       <r>    5.4564    1.0000 </r>
       <r>    5.6272    1.0000 </r>
       <r>    5.6986    1.0000 </r>
       <r>    5.7998    1.0000 </r>
       <r>    5.8503    1.0000 </r>
       <r>    5.9627    1.0000 </r>
       <r>    8.0706   -0.0348 </r>
       <r>   10.8230    0.0000 </r>
       <r>   11.3513    0.0000 </r>
       <r>   11.8934    0.0000 </r>
       <r>   12.4544    0.0000 </r>
       <r>   12.6708    0.0000 </r>
       <r>   13.1447    0.0000 </r>
       <r>   15.4186    0.0000 </r>
      </set>
      <set comment="kpoint 1976">
       <r>    0.8854    1.0000 </r>
       <r>    1.5634    1.0000 </r>
       <r>    1.8804    1.0000 </r>
       <r>    1.9689    1.0000 </r>
       <r>    2.1061    1.0000 </r>
       <r>    2.3436    1.0000 </r>
       <r>    2.3957    1.0000 </r>
       <r>    2.4436    1.0000 </r>
       <r>    2.5550    1.0000 </r>
       <r>    2.6259    1.0000 </r>
       <r>    2.9197    1.0000 </r>
       <r>    2.9325    1.0000 </r>
       <r>    3.2164    1.0000 </r>
       <r>    3.3343    1.0000 </r>
       <r>    3.5929    1.0000 </r>
       <r>    3.6490    1.0000 </r>
       <r>    3.8119    1.0000 </r>
       <r>    3.9667    1.0000 </r>
       <r>    3.9881    1.0000 </r>
       <r>    4.0608    1.0000 </r>
       <r>    4.1105    1.0000 </r>
       <r>    4.7268    1.0000 </r>
       <r>    5.1355    1.0000 </r>
       <r>    5.2014    1.0000 </r>
       <r>    5.2247    1.0000 </r>
       <r>    5.2804    1.0000 </r>
       <r>    5.4602    1.0000 </r>
       <r>    5.6148    1.0000 </r>
       <r>    5.6854    1.0000 </r>
       <r>    5.8076    1.0000 </r>
       <r>    5.8695    1.0000 </r>
       <r>    6.0063    1.0000 </r>
       <r>    8.2250   -0.0196 </r>
       <r>   11.5605    0.0000 </r>
       <r>   11.7810    0.0000 </r>
       <r>   11.9277    0.0000 </r>
       <r>   12.8386    0.0000 </r>
       <r>   13.0945    0.0000 </r>
       <r>   13.3170    0.0000 </r>
       <r>   15.4864    0.0000 </r>
      </set>
      <set comment="kpoint 1977">
       <r>    0.8316    1.0000 </r>
       <r>    1.4608    1.0000 </r>
       <r>    1.8483    1.0000 </r>
       <r>    1.9732    1.0000 </r>
       <r>    2.0581    1.0000 </r>
       <r>    2.3923    1.0000 </r>
       <r>    2.4158    1.0000 </r>
       <r>    2.4324    1.0000 </r>
       <r>    2.5286    1.0000 </r>
       <r>    2.5630    1.0000 </r>
       <r>    2.8750    1.0000 </r>
       <r>    2.9181    1.0000 </r>
       <r>    3.2852    1.0000 </r>
       <r>    3.3703    1.0000 </r>
       <r>    3.5427    1.0000 </r>
       <r>    3.6202    1.0000 </r>
       <r>    3.7796    1.0000 </r>
       <r>    3.9546    1.0000 </r>
       <r>    3.9904    1.0000 </r>
       <r>    4.0523    1.0000 </r>
       <r>    4.1177    1.0000 </r>
       <r>    4.8797    1.0000 </r>
       <r>    5.1169    1.0000 </r>
       <r>    5.1633    1.0000 </r>
       <r>    5.2360    1.0000 </r>
       <r>    5.2835    1.0000 </r>
       <r>    5.4906    1.0000 </r>
       <r>    5.5873    1.0000 </r>
       <r>    5.6756    1.0000 </r>
       <r>    5.8000    1.0000 </r>
       <r>    5.8896    1.0000 </r>
       <r>    6.0431    1.0000 </r>
       <r>    8.4682   -0.0012 </r>
       <r>   11.2535    0.0000 </r>
       <r>   12.0298    0.0000 </r>
       <r>   12.7023    0.0000 </r>
       <r>   12.9613    0.0000 </r>
       <r>   13.7252    0.0000 </r>
       <r>   14.2217    0.0000 </r>
       <r>   14.8589    0.0000 </r>
      </set>
     </set>
    </set>
   </array>
  </eigenvalues>
  <separator name="orbital magnetization" >
   <v name="MAGDIPOLOUT">      0.00000000      0.00000000      0.00000000</v>
  </separator>
  <dos>
   <i name="efermi">      7.72199226 </i>
   <total>
    <array>
     <dimension dim="1">gridpoints</dimension>
     <dimension dim="2">spin</dimension>
     <field>energy</field>
     <field>total</field>
     <field>integrated</field>
     <set>
      <set comment="spin 1">
       <r>    -3.2357     0.0000     0.0000 </r>
       <r>    -3.1607     0.0000     0.0000 </r>
       <r>    -3.0858     0.0000     0.0000 </r>
       <r>    -3.0109     0.0000     0.0000 </r>
       <r>    -2.9359     0.0000     0.0000 </r>
       <r>    -2.8610     0.0000     0.0000 </r>
       <r>    -2.7861     0.0000     0.0000 </r>
       <r>    -2.7111     0.0000     0.0000 </r>
       <r>    -2.6362     0.0000     0.0000 </r>
       <r>    -2.5613     0.0000     0.0000 </r>
       <r>    -2.4863     0.0000     0.0000 </r>
       <r>    -2.4114     0.0000     0.0000 </r>
       <r>    -2.3365     0.0000     0.0000 </r>
       <r>    -2.2615     0.0000     0.0000 </r>
       <r>    -2.1866     0.0000     0.0000 </r>
       <r>    -2.1117     0.0000     0.0000 </r>
       <r>    -2.0367     0.0000     0.0000 </r>
       <r>    -1.9618     0.0000     0.0000 </r>
       <r>    -1.8868     0.0000     0.0000 </r>
       <r>    -1.8119     0.0000     0.0000 </r>
       <r>    -1.7370     0.0000     0.0000 </r>
       <r>    -1.6620     0.0000     0.0000 </r>
       <r>    -1.5871     0.0000     0.0000 </r>
       <r>    -1.5122     0.0000     0.0000 </r>
       <r>    -1.4372     0.0000     0.0000 </r>
       <r>    -1.3623     0.0000     0.0000 </r>
       <r>    -1.2874     0.0000     0.0000 </r>
       <r>    -1.2124     0.0000     0.0000 </r>
       <r>    -1.1375     0.0000     0.0000 </r>
       <r>    -1.0626     0.0000     0.0000 </r>
       <r>    -0.9876    -0.0001     0.0000 </r>
       <r>    -0.9127    -0.0003     0.0000 </r>
       <r>    -0.8378    -0.0007    -0.0001 </r>
       <r>    -0.7628    -0.0017    -0.0002 </r>
       <r>    -0.6879    -0.0035    -0.0005 </r>
       <r>    -0.6130    -0.0060    -0.0009 </r>
       <r>    -0.5380    -0.0083    -0.0015 </r>
       <r>    -0.4631    -0.0076    -0.0021 </r>
       <r>    -0.3882     0.0003    -0.0021 </r>
       <r>    -0.3132     0.0199    -0.0006 </r>
       <r>    -0.2383     0.0540     0.0035 </r>
       <r>    -0.1634     0.1019     0.0111 </r>
       <r>    -0.0884     0.1590     0.0230 </r>
       <r>    -0.0135     0.2187     0.0394 </r>
       <r>     0.0615     0.2754     0.0600 </r>
       <r>     0.1364     0.3264     0.0845 </r>
       <r>     0.2113     0.3714     0.1123 </r>
       <r>     0.2863     0.4121     0.1432 </r>
       <r>     0.3612     0.4504     0.1769 </r>
       <r>     0.4361     0.4879     0.2135 </r>
       <r>     0.5111     0.5254     0.2529 </r>
       <r>     0.5860     0.5630     0.2951 </r>
       <r>     0.6609     0.6003     0.3401 </r>
       <r>     0.7359     0.6353     0.3877 </r>
       <r>     0.8108     0.6650     0.4375 </r>
       <r>     0.8857     0.6863     0.4889 </r>
       <r>     0.9607     0.7018     0.5415 </r>
       <r>     1.0356     0.7284     0.5961 </r>
       <r>     1.1105     0.8064     0.6565 </r>
       <r>     1.1855     1.0023     0.7316 </r>
       <r>     1.2604     1.4006     0.8366 </r>
       <r>     1.3353     2.0808     0.9925 </r>
       <r>     1.4103     3.0858     1.2237 </r>
       <r>     1.4852     4.3967     1.5532 </r>
       <r>     1.5601     5.9278     1.9974 </r>
       <r>     1.6351     7.5552     2.5635 </r>
       <r>     1.7100     9.1663     3.2504 </r>
       <r>     1.7849    10.7004     4.0522 </r>
       <r>     1.8599    12.1467     4.9625 </r>
       <r>     1.9348    13.4970     5.9738 </r>
       <r>     2.0098    14.6929     7.0749 </r>
       <r>     2.0847    15.6193     8.2453 </r>
       <r>     2.1596    16.1524     9.4557 </r>
       <r>     2.2346    16.2280    10.6717 </r>
       <r>     2.3095    15.8820    11.8618 </r>
       <r>     2.3844    15.2443    13.0041 </r>
       <r>     2.4594    14.4903    14.0900 </r>
       <r>     2.5343    13.7761    15.1223 </r>
       <r>     2.6092    13.1938    16.1109 </r>
       <r>     2.6842    12.7728    17.0681 </r>
       <r>     2.7591    12.5178    18.0061 </r>
       <r>     2.8340    12.4380    18.9381 </r>
       <r>     2.9090    12.5371    19.8776 </r>
       <r>     2.9839    12.7805    20.8353 </r>
       <r>     3.0588    13.0903    21.8162 </r>
       <r>     3.1338    13.3893    22.8195 </r>
       <r>     3.2087    13.6615    23.8433 </r>
       <r>     3.2836    13.9731    24.8903 </r>
       <r>     3.3586    14.4274    25.9714 </r>
       <r>     3.4335    15.0813    27.1015 </r>
       <r>     3.5084    15.8820    28.2917 </r>
       <r>     3.5834    16.6638    29.5404 </r>
       <r>     3.6583    17.2060    30.8297 </r>
       <r>     3.7332    17.3143    32.1271 </r>
       <r>     3.8082    16.8911    33.3929 </r>
       <r>     3.8831    15.9747    34.5899 </r>
       <r>     3.9581    14.7334    35.6940 </r>
       <r>     4.0330    13.4056    36.6985 </r>
       <r>     4.1079    12.1980    37.6126 </r>
       <r>     4.1829    11.1969    38.4516 </r>
       <r>     4.2578    10.3513    39.2273 </r>
       <r>     4.3327     9.5370    39.9419 </r>
       <r>     4.4077     8.6544    40.5904 </r>
       <r>     4.4826     7.6902    41.1667 </r>
       <r>     4.5575     6.7194    41.6702 </r>
       <r>     4.6325     5.8664    42.1098 </r>
       <r>     4.7074     5.2671    42.5045 </r>
       <r>     4.7823     5.0547    42.8833 </r>
       <r>     4.8573     5.3624    43.2851 </r>
       <r>     4.9322     6.3125    43.7581 </r>
       <r>     5.0071     7.9599    44.3546 </r>
       <r>     5.0821    10.2026    45.1191 </r>
       <r>     5.1570    12.7248    46.0727 </r>
       <r>     5.2319    15.0623    47.2013 </r>
       <r>     5.3069    16.8114    48.4611 </r>
       <r>     5.3818    17.8747    49.8005 </r>
       <r>     5.4567    18.5519    51.1907 </r>
       <r>     5.5317    19.3498    52.6407 </r>
       <r>     5.6066    20.5800    54.1828 </r>
       <r>     5.6815    22.0126    55.8323 </r>
       <r>     5.7565    22.8749    57.5465 </r>
       <r>     5.8314    22.2663    59.2150 </r>
       <r>     5.9064    19.7389    60.6941 </r>
       <r>     5.9813    15.6343    61.8657 </r>
       <r>     6.0562    10.9312    62.6848 </r>
       <r>     6.1312     6.7261    63.1888 </r>
       <r>     6.2061     3.7229    63.4678 </r>
       <r>     6.2810     2.0428    63.6208 </r>
       <r>     6.3560     1.3781    63.7241 </r>
       <r>     6.4309     1.2883    63.8207 </r>
       <r>     6.5058     1.4211    63.9271 </r>
       <r>     6.5808     1.5801    64.0455 </r>
       <r>     6.6557     1.6895    64.1721 </r>
       <r>     6.7306     1.7361    64.3022 </r>
       <r>     6.8056     1.7328    64.4321 </r>
       <r>     6.8805     1.7029    64.5597 </r>
       <r>     6.9554     1.6731    64.6851 </r>
       <r>     7.0304     1.6641    64.8098 </r>
       <r>     7.1053     1.6825    64.9358 </r>
       <r>     7.1802     1.7186    65.0646 </r>
       <r>     7.2552     1.7534    65.1960 </r>
       <r>     7.3301     1.7706    65.3287 </r>
       <r>     7.4050     1.7651    65.4610 </r>
       <r>     7.4800     1.7427    65.5915 </r>
       <r>     7.5549     1.7134    65.7199 </r>
       <r>     7.6298     1.6864    65.8463 </r>
       <r>     7.7048     1.6688    65.9714 </r>
       <r>     7.7797     1.6658    66.0962 </r>
       <r>     7.8547     1.6789    66.2220 </r>
       <r>     7.9296     1.7023    66.3496 </r>
       <r>     8.0045     1.7245    66.4788 </r>
       <r>     8.0795     1.7332    66.6087 </r>
       <r>     8.1544     1.7217    66.7377 </r>
       <r>     8.2293     1.6910    66.8644 </r>
       <r>     8.3043     1.6482    66.9879 </r>
       <r>     8.3792     1.6054    67.1082 </r>
       <r>     8.4541     1.5769    67.2264 </r>
       <r>     8.5291     1.5740    67.3443 </r>
       <r>     8.6040     1.5983    67.4641 </r>
       <r>     8.6789     1.6380    67.5868 </r>
       <r>     8.7539     1.6727    67.7122 </r>
       <r>     8.8288     1.6852    67.8384 </r>
       <r>     8.9037     1.6699    67.9636 </r>
       <r>     8.9787     1.6335    68.0860 </r>
       <r>     9.0536     1.5895    68.2051 </r>
       <r>     9.1285     1.5525    68.3214 </r>
       <r>     9.2035     1.5346    68.4364 </r>
       <r>     9.2784     1.5409    68.5519 </r>
       <r>     9.3533     1.5662    68.6692 </r>
       <r>     9.4283     1.5955    68.7888 </r>
       <r>     9.5032     1.6123    68.9096 </r>
       <r>     9.5781     1.6082    69.0301 </r>
       <r>     9.6531     1.5855    69.1489 </r>
       <r>     9.7280     1.5521    69.2652 </r>
       <r>     9.8030     1.5142    69.3787 </r>
       <r>     9.8779     1.4743    69.4892 </r>
       <r>     9.9528     1.4345    69.5967 </r>
       <r>    10.0278     1.3984    69.7015 </r>
       <r>    10.1027     1.3702    69.8041 </r>
       <r>    10.1776     1.3511    69.9054 </r>
       <r>    10.2526     1.3384    70.0057 </r>
       <r>    10.3275     1.3268    70.1051 </r>
       <r>    10.4024     1.3107    70.2033 </r>
       <r>    10.4774     1.2869    70.2998 </r>
       <r>    10.5523     1.2549    70.3938 </r>
       <r>    10.6272     1.2174    70.4850 </r>
       <r>    10.7022     1.1798    70.5734 </r>
       <r>    10.7771     1.1489    70.6595 </r>
       <r>    10.8520     1.1325    70.7444 </r>
       <r>    10.9270     1.1407    70.8299 </r>
       <r>    11.0019     1.1852    70.9187 </r>
       <r>    11.0768     1.2746    71.0142 </r>
       <r>    11.1518     1.4087    71.1197 </r>
       <r>    11.2267     1.5731    71.2376 </r>
       <r>    11.3016     1.7417    71.3681 </r>
       <r>    11.3766     1.8858    71.5094 </r>
       <r>    11.4515     1.9858    71.6583 </r>
       <r>    11.5264     2.0371    71.8109 </r>
       <r>    11.6014     2.0483    71.9644 </r>
       <r>    11.6763     2.0350    72.1169 </r>
       <r>    11.7513     2.0121    72.2677 </r>
       <r>    11.8262     1.9885    72.4167 </r>
       <r>    11.9011     1.9643    72.5639 </r>
       <r>    11.9761     1.9349    72.7088 </r>
       <r>    12.0510     1.8981    72.8511 </r>
       <r>    12.1259     1.8608    72.9905 </r>
       <r>    12.2009     1.8358    73.1281 </r>
       <r>    12.2758     1.8325    73.2654 </r>
       <r>    12.3507     1.8477    73.4039 </r>
       <r>    12.4257     1.8675    73.5438 </r>
       <r>    12.5006     1.8768    73.6844 </r>
       <r>    12.5755     1.8687    73.8245 </r>
       <r>    12.6505     1.8454    73.9627 </r>
       <r>    12.7254     1.8126    74.0986 </r>
       <r>    12.8003     1.7752    74.2316 </r>
       <r>    12.8753     1.7383    74.3619 </r>
       <r>    12.9502     1.7084    74.4899 </r>
       <r>    13.0251     1.6897    74.6165 </r>
       <r>    13.1001     1.6800    74.7424 </r>
       <r>    13.1750     1.6703    74.8675 </r>
       <r>    13.2499     1.6516    74.9913 </r>
       <r>    13.3249     1.6239    75.1130 </r>
       <r>    13.3998     1.5991    75.2328 </r>
       <r>    13.4747     1.5939    75.3523 </r>
       <r>    13.5497     1.6183    75.4735 </r>
       <r>    13.6246     1.6677    75.5985 </r>
       <r>    13.6996     1.7256    75.7278 </r>
       <r>    13.7745     1.7737    75.8607 </r>
       <r>    13.8494     1.8027    75.9958 </r>
       <r>    13.9244     1.8140    76.1317 </r>
       <r>    13.9993     1.8154    76.2678 </r>
       <r>    14.0742     1.8153    76.4038 </r>
       <r>    14.1492     1.8220    76.5403 </r>
       <r>    14.2241     1.8436    76.6785 </r>
       <r>    14.2990     1.8866    76.8198 </r>
       <r>    14.3740     1.9501    76.9660 </r>
       <r>    14.4489     2.0222    77.1175 </r>
       <r>    14.5238     2.0815    77.2735 </r>
       <r>    14.5988     2.1054    77.4313 </r>
       <r>    14.6737     2.0801    77.5871 </r>
       <r>    14.7486     2.0088    77.7377 </r>
       <r>    14.8236     1.9116    77.8809 </r>
       <r>    14.8985     1.8177    78.0171 </r>
       <r>    14.9734     1.7523    78.1484 </r>
       <r>    15.0484     1.7242    78.2776 </r>
       <r>    15.1233     1.7213    78.4066 </r>
       <r>    15.1982     1.7178    78.5353 </r>
       <r>    15.2732     1.6894    78.6619 </r>
       <r>    15.3481     1.6286    78.7840 </r>
       <r>    15.4230     1.5475    78.8999 </r>
       <r>    15.4980     1.4699    79.0101 </r>
       <r>    15.5729     1.4178    79.1163 </r>
       <r>    15.6479     1.4045    79.2216 </r>
       <r>    15.7228     1.4333    79.3290 </r>
       <r>    15.7977     1.4932    79.4409 </r>
       <r>    15.8727     1.5531    79.5572 </r>
       <r>    15.9476     1.5615    79.6742 </r>
       <r>    16.0225     1.4655    79.7841 </r>
       <r>    16.0975     1.2421    79.8771 </r>
       <r>    16.1724     0.9199    79.9461 </r>
       <r>    16.2473     0.5702    79.9888 </r>
       <r>    16.3223     0.2712    80.0091 </r>
       <r>    16.3972     0.0702    80.0144 </r>
       <r>    16.4721    -0.0297    80.0122 </r>
       <r>    16.5471    -0.0573    80.0079 </r>
       <r>    16.6220    -0.0486    80.0042 </r>
       <r>    16.6969    -0.0305    80.0019 </r>
       <r>    16.7719    -0.0156    80.0008 </r>
       <r>    16.8468    -0.0067    80.0003 </r>
       <r>    16.9217    -0.0025    80.0001 </r>
       <r>    16.9967    -0.0008    80.0000 </r>
       <r>    17.0716    -0.0002    80.0000 </r>
       <r>    17.1465    -0.0001    80.0000 </r>
       <r>    17.2215     0.0000    80.0000 </r>
       <r>    17.2964     0.0000    80.0000 </r>
       <r>    17.3713     0.0000    80.0000 </r>
       <r>    17.4463     0.0000    80.0000 </r>
       <r>    17.5212     0.0000    80.0000 </r>
       <r>    17.5962     0.0000    80.0000 </r>
       <r>    17.6711     0.0000    80.0000 </r>
       <r>    17.7460     0.0000    80.0000 </r>
       <r>    17.8210     0.0000    80.0000 </r>
       <r>    17.8959     0.0000    80.0000 </r>
       <r>    17.9708     0.0000    80.0000 </r>
       <r>    18.0458     0.0000    80.0000 </r>
       <r>    18.1207     0.0000    80.0000 </r>
       <r>    18.1956     0.0000    80.0000 </r>
       <r>    18.2706     0.0000    80.0000 </r>
       <r>    18.3455     0.0000    80.0000 </r>
       <r>    18.4204     0.0000    80.0000 </r>
       <r>    18.4954     0.0000    80.0000 </r>
       <r>    18.5703     0.0000    80.0000 </r>
       <r>    18.6452     0.0000    80.0000 </r>
       <r>    18.7202     0.0000    80.0000 </r>
       <r>    18.7951     0.0000    80.0000 </r>
       <r>    18.8700     0.0000    80.0000 </r>
       <r>    18.9450     0.0000    80.0000 </r>
       <r>    19.0199     0.0000    80.0000 </r>
       <r>    19.0948     0.0000    80.0000 </r>
       <r>    19.1698     0.0000    80.0000 </r>
       <r>    19.2447     0.0000    80.0000 </r>
      </set>
     </set>
    </array>
   </total>
  </dos>
 </calculation>
 <structure name="finalpos" >
  <crystal>
   <varray name="basis" >
    <v>       3.98358523       0.00000000       0.00000000 </v>
    <v>      -1.99179261      -3.96376158      -2.02345418 </v>
    <v>       0.00000000       3.96283833      -4.04520264 </v>
   </varray>
   <i name="volume">     95.81654054 </i>
   <varray name="rec_basis" >
    <v>       0.25103015      -0.08408991      -0.08237776 </v>
    <v>       0.00000000      -0.16817983      -0.16475552 </v>
    <v>       0.00000000       0.08412537      -0.16479391 </v>
   </varray>
  </crystal>
  <varray name="positions" >
   <v>       0.00557147       0.01114294       0.50941598 </v>
   <v>       0.66109519       0.32219039       0.82391736 </v>
   <v>       0.00131501       0.00263003       0.99189662 </v>
   <v>       0.33333333       0.66666667       0.16666667 </v>
   <v>       0.66535165       0.33070331       0.34143671 </v>
   <v>       0.33333333       0.66666667       0.66666667 </v>
  </varray>
 </structure>
</modeling>
