<?xml version="1.0" encoding="ISO-8859-1"?>
<modeling>
 <generator>
  <i name="program" type="string">vasp </i>
  <i name="version" type="string">5.3.5  </i>
  <i name="subversion" type="string">31Mar14 (build Jun 20 2014 13:15:13) complex                          parallel </i>
  <i name="platform" type="string">LinuxIFC </i>
  <i name="date" type="string">2025 12 16 </i>
  <i name="time" type="string">17:34:11 </i>
 </generator>
 <incar>
  <i type="string" name="PREC">accurate</i>
  <i type="int" name="IALGO">    68</i>
  <i type="logical" name="ADDGRID"> T  </i>
  <i type="int" name="NELM">   100</i>
  <i type="int" name="NELMIN">     4</i>
  <i type="int" name="IBRION">     2</i>
  <i name="EDIFF">      0.00000100</i>
  <i name="EDIFFG">     -0.02000000</i>
  <i type="int" name="NSW">    30</i>
  <i type="int" name="ISIF">     3</i>
  <i name="ENCUT">    600.00000000</i>
  <i type="logical" name="LREAL"> F  </i>
  <i type="int" name="ISMEAR">     0</i>
  <i name="SIGMA">      0.10000000</i>
  <i type="logical" name="LWAVE"> F  </i>
  <i type="logical" name="LCHARG"> F  </i>
  <i type="int" name="NELM">   100</i>
 </incar>
 <kpoints>
  <generation param="Auto">
   <i name="subdivisionlength">     20.00000000 </i>
   <v type="int" name="divisions">       3        6        3 </v>
   <v name="usershift">      0.00000000       0.00000000       0.00000000 </v>
   <v name="genvec1">      0.33333333       0.00000000       0.00000000 </v>
   <v name="genvec2">      0.00000000       0.16666667       0.00000000 </v>
   <v name="genvec3">      0.00000000       0.00000000       0.33333333 </v>
   <v name="shift">      0.00000000       0.00000000       0.00000000 </v>
  </generation>
  <varray name="kpointlist" >
   <v>       0.00000000       0.00000000       0.00000000 </v>
   <v>       0.33333333       0.00000000       0.00000000 </v>
   <v>       0.00000000       0.16666667       0.00000000 </v>
   <v>       0.33333333       0.16666667       0.00000000 </v>
   <v>       0.00000000       0.33333333       0.00000000 </v>
   <v>       0.33333333       0.33333333       0.00000000 </v>
   <v>       0.00000000       0.50000000       0.00000000 </v>
   <v>       0.33333333       0.50000000       0.00000000 </v>
   <v>       0.00000000       0.00000000       0.33333333 </v>
   <v>       0.33333333       0.00000000       0.33333333 </v>
   <v>      -0.33333333       0.00000000       0.33333333 </v>
   <v>       0.00000000       0.16666667       0.33333333 </v>
   <v>       0.33333333       0.16666667       0.33333333 </v>
   <v>      -0.33333333       0.16666667       0.33333333 </v>
   <v>       0.00000000       0.33333333       0.33333333 </v>
   <v>       0.33333333       0.33333333       0.33333333 </v>
   <v>      -0.33333333       0.33333333       0.33333333 </v>
   <v>       0.00000000       0.50000000       0.33333333 </v>
   <v>       0.33333333       0.50000000       0.33333333 </v>
   <v>      -0.33333333       0.50000000       0.33333333 </v>
  </varray>
  <varray name="weights" >
   <v>       0.01851852 </v>
   <v>       0.03703704 </v>
   <v>       0.03703704 </v>
   <v>       0.07407407 </v>
   <v>       0.03703704 </v>
   <v>       0.07407407 </v>
   <v>       0.01851852 </v>
   <v>       0.03703704 </v>
   <v>       0.03703704 </v>
   <v>       0.03703704 </v>
   <v>       0.03703704 </v>
   <v>       0.07407407 </v>
   <v>       0.07407407 </v>
   <v>       0.07407407 </v>
   <v>       0.07407407 </v>
   <v>       0.07407407 </v>
   <v>       0.07407407 </v>
   <v>       0.03703704 </v>
   <v>       0.03703704 </v>
   <v>       0.03703704 </v>
  </varray>
 </kpoints>
 <parameters>
  <separator name="general" >
   <i type="string" name="SYSTEM">unknown system</i>
   <i type="logical" name="LCOMPAT"> F  </i>
  </separator>
  <separator name="electronic" >
   <i type="string" name="PREC">accura</i>
   <i name="ENMAX">    600.00000000</i>
   <i name="ENAUG">    644.87300000</i>
   <i name="EDIFF">      0.00000100</i>
   <i type="int" name="IALGO">    68</i>
   <i type="int" name="IWAVPR">    11</i>
   <i type="int" name="NBANDS">    44</i>
   <i name="NELECT">     64.00000000</i>
   <i type="int" name="TURBO">     0</i>
   <i type="int" name="IRESTART">     0</i>
   <i type="int" name="NREBOOT">     0</i>
   <i type="int" name="NMIN">     0</i>
   <i name="EREF">      0.00000000</i>
   <separator name="electronic smearing" >
    <i type="int" name="ISMEAR">     0</i>
    <i name="SIGMA">      0.10000000</i>
    <i name="KSPACING">      0.50000000</i>
    <i type="logical" name="KGAMMA"> T  </i>
   </separator>
   <separator name="electronic projectors" >
    <i type="logical" name="LREAL"> F  </i>
    <v name="ROPT">      0.00000000      0.00000000      0.00000000      0.00000000</v>
    <i type="int" name="LMAXPAW">  -100</i>
    <i type="int" name="LMAXMIX">     2</i>
    <i type="logical" name="NLSPLINE"> F  </i>
   </separator>
   <separator name="electronic startup" >
    <i type="int" name="ISTART">     0</i>
    <i type="int" name="ICHARG">     2</i>
    <i type="int" name="INIWAV">     1</i>
   </separator>
   <separator name="electronic spin" >
    <i type="int" name="ISPIN">     1</i>
    <i type="logical" name="LNONCOLLINEAR"> F  </i>
    <v name="MAGMOM">      1.00000000      1.00000000      1.00000000      1.00000000      1.00000000      1.00000000      1.00000000      1.00000000      1.00000000      1.00000000      1.00000000      1.00000000      1.00000000      1.00000000      1.00000000      1.00000000</v>
    <i name="NUPDOWN">     -1.00000000</i>
    <i type="logical" name="LSORBIT"> F  </i>
    <v name="SAXIS">      0.00000000      0.00000000      1.00000000</v>
    <i type="logical" name="LSPIRAL"> F  </i>
    <v name="QSPIRAL">      0.00000000      0.00000000      0.00000000</v>
    <i type="logical" name="LZEROZ"> F  </i>
   </separator>
   <separator name="electronic exchange-correlation" >
    <i type="logical" name="LASPH"> F  </i>
    <i type="logical" name="LMETAGGA"> F  </i>
   </separator>
   <separator name="electronic convergence" >
    <i type="int" name="NELM">   100</i>
    <i type="int" name="NELMDL">     0</i>
    <i type="int" name="NELMIN">     4</i>
    <i name="ENINI">    600.00000000</i>
    <separator name="electronic convergence detail" >
     <i type="logical" name="LDIAG"> T  </i>
     <i type="logical" name="LSUBROT"> F  </i>
     <i name="WEIMIN">      0.00100000</i>
     <i name="EBREAK">      0.00000001</i>
     <i name="DEPER">      0.30000000</i>
     <i type="int" name="NRMM">     4</i>
     <i name="TIME">      0.40000000</i>
    </separator>
   </separator>
   <separator name="electronic mixer" >
    <i name="AMIX">      0.40000000</i>
    <i name="BMIX">      1.00000000</i>
    <i name="AMIN">      0.10000000</i>
    <i name="AMIX_MAG">      1.60000000</i>
    <i name="BMIX_MAG">      1.00000000</i>
    <separator name="electronic mixer details" >
     <i type="int" name="IMIX">     4</i>
     <i type="int" name="MAXMIX">   -45</i>
     <i name="WC">    100.00000000</i>
     <i type="int" name="INIMIX">     1</i>
     <i type="int" name="MIXPRE">     1</i>
     <i type="int" name="MREMOVE">     5</i>
    </separator>
   </separator>
   <separator name="electronic dipolcorrection" >
    <i type="logical" name="LDIPOL"> F  </i>
    <i type="logical" name="LMONO"> F  </i>
    <i type="int" name="IDIPOL">     0</i>
    <i name="EPSILON">      1.00000000</i>
    <v name="DIPOL">   -100.00000000   -100.00000000   -100.00000000</v>
    <i name="EFIELD">      0.00000000</i>
   </separator>
  </separator>
  <separator name="grids" >
   <i type="int" name="NGX">    60</i>
   <i type="int" name="NGY">    28</i>
   <i type="int" name="NGZ">    60</i>
   <i type="int" name="NGXF">   120</i>
   <i type="int" name="NGYF">    56</i>
   <i type="int" name="NGZF">   120</i>
   <i type="logical" name="ADDGRID"> T  </i>
  </separator>
  <separator name="ionic" >
   <i type="int" name="NSW">    30</i>
   <i type="int" name="IBRION">     2</i>
   <i type="int" name="ISIF">     3</i>
   <i name="PSTRESS">      0.00000000</i>
   <i name="EDIFFG">     -0.02000000</i>
   <i type="int" name="NFREE">     1</i>
   <i name="POTIM">      0.50000000</i>
   <i name="SMASS">     -3.00000000</i>
   <i name="SCALEE">      1.00000000</i>
  </separator>
  <separator name="ionic md" >
   <i name="TEBEG">      0.00010000</i>
   <i name="TEEND">      0.00010000</i>
   <i type="int" name="NBLOCK">     1</i>
   <i type="int" name="KBLOCK">    30</i>
   <i type="int" name="NPACO">   256</i>
   <i name="APACO">     16.00000000</i>
  </separator>
  <separator name="symmetry" >
   <i type="int" name="ISYM">     2</i>
   <i name="SYMPREC">      0.00001000</i>
  </separator>
  <separator name="dos" >
   <i type="logical" name="LORBIT"> F  </i>
   <v name="RWIGS">     -1.00000000     -1.00000000     -1.00000000     -1.00000000</v>
   <i type="int" name="NEDOS">   301</i>
   <i name="EMIN">     10.00000000</i>
   <i name="EMAX">    -10.00000000</i>
   <i name="EFERMI">      0.00000000</i>
  </separator>
  <separator name="writing" >
   <i type="int" name="NWRITE">     2</i>
   <i type="logical" name="LWAVE"> F  </i>
   <i type="logical" name="LCHARG"> F  </i>
   <i type="logical" name="LPARD"> F  </i>
   <i type="logical" name="LVTOT"> F  </i>
   <i type="logical" name="LVHAR"> F  </i>
   <i type="logical" name="LELF"> F  </i>
   <i type="logical" name="LOPTICS"> F  </i>
   <v name="STM">      0.00000000      0.00000000      0.00000000      0.00000000      0.00000000      0.00000000      0.00000000</v>
  </separator>
  <separator name="performance" >
   <i type="int" name="NPAR">     4</i>
   <i type="int" name="NSIM">     4</i>
   <i type="int" name="NBLK">    -1</i>
   <i type="logical" name="LPLANE"> T  </i>
   <i type="logical" name="LSCALAPACK"> T  </i>
   <i type="logical" name="LSCAAWARE"> F  </i>
   <i type="logical" name="LSCALU"> F  </i>
   <i type="logical" name="LASYNC"> F  </i>
   <i type="logical" name="LORBITALREAL"> F  </i>
  </separator>
  <separator name="miscellaneous" >
   <i type="int" name="IDIOT">     3</i>
   <i type="logical" name="LMUSIC"> F  </i>
   <v name="POMASS">     28.08500000     26.98100000     12.01100000     14.00100000</v>
   <v name="DARWINR">      0.00000000      0.00000000      0.00000000      0.00000000</v>
   <v name="DARWINV">      1.00000000      1.00000000      1.00000000      1.00000000</v>
   <i type="logical" name="LCORR"> T  </i>
  </separator>
  <i type="logical" name="GGA_COMPAT"> T  </i>
  <i type="logical" name="LBERRY"> F  </i>
  <i type="int" name="ICORELEVEL">     0</i>
  <i type="logical" name="LDAU"> F  </i>
  <i type="int" name="I_CONSTRAINED_M">     0</i>
  <separator name="electronic exchange-correlation" >
   <i type="string" name="GGA">--</i>
   <i type="int" name="VOSKOWN">     0</i>
   <i type="logical" name="LHFCALC"> F  </i>
   <i type="string" name="PRECFOCK"></i>
   <i type="logical" name="LSYMGRAD"> F  </i>
   <i type="logical" name="LHFONE"> F  </i>
   <i type="logical" name="LRHFCALC"> F  </i>
   <i type="logical" name="LTHOMAS"> F  </i>
   <i type="logical" name="LMODELHF"> F  </i>
   <i name="ENCUT4O">     -1.00000000</i>
   <i type="int" name="EXXOEP">     0</i>
   <i type="int" name="FOURORBIT">     0</i>
   <i name="AEXX">      0.00000000</i>
   <i name="HFALPHA">      0.00000000</i>
   <i name="MCALPHA">      0.00000000</i>
   <i name="ALDAX">      1.00000000</i>
   <i name="AGGAX">      1.00000000</i>
   <i name="ALDAC">      1.00000000</i>
   <i name="AGGAC">      1.00000000</i>
   <i type="int" name="NKREDX">     1</i>
   <i type="int" name="NKREDY">     1</i>
   <i type="int" name="NKREDZ">     1</i>
   <i type="logical" name="SHIFTRED"> F  </i>
   <i type="logical" name="ODDONLY"> F  </i>
   <i type="logical" name="EVENONLY"> F  </i>
   <i type="int" name="LMAXFOCK">     0</i>
   <i type="int" name="NMAXFOCKAE">     0</i>
   <i type="logical" name="LFOCKAEDFT"> F  </i>
   <i name="HFSCREEN">      0.00000000</i>
   <i name="HFSCREENC">      0.00000000</i>
   <i type="int" name="NBANDSGWLOW">     0</i>
  </separator>
  <separator name="vdW DFT" >
   <i type="logical" name="LUSE_VDW"> F  </i>
   <i name="Zab_VDW">     -0.84910000</i>
   <i name="PARAM1">      0.12340000</i>
   <i name="PARAM2">      1.00000000</i>
   <i name="PARAM3">      0.00000000</i>
  </separator>
  <separator name="model GW" >
   <i type="int" name="MODEL_GW">     0</i>
   <i name="MODEL_EPS0">      6.40430120</i>
   <i name="MODEL_ALPHA">      1.00000000</i>
  </separator>
  <separator name="linear response parameters" >
   <i type="logical" name="LEPSILON"> F  </i>
   <i type="logical" name="LRPA"> F  </i>
   <i type="logical" name="LNABLA"> F  </i>
   <i type="logical" name="LVEL"> F  </i>
   <i type="int" name="KINTER">     0</i>
   <i name="CSHIFT">      0.10000000</i>
   <i name="OMEGAMAX">     -1.00000000</i>
   <i name="DEG_THRESHOLD">      0.00200000</i>
  </separator>
  <separator name="orbital magnetization" >
   <i type="logical" name="NUCIND"> F  </i>
   <v name="MAGPOS">      0.00000000      0.00000000      0.00000000</v>
   <i type="logical" name="LNICSALL"> T  </i>
   <i type="logical" name="ORBITALMAG"> F  </i>
   <i type="logical" name="LMAGBLOCH"> F  </i>
   <i type="logical" name="LCHIMAG"> F  </i>
   <i type="logical" name="LGAUGE"> T  </i>
   <i type="int" name="MAGATOM">     0</i>
   <v name="MAGDIPOL">      0.00000000      0.00000000      0.00000000</v>
   <v name="AVECCONST">      0.00000000      0.00000000      0.00000000</v>
  </separator>
  <separator name="response functions" >
   <i type="logical" name="LADDER"> F  </i>
   <i type="logical" name="LFXC"> F  </i>
   <i type="logical" name="LHARTREE"> T  </i>
   <i type="int" name="IBSE">     0</i>
   <i type="logical" name="LTCTE"> F  </i>
   <i type="logical" name="LTETE"> F  </i>
   <i type="logical" name="LTRIPLET"> F  </i>
   <i type="logical" name="LFXCEPS"> F  </i>
   <i type="logical" name="LFXHEG"> F  </i>
   <i type="logical" name="L2ORDER"> F  </i>
   <i type="logical" name="LUSEW"> F  </i>
   <i name="ENCUTGW">     -2.00000000</i>
   <i name="ENCUTGWSOFT">     -2.00000000</i>
   <i name="ENCUTLF">     -1.00000000</i>
   <i type="int" name="LMAXMP2">    -1</i>
   <i name="SCISSOR">      0.00000000</i>
   <i type="int" name="NOMEGA">     0</i>
   <i type="int" name="NOMEGAR">     0</i>
   <i type="int" name="NBANDSGW">    -1</i>
   <i type="int" name="NBANDSO">    -1</i>
   <i type="int" name="NBANDSV">    -1</i>
   <i type="int" name="NELM">   100</i>
   <i type="int" name="DIM">     3</i>
   <i type="int" name="ANTIRES">     0</i>
   <i name="OMEGAMAX">    -30.00000000</i>
   <i name="OMEGAMIN">    -30.00000000</i>
   <i name="OMEGATL">   -200.00000000</i>
   <i type="int" name="OMEGAGRID">     0</i>
   <i name="CSHIFT">     -0.10000000</i>
   <i type="logical" name="SELFENERGY"> F  </i>
   <i type="logical" name="LSPECTRAL"> F  </i>
   <i type="logical" name="ODDONLYGW"> F  </i>
   <i type="logical" name="EVENONLYGW"> F  </i>
   <i type="int" name="NKREDLFX">     1</i>
   <i type="int" name="NKREDLFY">     1</i>
   <i type="int" name="NKREDLFZ">     1</i>
   <i type="int" name="MAXMEM">  1800</i>
   <i type="int" name="TELESCOPE">     0</i>
   <i type="int" name="TAUPAR">     1</i>
  </separator>
  <separator name="External order field" >
   <i name="OFIELD_KAPPA">      0.00000000</i>
   <v name="OFIELD_K">      0.00000000      0.00000000      0.00000000</v>
   <i name="OFIELD_Q6_NEAR">      0.00000000</i>
   <i name="OFIELD_Q6_FAR">      0.00000000</i>
   <i name="OFIELD_A">      0.00000000</i>
  </separator>
 </parameters>
 <atominfo>
  <atoms>      16 </atoms>
  <types>       4 </types>
  <array name="atoms" >
   <dimension dim="1">ion</dimension>
   <field type="string">element</field>
   <field type="int">atomtype</field>
   <set>
    <rc><c>Si</c><c>   1</c></rc>
    <rc><c>Si</c><c>   1</c></rc>
    <rc><c>Si</c><c>   1</c></rc>
    <rc><c>Al</c><c>   2</c></rc>
    <rc><c>Al</c><c>   2</c></rc>
    <rc><c>Al</c><c>   2</c></rc>
    <rc><c>Al</c><c>   2</c></rc>
    <rc><c>Al</c><c>   2</c></rc>
    <rc><c>C </c><c>   3</c></rc>
    <rc><c>C </c><c>   3</c></rc>
    <rc><c>C </c><c>   3</c></rc>
    <rc><c>N </c><c>   4</c></rc>
    <rc><c>N </c><c>   4</c></rc>
    <rc><c>N </c><c>   4</c></rc>
    <rc><c>N </c><c>   4</c></rc>
    <rc><c>N </c><c>   4</c></rc>
   </set>
  </array>
  <array name="atomtypes" >
   <dimension dim="1">type</dimension>
   <field type="int">atomspertype</field>
   <field type="string">element</field>
   <field>mass</field>
   <field>valence</field>
   <field type="string">pseudopotential</field>
   <set>
    <rc><c>   3</c><c>Si</c><c>     28.08500000</c><c>      4.00000000</c><c>  PAW_PBE Si 05Jan2001                  </c></rc>
    <rc><c>   5</c><c>Al</c><c>     26.98100000</c><c>      3.00000000</c><c>  PAW_PBE Al 04Jan2001                  </c></rc>
    <rc><c>   3</c><c>C </c><c>     12.01100000</c><c>      4.00000000</c><c>  PAW_PBE C 08Apr2002                   </c></rc>
    <rc><c>   5</c><c>N </c><c>     14.00100000</c><c>      5.00000000</c><c>  PAW_PBE N_s 07Sep2000                 </c></rc>
   </set>
  </array>
 </atominfo>
 <structure name="initialpos" >
  <crystal>
   <varray name="basis" >
    <v>       7.43596769       0.00000000       0.03194118 </v>
    <v>       0.00000000       3.11614923       0.00000000 </v>
    <v>      -0.55546148       0.00000000       7.36790679 </v>
   </varray>
   <i name="volume">    170.78136546 </i>
   <varray name="rec_basis" >
    <v>       0.13443795       0.00000000       0.01013519 </v>
    <v>       0.00000000       0.32090889       0.00000000 </v>
    <v>      -0.00058281       0.00000000       0.13567982 </v>
   </varray>
  </crystal>
  <varray name="positions" >
   <v>       0.91833295       0.50000000       0.08634675 </v>
   <v>       0.33558251       0.50000000       0.17412187 </v>
   <v>       0.82640854       0.50000000       0.67388732 </v>
   <v>       0.15835488       0.00000000       0.83223152 </v>
   <v>       0.41039635       0.50000000       0.57553017 </v>
   <v>       0.66469974       0.00000000       0.32603506 </v>
   <v>       0.58505539       0.00000000       0.91602978 </v>
   <v>       0.08908687       0.00000000       0.41405216 </v>
   <v>       0.11108493       0.50000000       0.25866549 </v>
   <v>       0.51798020       0.50000000       0.34704051 </v>
   <v>       0.78864554       0.00000000       0.09771316 </v>
   <v>       0.35027005       0.00000000       0.02112204 </v>
   <v>       0.61184923       0.50000000       0.76345305 </v>
   <v>       0.85558662       0.00000000       0.54710768 </v>
   <v>       0.00748920       0.50000000       0.85061112 </v>
   <v>       0.26917699       0.00000000       0.61605232 </v>
  </varray>
 </structure>
 <calculation>
  <scstep>
   <time name="dav">    0.41    0.41</time>
   <time name="total">    0.46    0.47</time>
   <energy>
    <i name="alphaZ">     57.90930201 </i>
    <i name="ewald">  -2277.88815574 </i>
    <i name="hartreedc">   -401.81694552 </i>
    <i name="XCdc">    -16.01624118 </i>
    <i name="pawpsdc">   1945.63031815 </i>
    <i name="pawaedc">  -1740.71259224 </i>
    <i name="eentropy">     -0.01054670 </i>
    <i name="bandstr">    450.85213905 </i>
    <i name="atom">   2341.07853652 </i>
    <i name="e_fr_energy">    359.02581436 </i>
    <i name="e_wo_entrp">    359.03636105 </i>
    <i name="e_0_energy">    359.03108770 </i>
   </energy>
  </scstep>
  <scstep>
   <time name="dav">    0.46    0.46</time>
   <time name="total">    0.46    0.48</time>
   <energy>
    <i name="e_fr_energy">   -100.42122209 </i>
    <i name="e_wo_entrp">   -100.42122209 </i>
    <i name="e_0_energy">   -100.42122209 </i>
   </energy>
  </scstep>
  <scstep>
   <time name="dav">    0.50    0.50</time>
   <time name="total">    0.50    0.51</time>
   <energy>
    <i name="e_fr_energy">   -134.60273301 </i>
    <i name="e_wo_entrp">   -134.60273301 </i>
    <i name="e_0_energy">   -134.60273301 </i>
   </energy>
  </scstep>
  <scstep>
   <time name="dav">    0.50    0.50</time>
   <time name="total">    0.50    0.52</time>
   <energy>
    <i name="e_fr_energy">   -135.40351127 </i>
    <i name="e_wo_entrp">   -135.40351127 </i>
    <i name="e_0_energy">   -135.40351127 </i>
   </energy>
  </scstep>
  <scstep>
   <time name="dav">    0.52    0.52</time>
   <time name="total">    0.58    0.59</time>
   <energy>
    <i name="e_fr_energy">   -135.42624994 </i>
    <i name="e_wo_entrp">   -135.42624994 </i>
    <i name="e_0_energy">   -135.42624994 </i>
   </energy>
  </scstep>
  <scstep>
   <time name="diag">    0.10    0.10</time>
   <time name="diis">    0.25    0.25</time>
   <time name="orth">    0.02    0.02</time>
   <time name="total">    0.47    0.48</time>
   <energy>
    <i name="e_fr_energy">   -117.00216211 </i>
    <i name="e_wo_entrp">   -117.00216211 </i>
    <i name="e_0_energy">   -117.00216211 </i>
   </energy>
  </scstep>
  <scstep>
   <time name="diag">    0.10    0.10</time>
   <time name="diis">    0.27    0.27</time>
   <time name="orth">    0.02    0.02</time>
   <time name="total">    0.49    0.50</time>
   <energy>
    <i name="e_fr_energy">   -116.90662641 </i>
    <i name="e_wo_entrp">   -116.90662641 </i>
    <i name="e_0_energy">   -116.90662641 </i>
   </energy>
  </scstep>
  <scstep>
   <time name="diag">    0.10    0.10</time>
   <time name="diis">    0.25    0.25</time>
   <time name="orth">    0.02    0.02</time>
   <time name="total">    0.47    0.48</time>
   <energy>
    <i name="e_fr_energy">   -117.64181554 </i>
    <i name="e_wo_entrp">   -117.64181554 </i>
    <i name="e_0_energy">   -117.64181554 </i>
   </energy>
  </scstep>
  <scstep>
   <time name="diag">    0.10    0.10</time>
   <time name="diis">    0.26    0.26</time>
   <time name="orth">    0.02    0.02</time>
   <time name="total">    0.48    0.49</time>
   <energy>
    <i name="e_fr_energy">   -116.76941263 </i>
    <i name="e_wo_entrp">   -116.76941263 </i>
    <i name="e_0_energy">   -116.76941263 </i>
   </energy>
  </scstep>
  <scstep>
   <time name="diag">    0.10    0.10</time>
   <time name="diis">    0.26    0.26</time>
   <time name="orth">    0.02    0.02</time>
   <time name="total">    0.48    0.49</time>
   <energy>
    <i name="e_fr_energy">   -116.77497111 </i>
    <i name="e_wo_entrp">   -116.77497111 </i>
    <i name="e_0_energy">   -116.77497111 </i>
   </energy>
  </scstep>
  <scstep>
   <time name="diag">    0.10    0.10</time>
   <time name="diis">    0.26    0.26</time>
   <time name="orth">    0.02    0.02</time>
   <time name="total">    0.47    0.48</time>
   <energy>
    <i name="e_fr_energy">   -116.77571417 </i>
    <i name="e_wo_entrp">   -116.77571417 </i>
    <i name="e_0_energy">   -116.77571417 </i>
   </energy>
  </scstep>
  <scstep>
   <time name="diag">    0.10    0.10</time>
   <time name="diis">    0.26    0.26</time>
   <time name="orth">    0.02    0.02</time>
   <time name="total">    0.48    0.49</time>
   <energy>
    <i name="e_fr_energy">   -116.77556208 </i>
    <i name="e_wo_entrp">   -116.77556208 </i>
    <i name="e_0_energy">   -116.77556208 </i>
   </energy>
  </scstep>
  <scstep>
   <time name="diag">    0.10    0.10</time>
   <time name="diis">    0.25    0.25</time>
   <time name="orth">    0.02    0.02</time>
   <time name="total">    0.47    0.48</time>
   <energy>
    <i name="e_fr_energy">   -116.77555746 </i>
    <i name="e_wo_entrp">   -116.77555746 </i>
    <i name="e_0_energy">   -116.77555746 </i>
   </energy>
  </scstep>
  <scstep>
   <time name="diag">    0.10    0.10</time>
   <time name="diis">    0.25    0.25</time>
   <time name="orth">    0.02    0.02</time>
   <time name="total">    0.47    0.48</time>
   <energy>
    <i name="e_fr_energy">   -116.77547081 </i>
    <i name="e_wo_entrp">   -116.77547081 </i>
    <i name="e_0_energy">   -116.77547081 </i>
   </energy>
  </scstep>
  <scstep>
   <time name="diag">    0.10    0.10</time>
   <time name="diis">    0.32    0.32</time>
   <time name="orth">    0.02    0.02</time>
   <time name="total">    0.53    0.55</time>
   <energy>
    <i name="e_fr_energy">   -116.77547400 </i>
    <i name="e_wo_entrp">   -116.77547400 </i>
    <i name="e_0_energy">   -116.77547400 </i>
   </energy>
  </scstep>
  <scstep>
   <time name="diag">    0.10    0.10</time>
   <time name="diis">    0.18    0.18</time>
   <time name="orth">    0.02    0.02</time>
   <time name="total">    0.34    0.35</time>
   <energy>
    <i name="alphaZ">     57.90930201 </i>
    <i name="ewald">  -2277.88815574 </i>
    <i name="hartreedc">   -516.76508042 </i>
    <i name="XCdc">     -5.99031394 </i>
    <i name="pawpsdc">  10588.84564672 </i>
    <i name="pawaedc"> -10388.88311300 </i>
    <i name="eentropy">      0.00000000 </i>
    <i name="bandstr">     84.91770358 </i>
    <i name="atom">   2341.07853652 </i>
    <i name="e_fr_energy">   -116.77547428 </i>
    <i name="e_wo_entrp">   -116.77547428 </i>
    <i name="e_0_energy">   -116.77547428 </i>
   </energy>
  </scstep>
  <structure>
   <crystal>
    <varray name="basis" >
     <v>       7.43596769       0.00000000       0.03194118 </v>
     <v>       0.00000000       3.11614923       0.00000000 </v>
     <v>      -0.55546148       0.00000000       7.36790679 </v>
    </varray>
    <i name="volume">    170.78136546 </i>
    <varray name="rec_basis" >
     <v>       0.13443795       0.00000000       0.01013519 </v>
     <v>       0.00000000       0.32090889       0.00000000 </v>
     <v>      -0.00058281       0.00000000       0.13567982 </v>
    </varray>
   </crystal>
   <varray name="positions" >
    <v>       0.91833295       0.50000000       0.08634675 </v>
    <v>       0.33558251       0.50000000       0.17412187 </v>
    <v>       0.82640854       0.50000000       0.67388732 </v>
    <v>       0.15835488       0.00000000       0.83223152 </v>
    <v>       0.41039635       0.50000000       0.57553017 </v>
    <v>       0.66469974       0.00000000       0.32603506 </v>
    <v>       0.58505539       0.00000000       0.91602978 </v>
    <v>       0.08908687       0.00000000       0.41405216 </v>
    <v>       0.11108493       0.50000000       0.25866549 </v>
    <v>       0.51798020       0.50000000       0.34704051 </v>
    <v>       0.78864554       0.00000000       0.09771316 </v>
    <v>       0.35027005       0.00000000       0.02112204 </v>
    <v>       0.61184923       0.50000000       0.76345305 </v>
    <v>       0.85558662       0.00000000       0.54710768 </v>
    <v>       0.00748920       0.50000000       0.85061112 </v>
    <v>       0.26917699       0.00000000       0.61605232 </v>
   </varray>
  </structure>
  <varray name="forces" >
   <v>       0.00055865       0.00000000      -0.01322259 </v>
   <v>       0.00045637       0.00000000       0.00124596 </v>
   <v>      -0.00750701       0.00000000      -0.00117254 </v>
   <v>       0.00671718       0.00000000      -0.00508029 </v>
   <v>      -0.00084722       0.00000000      -0.00774566 </v>
   <v>       0.01162730       0.00000000       0.00272528 </v>
   <v>      -0.00768480       0.00000000       0.00705753 </v>
   <v>      -0.01099609       0.00000000      -0.00346076 </v>
   <v>      -0.00886033       0.00000000      -0.00021204 </v>
   <v>      -0.00096156       0.00000000       0.00838099 </v>
   <v>       0.01241230       0.00000000       0.00957961 </v>
   <v>       0.00152946       0.00000000      -0.00670060 </v>
   <v>       0.00475909       0.00000000       0.00112101 </v>
   <v>      -0.00552151       0.00000000       0.00171973 </v>
   <v>       0.00346911       0.00000000       0.00214532 </v>
   <v>       0.00084905       0.00000000       0.00361906 </v>
  </varray>
  <varray name="stress" >
   <v>      -0.04341597       0.00000000       0.15347745 </v>
   <v>       0.00000000      -0.12928366       0.00000000 </v>
   <v>       0.15347745       0.00000000      -0.24875461 </v>
  </varray>
  <energy>
   <i name="e_fr_energy">   -116.77547428 </i>
   <i name="e_wo_entrp">   -116.77547428 </i>
   <i name="e_0_energy">      0.00000000 </i>
  </energy>
  <time name="totalsc">    8.80    9.05</time>
  <eigenvalues>
   <array>
    <dimension dim="1">band</dimension>
    <dimension dim="2">kpoint</dimension>
    <dimension dim="3">spin</dimension>
    <field>eigene</field>
    <field>occ</field>
    <set>
     <set comment="spin 1">
      <set comment="kpoint 1">
       <r>   -9.6848    1.0000 </r>
       <r>   -8.3167    1.0000 </r>
       <r>   -7.9337    1.0000 </r>
       <r>   -7.5281    1.0000 </r>
       <r>   -7.0022    1.0000 </r>
       <r>   -4.9229    1.0000 </r>
       <r>   -3.3748    1.0000 </r>
       <r>   -3.1120    1.0000 </r>
       <r>   -0.3869    1.0000 </r>
       <r>    0.3194    1.0000 </r>
       <r>    1.4218    1.0000 </r>
       <r>    1.8192    1.0000 </r>
       <r>    2.1739    1.0000 </r>
       <r>    2.6639    1.0000 </r>
       <r>    2.8591    1.0000 </r>
       <r>    2.9157    1.0000 </r>
       <r>    2.9324    1.0000 </r>
       <r>    3.6796    1.0000 </r>
       <r>    4.1044    1.0000 </r>
       <r>    4.5463    1.0000 </r>
       <r>    4.7560    1.0000 </r>
       <r>    4.7946    1.0000 </r>
       <r>    5.0141    1.0000 </r>
       <r>    5.1576    1.0000 </r>
       <r>    5.4518    1.0000 </r>
       <r>    5.6175    1.0000 </r>
       <r>    6.0315    1.0000 </r>
       <r>    6.3249    1.0000 </r>
       <r>    6.9454    1.0000 </r>
       <r>    7.4458    1.0000 </r>
       <r>    7.9977    1.0000 </r>
       <r>    8.2624    1.0000 </r>
       <r>    9.9828    0.0000 </r>
       <r>   10.8885    0.0000 </r>
       <r>   11.5358    0.0000 </r>
       <r>   11.8018    0.0000 </r>
       <r>   12.2767    0.0000 </r>
       <r>   13.1161    0.0000 </r>
       <r>   13.1408    0.0000 </r>
       <r>   13.3291    0.0000 </r>
       <r>   14.5243    0.0000 </r>
       <r>   14.7461    0.0000 </r>
       <r>   15.3152    0.0000 </r>
       <r>   15.3970    0.0000 </r>
      </set>
      <set comment="kpoint 2">
       <r>   -9.6275    1.0000 </r>
       <r>   -8.5341    1.0000 </r>
       <r>   -7.7972    1.0000 </r>
       <r>   -7.5987    1.0000 </r>
       <r>   -6.8714    1.0000 </r>
       <r>   -4.9113    1.0000 </r>
       <r>   -3.7641    1.0000 </r>
       <r>   -2.6665    1.0000 </r>
       <r>   -0.1084    1.0000 </r>
       <r>    0.3647    1.0000 </r>
       <r>    1.0779    1.0000 </r>
       <r>    1.5501    1.0000 </r>
       <r>    1.7987    1.0000 </r>
       <r>    2.1782    1.0000 </r>
       <r>    2.8703    1.0000 </r>
       <r>    3.0266    1.0000 </r>
       <r>    3.6290    1.0000 </r>
       <r>    3.8666    1.0000 </r>
       <r>    4.0974    1.0000 </r>
       <r>    4.3015    1.0000 </r>
       <r>    4.7224    1.0000 </r>
       <r>    4.9068    1.0000 </r>
       <r>    4.9881    1.0000 </r>
       <r>    5.4296    1.0000 </r>
       <r>    5.6800    1.0000 </r>
       <r>    5.8333    1.0000 </r>
       <r>    5.9800    1.0000 </r>
       <r>    6.3276    1.0000 </r>
       <r>    6.6769    1.0000 </r>
       <r>    7.2606    1.0000 </r>
       <r>    7.8991    1.0000 </r>
       <r>    8.3677    1.0000 </r>
       <r>   10.2210    0.0000 </r>
       <r>   10.6195    0.0000 </r>
       <r>   11.5714    0.0000 </r>
       <r>   11.9669    0.0000 </r>
       <r>   12.5963    0.0000 </r>
       <r>   13.1239    0.0000 </r>
       <r>   13.3506    0.0000 </r>
       <r>   13.8831    0.0000 </r>
       <r>   14.4499    0.0000 </r>
       <r>   14.6292    0.0000 </r>
       <r>   14.9096    0.0000 </r>
       <r>   15.5792    0.0000 </r>
      </set>
      <set comment="kpoint 3">
       <r>   -9.4257    1.0000 </r>
       <r>   -8.0934    1.0000 </r>
       <r>   -7.7763    1.0000 </r>
       <r>   -7.4204    1.0000 </r>
       <r>   -6.8373    1.0000 </r>
       <r>   -4.6352    1.0000 </r>
       <r>   -3.2068    1.0000 </r>
       <r>   -2.8581    1.0000 </r>
       <r>   -0.1931    1.0000 </r>
       <r>    0.5662    1.0000 </r>
       <r>    0.9598    1.0000 </r>
       <r>    1.7672    1.0000 </r>
       <r>    1.9597    1.0000 </r>
       <r>    2.2463    1.0000 </r>
       <r>    2.5219    1.0000 </r>
       <r>    2.7937    1.0000 </r>
       <r>    3.0615    1.0000 </r>
       <r>    3.5026    1.0000 </r>
       <r>    3.6777    1.0000 </r>
       <r>    3.9862    1.0000 </r>
       <r>    4.3377    1.0000 </r>
       <r>    4.4293    1.0000 </r>
       <r>    4.7669    1.0000 </r>
       <r>    4.8673    1.0000 </r>
       <r>    5.0963    1.0000 </r>
       <r>    5.3980    1.0000 </r>
       <r>    5.5819    1.0000 </r>
       <r>    6.0711    1.0000 </r>
       <r>    6.6846    1.0000 </r>
       <r>    6.9593    1.0000 </r>
       <r>    7.0011    1.0000 </r>
       <r>    7.4662    1.0000 </r>
       <r>   11.2252    0.0000 </r>
       <r>   11.4695    0.0000 </r>
       <r>   12.1286    0.0000 </r>
       <r>   12.4991    0.0000 </r>
       <r>   12.6191    0.0000 </r>
       <r>   13.1669    0.0000 </r>
       <r>   13.4601    0.0000 </r>
       <r>   13.8491    0.0000 </r>
       <r>   14.2643    0.0000 </r>
       <r>   14.8390    0.0000 </r>
       <r>   15.1666    0.0000 </r>
       <r>   15.3944    0.0000 </r>
      </set>
      <set comment="kpoint 4">
       <r>   -9.3721    1.0000 </r>
       <r>   -8.3010    1.0000 </r>
       <r>   -7.6615    1.0000 </r>
       <r>   -7.4581    1.0000 </r>
       <r>   -6.7315    1.0000 </r>
       <r>   -4.6170    1.0000 </r>
       <r>   -3.5613    1.0000 </r>
       <r>   -2.4487    1.0000 </r>
       <r>   -0.0336    1.0000 </r>
       <r>    0.5891    1.0000 </r>
       <r>    1.0126    1.0000 </r>
       <r>    1.5271    1.0000 </r>
       <r>    1.6939    1.0000 </r>
       <r>    1.9350    1.0000 </r>
       <r>    2.4710    1.0000 </r>
       <r>    2.8832    1.0000 </r>
       <r>    3.3743    1.0000 </r>
       <r>    3.4629    1.0000 </r>
       <r>    3.7357    1.0000 </r>
       <r>    4.0324    1.0000 </r>
       <r>    4.0886    1.0000 </r>
       <r>    4.2773    1.0000 </r>
       <r>    4.6855    1.0000 </r>
       <r>    4.8679    1.0000 </r>
       <r>    5.2334    1.0000 </r>
       <r>    5.6905    1.0000 </r>
       <r>    5.8766    1.0000 </r>
       <r>    5.9777    1.0000 </r>
       <r>    6.4419    1.0000 </r>
       <r>    7.0360    1.0000 </r>
       <r>    7.2239    1.0000 </r>
       <r>    7.4962    1.0000 </r>
       <r>   11.3233    0.0000 </r>
       <r>   11.5639    0.0000 </r>
       <r>   12.0370    0.0000 </r>
       <r>   12.6108    0.0000 </r>
       <r>   12.7669    0.0000 </r>
       <r>   13.3645    0.0000 </r>
       <r>   13.6082    0.0000 </r>
       <r>   13.8278    0.0000 </r>
       <r>   14.3437    0.0000 </r>
       <r>   14.5450    0.0000 </r>
       <r>   14.7728    0.0000 </r>
       <r>   15.3139    0.0000 </r>
      </set>
      <set comment="kpoint 5">
       <r>   -8.7362    1.0000 </r>
       <r>   -7.6101    1.0000 </r>
       <r>   -7.4142    1.0000 </r>
       <r>   -7.2705    1.0000 </r>
       <r>   -6.4625    1.0000 </r>
       <r>   -3.9132    1.0000 </r>
       <r>   -2.8527    1.0000 </r>
       <r>   -2.2417    1.0000 </r>
       <r>   -0.7977    1.0000 </r>
       <r>    0.6282    1.0000 </r>
       <r>    0.8026    1.0000 </r>
       <r>    0.9930    1.0000 </r>
       <r>    1.2131    1.0000 </r>
       <r>    1.3725    1.0000 </r>
       <r>    1.7122    1.0000 </r>
       <r>    2.7120    1.0000 </r>
       <r>    2.9465    1.0000 </r>
       <r>    3.1857    1.0000 </r>
       <r>    3.3883    1.0000 </r>
       <r>    3.6532    1.0000 </r>
       <r>    3.7839    1.0000 </r>
       <r>    3.9226    1.0000 </r>
       <r>    4.2747    1.0000 </r>
       <r>    4.6534    1.0000 </r>
       <r>    4.8524    1.0000 </r>
       <r>    5.1588    1.0000 </r>
       <r>    5.3629    1.0000 </r>
       <r>    5.6538    1.0000 </r>
       <r>    5.8394    1.0000 </r>
       <r>    6.0618    1.0000 </r>
       <r>    6.6494    1.0000 </r>
       <r>    6.9939    1.0000 </r>
       <r>   10.7743    0.0000 </r>
       <r>   11.5085    0.0000 </r>
       <r>   11.7735    0.0000 </r>
       <r>   11.9092    0.0000 </r>
       <r>   12.3934    0.0000 </r>
       <r>   13.1569    0.0000 </r>
       <r>   13.2623    0.0000 </r>
       <r>   14.0920    0.0000 </r>
       <r>   14.1168    0.0000 </r>
       <r>   14.5010    0.0000 </r>
       <r>   15.0257    0.0000 </r>
       <r>   15.3841    0.0000 </r>
      </set>
      <set comment="kpoint 6">
       <r>   -8.6967    1.0000 </r>
       <r>   -7.7222    1.0000 </r>
       <r>   -7.4730    1.0000 </r>
       <r>   -7.1692    1.0000 </r>
       <r>   -6.4258    1.0000 </r>
       <r>   -3.8626    1.0000 </r>
       <r>   -3.0990    1.0000 </r>
       <r>   -2.0161    1.0000 </r>
       <r>   -0.7782    1.0000 </r>
       <r>    0.5023    1.0000 </r>
       <r>    0.7978    1.0000 </r>
       <r>    0.9536    1.0000 </r>
       <r>    1.4176    1.0000 </r>
       <r>    1.7219    1.0000 </r>
       <r>    2.0695    1.0000 </r>
       <r>    2.2248    1.0000 </r>
       <r>    2.7270    1.0000 </r>
       <r>    2.9839    1.0000 </r>
       <r>    3.3460    1.0000 </r>
       <r>    3.4666    1.0000 </r>
       <r>    3.7956    1.0000 </r>
       <r>    4.0299    1.0000 </r>
       <r>    4.1667    1.0000 </r>
       <r>    4.3761    1.0000 </r>
       <r>    4.8576    1.0000 </r>
       <r>    5.0691    1.0000 </r>
       <r>    5.5105    1.0000 </r>
       <r>    5.7091    1.0000 </r>
       <r>    6.0098    1.0000 </r>
       <r>    6.2315    1.0000 </r>
       <r>    6.6159    1.0000 </r>
       <r>    7.2003    1.0000 </r>
       <r>   11.2484    0.0000 </r>
       <r>   11.4075    0.0000 </r>
       <r>   11.8327    0.0000 </r>
       <r>   12.0702    0.0000 </r>
       <r>   12.5918    0.0000 </r>
       <r>   13.0355    0.0000 </r>
       <r>   13.3343    0.0000 </r>
       <r>   13.9408    0.0000 </r>
       <r>   14.0410    0.0000 </r>
       <r>   14.4909    0.0000 </r>
       <r>   14.6375    0.0000 </r>
       <r>   14.8464    0.0000 </r>
      </set>
      <set comment="kpoint 7">
       <r>   -8.0920    1.0000 </r>
       <r>   -7.6642    1.0000 </r>
       <r>   -7.1888    1.0000 </r>
       <r>   -7.1231    1.0000 </r>
       <r>   -6.2429    1.0000 </r>
       <r>   -3.5001    1.0000 </r>
       <r>   -2.4821    1.0000 </r>
       <r>   -1.9599    1.0000 </r>
       <r>   -1.3983    1.0000 </r>
       <r>   -0.0261    1.0000 </r>
       <r>    0.4722    1.0000 </r>
       <r>    0.6082    1.0000 </r>
       <r>    0.7580    1.0000 </r>
       <r>    1.4462    1.0000 </r>
       <r>    1.9636    1.0000 </r>
       <r>    2.1011    1.0000 </r>
       <r>    2.8117    1.0000 </r>
       <r>    2.9700    1.0000 </r>
       <r>    3.1407    1.0000 </r>
       <r>    3.4632    1.0000 </r>
       <r>    3.6548    1.0000 </r>
       <r>    4.0068    1.0000 </r>
       <r>    4.3732    1.0000 </r>
       <r>    4.8459    1.0000 </r>
       <r>    4.9058    1.0000 </r>
       <r>    4.9184    1.0000 </r>
       <r>    5.0596    1.0000 </r>
       <r>    5.4808    1.0000 </r>
       <r>    5.7714    1.0000 </r>
       <r>    6.2331    1.0000 </r>
       <r>    6.4639    1.0000 </r>
       <r>    6.4895    1.0000 </r>
       <r>   10.8896    0.0000 </r>
       <r>   11.0442    0.0000 </r>
       <r>   11.2412    0.0000 </r>
       <r>   11.4736    0.0000 </r>
       <r>   11.6948    0.0000 </r>
       <r>   11.9529    0.0000 </r>
       <r>   13.5496    0.0000 </r>
       <r>   13.7162    0.0000 </r>
       <r>   14.1037    0.0000 </r>
       <r>   14.5849    0.0000 </r>
       <r>   14.8952    0.0000 </r>
       <r>   15.2554    0.0000 </r>
      </set>
      <set comment="kpoint 8">
       <r>   -8.0799    1.0000 </r>
       <r>   -7.6554    1.0000 </r>
       <r>   -7.2092    1.0000 </r>
       <r>   -7.1284    1.0000 </r>
       <r>   -6.2505    1.0000 </r>
       <r>   -3.4484    1.0000 </r>
       <r>   -2.5151    1.0000 </r>
       <r>   -2.0779    1.0000 </r>
       <r>   -1.4149    1.0000 </r>
       <r>    0.0475    1.0000 </r>
       <r>    0.5107    1.0000 </r>
       <r>    0.6711    1.0000 </r>
       <r>    1.1354    1.0000 </r>
       <r>    1.6171    1.0000 </r>
       <r>    1.6713    1.0000 </r>
       <r>    2.2235    1.0000 </r>
       <r>    2.6467    1.0000 </r>
       <r>    2.6609    1.0000 </r>
       <r>    3.1767    1.0000 </r>
       <r>    3.6652    1.0000 </r>
       <r>    3.8500    1.0000 </r>
       <r>    4.0169    1.0000 </r>
       <r>    4.1767    1.0000 </r>
       <r>    4.4669    1.0000 </r>
       <r>    4.4679    1.0000 </r>
       <r>    4.6701    1.0000 </r>
       <r>    5.4131    1.0000 </r>
       <r>    5.4733    1.0000 </r>
       <r>    5.9622    1.0000 </r>
       <r>    6.1651    1.0000 </r>
       <r>    6.5120    1.0000 </r>
       <r>    6.5579    1.0000 </r>
       <r>   11.0841    0.0000 </r>
       <r>   11.1678    0.0000 </r>
       <r>   11.6131    0.0000 </r>
       <r>   11.7629    0.0000 </r>
       <r>   11.8596    0.0000 </r>
       <r>   12.7073    0.0000 </r>
       <r>   12.7712    0.0000 </r>
       <r>   13.7727    0.0000 </r>
       <r>   13.9334    0.0000 </r>
       <r>   14.2452    0.0000 </r>
       <r>   15.0099    0.0000 </r>
       <r>   15.0336    0.0000 </r>
      </set>
      <set comment="kpoint 9">
       <r>   -9.6558    1.0000 </r>
       <r>   -8.3649    1.0000 </r>
       <r>   -7.9223    1.0000 </r>
       <r>   -7.5391    1.0000 </r>
       <r>   -7.0671    1.0000 </r>
       <r>   -4.7478    1.0000 </r>
       <r>   -3.3263    1.0000 </r>
       <r>   -3.2046    1.0000 </r>
       <r>   -0.1840    1.0000 </r>
       <r>    0.5575    1.0000 </r>
       <r>    0.8709    1.0000 </r>
       <r>    1.6771    1.0000 </r>
       <r>    1.9355    1.0000 </r>
       <r>    2.1243    1.0000 </r>
       <r>    2.8702    1.0000 </r>
       <r>    2.9667    1.0000 </r>
       <r>    3.5608    1.0000 </r>
       <r>    3.8532    1.0000 </r>
       <r>    4.0966    1.0000 </r>
       <r>    4.5491    1.0000 </r>
       <r>    4.7436    1.0000 </r>
       <r>    4.8850    1.0000 </r>
       <r>    5.0043    1.0000 </r>
       <r>    5.5165    1.0000 </r>
       <r>    5.5757    1.0000 </r>
       <r>    5.7018    1.0000 </r>
       <r>    5.8827    1.0000 </r>
       <r>    6.3958    1.0000 </r>
       <r>    6.5007    1.0000 </r>
       <r>    7.3760    1.0000 </r>
       <r>    8.0042    1.0000 </r>
       <r>    8.2579    1.0000 </r>
       <r>   10.3343    0.0000 </r>
       <r>   10.7613    0.0000 </r>
       <r>   11.4417    0.0000 </r>
       <r>   11.7906    0.0000 </r>
       <r>   12.4642    0.0000 </r>
       <r>   13.2257    0.0000 </r>
       <r>   13.5165    0.0000 </r>
       <r>   13.8485    0.0000 </r>
       <r>   14.2086    0.0000 </r>
       <r>   14.7842    0.0000 </r>
       <r>   15.0089    0.0000 </r>
       <r>   15.4538    0.0000 </r>
      </set>
      <set comment="kpoint 10">
       <r>   -9.6040    1.0000 </r>
       <r>   -8.5107    1.0000 </r>
       <r>   -7.8489    1.0000 </r>
       <r>   -7.6648    1.0000 </r>
       <r>   -6.8913    1.0000 </r>
       <r>   -4.7551    1.0000 </r>
       <r>   -3.7106    1.0000 </r>
       <r>   -2.6412    1.0000 </r>
       <r>   -0.3009    1.0000 </r>
       <r>    0.3274    1.0000 </r>
       <r>    0.9466    1.0000 </r>
       <r>    1.5190    1.0000 </r>
       <r>    1.6702    1.0000 </r>
       <r>    2.5622    1.0000 </r>
       <r>    2.8795    1.0000 </r>
       <r>    3.0153    1.0000 </r>
       <r>    3.4499    1.0000 </r>
       <r>    4.0660    1.0000 </r>
       <r>    4.1074    1.0000 </r>
       <r>    4.3320    1.0000 </r>
       <r>    4.6845    1.0000 </r>
       <r>    4.6986    1.0000 </r>
       <r>    4.9575    1.0000 </r>
       <r>    5.2744    1.0000 </r>
       <r>    5.6619    1.0000 </r>
       <r>    5.8937    1.0000 </r>
       <r>    6.1689    1.0000 </r>
       <r>    6.3796    1.0000 </r>
       <r>    6.7040    1.0000 </r>
       <r>    7.4514    1.0000 </r>
       <r>    7.9175    1.0000 </r>
       <r>    8.3712    1.0000 </r>
       <r>   10.0609    0.0000 </r>
       <r>   10.9972    0.0000 </r>
       <r>   11.3538    0.0000 </r>
       <r>   12.0940    0.0000 </r>
       <r>   12.6810    0.0000 </r>
       <r>   13.3999    0.0000 </r>
       <r>   13.5946    0.0000 </r>
       <r>   13.8108    0.0000 </r>
       <r>   14.0712    0.0000 </r>
       <r>   14.5232    0.0000 </r>
       <r>   14.8342    0.0000 </r>
       <r>   15.1935    0.0000 </r>
      </set>
      <set comment="kpoint 11">
       <r>   -9.6067    1.0000 </r>
       <r>   -8.4968    1.0000 </r>
       <r>   -7.8727    1.0000 </r>
       <r>   -7.6458    1.0000 </r>
       <r>   -6.9026    1.0000 </r>
       <r>   -4.7642    1.0000 </r>
       <r>   -3.7065    1.0000 </r>
       <r>   -2.5831    1.0000 </r>
       <r>   -0.3607    1.0000 </r>
       <r>    0.2722    1.0000 </r>
       <r>    0.8452    1.0000 </r>
       <r>    1.5447    1.0000 </r>
       <r>    1.8168    1.0000 </r>
       <r>    2.7532    1.0000 </r>
       <r>    2.8789    1.0000 </r>
       <r>    2.9624    1.0000 </r>
       <r>    3.2785    1.0000 </r>
       <r>    3.8164    1.0000 </r>
       <r>    4.1114    1.0000 </r>
       <r>    4.6442    1.0000 </r>
       <r>    4.6931    1.0000 </r>
       <r>    4.7896    1.0000 </r>
       <r>    4.9604    1.0000 </r>
       <r>    5.4452    1.0000 </r>
       <r>    5.6633    1.0000 </r>
       <r>    5.7711    1.0000 </r>
       <r>    5.9766    1.0000 </r>
       <r>    6.3734    1.0000 </r>
       <r>    6.8091    1.0000 </r>
       <r>    7.2369    1.0000 </r>
       <r>    7.9148    1.0000 </r>
       <r>    8.3811    1.0000 </r>
       <r>   10.2416    0.0000 </r>
       <r>   10.8113    0.0000 </r>
       <r>   11.5089    0.0000 </r>
       <r>   12.2621    0.0000 </r>
       <r>   12.6219    0.0000 </r>
       <r>   13.2426    0.0000 </r>
       <r>   13.6114    0.0000 </r>
       <r>   13.8506    0.0000 </r>
       <r>   14.2610    0.0000 </r>
       <r>   14.5241    0.0000 </r>
       <r>   14.8895    0.0000 </r>
       <r>   15.3210    0.0000 </r>
      </set>
      <set comment="kpoint 12">
       <r>   -9.3991    1.0000 </r>
       <r>   -8.1400    1.0000 </r>
       <r>   -7.7637    1.0000 </r>
       <r>   -7.4229    1.0000 </r>
       <r>   -6.8966    1.0000 </r>
       <r>   -4.4983    1.0000 </r>
       <r>   -3.1463    1.0000 </r>
       <r>   -2.9434    1.0000 </r>
       <r>   -0.1004    1.0000 </r>
       <r>    0.7150    1.0000 </r>
       <r>    0.9967    1.0000 </r>
       <r>    1.5235    1.0000 </r>
       <r>    1.8588    1.0000 </r>
       <r>    2.0107    1.0000 </r>
       <r>    2.2833    1.0000 </r>
       <r>    2.8533    1.0000 </r>
       <r>    3.0727    1.0000 </r>
       <r>    3.5904    1.0000 </r>
       <r>    3.7266    1.0000 </r>
       <r>    4.0146    1.0000 </r>
       <r>    4.3419    1.0000 </r>
       <r>    4.4964    1.0000 </r>
       <r>    4.5840    1.0000 </r>
       <r>    4.9637    1.0000 </r>
       <r>    5.0418    1.0000 </r>
       <r>    5.5392    1.0000 </r>
       <r>    5.8625    1.0000 </r>
       <r>    6.1081    1.0000 </r>
       <r>    6.5638    1.0000 </r>
       <r>    6.9048    1.0000 </r>
       <r>    7.0824    1.0000 </r>
       <r>    7.5430    1.0000 </r>
       <r>   11.3914    0.0000 </r>
       <r>   11.7370    0.0000 </r>
       <r>   11.9979    0.0000 </r>
       <r>   12.4648    0.0000 </r>
       <r>   12.8964    0.0000 </r>
       <r>   13.3808    0.0000 </r>
       <r>   13.5680    0.0000 </r>
       <r>   13.7573    0.0000 </r>
       <r>   14.1310    0.0000 </r>
       <r>   14.3436    0.0000 </r>
       <r>   14.6285    0.0000 </r>
       <r>   15.3449    0.0000 </r>
      </set>
      <set comment="kpoint 13">
       <r>   -9.3504    1.0000 </r>
       <r>   -8.2809    1.0000 </r>
       <r>   -7.7026    1.0000 </r>
       <r>   -7.5084    1.0000 </r>
       <r>   -6.7567    1.0000 </r>
       <r>   -4.4942    1.0000 </r>
       <r>   -3.5188    1.0000 </r>
       <r>   -2.4173    1.0000 </r>
       <r>   -0.1733    1.0000 </r>
       <r>    0.5194    1.0000 </r>
       <r>    1.1106    1.0000 </r>
       <r>    1.5023    1.0000 </r>
       <r>    1.6889    1.0000 </r>
       <r>    1.9649    1.0000 </r>
       <r>    2.3776    1.0000 </r>
       <r>    2.8342    1.0000 </r>
       <r>    3.1324    1.0000 </r>
       <r>    3.4962    1.0000 </r>
       <r>    3.6608    1.0000 </r>
       <r>    3.9631    1.0000 </r>
       <r>    4.1967    1.0000 </r>
       <r>    4.4351    1.0000 </r>
       <r>    4.7416    1.0000 </r>
       <r>    4.9596    1.0000 </r>
       <r>    5.3591    1.0000 </r>
       <r>    5.4640    1.0000 </r>
       <r>    5.9187    1.0000 </r>
       <r>    6.1396    1.0000 </r>
       <r>    6.4924    1.0000 </r>
       <r>    7.0057    1.0000 </r>
       <r>    7.1956    1.0000 </r>
       <r>    7.5006    1.0000 </r>
       <r>   11.1807    0.0000 </r>
       <r>   12.0959    0.0000 </r>
       <r>   12.3142    0.0000 </r>
       <r>   12.8088    0.0000 </r>
       <r>   12.8657    0.0000 </r>
       <r>   13.4027    0.0000 </r>
       <r>   13.6969    0.0000 </r>
       <r>   13.9958    0.0000 </r>
       <r>   14.2516    0.0000 </r>
       <r>   14.2610    0.0000 </r>
       <r>   14.5477    0.0000 </r>
       <r>   15.2210    0.0000 </r>
      </set>
      <set comment="kpoint 14">
       <r>   -9.3529    1.0000 </r>
       <r>   -8.2677    1.0000 </r>
       <r>   -7.7213    1.0000 </r>
       <r>   -7.4951    1.0000 </r>
       <r>   -6.7658    1.0000 </r>
       <r>   -4.5002    1.0000 </r>
       <r>   -3.5226    1.0000 </r>
       <r>   -2.3614    1.0000 </r>
       <r>   -0.2284    1.0000 </r>
       <r>    0.4958    1.0000 </r>
       <r>    0.9828    1.0000 </r>
       <r>    1.4858    1.0000 </r>
       <r>    1.8863    1.0000 </r>
       <r>    2.0000    1.0000 </r>
       <r>    2.3989    1.0000 </r>
       <r>    2.8027    1.0000 </r>
       <r>    3.2019    1.0000 </r>
       <r>    3.4066    1.0000 </r>
       <r>    3.6875    1.0000 </r>
       <r>    3.8700    1.0000 </r>
       <r>    4.1211    1.0000 </r>
       <r>    4.4640    1.0000 </r>
       <r>    4.8226    1.0000 </r>
       <r>    5.0388    1.0000 </r>
       <r>    5.1946    1.0000 </r>
       <r>    5.7202    1.0000 </r>
       <r>    5.8090    1.0000 </r>
       <r>    6.0187    1.0000 </r>
       <r>    6.5655    1.0000 </r>
       <r>    7.1189    1.0000 </r>
       <r>    7.2054    1.0000 </r>
       <r>    7.4047    1.0000 </r>
       <r>   11.3668    0.0000 </r>
       <r>   11.8857    0.0000 </r>
       <r>   12.2825    0.0000 </r>
       <r>   12.3675    0.0000 </r>
       <r>   13.0441    0.0000 </r>
       <r>   13.4438    0.0000 </r>
       <r>   13.5039    0.0000 </r>
       <r>   13.8418    0.0000 </r>
       <r>   14.1813    0.0000 </r>
       <r>   14.4752    0.0000 </r>
       <r>   14.7729    0.0000 </r>
       <r>   15.1881    0.0000 </r>
      </set>
      <set comment="kpoint 15">
       <r>   -8.7177    1.0000 </r>
       <r>   -7.6498    1.0000 </r>
       <r>   -7.3979    1.0000 </r>
       <r>   -7.2594    1.0000 </r>
       <r>   -6.5001    1.0000 </r>
       <r>   -3.8879    1.0000 </r>
       <r>   -2.7906    1.0000 </r>
       <r>   -2.2953    1.0000 </r>
       <r>   -0.7656    1.0000 </r>
       <r>    0.4448    1.0000 </r>
       <r>    0.7486    1.0000 </r>
       <r>    1.2251    1.0000 </r>
       <r>    1.4427    1.0000 </r>
       <r>    1.6207    1.0000 </r>
       <r>    1.9292    1.0000 </r>
       <r>    2.1697    1.0000 </r>
       <r>    2.8277    1.0000 </r>
       <r>    3.0928    1.0000 </r>
       <r>    3.3853    1.0000 </r>
       <r>    3.4568    1.0000 </r>
       <r>    3.7648    1.0000 </r>
       <r>    3.9044    1.0000 </r>
       <r>    4.1231    1.0000 </r>
       <r>    4.4329    1.0000 </r>
       <r>    4.7630    1.0000 </r>
       <r>    5.1898    1.0000 </r>
       <r>    5.5184    1.0000 </r>
       <r>    5.8207    1.0000 </r>
       <r>    6.0018    1.0000 </r>
       <r>    6.1931    1.0000 </r>
       <r>    6.6521    1.0000 </r>
       <r>    7.0519    1.0000 </r>
       <r>   11.2990    0.0000 </r>
       <r>   11.4622    0.0000 </r>
       <r>   11.8279    0.0000 </r>
       <r>   12.2160    0.0000 </r>
       <r>   12.3682    0.0000 </r>
       <r>   12.9642    0.0000 </r>
       <r>   13.2735    0.0000 </r>
       <r>   13.9353    0.0000 </r>
       <r>   14.1791    0.0000 </r>
       <r>   14.3451    0.0000 </r>
       <r>   14.7775    0.0000 </r>
       <r>   15.1658    0.0000 </r>
      </set>
      <set comment="kpoint 16">
       <r>   -8.6815    1.0000 </r>
       <r>   -7.7175    1.0000 </r>
       <r>   -7.4818    1.0000 </r>
       <r>   -7.1825    1.0000 </r>
       <r>   -6.4564    1.0000 </r>
       <r>   -3.8392    1.0000 </r>
       <r>   -3.0933    1.0000 </r>
       <r>   -1.9805    1.0000 </r>
       <r>   -0.7353    1.0000 </r>
       <r>    0.5115    1.0000 </r>
       <r>    0.7037    1.0000 </r>
       <r>    1.1863    1.0000 </r>
       <r>    1.5167    1.0000 </r>
       <r>    1.8058    1.0000 </r>
       <r>    1.9780    1.0000 </r>
       <r>    2.1711    1.0000 </r>
       <r>    2.4643    1.0000 </r>
       <r>    2.9501    1.0000 </r>
       <r>    3.2951    1.0000 </r>
       <r>    3.3523    1.0000 </r>
       <r>    3.6370    1.0000 </r>
       <r>    3.7972    1.0000 </r>
       <r>    4.1912    1.0000 </r>
       <r>    4.4325    1.0000 </r>
       <r>    4.9487    1.0000 </r>
       <r>    5.3297    1.0000 </r>
       <r>    5.6643    1.0000 </r>
       <r>    5.7332    1.0000 </r>
       <r>    5.9908    1.0000 </r>
       <r>    6.3010    1.0000 </r>
       <r>    6.5647    1.0000 </r>
       <r>    7.0695    1.0000 </r>
       <r>   11.3931    0.0000 </r>
       <r>   11.8296    0.0000 </r>
       <r>   12.1252    0.0000 </r>
       <r>   12.3408    0.0000 </r>
       <r>   12.6377    0.0000 </r>
       <r>   12.9554    0.0000 </r>
       <r>   13.1760    0.0000 </r>
       <r>   13.7494    0.0000 </r>
       <r>   13.9272    0.0000 </r>
       <r>   14.2814    0.0000 </r>
       <r>   14.4474    0.0000 </r>
       <r>   14.8359    0.0000 </r>
      </set>
      <set comment="kpoint 17">
       <r>   -8.6834    1.0000 </r>
       <r>   -7.7069    1.0000 </r>
       <r>   -7.4884    1.0000 </r>
       <r>   -7.1824    1.0000 </r>
       <r>   -6.4598    1.0000 </r>
       <r>   -3.8334    1.0000 </r>
       <r>   -3.1200    1.0000 </r>
       <r>   -1.9499    1.0000 </r>
       <r>   -0.7025    1.0000 </r>
       <r>    0.5169    1.0000 </r>
       <r>    0.6878    1.0000 </r>
       <r>    1.1479    1.0000 </r>
       <r>    1.4534    1.0000 </r>
       <r>    1.7116    1.0000 </r>
       <r>    1.9577    1.0000 </r>
       <r>    2.4068    1.0000 </r>
       <r>    2.5976    1.0000 </r>
       <r>    2.7698    1.0000 </r>
       <r>    3.1488    1.0000 </r>
       <r>    3.3811    1.0000 </r>
       <r>    3.5771    1.0000 </r>
       <r>    3.9431    1.0000 </r>
       <r>    4.2536    1.0000 </r>
       <r>    4.5636    1.0000 </r>
       <r>    4.8804    1.0000 </r>
       <r>    5.2998    1.0000 </r>
       <r>    5.4778    1.0000 </r>
       <r>    5.7883    1.0000 </r>
       <r>    5.9871    1.0000 </r>
       <r>    6.2078    1.0000 </r>
       <r>    6.7391    1.0000 </r>
       <r>    7.0952    1.0000 </r>
       <r>   11.5489    0.0000 </r>
       <r>   11.6694    0.0000 </r>
       <r>   12.0413    0.0000 </r>
       <r>   12.3839    0.0000 </r>
       <r>   12.6985    0.0000 </r>
       <r>   12.8676    0.0000 </r>
       <r>   13.1553    0.0000 </r>
       <r>   13.4670    0.0000 </r>
       <r>   13.9696    0.0000 </r>
       <r>   14.0875    0.0000 </r>
       <r>   14.5424    0.0000 </r>
       <r>   15.2519    0.0000 </r>
      </set>
      <set comment="kpoint 18">
       <r>   -8.0888    1.0000 </r>
       <r>   -7.6597    1.0000 </r>
       <r>   -7.1893    1.0000 </r>
       <r>   -7.1171    1.0000 </r>
       <r>   -6.2589    1.0000 </r>
       <r>   -3.5544    1.0000 </r>
       <r>   -2.5277    1.0000 </r>
       <r>   -1.9288    1.0000 </r>
       <r>   -1.3218    1.0000 </r>
       <r>   -0.1610    1.0000 </r>
       <r>    0.6483    1.0000 </r>
       <r>    0.7030    1.0000 </r>
       <r>    0.8925    1.0000 </r>
       <r>    1.6066    1.0000 </r>
       <r>    1.9928    1.0000 </r>
       <r>    2.2909    1.0000 </r>
       <r>    2.3556    1.0000 </r>
       <r>    2.8897    1.0000 </r>
       <r>    3.0594    1.0000 </r>
       <r>    3.5928    1.0000 </r>
       <r>    3.7393    1.0000 </r>
       <r>    3.8684    1.0000 </r>
       <r>    4.0279    1.0000 </r>
       <r>    4.6318    1.0000 </r>
       <r>    4.6348    1.0000 </r>
       <r>    4.8787    1.0000 </r>
       <r>    5.3892    1.0000 </r>
       <r>    5.5483    1.0000 </r>
       <r>    5.9833    1.0000 </r>
       <r>    6.1301    1.0000 </r>
       <r>    6.3949    1.0000 </r>
       <r>    6.4903    1.0000 </r>
       <r>   11.0081    0.0000 </r>
       <r>   11.2787    0.0000 </r>
       <r>   11.5801    0.0000 </r>
       <r>   11.8270    0.0000 </r>
       <r>   11.8615    0.0000 </r>
       <r>   12.5216    0.0000 </r>
       <r>   13.0142    0.0000 </r>
       <r>   13.6551    0.0000 </r>
       <r>   13.9003    0.0000 </r>
       <r>   14.2270    0.0000 </r>
       <r>   14.8016    0.0000 </r>
       <r>   15.1427    0.0000 </r>
      </set>
      <set comment="kpoint 19">
       <r>   -8.0774    1.0000 </r>
       <r>   -7.6527    1.0000 </r>
       <r>   -7.2084    1.0000 </r>
       <r>   -7.1189    1.0000 </r>
       <r>   -6.2681    1.0000 </r>
       <r>   -3.4888    1.0000 </r>
       <r>   -2.5611    1.0000 </r>
       <r>   -2.1876    1.0000 </r>
       <r>   -1.1935    1.0000 </r>
       <r>   -0.0246    1.0000 </r>
       <r>    0.7032    1.0000 </r>
       <r>    0.8145    1.0000 </r>
       <r>    1.2177    1.0000 </r>
       <r>    1.6970    1.0000 </r>
       <r>    1.9375    1.0000 </r>
       <r>    2.2227    1.0000 </r>
       <r>    2.4402    1.0000 </r>
       <r>    2.6029    1.0000 </r>
       <r>    2.8791    1.0000 </r>
       <r>    3.4095    1.0000 </r>
       <r>    3.4672    1.0000 </r>
       <r>    3.8814    1.0000 </r>
       <r>    4.0222    1.0000 </r>
       <r>    4.4235    1.0000 </r>
       <r>    4.5858    1.0000 </r>
       <r>    4.8875    1.0000 </r>
       <r>    5.4643    1.0000 </r>
       <r>    5.5030    1.0000 </r>
       <r>    5.8672    1.0000 </r>
       <r>    6.3815    1.0000 </r>
       <r>    6.6134    1.0000 </r>
       <r>    6.7209    1.0000 </r>
       <r>   10.9341    0.0000 </r>
       <r>   11.2677    0.0000 </r>
       <r>   11.4213    0.0000 </r>
       <r>   12.2062    0.0000 </r>
       <r>   12.3712    0.0000 </r>
       <r>   12.4500    0.0000 </r>
       <r>   12.7431    0.0000 </r>
       <r>   13.4441    0.0000 </r>
       <r>   14.0879    0.0000 </r>
       <r>   14.6101    0.0000 </r>
       <r>   14.7701    0.0000 </r>
       <r>   15.0447    0.0000 </r>
      </set>
      <set comment="kpoint 20">
       <r>   -8.0780    1.0000 </r>
       <r>   -7.6536    1.0000 </r>
       <r>   -7.2071    1.0000 </r>
       <r>   -7.1170    1.0000 </r>
       <r>   -6.2691    1.0000 </r>
       <r>   -3.4844    1.0000 </r>
       <r>   -2.5622    1.0000 </r>
       <r>   -2.2462    1.0000 </r>
       <r>   -1.0988    1.0000 </r>
       <r>    0.0354    1.0000 </r>
       <r>    0.6857    1.0000 </r>
       <r>    0.7705    1.0000 </r>
       <r>    1.1331    1.0000 </r>
       <r>    1.7538    1.0000 </r>
       <r>    1.8086    1.0000 </r>
       <r>    2.0477    1.0000 </r>
       <r>    2.6370    1.0000 </r>
       <r>    2.6676    1.0000 </r>
       <r>    2.9087    1.0000 </r>
       <r>    3.4395    1.0000 </r>
       <r>    3.5059    1.0000 </r>
       <r>    3.8652    1.0000 </r>
       <r>    4.1236    1.0000 </r>
       <r>    4.4869    1.0000 </r>
       <r>    4.4880    1.0000 </r>
       <r>    4.8407    1.0000 </r>
       <r>    5.4837    1.0000 </r>
       <r>    5.6179    1.0000 </r>
       <r>    5.6736    1.0000 </r>
       <r>    6.3188    1.0000 </r>
       <r>    6.5911    1.0000 </r>
       <r>    6.6647    1.0000 </r>
       <r>   11.3099    0.0000 </r>
       <r>   11.7374    0.0000 </r>
       <r>   11.7991    0.0000 </r>
       <r>   12.0511    0.0000 </r>
       <r>   12.1274    0.0000 </r>
       <r>   12.2897    0.0000 </r>
       <r>   12.6118    0.0000 </r>
       <r>   12.9033    0.0000 </r>
       <r>   13.9839    0.0000 </r>
       <r>   14.4284    0.0000 </r>
       <r>   14.4752    0.0000 </r>
       <r>   15.2004    0.0000 </r>
      </set>
     </set>
    </set>
   </array>
  </eigenvalues>
  <separator name="orbital magnetization" >
   <v name="MAGDIPOLOUT">      0.00000000      0.00000000      0.00000000</v>
  </separator>
  <dos>
   <i name="efermi">      8.87726511 </i>
   <total>
    <array>
     <dimension dim="1">gridpoints</dimension>
     <dimension dim="2">spin</dimension>
     <field>energy</field>
     <field>total</field>
     <field>integrated</field>
     <set>
      <set comment="spin 1">
       <r>   -10.9480     0.0000     0.0000 </r>
       <r>   -10.8554     0.0000     0.0000 </r>
       <r>   -10.7628     0.0000     0.0000 </r>
       <r>   -10.6701     0.0000     0.0000 </r>
       <r>   -10.5775     0.0000     0.0000 </r>
       <r>   -10.4848     0.0000     0.0000 </r>
       <r>   -10.3922     0.0000     0.0000 </r>
       <r>   -10.2996     0.0000     0.0000 </r>
       <r>   -10.2069     0.0000     0.0000 </r>
       <r>   -10.1143     0.0000     0.0000 </r>
       <r>   -10.0217     0.0000     0.0000 </r>
       <r>    -9.9290     0.0002     0.0000 </r>
       <r>    -9.8364     0.0126     0.0012 </r>
       <r>    -9.7438     0.2337     0.0228 </r>
       <r>    -9.6511     1.1571     0.1300 </r>
       <r>    -9.5585     1.6303     0.2811 </r>
       <r>    -9.4659     1.3350     0.4047 </r>
       <r>    -9.3732     2.8784     0.6714 </r>
       <r>    -9.2806     2.7966     0.9304 </r>
       <r>    -9.1880     0.7081     0.9960 </r>
       <r>    -9.0953     0.0424     0.9999 </r>
       <r>    -9.0027     0.0007     1.0000 </r>
       <r>    -8.9101     0.0148     1.0014 </r>
       <r>    -8.8174     0.3724     1.0359 </r>
       <r>    -8.7248     2.2355     1.2430 </r>
       <r>    -8.6322     3.4077     1.5586 </r>
       <r>    -8.5395     1.9380     1.7382 </r>
       <r>    -8.4469     1.3667     1.8648 </r>
       <r>    -8.3542     1.5741     2.0106 </r>
       <r>    -8.2616     2.8000     2.2700 </r>
       <r>    -8.1690     2.6615     2.5165 </r>
       <r>    -8.0763     2.9341     2.7883 </r>
       <r>    -7.9837     2.2447     2.9962 </r>
       <r>    -7.8911     1.6190     3.1462 </r>
       <r>    -7.7984     3.1992     3.4426 </r>
       <r>    -7.7058     7.1923     4.1088 </r>
       <r>    -7.6132     8.7150     4.9161 </r>
       <r>    -7.5205     6.8195     5.5479 </r>
       <r>    -7.4279     7.1074     6.2063 </r>
       <r>    -7.3353     4.6542     6.6374 </r>
       <r>    -7.2426     3.7922     6.9887 </r>
       <r>    -7.1500     6.0097     7.5454 </r>
       <r>    -7.0574     4.5159     7.9637 </r>
       <r>    -6.9647     2.0048     8.1494 </r>
       <r>    -6.8721     2.4762     8.3788 </r>
       <r>    -6.7795     3.1821     8.6736 </r>
       <r>    -6.6868     2.6202     8.9163 </r>
       <r>    -6.5942     1.1043     9.0186 </r>
       <r>    -6.5016     1.9067     9.1953 </r>
       <r>    -6.4089     3.3893     9.5092 </r>
       <r>    -6.3163     2.2749     9.7200 </r>
       <r>    -6.2236     1.9124     9.8971 </r>
       <r>    -6.1310     0.9820     9.9881 </r>
       <r>    -6.0384     0.1252     9.9997 </r>
       <r>    -5.9457     0.0035    10.0000 </r>
       <r>    -5.8531     0.0000    10.0000 </r>
       <r>    -5.7605     0.0000    10.0000 </r>
       <r>    -5.6678     0.0000    10.0000 </r>
       <r>    -5.5752     0.0000    10.0000 </r>
       <r>    -5.4826     0.0000    10.0000 </r>
       <r>    -5.3899     0.0000    10.0000 </r>
       <r>    -5.2973     0.0000    10.0000 </r>
       <r>    -5.2047     0.0000    10.0000 </r>
       <r>    -5.1120     0.0033    10.0003 </r>
       <r>    -5.0194     0.0819    10.0079 </r>
       <r>    -4.9268     0.4559    10.0501 </r>
       <r>    -4.8341     0.8336    10.1273 </r>
       <r>    -4.7415     1.3231    10.2499 </r>
       <r>    -4.6489     1.6802    10.4056 </r>
       <r>    -4.5562     2.1727    10.6068 </r>
       <r>    -4.4636     2.7003    10.8570 </r>
       <r>    -4.3710     1.3671    10.9836 </r>
       <r>    -4.2783     0.1722    10.9996 </r>
       <r>    -4.1857     0.0047    11.0000 </r>
       <r>    -4.0930     0.0087    11.0008 </r>
       <r>    -4.0004     0.2414    11.0232 </r>
       <r>    -3.9078     1.7353    11.1839 </r>
       <r>    -3.8151     3.5714    11.5148 </r>
       <r>    -3.7225     2.6959    11.7645 </r>
       <r>    -3.6299     1.7285    11.9246 </r>
       <r>    -3.5372     2.9825    12.2009 </r>
       <r>    -3.4446     3.6414    12.5382 </r>
       <r>    -3.3520     1.8053    12.7055 </r>
       <r>    -3.2593     1.1445    12.8115 </r>
       <r>    -3.1667     2.3839    13.0323 </r>
       <r>    -3.0741     3.6674    13.3720 </r>
       <r>    -2.9814     2.2807    13.5833 </r>
       <r>    -2.8888     1.5830    13.7300 </r>
       <r>    -2.7962     1.7537    13.8924 </r>
       <r>    -2.7035     1.4323    14.0251 </r>
       <r>    -2.6109     1.7481    14.1870 </r>
       <r>    -2.5183     2.7121    14.4383 </r>
       <r>    -2.4256     3.0653    14.7222 </r>
       <r>    -2.3330     2.8243    14.9839 </r>
       <r>    -2.2404     2.3663    15.2031 </r>
       <r>    -2.1477     1.6069    15.3519 </r>
       <r>    -2.0551     1.5418    15.4947 </r>
       <r>    -1.9625     2.7519    15.7497 </r>
       <r>    -1.8698     2.1685    15.9505 </r>
       <r>    -1.7772     0.5037    15.9972 </r>
       <r>    -1.6845     0.0299    16.0000 </r>
       <r>    -1.5919     0.0065    16.0006 </r>
       <r>    -1.4993     0.1222    16.0119 </r>
       <r>    -1.4066     0.5825    16.0659 </r>
       <r>    -1.3140     0.8516    16.1447 </r>
       <r>    -1.2214     0.6801    16.2077 </r>
       <r>    -1.1287     0.6786    16.2706 </r>
       <r>    -1.0361     0.5174    16.3185 </r>
       <r>    -0.9435     0.1923    16.3363 </r>
       <r>    -0.8508     0.6843    16.3997 </r>
       <r>    -0.7582     2.6371    16.6440 </r>
       <r>    -0.6656     2.8634    16.9093 </r>
       <r>    -0.5729     0.9028    16.9929 </r>
       <r>    -0.4803     0.1535    17.0071 </r>
       <r>    -0.3877     0.5166    17.0550 </r>
       <r>    -0.2950     1.3357    17.1787 </r>
       <r>    -0.2024     2.6800    17.4270 </r>
       <r>    -0.1098     3.7142    17.7710 </r>
       <r>    -0.0171     3.2767    18.0746 </r>
       <r>     0.0755     2.0851    18.2677 </r>
       <r>     0.1681     0.7167    18.3341 </r>
       <r>     0.2608     0.6255    18.3920 </r>
       <r>     0.3534     1.5083    18.5318 </r>
       <r>     0.4461     3.2275    18.8307 </r>
       <r>     0.5387     6.2936    19.4137 </r>
       <r>     0.6313     6.5900    20.0242 </r>
       <r>     0.7240     6.7935    20.6535 </r>
       <r>     0.8166     6.1026    21.2188 </r>
       <r>     0.9092     4.5391    21.6393 </r>
       <r>     1.0019     5.0706    22.1090 </r>
       <r>     1.0945     4.8871    22.5617 </r>
       <r>     1.1871     4.6447    22.9920 </r>
       <r>     1.2798     3.3605    23.3033 </r>
       <r>     1.3724     2.3442    23.5205 </r>
       <r>     1.4650     5.2650    24.0082 </r>
       <r>     1.5577     7.5630    24.7088 </r>
       <r>     1.6503     7.0333    25.3603 </r>
       <r>     1.7429     7.6004    26.0644 </r>
       <r>     1.8356     6.8433    26.6983 </r>
       <r>     1.9282     7.4453    27.3880 </r>
       <r>     2.0208     8.3617    28.1626 </r>
       <r>     2.1135     5.8005    28.6999 </r>
       <r>     2.2061     5.1176    29.1740 </r>
       <r>     2.2987     4.9284    29.6305 </r>
       <r>     2.3914     4.5312    30.0503 </r>
       <r>     2.4840     4.6909    30.4848 </r>
       <r>     2.5767     3.8673    30.8430 </r>
       <r>     2.6693     4.2400    31.2358 </r>
       <r>     2.7619     5.5431    31.7493 </r>
       <r>     2.8546     8.2049    32.5094 </r>
       <r>     2.9472     8.9433    33.3378 </r>
       <r>     3.0398     6.9127    33.9782 </r>
       <r>     3.1325     5.7821    34.5138 </r>
       <r>     3.2251     4.7677    34.9555 </r>
       <r>     3.3177     4.8261    35.4025 </r>
       <r>     3.4104     8.0950    36.1524 </r>
       <r>     3.5030     9.0532    36.9910 </r>
       <r>     3.5956     7.3545    37.6723 </r>
       <r>     3.6883     7.7283    38.3882 </r>
       <r>     3.7809     8.1211    39.1405 </r>
       <r>     3.8735     7.9977    39.8814 </r>
       <r>     3.9662     7.8247    40.6062 </r>
       <r>     4.0588     8.7135    41.4134 </r>
       <r>     4.1514     9.0579    42.2525 </r>
       <r>     4.2441     7.1014    42.9103 </r>
       <r>     4.3367     6.0398    43.4698 </r>
       <r>     4.4293     7.3096    44.1469 </r>
       <r>     4.5220     7.8799    44.8769 </r>
       <r>     4.6146     6.6066    45.4889 </r>
       <r>     4.7073     6.9957    46.1369 </r>
       <r>     4.7999     7.9355    46.8721 </r>
       <r>     4.8925     9.2223    47.7264 </r>
       <r>     4.9852     8.9864    48.5588 </r>
       <r>     5.0778     6.5956    49.1698 </r>
       <r>     5.1704     4.5031    49.5869 </r>
       <r>     5.2631     4.3142    49.9866 </r>
       <r>     5.3557     5.0137    50.4510 </r>
       <r>     5.4483     7.0066    51.1001 </r>
       <r>     5.5410     8.5232    51.8896 </r>
       <r>     5.6336     7.5160    52.5859 </r>
       <r>     5.7262     8.1654    53.3423 </r>
       <r>     5.8189     8.2456    54.1061 </r>
       <r>     5.9115     8.2183    54.8674 </r>
       <r>     6.0041     8.9249    55.6941 </r>
       <r>     6.0968     7.6637    56.4041 </r>
       <r>     6.1894     5.8866    56.9494 </r>
       <r>     6.2820     5.0331    57.4156 </r>
       <r>     6.3747     4.6268    57.8442 </r>
       <r>     6.4673     5.2263    58.3284 </r>
       <r>     6.5599     6.5508    58.9352 </r>
       <r>     6.6526     7.0011    59.5837 </r>
       <r>     6.7452     5.0677    60.0532 </r>
       <r>     6.8379     2.4950    60.2843 </r>
       <r>     6.9305     2.3231    60.4995 </r>
       <r>     7.0231     4.6914    60.9341 </r>
       <r>     7.1158     6.3629    61.5235 </r>
       <r>     7.2084     5.6986    62.0514 </r>
       <r>     7.3010     3.9305    62.4155 </r>
       <r>     7.3937     2.4577    62.6432 </r>
       <r>     7.4863     3.4536    62.9631 </r>
       <r>     7.5789     3.0031    63.2413 </r>
       <r>     7.6716     0.9139    63.3259 </r>
       <r>     7.7642     0.1265    63.3377 </r>
       <r>     7.8568     0.5185    63.3857 </r>
       <r>     7.9495     1.4080    63.5161 </r>
       <r>     8.0421     1.2067    63.6279 </r>
       <r>     8.1347     0.4279    63.6675 </r>
       <r>     8.2274     0.4278    63.7072 </r>
       <r>     8.3200     1.0701    63.8063 </r>
       <r>     8.4126     1.3780    63.9339 </r>
       <r>     8.5053     0.6374    63.9930 </r>
       <r>     8.5979     0.0739    63.9998 </r>
       <r>     8.6905     0.0018    64.0000 </r>
       <r>     8.7832     0.0000    64.0000 </r>
       <r>     8.8758     0.0000    64.0000 </r>
       <r>     8.9685     0.0000    64.0000 </r>
       <r>     9.0611     0.0000    64.0000 </r>
       <r>     9.1537     0.0000    64.0000 </r>
       <r>     9.2464     0.0000    64.0000 </r>
       <r>     9.3390     0.0000    64.0000 </r>
       <r>     9.4316     0.0000    64.0000 </r>
       <r>     9.5243     0.0000    64.0000 </r>
       <r>     9.6169     0.0000    64.0000 </r>
       <r>     9.7095     0.0000    64.0000 </r>
       <r>     9.8022     0.0022    64.0002 </r>
       <r>     9.8948     0.0479    64.0046 </r>
       <r>     9.9874     0.2802    64.0306 </r>
       <r>    10.0801     0.5487    64.0814 </r>
       <r>    10.1727     0.6122    64.1381 </r>
       <r>    10.2653     0.9310    64.2244 </r>
       <r>    10.3580     0.8203    64.3004 </r>
       <r>    10.4506     0.3209    64.3301 </r>
       <r>    10.5432     0.1472    64.3437 </r>
       <r>    10.6359     0.4166    64.3823 </r>
       <r>    10.7285     0.7929    64.4558 </r>
       <r>    10.8211     1.3455    64.5804 </r>
       <r>    10.9138     1.4472    64.7145 </r>
       <r>    11.0064     1.6019    64.8629 </r>
       <r>    11.0991     1.7266    65.0228 </r>
       <r>    11.1917     2.6022    65.2639 </r>
       <r>    11.2843     4.7946    65.7080 </r>
       <r>    11.3770     6.6187    66.3211 </r>
       <r>    11.4696     6.7700    66.9483 </r>
       <r>    11.5622     5.6106    67.4680 </r>
       <r>    11.6549     4.2356    67.8604 </r>
       <r>    11.7475     4.4259    68.2704 </r>
       <r>    11.8401     6.4762    68.8703 </r>
       <r>    11.9328     5.7895    69.4066 </r>
       <r>    12.0254     5.0157    69.8712 </r>
       <r>    12.1180     5.9541    70.4228 </r>
       <r>    12.2107     4.8754    70.8744 </r>
       <r>    12.3033     5.1892    71.3551 </r>
       <r>    12.3959     6.4186    71.9497 </r>
       <r>    12.4886     5.1760    72.4292 </r>
       <r>    12.5812     4.5837    72.8538 </r>
       <r>    12.6738     5.5603    73.3689 </r>
       <r>    12.7665     5.0094    73.8329 </r>
       <r>    12.8591     4.7353    74.2716 </r>
       <r>    12.9517     4.8737    74.7230 </r>
       <r>    13.0444     4.3956    75.1302 </r>
       <r>    13.1370     4.2652    75.5253 </r>
       <r>    13.2297     4.6467    75.9558 </r>
       <r>    13.3223     4.8815    76.4080 </r>
       <r>    13.4149     6.1020    76.9732 </r>
       <r>    13.5076     6.0182    77.5307 </r>
       <r>    13.6002     4.8041    77.9758 </r>
       <r>    13.6928     4.1811    78.3631 </r>
       <r>    13.7855     4.9417    78.8209 </r>
       <r>    13.8781     6.5019    79.4232 </r>
       <r>    13.9707     7.1563    80.0861 </r>
       <r>    14.0634     6.4149    80.6803 </r>
       <r>    14.1560     6.1885    81.2536 </r>
       <r>    14.2486     6.7408    81.8780 </r>
       <r>    14.3413     6.5312    82.4830 </r>
       <r>    14.4339     5.7087    83.0119 </r>
       <r>    14.5265     7.1014    83.6697 </r>
       <r>    14.6192     6.6479    84.2855 </r>
       <r>    14.7118     4.6372    84.7151 </r>
       <r>    14.8044     5.6777    85.2410 </r>
       <r>    14.8971     5.5777    85.7577 </r>
       <r>    14.9897     3.2126    86.0553 </r>
       <r>    15.0823     2.8351    86.3180 </r>
       <r>    15.1750     4.0030    86.6888 </r>
       <r>    15.2676     5.2377    87.1740 </r>
       <r>    15.3603     4.4483    87.5860 </r>
       <r>    15.4529     2.7319    87.8391 </r>
       <r>    15.5455     1.0785    87.9390 </r>
       <r>    15.6382     0.4926    87.9846 </r>
       <r>    15.7308     0.1530    87.9988 </r>
       <r>    15.8234     0.0126    88.0000 </r>
       <r>    15.9161     0.0002    88.0000 </r>
       <r>    16.0087     0.0000    88.0000 </r>
       <r>    16.1013     0.0000    88.0000 </r>
       <r>    16.1940     0.0000    88.0000 </r>
       <r>    16.2866     0.0000    88.0000 </r>
       <r>    16.3792     0.0000    88.0000 </r>
       <r>    16.4719     0.0000    88.0000 </r>
       <r>    16.5645     0.0000    88.0000 </r>
       <r>    16.6571     0.0000    88.0000 </r>
       <r>    16.7498     0.0000    88.0000 </r>
       <r>    16.8424     0.0000    88.0000 </r>
      </set>
     </set>
    </array>
   </total>
  </dos>
 </calculation>
 <structure name="finalpos" >
  <crystal>
   <varray name="basis" >
    <v>       7.43596769       0.00000000       0.03194118 </v>
    <v>       0.00000000       3.11614923       0.00000000 </v>
    <v>      -0.55546148       0.00000000       7.36790679 </v>
   </varray>
   <i name="volume">    170.78136546 </i>
   <varray name="rec_basis" >
    <v>       0.13443795       0.00000000       0.01013519 </v>
    <v>       0.00000000       0.32090889       0.00000000 </v>
    <v>      -0.00058281       0.00000000       0.13567982 </v>
   </varray>
  </crystal>
  <varray name="positions" >
   <v>       0.91833295       0.50000000       0.08634675 </v>
   <v>       0.33558251       0.50000000       0.17412187 </v>
   <v>       0.82640854       0.50000000       0.67388732 </v>
   <v>       0.15835488       0.00000000       0.83223152 </v>
   <v>       0.41039635       0.50000000       0.57553017 </v>
   <v>       0.66469974       0.00000000       0.32603506 </v>
   <v>       0.58505539       0.00000000       0.91602978 </v>
   <v>       0.08908687       0.00000000       0.41405216 </v>
   <v>       0.11108493       0.50000000       0.25866549 </v>
   <v>       0.51798020       0.50000000       0.34704051 </v>
   <v>       0.78864554       0.00000000       0.09771316 </v>
   <v>       0.35027005       0.00000000       0.02112204 </v>
   <v>       0.61184923       0.50000000       0.76345305 </v>
   <v>       0.85558662       0.00000000       0.54710768 </v>
   <v>       0.00748920       0.50000000       0.85061112 </v>
   <v>       0.26917699       0.00000000       0.61605232 </v>
  </varray>
 </structure>
</modeling>
