<?xml version="1.0" encoding="ISO-8859-1"?>
<modeling>
 <generator>
  <i name="program" type="string">vasp </i>
  <i name="version" type="string">5.3.5  </i>
  <i name="subversion" type="string">31Mar14 (build Jun 20 2014 13:15:13) complex                          parallel </i>
  <i name="platform" type="string">LinuxIFC </i>
  <i name="date" type="string">2025 11 21 </i>
  <i name="time" type="string">13:58:59 </i>
 </generator>
 <incar>
  <i type="string" name="PREC">accurate</i>
  <i type="int" name="IALGO">    68</i>
  <i type="logical" name="ADDGRID"> T  </i>
  <i type="int" name="NELM">   100</i>
  <i type="int" name="NELMIN">     4</i>
  <i type="int" name="IBRION">     2</i>
  <i name="EDIFF">      0.00000100</i>
  <i name="EDIFFG">     -0.02000000</i>
  <i type="int" name="NSW">    30</i>
  <i type="int" name="ISIF">     3</i>
  <i name="ENCUT">    500.00000000</i>
  <i type="logical" name="LREAL"> F  </i>
  <i type="int" name="ISMEAR">     1</i>
  <i name="SIGMA">      0.30000000</i>
  <i type="logical" name="LWAVE"> F  </i>
  <i type="logical" name="LCHARG"> F  </i>
  <i type="int" name="NELM">   100</i>
 </incar>
 <kpoints>
  <generation param="Auto">
   <i name="subdivisionlength">     70.00000000 </i>
   <v type="int" name="divisions">      24       15       10 </v>
   <v name="usershift">      0.00000000       0.00000000       0.00000000 </v>
   <v name="genvec1">      0.04166667       0.00000000       0.00000000 </v>
   <v name="genvec2">      0.00000000       0.06666667       0.00000000 </v>
   <v name="genvec3">      0.00000000       0.00000000       0.10000000 </v>
   <v name="shift">      0.00000000       0.00000000       0.00000000 </v>
  </generation>
  <varray name="kpointlist" >
   <v>       0.00000000       0.00000000       0.00000000 </v>
   <v>       0.04166667       0.00000000       0.00000000 </v>
   <v>       0.08333333       0.00000000       0.00000000 </v>
   <v>       0.12500000       0.00000000       0.00000000 </v>
   <v>       0.16666667       0.00000000       0.00000000 </v>
   <v>       0.20833333       0.00000000       0.00000000 </v>
   <v>       0.25000000       0.00000000       0.00000000 </v>
   <v>       0.29166667       0.00000000       0.00000000 </v>
   <v>       0.33333333       0.00000000       0.00000000 </v>
   <v>       0.37500000       0.00000000       0.00000000 </v>
   <v>       0.41666667       0.00000000       0.00000000 </v>
   <v>       0.45833333       0.00000000       0.00000000 </v>
   <v>       0.50000000       0.00000000       0.00000000 </v>
   <v>       0.00000000       0.06666667       0.00000000 </v>
   <v>       0.04166667       0.06666667       0.00000000 </v>
   <v>       0.08333333       0.06666667       0.00000000 </v>
   <v>       0.12500000       0.06666667       0.00000000 </v>
   <v>       0.16666667       0.06666667       0.00000000 </v>
   <v>       0.20833333       0.06666667       0.00000000 </v>
   <v>       0.25000000       0.06666667       0.00000000 </v>
   <v>       0.29166667       0.06666667       0.00000000 </v>
   <v>       0.33333333       0.06666667       0.00000000 </v>
   <v>       0.37500000       0.06666667       0.00000000 </v>
   <v>       0.41666667       0.06666667       0.00000000 </v>
   <v>       0.45833333       0.06666667       0.00000000 </v>
   <v>       0.50000000       0.06666667       0.00000000 </v>
   <v>      -0.45833333       0.06666667       0.00000000 </v>
   <v>      -0.41666667       0.06666667       0.00000000 </v>
   <v>      -0.37500000       0.06666667       0.00000000 </v>
   <v>      -0.33333333       0.06666667       0.00000000 </v>
   <v>      -0.29166667       0.06666667       0.00000000 </v>
   <v>      -0.25000000       0.06666667       0.00000000 </v>
   <v>      -0.20833333       0.06666667       0.00000000 </v>
   <v>      -0.16666667       0.06666667       0.00000000 </v>
   <v>      -0.12500000       0.06666667       0.00000000 </v>
   <v>      -0.08333333       0.06666667       0.00000000 </v>
   <v>      -0.04166667       0.06666667       0.00000000 </v>
   <v>       0.00000000       0.13333333       0.00000000 </v>
   <v>       0.04166667       0.13333333       0.00000000 </v>
   <v>       0.08333333       0.13333333       0.00000000 </v>
   <v>       0.12500000       0.13333333       0.00000000 </v>
   <v>       0.16666667       0.13333333       0.00000000 </v>
   <v>       0.20833333       0.13333333       0.00000000 </v>
   <v>       0.25000000       0.13333333       0.00000000 </v>
   <v>       0.29166667       0.13333333       0.00000000 </v>
   <v>       0.33333333       0.13333333       0.00000000 </v>
   <v>       0.37500000       0.13333333       0.00000000 </v>
   <v>       0.41666667       0.13333333       0.00000000 </v>
   <v>       0.45833333       0.13333333       0.00000000 </v>
   <v>       0.50000000       0.13333333       0.00000000 </v>
   <v>      -0.45833333       0.13333333       0.00000000 </v>
   <v>      -0.41666667       0.13333333       0.00000000 </v>
   <v>      -0.37500000       0.13333333       0.00000000 </v>
   <v>      -0.33333333       0.13333333       0.00000000 </v>
   <v>      -0.29166667       0.13333333       0.00000000 </v>
   <v>      -0.25000000       0.13333333       0.00000000 </v>
   <v>      -0.20833333       0.13333333       0.00000000 </v>
   <v>      -0.16666667       0.13333333       0.00000000 </v>
   <v>      -0.12500000       0.13333333       0.00000000 </v>
   <v>      -0.08333333       0.13333333       0.00000000 </v>
   <v>      -0.04166667       0.13333333       0.00000000 </v>
   <v>       0.00000000       0.20000000       0.00000000 </v>
   <v>       0.04166667       0.20000000       0.00000000 </v>
   <v>       0.08333333       0.20000000       0.00000000 </v>
   <v>       0.12500000       0.20000000       0.00000000 </v>
   <v>       0.16666667       0.20000000       0.00000000 </v>
   <v>       0.20833333       0.20000000       0.00000000 </v>
   <v>       0.25000000       0.20000000       0.00000000 </v>
   <v>       0.29166667       0.20000000       0.00000000 </v>
   <v>       0.33333333       0.20000000       0.00000000 </v>
   <v>       0.37500000       0.20000000       0.00000000 </v>
   <v>       0.41666667       0.20000000       0.00000000 </v>
   <v>       0.45833333       0.20000000       0.00000000 </v>
   <v>       0.50000000       0.20000000       0.00000000 </v>
   <v>      -0.45833333       0.20000000       0.00000000 </v>
   <v>      -0.41666667       0.20000000       0.00000000 </v>
   <v>      -0.37500000       0.20000000       0.00000000 </v>
   <v>      -0.33333333       0.20000000       0.00000000 </v>
   <v>      -0.29166667       0.20000000       0.00000000 </v>
   <v>      -0.25000000       0.20000000       0.00000000 </v>
   <v>      -0.20833333       0.20000000       0.00000000 </v>
   <v>      -0.16666667       0.20000000       0.00000000 </v>
   <v>      -0.12500000       0.20000000       0.00000000 </v>
   <v>      -0.08333333       0.20000000       0.00000000 </v>
   <v>      -0.04166667       0.20000000       0.00000000 </v>
   <v>       0.00000000       0.26666667       0.00000000 </v>
   <v>       0.04166667       0.26666667       0.00000000 </v>
   <v>       0.08333333       0.26666667       0.00000000 </v>
   <v>       0.12500000       0.26666667       0.00000000 </v>
   <v>       0.16666667       0.26666667       0.00000000 </v>
   <v>       0.20833333       0.26666667       0.00000000 </v>
   <v>       0.25000000       0.26666667       0.00000000 </v>
   <v>       0.29166667       0.26666667       0.00000000 </v>
   <v>       0.33333333       0.26666667       0.00000000 </v>
   <v>       0.37500000       0.26666667       0.00000000 </v>
   <v>       0.41666667       0.26666667       0.00000000 </v>
   <v>       0.45833333       0.26666667       0.00000000 </v>
   <v>       0.50000000       0.26666667       0.00000000 </v>
   <v>      -0.45833333       0.26666667       0.00000000 </v>
   <v>      -0.41666667       0.26666667       0.00000000 </v>
   <v>      -0.37500000       0.26666667       0.00000000 </v>
   <v>      -0.33333333       0.26666667       0.00000000 </v>
   <v>      -0.29166667       0.26666667       0.00000000 </v>
   <v>      -0.25000000       0.26666667       0.00000000 </v>
   <v>      -0.20833333       0.26666667       0.00000000 </v>
   <v>      -0.16666667       0.26666667       0.00000000 </v>
   <v>      -0.12500000       0.26666667       0.00000000 </v>
   <v>      -0.08333333       0.26666667       0.00000000 </v>
   <v>      -0.04166667       0.26666667       0.00000000 </v>
   <v>       0.00000000       0.33333333       0.00000000 </v>
   <v>       0.04166667       0.33333333       0.00000000 </v>
   <v>       0.08333333       0.33333333       0.00000000 </v>
   <v>       0.12500000       0.33333333       0.00000000 </v>
   <v>       0.16666667       0.33333333       0.00000000 </v>
   <v>       0.20833333       0.33333333       0.00000000 </v>
   <v>       0.25000000       0.33333333       0.00000000 </v>
   <v>       0.29166667       0.33333333       0.00000000 </v>
   <v>       0.33333333       0.33333333       0.00000000 </v>
   <v>       0.37500000       0.33333333       0.00000000 </v>
   <v>       0.41666667       0.33333333       0.00000000 </v>
   <v>       0.45833333       0.33333333       0.00000000 </v>
   <v>       0.50000000       0.33333333       0.00000000 </v>
   <v>      -0.45833333       0.33333333       0.00000000 </v>
   <v>      -0.41666667       0.33333333       0.00000000 </v>
   <v>      -0.37500000       0.33333333       0.00000000 </v>
   <v>      -0.33333333       0.33333333       0.00000000 </v>
   <v>      -0.29166667       0.33333333       0.00000000 </v>
   <v>      -0.25000000       0.33333333       0.00000000 </v>
   <v>      -0.20833333       0.33333333       0.00000000 </v>
   <v>      -0.16666667       0.33333333       0.00000000 </v>
   <v>      -0.12500000       0.33333333       0.00000000 </v>
   <v>      -0.08333333       0.33333333       0.00000000 </v>
   <v>      -0.04166667       0.33333333       0.00000000 </v>
   <v>       0.00000000       0.40000000       0.00000000 </v>
   <v>       0.04166667       0.40000000       0.00000000 </v>
   <v>       0.08333333       0.40000000       0.00000000 </v>
   <v>       0.12500000       0.40000000       0.00000000 </v>
   <v>       0.16666667       0.40000000       0.00000000 </v>
   <v>       0.20833333       0.40000000       0.00000000 </v>
   <v>       0.25000000       0.40000000       0.00000000 </v>
   <v>       0.29166667       0.40000000       0.00000000 </v>
   <v>       0.33333333       0.40000000       0.00000000 </v>
   <v>       0.37500000       0.40000000       0.00000000 </v>
   <v>       0.41666667       0.40000000       0.00000000 </v>
   <v>       0.45833333       0.40000000       0.00000000 </v>
   <v>       0.50000000       0.40000000       0.00000000 </v>
   <v>      -0.45833333       0.40000000       0.00000000 </v>
   <v>      -0.41666667       0.40000000       0.00000000 </v>
   <v>      -0.37500000       0.40000000       0.00000000 </v>
   <v>      -0.33333333       0.40000000       0.00000000 </v>
   <v>      -0.29166667       0.40000000       0.00000000 </v>
   <v>      -0.25000000       0.40000000       0.00000000 </v>
   <v>      -0.20833333       0.40000000       0.00000000 </v>
   <v>      -0.16666667       0.40000000       0.00000000 </v>
   <v>      -0.12500000       0.40000000       0.00000000 </v>
   <v>      -0.08333333       0.40000000       0.00000000 </v>
   <v>      -0.04166667       0.40000000       0.00000000 </v>
   <v>       0.00000000       0.46666667       0.00000000 </v>
   <v>       0.04166667       0.46666667       0.00000000 </v>
   <v>       0.08333333       0.46666667       0.00000000 </v>
   <v>       0.12500000       0.46666667       0.00000000 </v>
   <v>       0.16666667       0.46666667       0.00000000 </v>
   <v>       0.20833333       0.46666667       0.00000000 </v>
   <v>       0.25000000       0.46666667       0.00000000 </v>
   <v>       0.29166667       0.46666667       0.00000000 </v>
   <v>       0.33333333       0.46666667       0.00000000 </v>
   <v>       0.37500000       0.46666667       0.00000000 </v>
   <v>       0.41666667       0.46666667       0.00000000 </v>
   <v>       0.45833333       0.46666667       0.00000000 </v>
   <v>       0.50000000       0.46666667       0.00000000 </v>
   <v>      -0.45833333       0.46666667       0.00000000 </v>
   <v>      -0.41666667       0.46666667       0.00000000 </v>
   <v>      -0.37500000       0.46666667       0.00000000 </v>
   <v>      -0.33333333       0.46666667       0.00000000 </v>
   <v>      -0.29166667       0.46666667       0.00000000 </v>
   <v>      -0.25000000       0.46666667       0.00000000 </v>
   <v>      -0.20833333       0.46666667       0.00000000 </v>
   <v>      -0.16666667       0.46666667       0.00000000 </v>
   <v>      -0.12500000       0.46666667       0.00000000 </v>
   <v>      -0.08333333       0.46666667       0.00000000 </v>
   <v>      -0.04166667       0.46666667       0.00000000 </v>
   <v>       0.00000000       0.00000000       0.10000000 </v>
   <v>       0.04166667       0.00000000       0.10000000 </v>
   <v>       0.08333333       0.00000000       0.10000000 </v>
   <v>       0.12500000       0.00000000       0.10000000 </v>
   <v>       0.16666667       0.00000000       0.10000000 </v>
   <v>       0.20833333       0.00000000       0.10000000 </v>
   <v>       0.25000000       0.00000000       0.10000000 </v>
   <v>       0.29166667       0.00000000       0.10000000 </v>
   <v>       0.33333333       0.00000000       0.10000000 </v>
   <v>       0.37500000       0.00000000       0.10000000 </v>
   <v>       0.41666667       0.00000000       0.10000000 </v>
   <v>       0.45833333       0.00000000       0.10000000 </v>
   <v>       0.50000000       0.00000000       0.10000000 </v>
   <v>      -0.45833333       0.00000000       0.10000000 </v>
   <v>      -0.41666667       0.00000000       0.10000000 </v>
   <v>      -0.37500000       0.00000000       0.10000000 </v>
   <v>      -0.33333333       0.00000000       0.10000000 </v>
   <v>      -0.29166667       0.00000000       0.10000000 </v>
   <v>      -0.25000000       0.00000000       0.10000000 </v>
   <v>      -0.20833333       0.00000000       0.10000000 </v>
   <v>      -0.16666667       0.00000000       0.10000000 </v>
   <v>      -0.12500000       0.00000000       0.10000000 </v>
   <v>      -0.08333333       0.00000000       0.10000000 </v>
   <v>      -0.04166667       0.00000000       0.10000000 </v>
   <v>       0.00000000       0.06666667       0.10000000 </v>
   <v>       0.04166667       0.06666667       0.10000000 </v>
   <v>       0.08333333       0.06666667       0.10000000 </v>
   <v>       0.12500000       0.06666667       0.10000000 </v>
   <v>       0.16666667       0.06666667       0.10000000 </v>
   <v>       0.20833333       0.06666667       0.10000000 </v>
   <v>       0.25000000       0.06666667       0.10000000 </v>
   <v>       0.29166667       0.06666667       0.10000000 </v>
   <v>       0.33333333       0.06666667       0.10000000 </v>
   <v>       0.37500000       0.06666667       0.10000000 </v>
   <v>       0.41666667       0.06666667       0.10000000 </v>
   <v>       0.45833333       0.06666667       0.10000000 </v>
   <v>       0.50000000       0.06666667       0.10000000 </v>
   <v>      -0.45833333       0.06666667       0.10000000 </v>
   <v>      -0.41666667       0.06666667       0.10000000 </v>
   <v>      -0.37500000       0.06666667       0.10000000 </v>
   <v>      -0.33333333       0.06666667       0.10000000 </v>
   <v>      -0.29166667       0.06666667       0.10000000 </v>
   <v>      -0.25000000       0.06666667       0.10000000 </v>
   <v>      -0.20833333       0.06666667       0.10000000 </v>
   <v>      -0.16666667       0.06666667       0.10000000 </v>
   <v>      -0.12500000       0.06666667       0.10000000 </v>
   <v>      -0.08333333       0.06666667       0.10000000 </v>
   <v>      -0.04166667       0.06666667       0.10000000 </v>
   <v>       0.00000000       0.13333333       0.10000000 </v>
   <v>       0.04166667       0.13333333       0.10000000 </v>
   <v>       0.08333333       0.13333333       0.10000000 </v>
   <v>       0.12500000       0.13333333       0.10000000 </v>
   <v>       0.16666667       0.13333333       0.10000000 </v>
   <v>       0.20833333       0.13333333       0.10000000 </v>
   <v>       0.25000000       0.13333333       0.10000000 </v>
   <v>       0.29166667       0.13333333       0.10000000 </v>
   <v>       0.33333333       0.13333333       0.10000000 </v>
   <v>       0.37500000       0.13333333       0.10000000 </v>
   <v>       0.41666667       0.13333333       0.10000000 </v>
   <v>       0.45833333       0.13333333       0.10000000 </v>
   <v>       0.50000000       0.13333333       0.10000000 </v>
   <v>      -0.45833333       0.13333333       0.10000000 </v>
   <v>      -0.41666667       0.13333333       0.10000000 </v>
   <v>      -0.37500000       0.13333333       0.10000000 </v>
   <v>      -0.33333333       0.13333333       0.10000000 </v>
   <v>      -0.29166667       0.13333333       0.10000000 </v>
   <v>      -0.25000000       0.13333333       0.10000000 </v>
   <v>      -0.20833333       0.13333333       0.10000000 </v>
   <v>      -0.16666667       0.13333333       0.10000000 </v>
   <v>      -0.12500000       0.13333333       0.10000000 </v>
   <v>      -0.08333333       0.13333333       0.10000000 </v>
   <v>      -0.04166667       0.13333333       0.10000000 </v>
   <v>       0.00000000       0.20000000       0.10000000 </v>
   <v>       0.04166667       0.20000000       0.10000000 </v>
   <v>       0.08333333       0.20000000       0.10000000 </v>
   <v>       0.12500000       0.20000000       0.10000000 </v>
   <v>       0.16666667       0.20000000       0.10000000 </v>
   <v>       0.20833333       0.20000000       0.10000000 </v>
   <v>       0.25000000       0.20000000       0.10000000 </v>
   <v>       0.29166667       0.20000000       0.10000000 </v>
   <v>       0.33333333       0.20000000       0.10000000 </v>
   <v>       0.37500000       0.20000000       0.10000000 </v>
   <v>       0.41666667       0.20000000       0.10000000 </v>
   <v>       0.45833333       0.20000000       0.10000000 </v>
   <v>       0.50000000       0.20000000       0.10000000 </v>
   <v>      -0.45833333       0.20000000       0.10000000 </v>
   <v>      -0.41666667       0.20000000       0.10000000 </v>
   <v>      -0.37500000       0.20000000       0.10000000 </v>
   <v>      -0.33333333       0.20000000       0.10000000 </v>
   <v>      -0.29166667       0.20000000       0.10000000 </v>
   <v>      -0.25000000       0.20000000       0.10000000 </v>
   <v>      -0.20833333       0.20000000       0.10000000 </v>
   <v>      -0.16666667       0.20000000       0.10000000 </v>
   <v>      -0.12500000       0.20000000       0.10000000 </v>
   <v>      -0.08333333       0.20000000       0.10000000 </v>
   <v>      -0.04166667       0.20000000       0.10000000 </v>
   <v>       0.00000000       0.26666667       0.10000000 </v>
   <v>       0.04166667       0.26666667       0.10000000 </v>
   <v>       0.08333333       0.26666667       0.10000000 </v>
   <v>       0.12500000       0.26666667       0.10000000 </v>
   <v>       0.16666667       0.26666667       0.10000000 </v>
   <v>       0.20833333       0.26666667       0.10000000 </v>
   <v>       0.25000000       0.26666667       0.10000000 </v>
   <v>       0.29166667       0.26666667       0.10000000 </v>
   <v>       0.33333333       0.26666667       0.10000000 </v>
   <v>       0.37500000       0.26666667       0.10000000 </v>
   <v>       0.41666667       0.26666667       0.10000000 </v>
   <v>       0.45833333       0.26666667       0.10000000 </v>
   <v>       0.50000000       0.26666667       0.10000000 </v>
   <v>      -0.45833333       0.26666667       0.10000000 </v>
   <v>      -0.41666667       0.26666667       0.10000000 </v>
   <v>      -0.37500000       0.26666667       0.10000000 </v>
   <v>      -0.33333333       0.26666667       0.10000000 </v>
   <v>      -0.29166667       0.26666667       0.10000000 </v>
   <v>      -0.25000000       0.26666667       0.10000000 </v>
   <v>      -0.20833333       0.26666667       0.10000000 </v>
   <v>      -0.16666667       0.26666667       0.10000000 </v>
   <v>      -0.12500000       0.26666667       0.10000000 </v>
   <v>      -0.08333333       0.26666667       0.10000000 </v>
   <v>      -0.04166667       0.26666667       0.10000000 </v>
   <v>       0.00000000       0.33333333       0.10000000 </v>
   <v>       0.04166667       0.33333333       0.10000000 </v>
   <v>       0.08333333       0.33333333       0.10000000 </v>
   <v>       0.12500000       0.33333333       0.10000000 </v>
   <v>       0.16666667       0.33333333       0.10000000 </v>
   <v>       0.20833333       0.33333333       0.10000000 </v>
   <v>       0.25000000       0.33333333       0.10000000 </v>
   <v>       0.29166667       0.33333333       0.10000000 </v>
   <v>       0.33333333       0.33333333       0.10000000 </v>
   <v>       0.37500000       0.33333333       0.10000000 </v>
   <v>       0.41666667       0.33333333       0.10000000 </v>
   <v>       0.45833333       0.33333333       0.10000000 </v>
   <v>       0.50000000       0.33333333       0.10000000 </v>
   <v>      -0.45833333       0.33333333       0.10000000 </v>
   <v>      -0.41666667       0.33333333       0.10000000 </v>
   <v>      -0.37500000       0.33333333       0.10000000 </v>
   <v>      -0.33333333       0.33333333       0.10000000 </v>
   <v>      -0.29166667       0.33333333       0.10000000 </v>
   <v>      -0.25000000       0.33333333       0.10000000 </v>
   <v>      -0.20833333       0.33333333       0.10000000 </v>
   <v>      -0.16666667       0.33333333       0.10000000 </v>
   <v>      -0.12500000       0.33333333       0.10000000 </v>
   <v>      -0.08333333       0.33333333       0.10000000 </v>
   <v>      -0.04166667       0.33333333       0.10000000 </v>
   <v>       0.00000000       0.40000000       0.10000000 </v>
   <v>       0.04166667       0.40000000       0.10000000 </v>
   <v>       0.08333333       0.40000000       0.10000000 </v>
   <v>       0.12500000       0.40000000       0.10000000 </v>
   <v>       0.16666667       0.40000000       0.10000000 </v>
   <v>       0.20833333       0.40000000       0.10000000 </v>
   <v>       0.25000000       0.40000000       0.10000000 </v>
   <v>       0.29166667       0.40000000       0.10000000 </v>
   <v>       0.33333333       0.40000000       0.10000000 </v>
   <v>       0.37500000       0.40000000       0.10000000 </v>
   <v>       0.41666667       0.40000000       0.10000000 </v>
   <v>       0.45833333       0.40000000       0.10000000 </v>
   <v>       0.50000000       0.40000000       0.10000000 </v>
   <v>      -0.45833333       0.40000000       0.10000000 </v>
   <v>      -0.41666667       0.40000000       0.10000000 </v>
   <v>      -0.37500000       0.40000000       0.10000000 </v>
   <v>      -0.33333333       0.40000000       0.10000000 </v>
   <v>      -0.29166667       0.40000000       0.10000000 </v>
   <v>      -0.25000000       0.40000000       0.10000000 </v>
   <v>      -0.20833333       0.40000000       0.10000000 </v>
   <v>      -0.16666667       0.40000000       0.10000000 </v>
   <v>      -0.12500000       0.40000000       0.10000000 </v>
   <v>      -0.08333333       0.40000000       0.10000000 </v>
   <v>      -0.04166667       0.40000000       0.10000000 </v>
   <v>       0.00000000       0.46666667       0.10000000 </v>
   <v>       0.04166667       0.46666667       0.10000000 </v>
   <v>       0.08333333       0.46666667       0.10000000 </v>
   <v>       0.12500000       0.46666667       0.10000000 </v>
   <v>       0.16666667       0.46666667       0.10000000 </v>
   <v>       0.20833333       0.46666667       0.10000000 </v>
   <v>       0.25000000       0.46666667       0.10000000 </v>
   <v>       0.29166667       0.46666667       0.10000000 </v>
   <v>       0.33333333       0.46666667       0.10000000 </v>
   <v>       0.37500000       0.46666667       0.10000000 </v>
   <v>       0.41666667       0.46666667       0.10000000 </v>
   <v>       0.45833333       0.46666667       0.10000000 </v>
   <v>       0.50000000       0.46666667       0.10000000 </v>
   <v>      -0.45833333       0.46666667       0.10000000 </v>
   <v>      -0.41666667       0.46666667       0.10000000 </v>
   <v>      -0.37500000       0.46666667       0.10000000 </v>
   <v>      -0.33333333       0.46666667       0.10000000 </v>
   <v>      -0.29166667       0.46666667       0.10000000 </v>
   <v>      -0.25000000       0.46666667       0.10000000 </v>
   <v>      -0.20833333       0.46666667       0.10000000 </v>
   <v>      -0.16666667       0.46666667       0.10000000 </v>
   <v>      -0.12500000       0.46666667       0.10000000 </v>
   <v>      -0.08333333       0.46666667       0.10000000 </v>
   <v>      -0.04166667       0.46666667       0.10000000 </v>
   <v>       0.00000000      -0.46666667       0.10000000 </v>
   <v>       0.04166667      -0.46666667       0.10000000 </v>
   <v>       0.08333333      -0.46666667       0.10000000 </v>
   <v>       0.12500000      -0.46666667       0.10000000 </v>
   <v>       0.16666667      -0.46666667       0.10000000 </v>
   <v>       0.20833333      -0.46666667       0.10000000 </v>
   <v>       0.25000000      -0.46666667       0.10000000 </v>
   <v>       0.29166667      -0.46666667       0.10000000 </v>
   <v>       0.33333333      -0.46666667       0.10000000 </v>
   <v>       0.37500000      -0.46666667       0.10000000 </v>
   <v>       0.41666667      -0.46666667       0.10000000 </v>
   <v>       0.45833333      -0.46666667       0.10000000 </v>
   <v>       0.50000000      -0.46666667       0.10000000 </v>
   <v>      -0.45833333      -0.46666667       0.10000000 </v>
   <v>      -0.41666667      -0.46666667       0.10000000 </v>
   <v>      -0.37500000      -0.46666667       0.10000000 </v>
   <v>      -0.33333333      -0.46666667       0.10000000 </v>
   <v>      -0.29166667      -0.46666667       0.10000000 </v>
   <v>      -0.25000000      -0.46666667       0.10000000 </v>
   <v>      -0.20833333      -0.46666667       0.10000000 </v>
   <v>      -0.16666667      -0.46666667       0.10000000 </v>
   <v>      -0.12500000      -0.46666667       0.10000000 </v>
   <v>      -0.08333333      -0.46666667       0.10000000 </v>
   <v>      -0.04166667      -0.46666667       0.10000000 </v>
   <v>       0.00000000      -0.40000000       0.10000000 </v>
   <v>       0.04166667      -0.40000000       0.10000000 </v>
   <v>       0.08333333      -0.40000000       0.10000000 </v>
   <v>       0.12500000      -0.40000000       0.10000000 </v>
   <v>       0.16666667      -0.40000000       0.10000000 </v>
   <v>       0.20833333      -0.40000000       0.10000000 </v>
   <v>       0.25000000      -0.40000000       0.10000000 </v>
   <v>       0.29166667      -0.40000000       0.10000000 </v>
   <v>       0.33333333      -0.40000000       0.10000000 </v>
   <v>       0.37500000      -0.40000000       0.10000000 </v>
   <v>       0.41666667      -0.40000000       0.10000000 </v>
   <v>       0.45833333      -0.40000000       0.10000000 </v>
   <v>       0.50000000      -0.40000000       0.10000000 </v>
   <v>      -0.45833333      -0.40000000       0.10000000 </v>
   <v>      -0.41666667      -0.40000000       0.10000000 </v>
   <v>      -0.37500000      -0.40000000       0.10000000 </v>
   <v>      -0.33333333      -0.40000000       0.10000000 </v>
   <v>      -0.29166667      -0.40000000       0.10000000 </v>
   <v>      -0.25000000      -0.40000000       0.10000000 </v>
   <v>      -0.20833333      -0.40000000       0.10000000 </v>
   <v>      -0.16666667      -0.40000000       0.10000000 </v>
   <v>      -0.12500000      -0.40000000       0.10000000 </v>
   <v>      -0.08333333      -0.40000000       0.10000000 </v>
   <v>      -0.04166667      -0.40000000       0.10000000 </v>
   <v>       0.00000000      -0.33333333       0.10000000 </v>
   <v>       0.04166667      -0.33333333       0.10000000 </v>
   <v>       0.08333333      -0.33333333       0.10000000 </v>
   <v>       0.12500000      -0.33333333       0.10000000 </v>
   <v>       0.16666667      -0.33333333       0.10000000 </v>
   <v>       0.20833333      -0.33333333       0.10000000 </v>
   <v>       0.25000000      -0.33333333       0.10000000 </v>
   <v>       0.29166667      -0.33333333       0.10000000 </v>
   <v>       0.33333333      -0.33333333       0.10000000 </v>
   <v>       0.37500000      -0.33333333       0.10000000 </v>
   <v>       0.41666667      -0.33333333       0.10000000 </v>
   <v>       0.45833333      -0.33333333       0.10000000 </v>
   <v>       0.50000000      -0.33333333       0.10000000 </v>
   <v>      -0.45833333      -0.33333333       0.10000000 </v>
   <v>      -0.41666667      -0.33333333       0.10000000 </v>
   <v>      -0.37500000      -0.33333333       0.10000000 </v>
   <v>      -0.33333333      -0.33333333       0.10000000 </v>
   <v>      -0.29166667      -0.33333333       0.10000000 </v>
   <v>      -0.25000000      -0.33333333       0.10000000 </v>
   <v>      -0.20833333      -0.33333333       0.10000000 </v>
   <v>      -0.16666667      -0.33333333       0.10000000 </v>
   <v>      -0.12500000      -0.33333333       0.10000000 </v>
   <v>      -0.08333333      -0.33333333       0.10000000 </v>
   <v>      -0.04166667      -0.33333333       0.10000000 </v>
   <v>       0.00000000      -0.26666667       0.10000000 </v>
   <v>       0.04166667      -0.26666667       0.10000000 </v>
   <v>       0.08333333      -0.26666667       0.10000000 </v>
   <v>       0.12500000      -0.26666667       0.10000000 </v>
   <v>       0.16666667      -0.26666667       0.10000000 </v>
   <v>       0.20833333      -0.26666667       0.10000000 </v>
   <v>       0.25000000      -0.26666667       0.10000000 </v>
   <v>       0.29166667      -0.26666667       0.10000000 </v>
   <v>       0.33333333      -0.26666667       0.10000000 </v>
   <v>       0.37500000      -0.26666667       0.10000000 </v>
   <v>       0.41666667      -0.26666667       0.10000000 </v>
   <v>       0.45833333      -0.26666667       0.10000000 </v>
   <v>       0.50000000      -0.26666667       0.10000000 </v>
   <v>      -0.45833333      -0.26666667       0.10000000 </v>
   <v>      -0.41666667      -0.26666667       0.10000000 </v>
   <v>      -0.37500000      -0.26666667       0.10000000 </v>
   <v>      -0.33333333      -0.26666667       0.10000000 </v>
   <v>      -0.29166667      -0.26666667       0.10000000 </v>
   <v>      -0.25000000      -0.26666667       0.10000000 </v>
   <v>      -0.20833333      -0.26666667       0.10000000 </v>
   <v>      -0.16666667      -0.26666667       0.10000000 </v>
   <v>      -0.12500000      -0.26666667       0.10000000 </v>
   <v>      -0.08333333      -0.26666667       0.10000000 </v>
   <v>      -0.04166667      -0.26666667       0.10000000 </v>
   <v>       0.00000000      -0.20000000       0.10000000 </v>
   <v>       0.04166667      -0.20000000       0.10000000 </v>
   <v>       0.08333333      -0.20000000       0.10000000 </v>
   <v>       0.12500000      -0.20000000       0.10000000 </v>
   <v>       0.16666667      -0.20000000       0.10000000 </v>
   <v>       0.20833333      -0.20000000       0.10000000 </v>
   <v>       0.25000000      -0.20000000       0.10000000 </v>
   <v>       0.29166667      -0.20000000       0.10000000 </v>
   <v>       0.33333333      -0.20000000       0.10000000 </v>
   <v>       0.37500000      -0.20000000       0.10000000 </v>
   <v>       0.41666667      -0.20000000       0.10000000 </v>
   <v>       0.45833333      -0.20000000       0.10000000 </v>
   <v>       0.50000000      -0.20000000       0.10000000 </v>
   <v>      -0.45833333      -0.20000000       0.10000000 </v>
   <v>      -0.41666667      -0.20000000       0.10000000 </v>
   <v>      -0.37500000      -0.20000000       0.10000000 </v>
   <v>      -0.33333333      -0.20000000       0.10000000 </v>
   <v>      -0.29166667      -0.20000000       0.10000000 </v>
   <v>      -0.25000000      -0.20000000       0.10000000 </v>
   <v>      -0.20833333      -0.20000000       0.10000000 </v>
   <v>      -0.16666667      -0.20000000       0.10000000 </v>
   <v>      -0.12500000      -0.20000000       0.10000000 </v>
   <v>      -0.08333333      -0.20000000       0.10000000 </v>
   <v>      -0.04166667      -0.20000000       0.10000000 </v>
   <v>       0.00000000      -0.13333333       0.10000000 </v>
   <v>       0.04166667      -0.13333333       0.10000000 </v>
   <v>       0.08333333      -0.13333333       0.10000000 </v>
   <v>       0.12500000      -0.13333333       0.10000000 </v>
   <v>       0.16666667      -0.13333333       0.10000000 </v>
   <v>       0.20833333      -0.13333333       0.10000000 </v>
   <v>       0.25000000      -0.13333333       0.10000000 </v>
   <v>       0.29166667      -0.13333333       0.10000000 </v>
   <v>       0.33333333      -0.13333333       0.10000000 </v>
   <v>       0.37500000      -0.13333333       0.10000000 </v>
   <v>       0.41666667      -0.13333333       0.10000000 </v>
   <v>       0.45833333      -0.13333333       0.10000000 </v>
   <v>       0.50000000      -0.13333333       0.10000000 </v>
   <v>      -0.45833333      -0.13333333       0.10000000 </v>
   <v>      -0.41666667      -0.13333333       0.10000000 </v>
   <v>      -0.37500000      -0.13333333       0.10000000 </v>
   <v>      -0.33333333      -0.13333333       0.10000000 </v>
   <v>      -0.29166667      -0.13333333       0.10000000 </v>
   <v>      -0.25000000      -0.13333333       0.10000000 </v>
   <v>      -0.20833333      -0.13333333       0.10000000 </v>
   <v>      -0.16666667      -0.13333333       0.10000000 </v>
   <v>      -0.12500000      -0.13333333       0.10000000 </v>
   <v>      -0.08333333      -0.13333333       0.10000000 </v>
   <v>      -0.04166667      -0.13333333       0.10000000 </v>
   <v>       0.00000000      -0.06666667       0.10000000 </v>
   <v>       0.04166667      -0.06666667       0.10000000 </v>
   <v>       0.08333333      -0.06666667       0.10000000 </v>
   <v>       0.12500000      -0.06666667       0.10000000 </v>
   <v>       0.16666667      -0.06666667       0.10000000 </v>
   <v>       0.20833333      -0.06666667       0.10000000 </v>
   <v>       0.25000000      -0.06666667       0.10000000 </v>
   <v>       0.29166667      -0.06666667       0.10000000 </v>
   <v>       0.33333333      -0.06666667       0.10000000 </v>
   <v>       0.37500000      -0.06666667       0.10000000 </v>
   <v>       0.41666667      -0.06666667       0.10000000 </v>
   <v>       0.45833333      -0.06666667       0.10000000 </v>
   <v>       0.50000000      -0.06666667       0.10000000 </v>
   <v>      -0.45833333      -0.06666667       0.10000000 </v>
   <v>      -0.41666667      -0.06666667       0.10000000 </v>
   <v>      -0.37500000      -0.06666667       0.10000000 </v>
   <v>      -0.33333333      -0.06666667       0.10000000 </v>
   <v>      -0.29166667      -0.06666667       0.10000000 </v>
   <v>      -0.25000000      -0.06666667       0.10000000 </v>
   <v>      -0.20833333      -0.06666667       0.10000000 </v>
   <v>      -0.16666667      -0.06666667       0.10000000 </v>
   <v>      -0.12500000      -0.06666667       0.10000000 </v>
   <v>      -0.08333333      -0.06666667       0.10000000 </v>
   <v>      -0.04166667      -0.06666667       0.10000000 </v>
   <v>       0.00000000       0.00000000       0.20000000 </v>
   <v>       0.04166667       0.00000000       0.20000000 </v>
   <v>       0.08333333       0.00000000       0.20000000 </v>
   <v>       0.12500000       0.00000000       0.20000000 </v>
   <v>       0.16666667       0.00000000       0.20000000 </v>
   <v>       0.20833333       0.00000000       0.20000000 </v>
   <v>       0.25000000       0.00000000       0.20000000 </v>
   <v>       0.29166667       0.00000000       0.20000000 </v>
   <v>       0.33333333       0.00000000       0.20000000 </v>
   <v>       0.37500000       0.00000000       0.20000000 </v>
   <v>       0.41666667       0.00000000       0.20000000 </v>
   <v>       0.45833333       0.00000000       0.20000000 </v>
   <v>       0.50000000       0.00000000       0.20000000 </v>
   <v>      -0.45833333       0.00000000       0.20000000 </v>
   <v>      -0.41666667       0.00000000       0.20000000 </v>
   <v>      -0.37500000       0.00000000       0.20000000 </v>
   <v>      -0.33333333       0.00000000       0.20000000 </v>
   <v>      -0.29166667       0.00000000       0.20000000 </v>
   <v>      -0.25000000       0.00000000       0.20000000 </v>
   <v>      -0.20833333       0.00000000       0.20000000 </v>
   <v>      -0.16666667       0.00000000       0.20000000 </v>
   <v>      -0.12500000       0.00000000       0.20000000 </v>
   <v>      -0.08333333       0.00000000       0.20000000 </v>
   <v>      -0.04166667       0.00000000       0.20000000 </v>
   <v>       0.00000000       0.06666667       0.20000000 </v>
   <v>       0.04166667       0.06666667       0.20000000 </v>
   <v>       0.08333333       0.06666667       0.20000000 </v>
   <v>       0.12500000       0.06666667       0.20000000 </v>
   <v>       0.16666667       0.06666667       0.20000000 </v>
   <v>       0.20833333       0.06666667       0.20000000 </v>
   <v>       0.25000000       0.06666667       0.20000000 </v>
   <v>       0.29166667       0.06666667       0.20000000 </v>
   <v>       0.33333333       0.06666667       0.20000000 </v>
   <v>       0.37500000       0.06666667       0.20000000 </v>
   <v>       0.41666667       0.06666667       0.20000000 </v>
   <v>       0.45833333       0.06666667       0.20000000 </v>
   <v>       0.50000000       0.06666667       0.20000000 </v>
   <v>      -0.45833333       0.06666667       0.20000000 </v>
   <v>      -0.41666667       0.06666667       0.20000000 </v>
   <v>      -0.37500000       0.06666667       0.20000000 </v>
   <v>      -0.33333333       0.06666667       0.20000000 </v>
   <v>      -0.29166667       0.06666667       0.20000000 </v>
   <v>      -0.25000000       0.06666667       0.20000000 </v>
   <v>      -0.20833333       0.06666667       0.20000000 </v>
   <v>      -0.16666667       0.06666667       0.20000000 </v>
   <v>      -0.12500000       0.06666667       0.20000000 </v>
   <v>      -0.08333333       0.06666667       0.20000000 </v>
   <v>      -0.04166667       0.06666667       0.20000000 </v>
   <v>       0.00000000       0.13333333       0.20000000 </v>
   <v>       0.04166667       0.13333333       0.20000000 </v>
   <v>       0.08333333       0.13333333       0.20000000 </v>
   <v>       0.12500000       0.13333333       0.20000000 </v>
   <v>       0.16666667       0.13333333       0.20000000 </v>
   <v>       0.20833333       0.13333333       0.20000000 </v>
   <v>       0.25000000       0.13333333       0.20000000 </v>
   <v>       0.29166667       0.13333333       0.20000000 </v>
   <v>       0.33333333       0.13333333       0.20000000 </v>
   <v>       0.37500000       0.13333333       0.20000000 </v>
   <v>       0.41666667       0.13333333       0.20000000 </v>
   <v>       0.45833333       0.13333333       0.20000000 </v>
   <v>       0.50000000       0.13333333       0.20000000 </v>
   <v>      -0.45833333       0.13333333       0.20000000 </v>
   <v>      -0.41666667       0.13333333       0.20000000 </v>
   <v>      -0.37500000       0.13333333       0.20000000 </v>
   <v>      -0.33333333       0.13333333       0.20000000 </v>
   <v>      -0.29166667       0.13333333       0.20000000 </v>
   <v>      -0.25000000       0.13333333       0.20000000 </v>
   <v>      -0.20833333       0.13333333       0.20000000 </v>
   <v>      -0.16666667       0.13333333       0.20000000 </v>
   <v>      -0.12500000       0.13333333       0.20000000 </v>
   <v>      -0.08333333       0.13333333       0.20000000 </v>
   <v>      -0.04166667       0.13333333       0.20000000 </v>
   <v>       0.00000000       0.20000000       0.20000000 </v>
   <v>       0.04166667       0.20000000       0.20000000 </v>
   <v>       0.08333333       0.20000000       0.20000000 </v>
   <v>       0.12500000       0.20000000       0.20000000 </v>
   <v>       0.16666667       0.20000000       0.20000000 </v>
   <v>       0.20833333       0.20000000       0.20000000 </v>
   <v>       0.25000000       0.20000000       0.20000000 </v>
   <v>       0.29166667       0.20000000       0.20000000 </v>
   <v>       0.33333333       0.20000000       0.20000000 </v>
   <v>       0.37500000       0.20000000       0.20000000 </v>
   <v>       0.41666667       0.20000000       0.20000000 </v>
   <v>       0.45833333       0.20000000       0.20000000 </v>
   <v>       0.50000000       0.20000000       0.20000000 </v>
   <v>      -0.45833333       0.20000000       0.20000000 </v>
   <v>      -0.41666667       0.20000000       0.20000000 </v>
   <v>      -0.37500000       0.20000000       0.20000000 </v>
   <v>      -0.33333333       0.20000000       0.20000000 </v>
   <v>      -0.29166667       0.20000000       0.20000000 </v>
   <v>      -0.25000000       0.20000000       0.20000000 </v>
   <v>      -0.20833333       0.20000000       0.20000000 </v>
   <v>      -0.16666667       0.20000000       0.20000000 </v>
   <v>      -0.12500000       0.20000000       0.20000000 </v>
   <v>      -0.08333333       0.20000000       0.20000000 </v>
   <v>      -0.04166667       0.20000000       0.20000000 </v>
   <v>       0.00000000       0.26666667       0.20000000 </v>
   <v>       0.04166667       0.26666667       0.20000000 </v>
   <v>       0.08333333       0.26666667       0.20000000 </v>
   <v>       0.12500000       0.26666667       0.20000000 </v>
   <v>       0.16666667       0.26666667       0.20000000 </v>
   <v>       0.20833333       0.26666667       0.20000000 </v>
   <v>       0.25000000       0.26666667       0.20000000 </v>
   <v>       0.29166667       0.26666667       0.20000000 </v>
   <v>       0.33333333       0.26666667       0.20000000 </v>
   <v>       0.37500000       0.26666667       0.20000000 </v>
   <v>       0.41666667       0.26666667       0.20000000 </v>
   <v>       0.45833333       0.26666667       0.20000000 </v>
   <v>       0.50000000       0.26666667       0.20000000 </v>
   <v>      -0.45833333       0.26666667       0.20000000 </v>
   <v>      -0.41666667       0.26666667       0.20000000 </v>
   <v>      -0.37500000       0.26666667       0.20000000 </v>
   <v>      -0.33333333       0.26666667       0.20000000 </v>
   <v>      -0.29166667       0.26666667       0.20000000 </v>
   <v>      -0.25000000       0.26666667       0.20000000 </v>
   <v>      -0.20833333       0.26666667       0.20000000 </v>
   <v>      -0.16666667       0.26666667       0.20000000 </v>
   <v>      -0.12500000       0.26666667       0.20000000 </v>
   <v>      -0.08333333       0.26666667       0.20000000 </v>
   <v>      -0.04166667       0.26666667       0.20000000 </v>
   <v>       0.00000000       0.33333333       0.20000000 </v>
   <v>       0.04166667       0.33333333       0.20000000 </v>
   <v>       0.08333333       0.33333333       0.20000000 </v>
   <v>       0.12500000       0.33333333       0.20000000 </v>
   <v>       0.16666667       0.33333333       0.20000000 </v>
   <v>       0.20833333       0.33333333       0.20000000 </v>
   <v>       0.25000000       0.33333333       0.20000000 </v>
   <v>       0.29166667       0.33333333       0.20000000 </v>
   <v>       0.33333333       0.33333333       0.20000000 </v>
   <v>       0.37500000       0.33333333       0.20000000 </v>
   <v>       0.41666667       0.33333333       0.20000000 </v>
   <v>       0.45833333       0.33333333       0.20000000 </v>
   <v>       0.50000000       0.33333333       0.20000000 </v>
   <v>      -0.45833333       0.33333333       0.20000000 </v>
   <v>      -0.41666667       0.33333333       0.20000000 </v>
   <v>      -0.37500000       0.33333333       0.20000000 </v>
   <v>      -0.33333333       0.33333333       0.20000000 </v>
   <v>      -0.29166667       0.33333333       0.20000000 </v>
   <v>      -0.25000000       0.33333333       0.20000000 </v>
   <v>      -0.20833333       0.33333333       0.20000000 </v>
   <v>      -0.16666667       0.33333333       0.20000000 </v>
   <v>      -0.12500000       0.33333333       0.20000000 </v>
   <v>      -0.08333333       0.33333333       0.20000000 </v>
   <v>      -0.04166667       0.33333333       0.20000000 </v>
   <v>       0.00000000       0.40000000       0.20000000 </v>
   <v>       0.04166667       0.40000000       0.20000000 </v>
   <v>       0.08333333       0.40000000       0.20000000 </v>
   <v>       0.12500000       0.40000000       0.20000000 </v>
   <v>       0.16666667       0.40000000       0.20000000 </v>
   <v>       0.20833333       0.40000000       0.20000000 </v>
   <v>       0.25000000       0.40000000       0.20000000 </v>
   <v>       0.29166667       0.40000000       0.20000000 </v>
   <v>       0.33333333       0.40000000       0.20000000 </v>
   <v>       0.37500000       0.40000000       0.20000000 </v>
   <v>       0.41666667       0.40000000       0.20000000 </v>
   <v>       0.45833333       0.40000000       0.20000000 </v>
   <v>       0.50000000       0.40000000       0.20000000 </v>
   <v>      -0.45833333       0.40000000       0.20000000 </v>
   <v>      -0.41666667       0.40000000       0.20000000 </v>
   <v>      -0.37500000       0.40000000       0.20000000 </v>
   <v>      -0.33333333       0.40000000       0.20000000 </v>
   <v>      -0.29166667       0.40000000       0.20000000 </v>
   <v>      -0.25000000       0.40000000       0.20000000 </v>
   <v>      -0.20833333       0.40000000       0.20000000 </v>
   <v>      -0.16666667       0.40000000       0.20000000 </v>
   <v>      -0.12500000       0.40000000       0.20000000 </v>
   <v>      -0.08333333       0.40000000       0.20000000 </v>
   <v>      -0.04166667       0.40000000       0.20000000 </v>
   <v>       0.00000000       0.46666667       0.20000000 </v>
   <v>       0.04166667       0.46666667       0.20000000 </v>
   <v>       0.08333333       0.46666667       0.20000000 </v>
   <v>       0.12500000       0.46666667       0.20000000 </v>
   <v>       0.16666667       0.46666667       0.20000000 </v>
   <v>       0.20833333       0.46666667       0.20000000 </v>
   <v>       0.25000000       0.46666667       0.20000000 </v>
   <v>       0.29166667       0.46666667       0.20000000 </v>
   <v>       0.33333333       0.46666667       0.20000000 </v>
   <v>       0.37500000       0.46666667       0.20000000 </v>
   <v>       0.41666667       0.46666667       0.20000000 </v>
   <v>       0.45833333       0.46666667       0.20000000 </v>
   <v>       0.50000000       0.46666667       0.20000000 </v>
   <v>      -0.45833333       0.46666667       0.20000000 </v>
   <v>      -0.41666667       0.46666667       0.20000000 </v>
   <v>      -0.37500000       0.46666667       0.20000000 </v>
   <v>      -0.33333333       0.46666667       0.20000000 </v>
   <v>      -0.29166667       0.46666667       0.20000000 </v>
   <v>      -0.25000000       0.46666667       0.20000000 </v>
   <v>      -0.20833333       0.46666667       0.20000000 </v>
   <v>      -0.16666667       0.46666667       0.20000000 </v>
   <v>      -0.12500000       0.46666667       0.20000000 </v>
   <v>      -0.08333333       0.46666667       0.20000000 </v>
   <v>      -0.04166667       0.46666667       0.20000000 </v>
   <v>       0.00000000      -0.46666667       0.20000000 </v>
   <v>       0.04166667      -0.46666667       0.20000000 </v>
   <v>       0.08333333      -0.46666667       0.20000000 </v>
   <v>       0.12500000      -0.46666667       0.20000000 </v>
   <v>       0.16666667      -0.46666667       0.20000000 </v>
   <v>       0.20833333      -0.46666667       0.20000000 </v>
   <v>       0.25000000      -0.46666667       0.20000000 </v>
   <v>       0.29166667      -0.46666667       0.20000000 </v>
   <v>       0.33333333      -0.46666667       0.20000000 </v>
   <v>       0.37500000      -0.46666667       0.20000000 </v>
   <v>       0.41666667      -0.46666667       0.20000000 </v>
   <v>       0.45833333      -0.46666667       0.20000000 </v>
   <v>       0.50000000      -0.46666667       0.20000000 </v>
   <v>      -0.45833333      -0.46666667       0.20000000 </v>
   <v>      -0.41666667      -0.46666667       0.20000000 </v>
   <v>      -0.37500000      -0.46666667       0.20000000 </v>
   <v>      -0.33333333      -0.46666667       0.20000000 </v>
   <v>      -0.29166667      -0.46666667       0.20000000 </v>
   <v>      -0.25000000      -0.46666667       0.20000000 </v>
   <v>      -0.20833333      -0.46666667       0.20000000 </v>
   <v>      -0.16666667      -0.46666667       0.20000000 </v>
   <v>      -0.12500000      -0.46666667       0.20000000 </v>
   <v>      -0.08333333      -0.46666667       0.20000000 </v>
   <v>      -0.04166667      -0.46666667       0.20000000 </v>
   <v>       0.00000000      -0.40000000       0.20000000 </v>
   <v>       0.04166667      -0.40000000       0.20000000 </v>
   <v>       0.08333333      -0.40000000       0.20000000 </v>
   <v>       0.12500000      -0.40000000       0.20000000 </v>
   <v>       0.16666667      -0.40000000       0.20000000 </v>
   <v>       0.20833333      -0.40000000       0.20000000 </v>
   <v>       0.25000000      -0.40000000       0.20000000 </v>
   <v>       0.29166667      -0.40000000       0.20000000 </v>
   <v>       0.33333333      -0.40000000       0.20000000 </v>
   <v>       0.37500000      -0.40000000       0.20000000 </v>
   <v>       0.41666667      -0.40000000       0.20000000 </v>
   <v>       0.45833333      -0.40000000       0.20000000 </v>
   <v>       0.50000000      -0.40000000       0.20000000 </v>
   <v>      -0.45833333      -0.40000000       0.20000000 </v>
   <v>      -0.41666667      -0.40000000       0.20000000 </v>
   <v>      -0.37500000      -0.40000000       0.20000000 </v>
   <v>      -0.33333333      -0.40000000       0.20000000 </v>
   <v>      -0.29166667      -0.40000000       0.20000000 </v>
   <v>      -0.25000000      -0.40000000       0.20000000 </v>
   <v>      -0.20833333      -0.40000000       0.20000000 </v>
   <v>      -0.16666667      -0.40000000       0.20000000 </v>
   <v>      -0.12500000      -0.40000000       0.20000000 </v>
   <v>      -0.08333333      -0.40000000       0.20000000 </v>
   <v>      -0.04166667      -0.40000000       0.20000000 </v>
   <v>       0.00000000      -0.33333333       0.20000000 </v>
   <v>       0.04166667      -0.33333333       0.20000000 </v>
   <v>       0.08333333      -0.33333333       0.20000000 </v>
   <v>       0.12500000      -0.33333333       0.20000000 </v>
   <v>       0.16666667      -0.33333333       0.20000000 </v>
   <v>       0.20833333      -0.33333333       0.20000000 </v>
   <v>       0.25000000      -0.33333333       0.20000000 </v>
   <v>       0.29166667      -0.33333333       0.20000000 </v>
   <v>       0.33333333      -0.33333333       0.20000000 </v>
   <v>       0.37500000      -0.33333333       0.20000000 </v>
   <v>       0.41666667      -0.33333333       0.20000000 </v>
   <v>       0.45833333      -0.33333333       0.20000000 </v>
   <v>       0.50000000      -0.33333333       0.20000000 </v>
   <v>      -0.45833333      -0.33333333       0.20000000 </v>
   <v>      -0.41666667      -0.33333333       0.20000000 </v>
   <v>      -0.37500000      -0.33333333       0.20000000 </v>
   <v>      -0.33333333      -0.33333333       0.20000000 </v>
   <v>      -0.29166667      -0.33333333       0.20000000 </v>
   <v>      -0.25000000      -0.33333333       0.20000000 </v>
   <v>      -0.20833333      -0.33333333       0.20000000 </v>
   <v>      -0.16666667      -0.33333333       0.20000000 </v>
   <v>      -0.12500000      -0.33333333       0.20000000 </v>
   <v>      -0.08333333      -0.33333333       0.20000000 </v>
   <v>      -0.04166667      -0.33333333       0.20000000 </v>
   <v>       0.00000000      -0.26666667       0.20000000 </v>
   <v>       0.04166667      -0.26666667       0.20000000 </v>
   <v>       0.08333333      -0.26666667       0.20000000 </v>
   <v>       0.12500000      -0.26666667       0.20000000 </v>
   <v>       0.16666667      -0.26666667       0.20000000 </v>
   <v>       0.20833333      -0.26666667       0.20000000 </v>
   <v>       0.25000000      -0.26666667       0.20000000 </v>
   <v>       0.29166667      -0.26666667       0.20000000 </v>
   <v>       0.33333333      -0.26666667       0.20000000 </v>
   <v>       0.37500000      -0.26666667       0.20000000 </v>
   <v>       0.41666667      -0.26666667       0.20000000 </v>
   <v>       0.45833333      -0.26666667       0.20000000 </v>
   <v>       0.50000000      -0.26666667       0.20000000 </v>
   <v>      -0.45833333      -0.26666667       0.20000000 </v>
   <v>      -0.41666667      -0.26666667       0.20000000 </v>
   <v>      -0.37500000      -0.26666667       0.20000000 </v>
   <v>      -0.33333333      -0.26666667       0.20000000 </v>
   <v>      -0.29166667      -0.26666667       0.20000000 </v>
   <v>      -0.25000000      -0.26666667       0.20000000 </v>
   <v>      -0.20833333      -0.26666667       0.20000000 </v>
   <v>      -0.16666667      -0.26666667       0.20000000 </v>
   <v>      -0.12500000      -0.26666667       0.20000000 </v>
   <v>      -0.08333333      -0.26666667       0.20000000 </v>
   <v>      -0.04166667      -0.26666667       0.20000000 </v>
   <v>       0.00000000      -0.20000000       0.20000000 </v>
   <v>       0.04166667      -0.20000000       0.20000000 </v>
   <v>       0.08333333      -0.20000000       0.20000000 </v>
   <v>       0.12500000      -0.20000000       0.20000000 </v>
   <v>       0.16666667      -0.20000000       0.20000000 </v>
   <v>       0.20833333      -0.20000000       0.20000000 </v>
   <v>       0.25000000      -0.20000000       0.20000000 </v>
   <v>       0.29166667      -0.20000000       0.20000000 </v>
   <v>       0.33333333      -0.20000000       0.20000000 </v>
   <v>       0.37500000      -0.20000000       0.20000000 </v>
   <v>       0.41666667      -0.20000000       0.20000000 </v>
   <v>       0.45833333      -0.20000000       0.20000000 </v>
   <v>       0.50000000      -0.20000000       0.20000000 </v>
   <v>      -0.45833333      -0.20000000       0.20000000 </v>
   <v>      -0.41666667      -0.20000000       0.20000000 </v>
   <v>      -0.37500000      -0.20000000       0.20000000 </v>
   <v>      -0.33333333      -0.20000000       0.20000000 </v>
   <v>      -0.29166667      -0.20000000       0.20000000 </v>
   <v>      -0.25000000      -0.20000000       0.20000000 </v>
   <v>      -0.20833333      -0.20000000       0.20000000 </v>
   <v>      -0.16666667      -0.20000000       0.20000000 </v>
   <v>      -0.12500000      -0.20000000       0.20000000 </v>
   <v>      -0.08333333      -0.20000000       0.20000000 </v>
   <v>      -0.04166667      -0.20000000       0.20000000 </v>
   <v>       0.00000000      -0.13333333       0.20000000 </v>
   <v>       0.04166667      -0.13333333       0.20000000 </v>
   <v>       0.08333333      -0.13333333       0.20000000 </v>
   <v>       0.12500000      -0.13333333       0.20000000 </v>
   <v>       0.16666667      -0.13333333       0.20000000 </v>
   <v>       0.20833333      -0.13333333       0.20000000 </v>
   <v>       0.25000000      -0.13333333       0.20000000 </v>
   <v>       0.29166667      -0.13333333       0.20000000 </v>
   <v>       0.33333333      -0.13333333       0.20000000 </v>
   <v>       0.37500000      -0.13333333       0.20000000 </v>
   <v>       0.41666667      -0.13333333       0.20000000 </v>
   <v>       0.45833333      -0.13333333       0.20000000 </v>
   <v>       0.50000000      -0.13333333       0.20000000 </v>
   <v>      -0.45833333      -0.13333333       0.20000000 </v>
   <v>      -0.41666667      -0.13333333       0.20000000 </v>
   <v>      -0.37500000      -0.13333333       0.20000000 </v>
   <v>      -0.33333333      -0.13333333       0.20000000 </v>
   <v>      -0.29166667      -0.13333333       0.20000000 </v>
   <v>      -0.25000000      -0.13333333       0.20000000 </v>
   <v>      -0.20833333      -0.13333333       0.20000000 </v>
   <v>      -0.16666667      -0.13333333       0.20000000 </v>
   <v>      -0.12500000      -0.13333333       0.20000000 </v>
   <v>      -0.08333333      -0.13333333       0.20000000 </v>
   <v>      -0.04166667      -0.13333333       0.20000000 </v>
   <v>       0.00000000      -0.06666667       0.20000000 </v>
   <v>       0.04166667      -0.06666667       0.20000000 </v>
   <v>       0.08333333      -0.06666667       0.20000000 </v>
   <v>       0.12500000      -0.06666667       0.20000000 </v>
   <v>       0.16666667      -0.06666667       0.20000000 </v>
   <v>       0.20833333      -0.06666667       0.20000000 </v>
   <v>       0.25000000      -0.06666667       0.20000000 </v>
   <v>       0.29166667      -0.06666667       0.20000000 </v>
   <v>       0.33333333      -0.06666667       0.20000000 </v>
   <v>       0.37500000      -0.06666667       0.20000000 </v>
   <v>       0.41666667      -0.06666667       0.20000000 </v>
   <v>       0.45833333      -0.06666667       0.20000000 </v>
   <v>       0.50000000      -0.06666667       0.20000000 </v>
   <v>      -0.45833333      -0.06666667       0.20000000 </v>
   <v>      -0.41666667      -0.06666667       0.20000000 </v>
   <v>      -0.37500000      -0.06666667       0.20000000 </v>
   <v>      -0.33333333      -0.06666667       0.20000000 </v>
   <v>      -0.29166667      -0.06666667       0.20000000 </v>
   <v>      -0.25000000      -0.06666667       0.20000000 </v>
   <v>      -0.20833333      -0.06666667       0.20000000 </v>
   <v>      -0.16666667      -0.06666667       0.20000000 </v>
   <v>      -0.12500000      -0.06666667       0.20000000 </v>
   <v>      -0.08333333      -0.06666667       0.20000000 </v>
   <v>      -0.04166667      -0.06666667       0.20000000 </v>
   <v>       0.00000000       0.00000000       0.30000000 </v>
   <v>       0.04166667       0.00000000       0.30000000 </v>
   <v>       0.08333333       0.00000000       0.30000000 </v>
   <v>       0.12500000       0.00000000       0.30000000 </v>
   <v>       0.16666667       0.00000000       0.30000000 </v>
   <v>       0.20833333       0.00000000       0.30000000 </v>
   <v>       0.25000000       0.00000000       0.30000000 </v>
   <v>       0.29166667       0.00000000       0.30000000 </v>
   <v>       0.33333333       0.00000000       0.30000000 </v>
   <v>       0.37500000       0.00000000       0.30000000 </v>
   <v>       0.41666667       0.00000000       0.30000000 </v>
   <v>       0.45833333       0.00000000       0.30000000 </v>
   <v>      -0.45833333       0.00000000       0.30000000 </v>
   <v>      -0.41666667       0.00000000       0.30000000 </v>
   <v>      -0.37500000       0.00000000       0.30000000 </v>
   <v>      -0.33333333       0.00000000       0.30000000 </v>
   <v>      -0.29166667       0.00000000       0.30000000 </v>
   <v>      -0.25000000       0.00000000       0.30000000 </v>
   <v>      -0.20833333       0.00000000       0.30000000 </v>
   <v>      -0.16666667       0.00000000       0.30000000 </v>
   <v>      -0.12500000       0.00000000       0.30000000 </v>
   <v>      -0.08333333       0.00000000       0.30000000 </v>
   <v>      -0.04166667       0.00000000       0.30000000 </v>
   <v>       0.00000000       0.06666667       0.30000000 </v>
   <v>       0.04166667       0.06666667       0.30000000 </v>
   <v>       0.08333333       0.06666667       0.30000000 </v>
   <v>       0.12500000       0.06666667       0.30000000 </v>
   <v>       0.16666667       0.06666667       0.30000000 </v>
   <v>       0.20833333       0.06666667       0.30000000 </v>
   <v>       0.25000000       0.06666667       0.30000000 </v>
   <v>       0.29166667       0.06666667       0.30000000 </v>
   <v>       0.33333333       0.06666667       0.30000000 </v>
   <v>       0.37500000       0.06666667       0.30000000 </v>
   <v>       0.41666667       0.06666667       0.30000000 </v>
   <v>       0.45833333       0.06666667       0.30000000 </v>
   <v>      -0.45833333       0.06666667       0.30000000 </v>
   <v>      -0.41666667       0.06666667       0.30000000 </v>
   <v>      -0.37500000       0.06666667       0.30000000 </v>
   <v>      -0.33333333       0.06666667       0.30000000 </v>
   <v>      -0.29166667       0.06666667       0.30000000 </v>
   <v>      -0.25000000       0.06666667       0.30000000 </v>
   <v>      -0.20833333       0.06666667       0.30000000 </v>
   <v>      -0.16666667       0.06666667       0.30000000 </v>
   <v>      -0.12500000       0.06666667       0.30000000 </v>
   <v>      -0.08333333       0.06666667       0.30000000 </v>
   <v>      -0.04166667       0.06666667       0.30000000 </v>
   <v>       0.00000000       0.13333333       0.30000000 </v>
   <v>       0.04166667       0.13333333       0.30000000 </v>
   <v>       0.08333333       0.13333333       0.30000000 </v>
   <v>       0.12500000       0.13333333       0.30000000 </v>
   <v>       0.16666667       0.13333333       0.30000000 </v>
   <v>       0.20833333       0.13333333       0.30000000 </v>
   <v>       0.25000000       0.13333333       0.30000000 </v>
   <v>       0.29166667       0.13333333       0.30000000 </v>
   <v>       0.33333333       0.13333333       0.30000000 </v>
   <v>       0.37500000       0.13333333       0.30000000 </v>
   <v>       0.41666667       0.13333333       0.30000000 </v>
   <v>       0.45833333       0.13333333       0.30000000 </v>
   <v>      -0.45833333       0.13333333       0.30000000 </v>
   <v>      -0.41666667       0.13333333       0.30000000 </v>
   <v>      -0.37500000       0.13333333       0.30000000 </v>
   <v>      -0.33333333       0.13333333       0.30000000 </v>
   <v>      -0.29166667       0.13333333       0.30000000 </v>
   <v>      -0.25000000       0.13333333       0.30000000 </v>
   <v>      -0.20833333       0.13333333       0.30000000 </v>
   <v>      -0.16666667       0.13333333       0.30000000 </v>
   <v>      -0.12500000       0.13333333       0.30000000 </v>
   <v>      -0.08333333       0.13333333       0.30000000 </v>
   <v>      -0.04166667       0.13333333       0.30000000 </v>
   <v>       0.00000000       0.20000000       0.30000000 </v>
   <v>       0.04166667       0.20000000       0.30000000 </v>
   <v>       0.08333333       0.20000000       0.30000000 </v>
   <v>       0.12500000       0.20000000       0.30000000 </v>
   <v>       0.16666667       0.20000000       0.30000000 </v>
   <v>       0.20833333       0.20000000       0.30000000 </v>
   <v>       0.25000000       0.20000000       0.30000000 </v>
   <v>       0.29166667       0.20000000       0.30000000 </v>
   <v>       0.33333333       0.20000000       0.30000000 </v>
   <v>       0.37500000       0.20000000       0.30000000 </v>
   <v>       0.41666667       0.20000000       0.30000000 </v>
   <v>       0.45833333       0.20000000       0.30000000 </v>
   <v>      -0.45833333       0.20000000       0.30000000 </v>
   <v>      -0.41666667       0.20000000       0.30000000 </v>
   <v>      -0.37500000       0.20000000       0.30000000 </v>
   <v>      -0.33333333       0.20000000       0.30000000 </v>
   <v>      -0.29166667       0.20000000       0.30000000 </v>
   <v>      -0.25000000       0.20000000       0.30000000 </v>
   <v>      -0.20833333       0.20000000       0.30000000 </v>
   <v>      -0.16666667       0.20000000       0.30000000 </v>
   <v>      -0.12500000       0.20000000       0.30000000 </v>
   <v>      -0.08333333       0.20000000       0.30000000 </v>
   <v>      -0.04166667       0.20000000       0.30000000 </v>
   <v>       0.00000000       0.26666667       0.30000000 </v>
   <v>       0.04166667       0.26666667       0.30000000 </v>
   <v>       0.08333333       0.26666667       0.30000000 </v>
   <v>       0.12500000       0.26666667       0.30000000 </v>
   <v>       0.16666667       0.26666667       0.30000000 </v>
   <v>       0.20833333       0.26666667       0.30000000 </v>
   <v>       0.25000000       0.26666667       0.30000000 </v>
   <v>       0.29166667       0.26666667       0.30000000 </v>
   <v>       0.33333333       0.26666667       0.30000000 </v>
   <v>       0.37500000       0.26666667       0.30000000 </v>
   <v>       0.41666667       0.26666667       0.30000000 </v>
   <v>       0.45833333       0.26666667       0.30000000 </v>
   <v>      -0.45833333       0.26666667       0.30000000 </v>
   <v>      -0.41666667       0.26666667       0.30000000 </v>
   <v>      -0.37500000       0.26666667       0.30000000 </v>
   <v>      -0.33333333       0.26666667       0.30000000 </v>
   <v>      -0.29166667       0.26666667       0.30000000 </v>
   <v>      -0.25000000       0.26666667       0.30000000 </v>
   <v>      -0.20833333       0.26666667       0.30000000 </v>
   <v>      -0.16666667       0.26666667       0.30000000 </v>
   <v>      -0.12500000       0.26666667       0.30000000 </v>
   <v>      -0.08333333       0.26666667       0.30000000 </v>
   <v>      -0.04166667       0.26666667       0.30000000 </v>
   <v>       0.00000000       0.33333333       0.30000000 </v>
   <v>       0.04166667       0.33333333       0.30000000 </v>
   <v>       0.08333333       0.33333333       0.30000000 </v>
   <v>       0.12500000       0.33333333       0.30000000 </v>
   <v>       0.16666667       0.33333333       0.30000000 </v>
   <v>       0.20833333       0.33333333       0.30000000 </v>
   <v>       0.25000000       0.33333333       0.30000000 </v>
   <v>       0.29166667       0.33333333       0.30000000 </v>
   <v>       0.33333333       0.33333333       0.30000000 </v>
   <v>       0.37500000       0.33333333       0.30000000 </v>
   <v>       0.41666667       0.33333333       0.30000000 </v>
   <v>       0.45833333       0.33333333       0.30000000 </v>
   <v>      -0.45833333       0.33333333       0.30000000 </v>
   <v>      -0.41666667       0.33333333       0.30000000 </v>
   <v>      -0.37500000       0.33333333       0.30000000 </v>
   <v>      -0.33333333       0.33333333       0.30000000 </v>
   <v>      -0.29166667       0.33333333       0.30000000 </v>
   <v>      -0.25000000       0.33333333       0.30000000 </v>
   <v>      -0.20833333       0.33333333       0.30000000 </v>
   <v>      -0.16666667       0.33333333       0.30000000 </v>
   <v>      -0.12500000       0.33333333       0.30000000 </v>
   <v>      -0.08333333       0.33333333       0.30000000 </v>
   <v>      -0.04166667       0.33333333       0.30000000 </v>
   <v>       0.00000000       0.40000000       0.30000000 </v>
   <v>       0.04166667       0.40000000       0.30000000 </v>
   <v>       0.08333333       0.40000000       0.30000000 </v>
   <v>       0.12500000       0.40000000       0.30000000 </v>
   <v>       0.16666667       0.40000000       0.30000000 </v>
   <v>       0.20833333       0.40000000       0.30000000 </v>
   <v>       0.25000000       0.40000000       0.30000000 </v>
   <v>       0.29166667       0.40000000       0.30000000 </v>
   <v>       0.33333333       0.40000000       0.30000000 </v>
   <v>       0.37500000       0.40000000       0.30000000 </v>
   <v>       0.41666667       0.40000000       0.30000000 </v>
   <v>       0.45833333       0.40000000       0.30000000 </v>
   <v>      -0.45833333       0.40000000       0.30000000 </v>
   <v>      -0.41666667       0.40000000       0.30000000 </v>
   <v>      -0.37500000       0.40000000       0.30000000 </v>
   <v>      -0.33333333       0.40000000       0.30000000 </v>
   <v>      -0.29166667       0.40000000       0.30000000 </v>
   <v>      -0.25000000       0.40000000       0.30000000 </v>
   <v>      -0.20833333       0.40000000       0.30000000 </v>
   <v>      -0.16666667       0.40000000       0.30000000 </v>
   <v>      -0.12500000       0.40000000       0.30000000 </v>
   <v>      -0.08333333       0.40000000       0.30000000 </v>
   <v>      -0.04166667       0.40000000       0.30000000 </v>
   <v>       0.00000000       0.46666667       0.30000000 </v>
   <v>       0.04166667       0.46666667       0.30000000 </v>
   <v>       0.08333333       0.46666667       0.30000000 </v>
   <v>       0.12500000       0.46666667       0.30000000 </v>
   <v>       0.16666667       0.46666667       0.30000000 </v>
   <v>       0.20833333       0.46666667       0.30000000 </v>
   <v>       0.25000000       0.46666667       0.30000000 </v>
   <v>       0.29166667       0.46666667       0.30000000 </v>
   <v>       0.33333333       0.46666667       0.30000000 </v>
   <v>       0.37500000       0.46666667       0.30000000 </v>
   <v>       0.41666667       0.46666667       0.30000000 </v>
   <v>       0.45833333       0.46666667       0.30000000 </v>
   <v>      -0.45833333       0.46666667       0.30000000 </v>
   <v>      -0.41666667       0.46666667       0.30000000 </v>
   <v>      -0.37500000       0.46666667       0.30000000 </v>
   <v>      -0.33333333       0.46666667       0.30000000 </v>
   <v>      -0.29166667       0.46666667       0.30000000 </v>
   <v>      -0.25000000       0.46666667       0.30000000 </v>
   <v>      -0.20833333       0.46666667       0.30000000 </v>
   <v>      -0.16666667       0.46666667       0.30000000 </v>
   <v>      -0.12500000       0.46666667       0.30000000 </v>
   <v>      -0.08333333       0.46666667       0.30000000 </v>
   <v>      -0.04166667       0.46666667       0.30000000 </v>
   <v>       0.00000000      -0.46666667       0.30000000 </v>
   <v>       0.04166667      -0.46666667       0.30000000 </v>
   <v>       0.08333333      -0.46666667       0.30000000 </v>
   <v>       0.12500000      -0.46666667       0.30000000 </v>
   <v>       0.16666667      -0.46666667       0.30000000 </v>
   <v>       0.20833333      -0.46666667       0.30000000 </v>
   <v>       0.25000000      -0.46666667       0.30000000 </v>
   <v>       0.29166667      -0.46666667       0.30000000 </v>
   <v>       0.33333333      -0.46666667       0.30000000 </v>
   <v>       0.37500000      -0.46666667       0.30000000 </v>
   <v>       0.41666667      -0.46666667       0.30000000 </v>
   <v>       0.45833333      -0.46666667       0.30000000 </v>
   <v>      -0.45833333      -0.46666667       0.30000000 </v>
   <v>      -0.41666667      -0.46666667       0.30000000 </v>
   <v>      -0.37500000      -0.46666667       0.30000000 </v>
   <v>      -0.33333333      -0.46666667       0.30000000 </v>
   <v>      -0.29166667      -0.46666667       0.30000000 </v>
   <v>      -0.25000000      -0.46666667       0.30000000 </v>
   <v>      -0.20833333      -0.46666667       0.30000000 </v>
   <v>      -0.16666667      -0.46666667       0.30000000 </v>
   <v>      -0.12500000      -0.46666667       0.30000000 </v>
   <v>      -0.08333333      -0.46666667       0.30000000 </v>
   <v>      -0.04166667      -0.46666667       0.30000000 </v>
   <v>       0.00000000      -0.40000000       0.30000000 </v>
   <v>       0.04166667      -0.40000000       0.30000000 </v>
   <v>       0.08333333      -0.40000000       0.30000000 </v>
   <v>       0.12500000      -0.40000000       0.30000000 </v>
   <v>       0.16666667      -0.40000000       0.30000000 </v>
   <v>       0.20833333      -0.40000000       0.30000000 </v>
   <v>       0.25000000      -0.40000000       0.30000000 </v>
   <v>       0.29166667      -0.40000000       0.30000000 </v>
   <v>       0.33333333      -0.40000000       0.30000000 </v>
   <v>       0.37500000      -0.40000000       0.30000000 </v>
   <v>       0.41666667      -0.40000000       0.30000000 </v>
   <v>       0.45833333      -0.40000000       0.30000000 </v>
   <v>      -0.45833333      -0.40000000       0.30000000 </v>
   <v>      -0.41666667      -0.40000000       0.30000000 </v>
   <v>      -0.37500000      -0.40000000       0.30000000 </v>
   <v>      -0.33333333      -0.40000000       0.30000000 </v>
   <v>      -0.29166667      -0.40000000       0.30000000 </v>
   <v>      -0.25000000      -0.40000000       0.30000000 </v>
   <v>      -0.20833333      -0.40000000       0.30000000 </v>
   <v>      -0.16666667      -0.40000000       0.30000000 </v>
   <v>      -0.12500000      -0.40000000       0.30000000 </v>
   <v>      -0.08333333      -0.40000000       0.30000000 </v>
   <v>      -0.04166667      -0.40000000       0.30000000 </v>
   <v>       0.00000000      -0.33333333       0.30000000 </v>
   <v>       0.04166667      -0.33333333       0.30000000 </v>
   <v>       0.08333333      -0.33333333       0.30000000 </v>
   <v>       0.12500000      -0.33333333       0.30000000 </v>
   <v>       0.16666667      -0.33333333       0.30000000 </v>
   <v>       0.20833333      -0.33333333       0.30000000 </v>
   <v>       0.25000000      -0.33333333       0.30000000 </v>
   <v>       0.29166667      -0.33333333       0.30000000 </v>
   <v>       0.33333333      -0.33333333       0.30000000 </v>
   <v>       0.37500000      -0.33333333       0.30000000 </v>
   <v>       0.41666667      -0.33333333       0.30000000 </v>
   <v>       0.45833333      -0.33333333       0.30000000 </v>
   <v>      -0.45833333      -0.33333333       0.30000000 </v>
   <v>      -0.41666667      -0.33333333       0.30000000 </v>
   <v>      -0.37500000      -0.33333333       0.30000000 </v>
   <v>      -0.33333333      -0.33333333       0.30000000 </v>
   <v>      -0.29166667      -0.33333333       0.30000000 </v>
   <v>      -0.25000000      -0.33333333       0.30000000 </v>
   <v>      -0.20833333      -0.33333333       0.30000000 </v>
   <v>      -0.16666667      -0.33333333       0.30000000 </v>
   <v>      -0.12500000      -0.33333333       0.30000000 </v>
   <v>      -0.08333333      -0.33333333       0.30000000 </v>
   <v>      -0.04166667      -0.33333333       0.30000000 </v>
   <v>       0.00000000      -0.26666667       0.30000000 </v>
   <v>       0.04166667      -0.26666667       0.30000000 </v>
   <v>       0.08333333      -0.26666667       0.30000000 </v>
   <v>       0.12500000      -0.26666667       0.30000000 </v>
   <v>       0.16666667      -0.26666667       0.30000000 </v>
   <v>       0.20833333      -0.26666667       0.30000000 </v>
   <v>       0.25000000      -0.26666667       0.30000000 </v>
   <v>       0.29166667      -0.26666667       0.30000000 </v>
   <v>       0.33333333      -0.26666667       0.30000000 </v>
   <v>       0.37500000      -0.26666667       0.30000000 </v>
   <v>       0.41666667      -0.26666667       0.30000000 </v>
   <v>       0.45833333      -0.26666667       0.30000000 </v>
   <v>      -0.45833333      -0.26666667       0.30000000 </v>
   <v>      -0.41666667      -0.26666667       0.30000000 </v>
   <v>      -0.37500000      -0.26666667       0.30000000 </v>
   <v>      -0.33333333      -0.26666667       0.30000000 </v>
   <v>      -0.29166667      -0.26666667       0.30000000 </v>
   <v>      -0.25000000      -0.26666667       0.30000000 </v>
   <v>      -0.20833333      -0.26666667       0.30000000 </v>
   <v>      -0.16666667      -0.26666667       0.30000000 </v>
   <v>      -0.12500000      -0.26666667       0.30000000 </v>
   <v>      -0.08333333      -0.26666667       0.30000000 </v>
   <v>      -0.04166667      -0.26666667       0.30000000 </v>
   <v>       0.00000000      -0.20000000       0.30000000 </v>
   <v>       0.04166667      -0.20000000       0.30000000 </v>
   <v>       0.08333333      -0.20000000       0.30000000 </v>
   <v>       0.12500000      -0.20000000       0.30000000 </v>
   <v>       0.16666667      -0.20000000       0.30000000 </v>
   <v>       0.20833333      -0.20000000       0.30000000 </v>
   <v>       0.25000000      -0.20000000       0.30000000 </v>
   <v>       0.29166667      -0.20000000       0.30000000 </v>
   <v>       0.33333333      -0.20000000       0.30000000 </v>
   <v>       0.37500000      -0.20000000       0.30000000 </v>
   <v>       0.41666667      -0.20000000       0.30000000 </v>
   <v>       0.45833333      -0.20000000       0.30000000 </v>
   <v>      -0.45833333      -0.20000000       0.30000000 </v>
   <v>      -0.41666667      -0.20000000       0.30000000 </v>
   <v>      -0.37500000      -0.20000000       0.30000000 </v>
   <v>      -0.33333333      -0.20000000       0.30000000 </v>
   <v>      -0.29166667      -0.20000000       0.30000000 </v>
   <v>      -0.25000000      -0.20000000       0.30000000 </v>
   <v>      -0.20833333      -0.20000000       0.30000000 </v>
   <v>      -0.16666667      -0.20000000       0.30000000 </v>
   <v>      -0.12500000      -0.20000000       0.30000000 </v>
   <v>      -0.08333333      -0.20000000       0.30000000 </v>
   <v>      -0.04166667      -0.20000000       0.30000000 </v>
   <v>       0.00000000      -0.13333333       0.30000000 </v>
   <v>       0.04166667      -0.13333333       0.30000000 </v>
   <v>       0.08333333      -0.13333333       0.30000000 </v>
   <v>       0.12500000      -0.13333333       0.30000000 </v>
   <v>       0.16666667      -0.13333333       0.30000000 </v>
   <v>       0.20833333      -0.13333333       0.30000000 </v>
   <v>       0.25000000      -0.13333333       0.30000000 </v>
   <v>       0.29166667      -0.13333333       0.30000000 </v>
   <v>       0.33333333      -0.13333333       0.30000000 </v>
   <v>       0.37500000      -0.13333333       0.30000000 </v>
   <v>       0.41666667      -0.13333333       0.30000000 </v>
   <v>       0.45833333      -0.13333333       0.30000000 </v>
   <v>      -0.45833333      -0.13333333       0.30000000 </v>
   <v>      -0.41666667      -0.13333333       0.30000000 </v>
   <v>      -0.37500000      -0.13333333       0.30000000 </v>
   <v>      -0.33333333      -0.13333333       0.30000000 </v>
   <v>      -0.29166667      -0.13333333       0.30000000 </v>
   <v>      -0.25000000      -0.13333333       0.30000000 </v>
   <v>      -0.20833333      -0.13333333       0.30000000 </v>
   <v>      -0.16666667      -0.13333333       0.30000000 </v>
   <v>      -0.12500000      -0.13333333       0.30000000 </v>
   <v>      -0.08333333      -0.13333333       0.30000000 </v>
   <v>      -0.04166667      -0.13333333       0.30000000 </v>
   <v>       0.00000000      -0.06666667       0.30000000 </v>
   <v>       0.04166667      -0.06666667       0.30000000 </v>
   <v>       0.08333333      -0.06666667       0.30000000 </v>
   <v>       0.12500000      -0.06666667       0.30000000 </v>
   <v>       0.16666667      -0.06666667       0.30000000 </v>
   <v>       0.20833333      -0.06666667       0.30000000 </v>
   <v>       0.25000000      -0.06666667       0.30000000 </v>
   <v>       0.29166667      -0.06666667       0.30000000 </v>
   <v>       0.33333333      -0.06666667       0.30000000 </v>
   <v>       0.37500000      -0.06666667       0.30000000 </v>
   <v>       0.41666667      -0.06666667       0.30000000 </v>
   <v>       0.45833333      -0.06666667       0.30000000 </v>
   <v>      -0.45833333      -0.06666667       0.30000000 </v>
   <v>      -0.41666667      -0.06666667       0.30000000 </v>
   <v>      -0.37500000      -0.06666667       0.30000000 </v>
   <v>      -0.33333333      -0.06666667       0.30000000 </v>
   <v>      -0.29166667      -0.06666667       0.30000000 </v>
   <v>      -0.25000000      -0.06666667       0.30000000 </v>
   <v>      -0.20833333      -0.06666667       0.30000000 </v>
[...]
       <r>    4.2128    1.0000 </r>
       <r>    4.2541    1.0000 </r>
       <r>    4.3183    1.0000 </r>
       <r>    4.4958    1.0000 </r>
       <r>    4.5598    1.0000 </r>
       <r>    4.6444    1.0000 </r>
       <r>    4.7622    1.0000 </r>
       <r>    4.8319    1.0000 </r>
       <r>    4.9195    1.0000 </r>
       <r>    5.0812    1.0000 </r>
       <r>    5.2791    1.0000 </r>
       <r>    5.5779    1.0000 </r>
       <r>    6.5663    1.0000 </r>
       <r>    9.0247    0.0000 </r>
       <r>    9.8199    0.0000 </r>
       <r>   13.2076    0.0000 </r>
       <r>   15.3188    0.0000 </r>
       <r>   16.6079    0.0000 </r>
       <r>   17.9803    0.0000 </r>
      </set>
      <set comment="kpoint 1763">
       <r>    1.3624    1.0000 </r>
       <r>    1.9644    1.0000 </r>
       <r>    2.3033    1.0000 </r>
       <r>    2.4108    1.0000 </r>
       <r>    2.4322    1.0000 </r>
       <r>    2.5669    1.0000 </r>
       <r>    2.5949    1.0000 </r>
       <r>    2.7566    1.0000 </r>
       <r>    2.9417    1.0000 </r>
       <r>    3.0104    1.0000 </r>
       <r>    3.2143    1.0000 </r>
       <r>    3.2704    1.0000 </r>
       <r>    3.3634    1.0000 </r>
       <r>    3.5307    1.0000 </r>
       <r>    3.5715    1.0000 </r>
       <r>    3.5820    1.0000 </r>
       <r>    3.6464    1.0000 </r>
       <r>    3.6848    1.0000 </r>
       <r>    3.7411    1.0000 </r>
       <r>    3.8948    1.0000 </r>
       <r>    4.0615    1.0000 </r>
       <r>    4.1977    1.0000 </r>
       <r>    4.2952    1.0000 </r>
       <r>    4.3484    1.0000 </r>
       <r>    4.4499    1.0000 </r>
       <r>    4.5561    1.0000 </r>
       <r>    4.5762    1.0000 </r>
       <r>    4.6949    1.0000 </r>
       <r>    4.7514    1.0000 </r>
       <r>    4.8014    1.0000 </r>
       <r>    5.0478    1.0000 </r>
       <r>    5.1511    1.0000 </r>
       <r>    5.4324    1.0000 </r>
       <r>    6.1582    1.0000 </r>
       <r>    9.0303    0.0000 </r>
       <r>    9.4776    0.0000 </r>
       <r>   13.3273    0.0000 </r>
       <r>   14.9906    0.0000 </r>
       <r>   16.5572    0.0000 </r>
       <r>   17.8991    0.0000 </r>
      </set>
      <set comment="kpoint 1764">
       <r>    1.2510    1.0000 </r>
       <r>    1.8694    1.0000 </r>
       <r>    2.2226    1.0000 </r>
       <r>    2.3423    1.0000 </r>
       <r>    2.4094    1.0000 </r>
       <r>    2.5321    1.0000 </r>
       <r>    2.5505    1.0000 </r>
       <r>    2.6574    1.0000 </r>
       <r>    3.0282    1.0000 </r>
       <r>    3.1072    1.0000 </r>
       <r>    3.3373    1.0000 </r>
       <r>    3.3925    1.0000 </r>
       <r>    3.4853    1.0000 </r>
       <r>    3.5185    1.0000 </r>
       <r>    3.5707    1.0000 </r>
       <r>    3.6178    1.0000 </r>
       <r>    3.6291    1.0000 </r>
       <r>    3.6731    1.0000 </r>
       <r>    3.8784    1.0000 </r>
       <r>    3.9773    1.0000 </r>
       <r>    4.0800    1.0000 </r>
       <r>    4.1144    1.0000 </r>
       <r>    4.2838    1.0000 </r>
       <r>    4.3840    1.0000 </r>
       <r>    4.3945    1.0000 </r>
       <r>    4.4784    1.0000 </r>
       <r>    4.5943    1.0000 </r>
       <r>    4.6632    1.0000 </r>
       <r>    4.7056    1.0000 </r>
       <r>    4.7542    1.0000 </r>
       <r>    5.0352    1.0000 </r>
       <r>    5.1005    1.0000 </r>
       <r>    5.3341    1.0000 </r>
       <r>    5.8021    1.0000 </r>
       <r>    9.0746    0.0000 </r>
       <r>    9.2228    0.0000 </r>
       <r>   13.4908    0.0000 </r>
       <r>   14.6963    0.0000 </r>
       <r>   16.5366    0.0000 </r>
       <r>   17.8125    0.0000 </r>
      </set>
     </set>
    </set>
   </array>
  </eigenvalues>
  <separator name="orbital magnetization" >
   <v name="MAGDIPOLOUT">      0.00000000      0.00000000      0.00000000</v>
  </separator>
  <dos>
   <i name="efermi">      8.00367724 </i>
   <total>
    <array>
     <dimension dim="1">gridpoints</dimension>
     <dimension dim="2">spin</dimension>
     <field>energy</field>
     <field>total</field>
     <field>integrated</field>
     <set>
      <set comment="spin 1">
       <r>    -2.9112     0.0000     0.0000 </r>
       <r>    -2.8307     0.0000     0.0000 </r>
       <r>    -2.7502     0.0000     0.0000 </r>
       <r>    -2.6697     0.0000     0.0000 </r>
       <r>    -2.5892     0.0000     0.0000 </r>
       <r>    -2.5087     0.0000     0.0000 </r>
       <r>    -2.4282     0.0000     0.0000 </r>
       <r>    -2.3477     0.0000     0.0000 </r>
       <r>    -2.2673     0.0000     0.0000 </r>
       <r>    -2.1868     0.0000     0.0000 </r>
       <r>    -2.1063     0.0000     0.0000 </r>
       <r>    -2.0258     0.0000     0.0000 </r>
       <r>    -1.9453     0.0000     0.0000 </r>
       <r>    -1.8648     0.0000     0.0000 </r>
       <r>    -1.7843     0.0000     0.0000 </r>
       <r>    -1.7038     0.0000     0.0000 </r>
       <r>    -1.6233     0.0000     0.0000 </r>
       <r>    -1.5428     0.0000     0.0000 </r>
       <r>    -1.4623     0.0000     0.0000 </r>
       <r>    -1.3818     0.0000     0.0000 </r>
       <r>    -1.3013     0.0000     0.0000 </r>
       <r>    -1.2208     0.0000     0.0000 </r>
       <r>    -1.1403     0.0000     0.0000 </r>
       <r>    -1.0598     0.0000     0.0000 </r>
       <r>    -0.9793     0.0000     0.0000 </r>
       <r>    -0.8988     0.0000     0.0000 </r>
       <r>    -0.8183     0.0000     0.0000 </r>
       <r>    -0.7378     0.0000     0.0000 </r>
       <r>    -0.6573    -0.0001     0.0000 </r>
       <r>    -0.5768    -0.0003     0.0000 </r>
       <r>    -0.4963    -0.0010    -0.0001 </r>
       <r>    -0.4158    -0.0024    -0.0003 </r>
       <r>    -0.3353    -0.0049    -0.0007 </r>
       <r>    -0.2548    -0.0081    -0.0014 </r>
       <r>    -0.1743    -0.0099    -0.0021 </r>
       <r>    -0.0938    -0.0056    -0.0026 </r>
       <r>    -0.0133     0.0113    -0.0017 </r>
       <r>     0.0672     0.0462     0.0020 </r>
       <r>     0.1477     0.1007     0.0101 </r>
       <r>     0.2282     0.1707     0.0239 </r>
       <r>     0.3087     0.2492     0.0439 </r>
       <r>     0.3892     0.3288     0.0704 </r>
       <r>     0.4697     0.4039     0.1029 </r>
       <r>     0.5502     0.4708     0.1408 </r>
       <r>     0.6307     0.5264     0.1832 </r>
       <r>     0.7112     0.5694     0.2290 </r>
       <r>     0.7917     0.6011     0.2774 </r>
       <r>     0.8722     0.6266     0.3278 </r>
       <r>     0.9527     0.6527     0.3804 </r>
       <r>     1.0332     0.6845     0.4355 </r>
       <r>     1.1136     0.7212     0.4936 </r>
       <r>     1.1941     0.7546     0.5543 </r>
       <r>     1.2746     0.7736     0.6166 </r>
       <r>     1.3551     0.7797     0.6793 </r>
       <r>     1.4356     0.8093     0.7445 </r>
       <r>     1.5161     0.9483     0.8208 </r>
       <r>     1.5966     1.3215     0.9272 </r>
       <r>     1.6771     2.0558     1.0927 </r>
       <r>     1.7576     3.2396     1.3535 </r>
       <r>     1.8381     4.9060     1.7484 </r>
       <r>     1.9186     7.0390     2.3150 </r>
       <r>     1.9991     9.5719     3.0855 </r>
       <r>     2.0796    12.3478     4.0795 </r>
       <r>     2.1601    15.0689     5.2925 </r>
       <r>     2.2406    17.3113     6.6860 </r>
       <r>     2.3211    18.6573     8.1879 </r>
       <r>     2.4016    18.8894     9.7084 </r>
       <r>     2.4821    18.1139    11.1665 </r>
       <r>     2.5626    16.7297    12.5132 </r>
       <r>     2.6431    15.2715    13.7426 </r>
       <r>     2.7236    14.2170    14.8870 </r>
       <r>     2.8041    13.8280    16.0001 </r>
       <r>     2.8846    14.0744    17.1331 </r>
       <r>     2.9651    14.6852    18.3152 </r>
       <r>     3.0456    15.3319    19.5494 </r>
       <r>     3.1261    15.8561    20.8258 </r>
       <r>     3.2066    16.3910    22.1452 </r>
       <r>     3.2871    17.2669    23.5351 </r>
       <r>     3.3676    18.7268    25.0426 </r>
       <r>     3.4481    20.6277    26.7031 </r>
       <r>     3.5286    22.3696    28.5038 </r>
       <r>     3.6091    23.1818    30.3699 </r>
       <r>     3.6896    22.6207    32.1908 </r>
       <r>     3.7701    20.9085    33.8738 </r>
       <r>     3.8506    18.8228    35.3890 </r>
       <r>     3.9311    17.2201    36.7752 </r>
       <r>     4.0116    16.5673    38.1088 </r>
       <r>     4.0921    16.7896    39.4604 </r>
       <r>     4.1726    17.4461    40.8647 </r>
       <r>     4.2531    18.0308    42.3162 </r>
       <r>     4.3336    18.2059    43.7817 </r>
       <r>     4.4140    17.8917    45.2219 </r>
       <r>     4.4945    17.2311    46.6090 </r>
       <r>     4.5750    16.4915    47.9365 </r>
       <r>     4.6555    15.9595    49.2212 </r>
       <r>     4.7360    15.8449    50.4967 </r>
       <r>     4.8165    16.1971    51.8005 </r>
       <r>     4.8970    16.8592    53.1576 </r>
       <r>     4.9775    17.5063    54.5669 </r>
       <r>     5.0580    17.7670    55.9971 </r>
       <r>     5.1385    17.3551    57.3941 </r>
       <r>     5.2190    16.1389    58.6932 </r>
       <r>     5.2995    14.1529    59.8325 </r>
       <r>     5.3800    11.5983    60.7662 </r>
       <r>     5.4605     8.8274    61.4767 </r>
       <r>     5.5410     6.2568    61.9804 </r>
       <r>     5.6215     4.2142    62.3196 </r>
       <r>     5.7020     2.8199    62.5466 </r>
       <r>     5.7825     1.9924    62.7070 </r>
       <r>     5.8630     1.5574    62.8324 </r>
       <r>     5.9435     1.3591    62.9418 </r>
       <r>     6.0240     1.3008    63.0465 </r>
       <r>     6.1045     1.3252    63.1532 </r>
       <r>     6.1850     1.3836    63.2645 </r>
       <r>     6.2655     1.4307    63.3797 </r>
       <r>     6.3460     1.4395    63.4956 </r>
       <r>     6.4265     1.4134    63.6094 </r>
       <r>     6.5070     1.3786    63.7203 </r>
       <r>     6.5875     1.3651    63.8302 </r>
       <r>     6.6680     1.3871    63.9419 </r>
       <r>     6.7485     1.4358    64.0575 </r>
       <r>     6.8290     1.4869    64.1772 </r>
       <r>     6.9095     1.5155    64.2991 </r>
       <r>     6.9900     1.5117    64.4208 </r>
       <r>     7.0705     1.4842    64.5403 </r>
       <r>     7.1510     1.4530    64.6573 </r>
       <r>     7.2315     1.4378    64.7730 </r>
       <r>     7.3120     1.4500    64.8897 </r>
       <r>     7.3925     1.4899    65.0097 </r>
       <r>     7.4730     1.5470    65.1342 </r>
       <r>     7.5535     1.6042    65.2633 </r>
       <r>     7.6340     1.6450    65.3957 </r>
       <r>     7.7144     1.6613    65.5295 </r>
       <r>     7.7949     1.6550    65.6627 </r>
       <r>     7.8754     1.6345    65.7943 </r>
       <r>     7.9559     1.6102    65.9239 </r>
       <r>     8.0364     1.5923    66.0521 </r>
       <r>     8.1169     1.5910    66.1801 </r>
       <r>     8.1974     1.6114    66.3098 </r>
       <r>     8.2779     1.6477    66.4425 </r>
       <r>     8.3584     1.6832    66.5780 </r>
       <r>     8.4389     1.7000    66.7148 </r>
       <r>     8.5194     1.6906    66.8509 </r>
       <r>     8.5999     1.6608    66.9846 </r>
       <r>     8.6804     1.6230    67.1152 </r>
       <r>     8.7609     1.5880    67.2431 </r>
       <r>     8.8414     1.5624    67.3688 </r>
       <r>     8.9219     1.5517    67.4938 </r>
       <r>     9.0024     1.5603    67.6194 </r>
       <r>     9.0829     1.5876    67.7471 </r>
       <r>     9.1634     1.6244    67.8779 </r>
       <r>     9.2439     1.6561    68.0112 </r>
       <r>     9.3244     1.6704    68.1457 </r>
       <r>     9.4049     1.6621    68.2795 </r>
       <r>     9.4854     1.6347    68.4111 </r>
       <r>     9.5659     1.5973    68.5397 </r>
       <r>     9.6464     1.5623    68.6654 </r>
       <r>     9.7269     1.5418    68.7895 </r>
       <r>     9.8074     1.5412    68.9136 </r>
       <r>     9.8879     1.5556    69.0388 </r>
       <r>     9.9684     1.5714    69.1653 </r>
       <r>    10.0489     1.5737    69.2920 </r>
       <r>    10.1294     1.5540    69.4171 </r>
       <r>    10.2099     1.5134    69.5389 </r>
       <r>    10.2904     1.4609    69.6565 </r>
       <r>    10.3709     1.4074    69.7698 </r>
       <r>    10.4514     1.3608    69.8793 </r>
       <r>    10.5319     1.3231    69.9858 </r>
       <r>    10.6124     1.2920    70.0898 </r>
       <r>    10.6929     1.2660    70.1918 </r>
       <r>    10.7734     1.2500    70.2924 </r>
       <r>    10.8539     1.2558    70.3935 </r>
       <r>    10.9344     1.2960    70.4978 </r>
       <r>    11.0148     1.3744    70.6084 </r>
       <r>    11.0953     1.4803    70.7276 </r>
       <r>    11.1758     1.5928    70.8558 </r>
       <r>    11.2563     1.6912    70.9919 </r>
       <r>    11.3368     1.7665    71.1341 </r>
       <r>    11.4173     1.8234    71.2809 </r>
       <r>    11.4978     1.8732    71.4317 </r>
       <r>    11.5783     1.9224    71.5865 </r>
       <r>    11.6588     1.9684    71.7449 </r>
       <r>    11.7393     2.0037    71.9062 </r>
       <r>    11.8198     2.0228    72.0690 </r>
       <r>    11.9003     2.0242    72.2320 </r>
       <r>    11.9808     2.0084    72.3937 </r>
       <r>    12.0613     1.9770    72.5528 </r>
       <r>    12.1418     1.9338    72.7085 </r>
       <r>    12.2223     1.8865    72.8603 </r>
       <r>    12.3028     1.8473    73.0090 </r>
       <r>    12.3833     1.8287    73.1562 </r>
       <r>    12.4638     1.8371    73.3041 </r>
       <r>    12.5443     1.8652    73.4543 </r>
       <r>    12.6248     1.8918    73.6065 </r>
       <r>    12.7053     1.8936    73.7590 </r>
       <r>    12.7858     1.8611    73.9088 </r>
       <r>    12.8663     1.8071    74.0543 </r>
       <r>    12.9468     1.7567    74.1957 </r>
       <r>    13.0273     1.7294    74.3349 </r>
       <r>    13.1078     1.7269    74.4739 </r>
       <r>    13.1883     1.7372    74.6137 </r>
       <r>    13.2688     1.7480    74.7544 </r>
       <r>    13.3493     1.7562    74.8958 </r>
       <r>    13.4298     1.7644    75.0378 </r>
       <r>    13.5103     1.7727    75.1805 </r>
       <r>    13.5908     1.7745    75.3234 </r>
       <r>    13.6713     1.7635    75.4653 </r>
       <r>    13.7518     1.7431    75.6057 </r>
       <r>    13.8323     1.7273    75.7447 </r>
       <r>    13.9128     1.7338    75.8843 </r>
       <r>    13.9933     1.7729    76.0270 </r>
       <r>    14.0738     1.8414    76.1752 </r>
       <r>    14.1543     1.9226    76.3300 </r>
       <r>    14.2348     1.9939    76.4905 </r>
       <r>    14.3152     2.0357    76.6543 </r>
       <r>    14.3957     2.0393    76.8185 </r>
       <r>    14.4762     2.0072    76.9801 </r>
       <r>    14.5567     1.9517    77.1372 </r>
       <r>    14.6372     1.8899    77.2893 </r>
       <r>    14.7177     1.8384    77.4373 </r>
       <r>    14.7982     1.8055    77.5826 </r>
       <r>    14.8787     1.7847    77.7263 </r>
       <r>    14.9592     1.7581    77.8678 </r>
       <r>    15.0397     1.7080    78.0053 </r>
       <r>    15.1202     1.6301    78.1365 </r>
       <r>    15.2007     1.5358    78.2602 </r>
       <r>    15.2812     1.4442    78.3764 </r>
       <r>    15.3617     1.3695    78.4867 </r>
       <r>    15.4422     1.3146    78.5925 </r>
       <r>    15.5227     1.2745    78.6951 </r>
       <r>    15.6032     1.2413    78.7950 </r>
       <r>    15.6837     1.2071    78.8922 </r>
       <r>    15.7642     1.1621    78.9857 </r>
       <r>    15.8447     1.0963    79.0740 </r>
       <r>    15.9252     1.0056    79.1549 </r>
       <r>    16.0057     0.8959    79.2270 </r>
       <r>    16.0862     0.7814    79.2899 </r>
       <r>    16.1667     0.6784    79.3445 </r>
       <r>    16.2472     0.6001    79.3928 </r>
       <r>    16.3277     0.5540    79.4374 </r>
       <r>    16.4082     0.5396    79.4809 </r>
       <r>    16.4887     0.5478    79.5250 </r>
       <r>    16.5692     0.5625    79.5702 </r>
       <r>    16.6497     0.5670    79.6159 </r>
       <r>    16.7302     0.5507    79.6602 </r>
       <r>    16.8107     0.5121    79.7014 </r>
       <r>    16.8912     0.4568    79.7382 </r>
       <r>    16.9717     0.3936    79.7699 </r>
       <r>    17.0522     0.3322    79.7966 </r>
       <r>    17.1327     0.2808    79.8192 </r>
       <r>    17.2132     0.2448    79.8390 </r>
       <r>    17.2937     0.2243    79.8570 </r>
       <r>    17.3742     0.2147    79.8743 </r>
       <r>    17.4547     0.2095    79.8911 </r>
       <r>    17.5352     0.2039    79.9076 </r>
       <r>    17.6157     0.1961    79.9233 </r>
       <r>    17.6961     0.1861    79.9383 </r>
       <r>    17.7766     0.1735    79.9523 </r>
       <r>    17.8571     0.1573    79.9650 </r>
       <r>    17.9376     0.1364    79.9759 </r>
       <r>    18.0181     0.1114    79.9849 </r>
       <r>    18.0986     0.0840    79.9917 </r>
       <r>    18.1791     0.0573    79.9963 </r>
       <r>    18.2596     0.0341    79.9990 </r>
       <r>    18.3401     0.0164    80.0004 </r>
       <r>    18.4206     0.0050    80.0008 </r>
       <r>    18.5011    -0.0009    80.0007 </r>
       <r>    18.5816    -0.0028    80.0005 </r>
       <r>    18.6621    -0.0026    80.0003 </r>
       <r>    18.7426    -0.0017    80.0001 </r>
       <r>    18.8231    -0.0009    80.0000 </r>
       <r>    18.9036    -0.0004    80.0000 </r>
       <r>    18.9841    -0.0001    80.0000 </r>
       <r>    19.0646     0.0000    80.0000 </r>
       <r>    19.1451     0.0000    80.0000 </r>
       <r>    19.2256     0.0000    80.0000 </r>
       <r>    19.3061     0.0000    80.0000 </r>
       <r>    19.3866     0.0000    80.0000 </r>
       <r>    19.4671     0.0000    80.0000 </r>
       <r>    19.5476     0.0000    80.0000 </r>
       <r>    19.6281     0.0000    80.0000 </r>
       <r>    19.7086     0.0000    80.0000 </r>
       <r>    19.7891     0.0000    80.0000 </r>
       <r>    19.8696     0.0000    80.0000 </r>
       <r>    19.9501     0.0000    80.0000 </r>
       <r>    20.0306     0.0000    80.0000 </r>
       <r>    20.1111     0.0000    80.0000 </r>
       <r>    20.1916     0.0000    80.0000 </r>
       <r>    20.2721     0.0000    80.0000 </r>
       <r>    20.3526     0.0000    80.0000 </r>
       <r>    20.4331     0.0000    80.0000 </r>
       <r>    20.5136     0.0000    80.0000 </r>
       <r>    20.5941     0.0000    80.0000 </r>
       <r>    20.6746     0.0000    80.0000 </r>
       <r>    20.7551     0.0000    80.0000 </r>
       <r>    20.8356     0.0000    80.0000 </r>
       <r>    20.9161     0.0000    80.0000 </r>
       <r>    20.9965     0.0000    80.0000 </r>
       <r>    21.0770     0.0000    80.0000 </r>
       <r>    21.1575     0.0000    80.0000 </r>
       <r>    21.2380     0.0000    80.0000 </r>
      </set>
     </set>
    </array>
   </total>
  </dos>
 </calculation>
 <structure name="finalpos" >
  <crystal>
   <varray name="basis" >
    <v>      -2.07024043       2.07024043       0.00000000 </v>
    <v>      -2.07269414      -2.07269414       4.14977457 </v>
    <v>       6.21968483       4.14944440       2.07771680 </v>
   </varray>
   <i name="volume">    106.91237407 </i>
   <varray name="rec_basis" >
    <v>      -0.20133993       0.28169575       0.04013544 </v>
    <v>      -0.04023270      -0.04023270       0.20078677 </v>
    <v>       0.08035582       0.08035582       0.08027088 </v>
   </varray>
  </crystal>
  <varray name="positions" >
   <v>       0.16719531       0.83383012       0.33439062 </v>
   <v>       0.33288303       0.66608253       0.66576607 </v>
   <v>       0.50000000       0.50000000       0.00000000 </v>
   <v>       0.66711697       0.33391747       0.33423393 </v>
   <v>       0.83280469       0.16616988       0.66560938 </v>
   <v>       0.00000000       0.00000000       0.00000000 </v>
  </varray>
 </structure>
</modeling>
