<?xml version="1.0" encoding="ISO-8859-1"?>
<modeling>
 <generator>
  <i name="program" type="string">vasp </i>
  <i name="version" type="string">5.3.5  </i>
  <i name="subversion" type="string">31Mar14 (build Jun 20 2014 13:15:13) complex                          parallel </i>
  <i name="platform" type="string">LinuxIFC </i>
  <i name="date" type="string">2025 12 16 </i>
  <i name="time" type="string">17:12:21 </i>
 </generator>
 <incar>
  <i type="string" name="PREC">accurate</i>
  <i type="int" name="IALGO">    68</i>
  <i type="logical" name="ADDGRID"> T  </i>
  <i type="int" name="NELM">   100</i>
  <i type="int" name="NELMIN">     4</i>
  <i type="int" name="IBRION">     2</i>
  <i name="EDIFF">      0.00000100</i>
  <i name="EDIFFG">     -0.02000000</i>
  <i type="int" name="NSW">    30</i>
  <i type="int" name="ISIF">     3</i>
  <i name="ENCUT">    600.00000000</i>
  <i type="logical" name="LREAL"> F  </i>
  <i type="int" name="ISMEAR">     0</i>
  <i name="SIGMA">      0.10000000</i>
  <i type="logical" name="LWAVE"> F  </i>
  <i type="logical" name="LCHARG"> F  </i>
  <i type="int" name="NELM">   100</i>
 </incar>
 <kpoints>
  <generation param="Auto">
   <i name="subdivisionlength">     20.00000000 </i>
   <v type="int" name="divisions">       1        6        4 </v>
   <v name="usershift">      0.00000000       0.00000000       0.00000000 </v>
   <v name="genvec1">      1.00000000       0.00000000       0.00000000 </v>
   <v name="genvec2">      0.00000000       0.16666667       0.00000000 </v>
   <v name="genvec3">      0.00000000       0.00000000       0.25000000 </v>
   <v name="shift">      0.00000000       0.00000000       0.00000000 </v>
  </generation>
  <varray name="kpointlist" >
   <v>       0.00000000       0.00000000       0.00000000 </v>
   <v>       0.00000000       0.16666667       0.00000000 </v>
   <v>       0.00000000       0.33333333       0.00000000 </v>
   <v>       0.00000000       0.50000000       0.00000000 </v>
   <v>       0.00000000       0.00000000       0.25000000 </v>
   <v>       0.00000000       0.16666667       0.25000000 </v>
   <v>       0.00000000       0.33333333       0.25000000 </v>
   <v>       0.00000000       0.50000000       0.25000000 </v>
   <v>       0.00000000       0.00000000       0.50000000 </v>
   <v>       0.00000000       0.16666667       0.50000000 </v>
   <v>       0.00000000       0.33333333       0.50000000 </v>
   <v>       0.00000000       0.50000000       0.50000000 </v>
  </varray>
  <varray name="weights" >
   <v>       0.04166667 </v>
   <v>       0.08333333 </v>
   <v>       0.08333333 </v>
   <v>       0.04166667 </v>
   <v>       0.08333333 </v>
   <v>       0.16666667 </v>
   <v>       0.16666667 </v>
   <v>       0.08333333 </v>
   <v>       0.04166667 </v>
   <v>       0.08333333 </v>
   <v>       0.08333333 </v>
   <v>       0.04166667 </v>
  </varray>
 </kpoints>
 <parameters>
  <separator name="general" >
   <i type="string" name="SYSTEM">unknown system</i>
   <i type="logical" name="LCOMPAT"> F  </i>
  </separator>
  <separator name="electronic" >
   <i type="string" name="PREC">accura</i>
   <i name="ENMAX">    600.00000000</i>
   <i name="ENAUG">    644.87300000</i>
   <i name="EDIFF">      0.00000100</i>
   <i type="int" name="IALGO">    68</i>
   <i type="int" name="IWAVPR">    11</i>
   <i type="int" name="NBANDS">    84</i>
   <i name="NELECT">    128.00000000</i>
   <i type="int" name="TURBO">     0</i>
   <i type="int" name="IRESTART">     0</i>
   <i type="int" name="NREBOOT">     0</i>
   <i type="int" name="NMIN">     0</i>
   <i name="EREF">      0.00000000</i>
   <separator name="electronic smearing" >
    <i type="int" name="ISMEAR">     0</i>
    <i name="SIGMA">      0.10000000</i>
    <i name="KSPACING">      0.50000000</i>
    <i type="logical" name="KGAMMA"> T  </i>
   </separator>
   <separator name="electronic projectors" >
    <i type="logical" name="LREAL"> F  </i>
    <v name="ROPT">      0.00000000      0.00000000      0.00000000      0.00000000</v>
    <i type="int" name="LMAXPAW">  -100</i>
    <i type="int" name="LMAXMIX">     2</i>
    <i type="logical" name="NLSPLINE"> F  </i>
   </separator>
   <separator name="electronic startup" >
    <i type="int" name="ISTART">     0</i>
    <i type="int" name="ICHARG">     2</i>
    <i type="int" name="INIWAV">     1</i>
   </separator>
   <separator name="electronic spin" >
    <i type="int" name="ISPIN">     1</i>
    <i type="logical" name="LNONCOLLINEAR"> F  </i>
    <v name="MAGMOM">      1.00000000      1.00000000      1.00000000      1.00000000      1.00000000      1.00000000      1.00000000      1.00000000      1.00000000      1.00000000      1.00000000      1.00000000      1.00000000      1.00000000      1.00000000      1.00000000      1.00000000      1.00000000      1.00000000      1.00000000
      1.00000000      1.00000000      1.00000000      1.00000000      1.00000000      1.00000000      1.00000000      1.00000000      1.00000000      1.00000000      1.00000000      1.00000000</v>
    <i name="NUPDOWN">     -1.00000000</i>
    <i type="logical" name="LSORBIT"> F  </i>
    <v name="SAXIS">      0.00000000      0.00000000      1.00000000</v>
    <i type="logical" name="LSPIRAL"> F  </i>
    <v name="QSPIRAL">      0.00000000      0.00000000      0.00000000</v>
    <i type="logical" name="LZEROZ"> F  </i>
   </separator>
   <separator name="electronic exchange-correlation" >
    <i type="logical" name="LASPH"> F  </i>
    <i type="logical" name="LMETAGGA"> F  </i>
   </separator>
   <separator name="electronic convergence" >
    <i type="int" name="NELM">   100</i>
    <i type="int" name="NELMDL">     0</i>
    <i type="int" name="NELMIN">     4</i>
    <i name="ENINI">    600.00000000</i>
    <separator name="electronic convergence detail" >
     <i type="logical" name="LDIAG"> T  </i>
     <i type="logical" name="LSUBROT"> F  </i>
     <i name="WEIMIN">      0.00100000</i>
     <i name="EBREAK">      0.00000000</i>
     <i name="DEPER">      0.30000000</i>
     <i type="int" name="NRMM">     4</i>
     <i name="TIME">      0.40000000</i>
    </separator>
   </separator>
   <separator name="electronic mixer" >
    <i name="AMIX">      0.40000000</i>
    <i name="BMIX">      1.00000000</i>
    <i name="AMIN">      0.10000000</i>
    <i name="AMIX_MAG">      1.60000000</i>
    <i name="BMIX_MAG">      1.00000000</i>
    <separator name="electronic mixer details" >
     <i type="int" name="IMIX">     4</i>
     <i type="int" name="MAXMIX">   -45</i>
     <i name="WC">    100.00000000</i>
     <i type="int" name="INIMIX">     1</i>
     <i type="int" name="MIXPRE">     1</i>
     <i type="int" name="MREMOVE">     5</i>
    </separator>
   </separator>
   <separator name="electronic dipolcorrection" >
    <i type="logical" name="LDIPOL"> F  </i>
    <i type="logical" name="LMONO"> F  </i>
    <i type="int" name="IDIPOL">     0</i>
    <i name="EPSILON">      1.00000000</i>
    <v name="DIPOL">   -100.00000000   -100.00000000   -100.00000000</v>
    <i name="EFIELD">      0.00000000</i>
   </separator>
  </separator>
  <separator name="grids" >
   <i type="int" name="NGX">   168</i>
   <i type="int" name="NGY">    28</i>
   <i type="int" name="NGZ">    48</i>
   <i type="int" name="NGXF">   336</i>
   <i type="int" name="NGYF">    56</i>
   <i type="int" name="NGZF">    96</i>
   <i type="logical" name="ADDGRID"> T  </i>
  </separator>
  <separator name="ionic" >
   <i type="int" name="NSW">    30</i>
   <i type="int" name="IBRION">     2</i>
   <i type="int" name="ISIF">     3</i>
   <i name="PSTRESS">      0.00000000</i>
   <i name="EDIFFG">     -0.02000000</i>
   <i type="int" name="NFREE">     1</i>
   <i name="POTIM">      0.50000000</i>
   <i name="SMASS">     -3.00000000</i>
   <i name="SCALEE">      1.00000000</i>
  </separator>
  <separator name="ionic md" >
   <i name="TEBEG">      0.00010000</i>
   <i name="TEEND">      0.00010000</i>
   <i type="int" name="NBLOCK">     1</i>
   <i type="int" name="KBLOCK">    30</i>
   <i type="int" name="NPACO">   256</i>
   <i name="APACO">     16.00000000</i>
  </separator>
  <separator name="symmetry" >
   <i type="int" name="ISYM">     2</i>
   <i name="SYMPREC">      0.00001000</i>
  </separator>
  <separator name="dos" >
   <i type="logical" name="LORBIT"> F  </i>
   <v name="RWIGS">     -1.00000000     -1.00000000     -1.00000000     -1.00000000</v>
   <i type="int" name="NEDOS">   301</i>
   <i name="EMIN">     10.00000000</i>
   <i name="EMAX">    -10.00000000</i>
   <i name="EFERMI">      0.00000000</i>
  </separator>
  <separator name="writing" >
   <i type="int" name="NWRITE">     2</i>
   <i type="logical" name="LWAVE"> F  </i>
   <i type="logical" name="LCHARG"> F  </i>
   <i type="logical" name="LPARD"> F  </i>
   <i type="logical" name="LVTOT"> F  </i>
   <i type="logical" name="LVHAR"> F  </i>
   <i type="logical" name="LELF"> F  </i>
   <i type="logical" name="LOPTICS"> F  </i>
   <v name="STM">      0.00000000      0.00000000      0.00000000      0.00000000      0.00000000      0.00000000      0.00000000</v>
  </separator>
  <separator name="performance" >
   <i type="int" name="NPAR">     4</i>
   <i type="int" name="NSIM">     4</i>
   <i type="int" name="NBLK">    -1</i>
   <i type="logical" name="LPLANE"> T  </i>
   <i type="logical" name="LSCALAPACK"> T  </i>
   <i type="logical" name="LSCAAWARE"> F  </i>
   <i type="logical" name="LSCALU"> F  </i>
   <i type="logical" name="LASYNC"> F  </i>
   <i type="logical" name="LORBITALREAL"> F  </i>
  </separator>
  <separator name="miscellaneous" >
   <i type="int" name="IDIOT">     3</i>
   <i type="logical" name="LMUSIC"> F  </i>
   <v name="POMASS">     28.08500000     26.98100000     12.01100000     14.00100000</v>
   <v name="DARWINR">      0.00000000      0.00000000      0.00000000      0.00000000</v>
   <v name="DARWINV">      1.00000000      1.00000000      1.00000000      1.00000000</v>
   <i type="logical" name="LCORR"> T  </i>
  </separator>
  <i type="logical" name="GGA_COMPAT"> T  </i>
  <i type="logical" name="LBERRY"> F  </i>
  <i type="int" name="ICORELEVEL">     0</i>
  <i type="logical" name="LDAU"> F  </i>
  <i type="int" name="I_CONSTRAINED_M">     0</i>
  <separator name="electronic exchange-correlation" >
   <i type="string" name="GGA">--</i>
   <i type="int" name="VOSKOWN">     0</i>
   <i type="logical" name="LHFCALC"> F  </i>
   <i type="string" name="PRECFOCK"></i>
   <i type="logical" name="LSYMGRAD"> F  </i>
   <i type="logical" name="LHFONE"> F  </i>
   <i type="logical" name="LRHFCALC"> F  </i>
   <i type="logical" name="LTHOMAS"> F  </i>
   <i type="logical" name="LMODELHF"> F  </i>
   <i name="ENCUT4O">     -1.00000000</i>
   <i type="int" name="EXXOEP">     0</i>
   <i type="int" name="FOURORBIT">     0</i>
   <i name="AEXX">      0.00000000</i>
   <i name="HFALPHA">      0.00000000</i>
   <i name="MCALPHA">      0.00000000</i>
   <i name="ALDAX">      1.00000000</i>
   <i name="AGGAX">      1.00000000</i>
   <i name="ALDAC">      1.00000000</i>
   <i name="AGGAC">      1.00000000</i>
   <i type="int" name="NKREDX">     1</i>
   <i type="int" name="NKREDY">     1</i>
   <i type="int" name="NKREDZ">     1</i>
   <i type="logical" name="SHIFTRED"> F  </i>
   <i type="logical" name="ODDONLY"> F  </i>
   <i type="logical" name="EVENONLY"> F  </i>
   <i type="int" name="LMAXFOCK">     0</i>
   <i type="int" name="NMAXFOCKAE">     0</i>
   <i type="logical" name="LFOCKAEDFT"> F  </i>
   <i name="HFSCREEN">      0.00000000</i>
   <i name="HFSCREENC">      0.00000000</i>
   <i type="int" name="NBANDSGWLOW">     0</i>
  </separator>
  <separator name="vdW DFT" >
   <i type="logical" name="LUSE_VDW"> F  </i>
   <i name="Zab_VDW">     -0.84910000</i>
   <i name="PARAM1">      0.12340000</i>
   <i name="PARAM2">      1.00000000</i>
   <i name="PARAM3">      0.00000000</i>
  </separator>
  <separator name="model GW" >
   <i type="int" name="MODEL_GW">     0</i>
   <i name="MODEL_EPS0">      6.34043402</i>
   <i name="MODEL_ALPHA">      1.00000000</i>
  </separator>
  <separator name="linear response parameters" >
   <i type="logical" name="LEPSILON"> F  </i>
   <i type="logical" name="LRPA"> F  </i>
   <i type="logical" name="LNABLA"> F  </i>
   <i type="logical" name="LVEL"> F  </i>
   <i type="int" name="KINTER">     0</i>
   <i name="CSHIFT">      0.10000000</i>
   <i name="OMEGAMAX">     -1.00000000</i>
   <i name="DEG_THRESHOLD">      0.00200000</i>
  </separator>
  <separator name="orbital magnetization" >
   <i type="logical" name="NUCIND"> F  </i>
   <v name="MAGPOS">      0.00000000      0.00000000      0.00000000</v>
   <i type="logical" name="LNICSALL"> T  </i>
   <i type="logical" name="ORBITALMAG"> F  </i>
   <i type="logical" name="LMAGBLOCH"> F  </i>
   <i type="logical" name="LCHIMAG"> F  </i>
   <i type="logical" name="LGAUGE"> T  </i>
   <i type="int" name="MAGATOM">     0</i>
   <v name="MAGDIPOL">      0.00000000      0.00000000      0.00000000</v>
   <v name="AVECCONST">      0.00000000      0.00000000      0.00000000</v>
  </separator>
  <separator name="response functions" >
   <i type="logical" name="LADDER"> F  </i>
   <i type="logical" name="LFXC"> F  </i>
   <i type="logical" name="LHARTREE"> T  </i>
   <i type="int" name="IBSE">     0</i>
   <i type="logical" name="LTCTE"> F  </i>
   <i type="logical" name="LTETE"> F  </i>
   <i type="logical" name="LTRIPLET"> F  </i>
   <i type="logical" name="LFXCEPS"> F  </i>
   <i type="logical" name="LFXHEG"> F  </i>
   <i type="logical" name="L2ORDER"> F  </i>
   <i type="logical" name="LUSEW"> F  </i>
   <i name="ENCUTGW">     -2.00000000</i>
   <i name="ENCUTGWSOFT">     -2.00000000</i>
   <i name="ENCUTLF">     -1.00000000</i>
   <i type="int" name="LMAXMP2">    -1</i>
   <i name="SCISSOR">      0.00000000</i>
   <i type="int" name="NOMEGA">     0</i>
   <i type="int" name="NOMEGAR">     0</i>
   <i type="int" name="NBANDSGW">    -1</i>
   <i type="int" name="NBANDSO">    -1</i>
   <i type="int" name="NBANDSV">    -1</i>
   <i type="int" name="NELM">   100</i>
   <i type="int" name="DIM">     3</i>
   <i type="int" name="ANTIRES">     0</i>
   <i name="OMEGAMAX">    -30.00000000</i>
   <i name="OMEGAMIN">    -30.00000000</i>
   <i name="OMEGATL">   -200.00000000</i>
   <i type="int" name="OMEGAGRID">     0</i>
   <i name="CSHIFT">     -0.10000000</i>
   <i type="logical" name="SELFENERGY"> F  </i>
   <i type="logical" name="LSPECTRAL"> F  </i>
   <i type="logical" name="ODDONLYGW"> F  </i>
   <i type="logical" name="EVENONLYGW"> F  </i>
   <i type="int" name="NKREDLFX">     1</i>
   <i type="int" name="NKREDLFY">     1</i>
   <i type="int" name="NKREDLFZ">     1</i>
   <i type="int" name="MAXMEM">  1800</i>
   <i type="int" name="TELESCOPE">     0</i>
   <i type="int" name="TAUPAR">     1</i>
  </separator>
  <separator name="External order field" >
   <i name="OFIELD_KAPPA">      0.00000000</i>
   <v name="OFIELD_K">      0.00000000      0.00000000      0.00000000</v>
   <i name="OFIELD_Q6_NEAR">      0.00000000</i>
   <i name="OFIELD_Q6_FAR">      0.00000000</i>
   <i name="OFIELD_A">      0.00000000</i>
  </separator>
 </parameters>
 <atominfo>
  <atoms>      32 </atoms>
  <types>       4 </types>
  <array name="atoms" >
   <dimension dim="1">ion</dimension>
   <field type="string">element</field>
   <field type="int">atomtype</field>
   <set>
    <rc><c>Si</c><c>   1</c></rc>
    <rc><c>Si</c><c>   1</c></rc>
    <rc><c>Si</c><c>   1</c></rc>
    <rc><c>Si</c><c>   1</c></rc>
    <rc><c>Si</c><c>   1</c></rc>
    <rc><c>Si</c><c>   1</c></rc>
    <rc><c>Si</c><c>   1</c></rc>
    <rc><c>Si</c><c>   1</c></rc>
    <rc><c>Si</c><c>   1</c></rc>
    <rc><c>Si</c><c>   1</c></rc>
    <rc><c>Al</c><c>   2</c></rc>
    <rc><c>Al</c><c>   2</c></rc>
    <rc><c>Al</c><c>   2</c></rc>
    <rc><c>Al</c><c>   2</c></rc>
    <rc><c>Al</c><c>   2</c></rc>
    <rc><c>Al</c><c>   2</c></rc>
    <rc><c>C </c><c>   3</c></rc>
    <rc><c>C </c><c>   3</c></rc>
    <rc><c>C </c><c>   3</c></rc>
    <rc><c>C </c><c>   3</c></rc>
    <rc><c>C </c><c>   3</c></rc>
    <rc><c>C </c><c>   3</c></rc>
    <rc><c>C </c><c>   3</c></rc>
    <rc><c>C </c><c>   3</c></rc>
    <rc><c>C </c><c>   3</c></rc>
    <rc><c>C </c><c>   3</c></rc>
    <rc><c>N </c><c>   4</c></rc>
    <rc><c>N </c><c>   4</c></rc>
    <rc><c>N </c><c>   4</c></rc>
    <rc><c>N </c><c>   4</c></rc>
    <rc><c>N </c><c>   4</c></rc>
    <rc><c>N </c><c>   4</c></rc>
   </set>
  </array>
  <array name="atomtypes" >
   <dimension dim="1">type</dimension>
   <field type="int">atomspertype</field>
   <field type="string">element</field>
   <field>mass</field>
   <field>valence</field>
   <field type="string">pseudopotential</field>
   <set>
    <rc><c>  10</c><c>Si</c><c>     28.08500000</c><c>      4.00000000</c><c>  PAW_PBE Si 05Jan2001                  </c></rc>
    <rc><c>   6</c><c>Al</c><c>     26.98100000</c><c>      3.00000000</c><c>  PAW_PBE Al 04Jan2001                  </c></rc>
    <rc><c>  10</c><c>C </c><c>     12.01100000</c><c>      4.00000000</c><c>  PAW_PBE C 08Apr2002                   </c></rc>
    <rc><c>   6</c><c>N </c><c>     14.00100000</c><c>      5.00000000</c><c>  PAW_PBE N_s 07Sep2000                 </c></rc>
   </set>
  </array>
 </atominfo>
 <structure name="initialpos" >
  <crystal>
   <varray name="basis" >
    <v>      20.90150769       0.00000000       0.09245871 </v>
    <v>       0.00000000       3.10545342       0.00000000 </v>
    <v>      -1.40280315       0.00000000       5.20352303 </v>
   </varray>
   <i name="volume">    338.15648095 </i>
   <varray name="rec_basis" >
    <v>       0.04778645       0.00000000       0.01288262 </v>
    <v>       0.00000000       0.32201417       0.00000000 </v>
    <v>      -0.00084909       0.00000000       0.19194859 </v>
   </varray>
  </crystal>
  <varray name="positions" >
   <v>       0.00234694       0.50000000       0.83522404 </v>
   <v>       0.74998775       0.50000000       0.58965245 </v>
   <v>       0.87387063       0.50000000       0.03701174 </v>
   <v>       0.62556183       0.50000000       0.79679246 </v>
   <v>       0.87454314       0.00000000       0.54506955 </v>
   <v>       0.50234694       0.00000000       0.83522404 </v>
   <v>       0.24998775       0.00000000       0.58965245 </v>
   <v>       0.37387063       0.00000000       0.03701174 </v>
   <v>       0.12556183       0.00000000       0.79679246 </v>
   <v>       0.37454314       0.50000000       0.54506955 </v>
   <v>       0.99853133       0.00000000       0.32740812 </v>
   <v>       0.75219699       0.00000000       0.08396904 </v>
   <v>       0.62660565       0.00000000       0.29007031 </v>
   <v>       0.49853133       0.50000000       0.32740812 </v>
   <v>       0.25219699       0.50000000       0.08396904 </v>
   <v>       0.12660565       0.50000000       0.29007031 </v>
   <v>       0.89871740       0.00000000       0.23053186 </v>
   <v>       0.65588291       0.00000000       0.97229211 </v>
   <v>       0.90696437       0.50000000       0.74191835 </v>
   <v>       0.53249254       0.50000000       0.70669889 </v>
   <v>       0.78002519       0.00000000       0.46727419 </v>
   <v>       0.39871740       0.50000000       0.23053186 </v>
   <v>       0.15588291       0.50000000       0.97229211 </v>
   <v>       0.40696437       0.00000000       0.74191835 </v>
   <v>       0.03249254       0.00000000       0.70669889 </v>
   <v>       0.28002519       0.50000000       0.46727419 </v>
   <v>       0.65855926       0.50000000       0.50621564 </v>
   <v>       0.78290742       0.50000000       0.93425378 </v>
   <v>       0.53080666       0.00000000       0.18561748 </v>
   <v>       0.15855926       0.00000000       0.50621564 </v>
   <v>       0.28290742       0.00000000       0.93425378 </v>
   <v>       0.03080666       0.50000000       0.18561748 </v>
  </varray>
 </structure>
 <calculation>
  <scstep>
   <time name="dav">    1.30    1.30</time>
   <time name="total">    1.40    1.41</time>
   <energy>
    <i name="alphaZ">    140.32984877 </i>
    <i name="ewald">  -4544.91581286 </i>
    <i name="hartreedc">   -621.62535977 </i>
    <i name="XCdc">     10.24428600 </i>
    <i name="pawpsdc">   3593.28979614 </i>
    <i name="pawaedc">  -3238.43571855 </i>
    <i name="eentropy">     -0.01126162 </i>
    <i name="bandstr">    882.71848460 </i>
    <i name="atom">   4410.68206660 </i>
    <i name="e_fr_energy">    632.27632933 </i>
    <i name="e_wo_entrp">    632.28759095 </i>
    <i name="e_0_energy">    632.28196014 </i>
   </energy>
  </scstep>
  <scstep>
   <time name="dav">    1.47    1.47</time>
   <time name="total">    1.47    1.48</time>
   <energy>
    <i name="e_fr_energy">   -199.50303642 </i>
    <i name="e_wo_entrp">   -199.50303642 </i>
    <i name="e_0_energy">   -199.50303642 </i>
   </energy>
  </scstep>
  <scstep>
   <time name="dav">    1.47    1.47</time>
   <time name="total">    1.47    1.49</time>
   <energy>
    <i name="e_fr_energy">   -268.37533284 </i>
    <i name="e_wo_entrp">   -268.37533284 </i>
    <i name="e_0_energy">   -268.37533284 </i>
   </energy>
  </scstep>
  <scstep>
   <time name="dav">    1.46    1.54</time>
   <time name="total">    1.46    1.55</time>
   <energy>
    <i name="e_fr_energy">   -270.38315077 </i>
    <i name="e_wo_entrp">   -270.38315077 </i>
    <i name="e_0_energy">   -270.38315077 </i>
   </energy>
  </scstep>
  <scstep>
   <time name="dav">    1.49    1.49</time>
   <time name="total">    1.64    1.66</time>
   <energy>
    <i name="e_fr_energy">   -270.45670607 </i>
    <i name="e_wo_entrp">   -270.45670607 </i>
    <i name="e_0_energy">   -270.45670607 </i>
   </energy>
  </scstep>
  <scstep>
   <time name="diag">    0.21    0.21</time>
   <time name="diis">    0.99    0.99</time>
   <time name="orth">    0.04    0.04</time>
   <time name="total">    1.50    1.51</time>
   <energy>
    <i name="e_fr_energy">   -237.64039950 </i>
    <i name="e_wo_entrp">   -237.64039950 </i>
    <i name="e_0_energy">   -237.64039950 </i>
   </energy>
  </scstep>
  <scstep>
   <time name="diag">    0.21    0.21</time>
   <time name="diis">    1.00    1.01</time>
   <time name="orth">    0.05    0.10</time>
   <time name="total">    1.51    1.58</time>
   <energy>
    <i name="e_fr_energy">   -237.55374595 </i>
    <i name="e_wo_entrp">   -237.55374595 </i>
    <i name="e_0_energy">   -237.55374595 </i>
   </energy>
  </scstep>
  <scstep>
   <time name="diag">    0.21    0.21</time>
   <time name="diis">    0.99    0.99</time>
   <time name="orth">    0.04    0.04</time>
   <time name="total">    1.50    1.51</time>
   <energy>
    <i name="e_fr_energy">   -238.03776535 </i>
    <i name="e_wo_entrp">   -238.03776535 </i>
    <i name="e_0_energy">   -238.03776535 </i>
   </energy>
  </scstep>
  <scstep>
   <time name="diag">    0.21    0.21</time>
   <time name="diis">    0.99    0.99</time>
   <time name="orth">    0.04    0.04</time>
   <time name="total">    1.49    1.50</time>
   <energy>
    <i name="e_fr_energy">   -237.43247935 </i>
    <i name="e_wo_entrp">   -237.43247935 </i>
    <i name="e_0_energy">   -237.43247935 </i>
   </energy>
  </scstep>
  <scstep>
   <time name="diag">    0.21    0.21</time>
   <time name="diis">    0.94    0.94</time>
   <time name="orth">    0.05    0.05</time>
   <time name="total">    1.44    1.46</time>
   <energy>
    <i name="e_fr_energy">   -237.41786448 </i>
    <i name="e_wo_entrp">   -237.41786448 </i>
    <i name="e_0_energy">   -237.41786448 </i>
   </energy>
  </scstep>
  <scstep>
   <time name="diag">    0.21    0.21</time>
   <time name="diis">    0.96    0.96</time>
   <time name="orth">    0.04    0.04</time>
   <time name="total">    1.46    1.48</time>
   <energy>
    <i name="e_fr_energy">   -237.42174981 </i>
    <i name="e_wo_entrp">   -237.42174981 </i>
    <i name="e_0_energy">   -237.42174981 </i>
   </energy>
  </scstep>
  <scstep>
   <time name="diag">    0.21    0.21</time>
   <time name="diis">    0.95    0.95</time>
   <time name="orth">    0.04    0.04</time>
   <time name="total">    1.45    1.47</time>
   <energy>
    <i name="e_fr_energy">   -237.41960675 </i>
    <i name="e_wo_entrp">   -237.41960675 </i>
    <i name="e_0_energy">   -237.41960675 </i>
   </energy>
  </scstep>
  <scstep>
   <time name="diag">    0.21    0.21</time>
   <time name="diis">    0.95    0.95</time>
   <time name="orth">    0.04    0.04</time>
   <time name="total">    1.45    1.46</time>
   <energy>
    <i name="e_fr_energy">   -237.41971358 </i>
    <i name="e_wo_entrp">   -237.41971358 </i>
    <i name="e_0_energy">   -237.41971358 </i>
   </energy>
  </scstep>
  <scstep>
   <time name="diag">    0.21    0.21</time>
   <time name="diis">    0.97    0.97</time>
   <time name="orth">    0.04    0.04</time>
   <time name="total">    1.47    1.48</time>
   <energy>
    <i name="e_fr_energy">   -237.41967985 </i>
    <i name="e_wo_entrp">   -237.41967985 </i>
    <i name="e_0_energy">   -237.41967985 </i>
   </energy>
  </scstep>
  <scstep>
   <time name="diag">    0.21    0.21</time>
   <time name="diis">    0.94    0.94</time>
   <time name="orth">    0.04    0.04</time>
   <time name="total">    1.44    1.45</time>
   <energy>
    <i name="e_fr_energy">   -237.41968227 </i>
    <i name="e_wo_entrp">   -237.41968227 </i>
    <i name="e_0_energy">   -237.41968227 </i>
   </energy>
  </scstep>
  <scstep>
   <time name="diag">    0.21    0.21</time>
   <time name="diis">    0.96    0.96</time>
   <time name="orth">    0.04    0.04</time>
   <time name="total">    1.46    1.47</time>
   <energy>
    <i name="e_fr_energy">   -237.41967984 </i>
    <i name="e_wo_entrp">   -237.41967984 </i>
    <i name="e_0_energy">   -237.41967984 </i>
   </energy>
  </scstep>
  <scstep>
   <time name="diag">    0.21    0.21</time>
   <time name="diis">    0.62    0.62</time>
   <time name="orth">    0.04    0.04</time>
   <time name="total">    0.97    0.98</time>
   <energy>
    <i name="alphaZ">    140.32984877 </i>
    <i name="ewald">  -4544.91581286 </i>
    <i name="hartreedc">   -833.16815896 </i>
    <i name="XCdc">     28.98812840 </i>
    <i name="pawpsdc">  19630.96544812 </i>
    <i name="pawaedc"> -19283.29173209 </i>
    <i name="eentropy">      0.00000000 </i>
    <i name="bandstr">    212.99053165 </i>
    <i name="atom">   4410.68206660 </i>
    <i name="e_fr_energy">   -237.41968036 </i>
    <i name="e_wo_entrp">   -237.41968036 </i>
    <i name="e_0_energy">   -237.41968036 </i>
   </energy>
  </scstep>
  <structure>
   <crystal>
    <varray name="basis" >
     <v>      20.90150769       0.00000000       0.09245871 </v>
     <v>       0.00000000       3.10545342       0.00000000 </v>
     <v>      -1.40280315       0.00000000       5.20352303 </v>
    </varray>
    <i name="volume">    338.15648095 </i>
    <varray name="rec_basis" >
     <v>       0.04778645       0.00000000       0.01288262 </v>
     <v>       0.00000000       0.32201417       0.00000000 </v>
     <v>      -0.00084909       0.00000000       0.19194859 </v>
    </varray>
   </crystal>
   <varray name="positions" >
    <v>       0.00234694       0.50000000       0.83522404 </v>
    <v>       0.74998775       0.50000000       0.58965245 </v>
    <v>       0.87387063       0.50000000       0.03701174 </v>
    <v>       0.62556183       0.50000000       0.79679246 </v>
    <v>       0.87454314       0.00000000       0.54506955 </v>
    <v>       0.50234694       0.00000000       0.83522404 </v>
    <v>       0.24998775       0.00000000       0.58965245 </v>
    <v>       0.37387063       0.00000000       0.03701174 </v>
    <v>       0.12556183       0.00000000       0.79679246 </v>
    <v>       0.37454314       0.50000000       0.54506955 </v>
    <v>       0.99853133       0.00000000       0.32740812 </v>
    <v>       0.75219699       0.00000000       0.08396904 </v>
    <v>       0.62660565       0.00000000       0.29007031 </v>
    <v>       0.49853133       0.50000000       0.32740812 </v>
    <v>       0.25219699       0.50000000       0.08396904 </v>
    <v>       0.12660565       0.50000000       0.29007031 </v>
    <v>       0.89871740       0.00000000       0.23053186 </v>
    <v>       0.65588291       0.00000000       0.97229211 </v>
    <v>       0.90696437       0.50000000       0.74191835 </v>
    <v>       0.53249254       0.50000000       0.70669889 </v>
    <v>       0.78002519       0.00000000       0.46727419 </v>
    <v>       0.39871740       0.50000000       0.23053186 </v>
    <v>       0.15588291       0.50000000       0.97229211 </v>
    <v>       0.40696437       0.00000000       0.74191835 </v>
    <v>       0.03249254       0.00000000       0.70669889 </v>
    <v>       0.28002519       0.50000000       0.46727419 </v>
    <v>       0.65855926       0.50000000       0.50621564 </v>
    <v>       0.78290742       0.50000000       0.93425378 </v>
    <v>       0.53080666       0.00000000       0.18561748 </v>
    <v>       0.15855926       0.00000000       0.50621564 </v>
    <v>       0.28290742       0.00000000       0.93425378 </v>
    <v>       0.03080666       0.50000000       0.18561748 </v>
   </varray>
  </structure>
  <varray name="forces" >
   <v>      -0.00084778       0.00000000      -0.00934943 </v>
   <v>       0.00715074       0.00000000       0.01821510 </v>
   <v>       0.00540425       0.00000000       0.00570368 </v>
   <v>       0.00138915       0.00000000      -0.00866234 </v>
   <v>       0.00344243       0.00000000       0.00579565 </v>
   <v>      -0.00084778       0.00000000      -0.00934943 </v>
   <v>       0.00715074       0.00000000       0.01821510 </v>
   <v>       0.00540425       0.00000000       0.00570368 </v>
   <v>       0.00138915       0.00000000      -0.00866234 </v>
   <v>       0.00344243       0.00000000       0.00579565 </v>
   <v>      -0.00311548       0.00000000      -0.01070731 </v>
   <v>      -0.00367067       0.00000000       0.00583398 </v>
   <v>       0.00561358       0.00000000       0.00462538 </v>
   <v>      -0.00311548       0.00000000      -0.01070731 </v>
   <v>      -0.00367067       0.00000000       0.00583398 </v>
   <v>       0.00561358       0.00000000       0.00462538 </v>
   <v>       0.01020499       0.00000000      -0.00097900 </v>
   <v>      -0.01588436       0.00000000      -0.00530901 </v>
   <v>      -0.00545476       0.00000000       0.00034874 </v>
   <v>      -0.01057315       0.00000000      -0.00717078 </v>
   <v>      -0.00759701       0.00000000       0.00880976 </v>
   <v>       0.01020499       0.00000000      -0.00097900 </v>
   <v>      -0.01588436       0.00000000      -0.00530901 </v>
   <v>      -0.00545476       0.00000000       0.00034874 </v>
   <v>      -0.01057315       0.00000000      -0.00717078 </v>
   <v>      -0.00759701       0.00000000       0.00880976 </v>
   <v>      -0.00246514       0.00000000       0.00128242 </v>
   <v>       0.00748570       0.00000000      -0.00323468 </v>
   <v>       0.00891751       0.00000000      -0.00520215 </v>
   <v>      -0.00246514       0.00000000       0.00128242 </v>
   <v>       0.00748570       0.00000000      -0.00323468 </v>
   <v>       0.00891751       0.00000000      -0.00520215 </v>
  </varray>
  <varray name="stress" >
   <v>       0.09886104       0.00000000       0.07357691 </v>
   <v>       0.00000000      -0.04237428       0.00000000 </v>
   <v>       0.07357704       0.00000000      -0.05156326 </v>
  </varray>
  <energy>
   <i name="e_fr_energy">   -237.41968036 </i>
   <i name="e_wo_entrp">   -237.41968036 </i>
   <i name="e_0_energy">      0.00000000 </i>
  </energy>
  <time name="totalsc">   27.76   28.18</time>
  <eigenvalues>
   <array>
    <dimension dim="1">band</dimension>
    <dimension dim="2">kpoint</dimension>
    <dimension dim="3">spin</dimension>
    <field>eigene</field>
    <field>occ</field>
    <set>
     <set comment="spin 1">
      <set comment="kpoint 1">
       <r>   -8.8685    1.0000 </r>
       <r>   -8.8327    1.0000 </r>
       <r>   -8.1813    1.0000 </r>
       <r>   -8.0244    1.0000 </r>
       <r>   -7.5919    1.0000 </r>
       <r>   -7.4376    1.0000 </r>
       <r>   -5.8108    1.0000 </r>
       <r>   -5.7892    1.0000 </r>
       <r>   -4.6899    1.0000 </r>
       <r>   -4.6251    1.0000 </r>
       <r>   -4.3105    1.0000 </r>
       <r>   -4.2670    1.0000 </r>
       <r>   -3.4901    1.0000 </r>
       <r>   -3.4004    1.0000 </r>
       <r>   -2.8638    1.0000 </r>
       <r>   -2.7639    1.0000 </r>
       <r>   -0.5301    1.0000 </r>
       <r>   -0.2005    1.0000 </r>
       <r>   -0.1182    1.0000 </r>
       <r>    0.0571    1.0000 </r>
       <r>    0.1237    1.0000 </r>
       <r>    0.4376    1.0000 </r>
       <r>    0.8291    1.0000 </r>
       <r>    1.1635    1.0000 </r>
       <r>    1.2640    1.0000 </r>
       <r>    1.2737    1.0000 </r>
       <r>    2.0334    1.0000 </r>
       <r>    2.6147    1.0000 </r>
       <r>    2.8818    1.0000 </r>
       <r>    3.2219    1.0000 </r>
       <r>    3.7421    1.0000 </r>
       <r>    4.0440    1.0000 </r>
       <r>    4.2269    1.0000 </r>
       <r>    4.2803    1.0000 </r>
       <r>    4.3370    1.0000 </r>
       <r>    4.7163    1.0000 </r>
       <r>    4.9463    1.0000 </r>
       <r>    4.9805    1.0000 </r>
       <r>    5.1753    1.0000 </r>
       <r>    5.4148    1.0000 </r>
       <r>    5.4797    1.0000 </r>
       <r>    5.4919    1.0000 </r>
       <r>    5.6754    1.0000 </r>
       <r>    5.9296    1.0000 </r>
       <r>    5.9544    1.0000 </r>
       <r>    6.0582    1.0000 </r>
       <r>    6.2933    1.0000 </r>
       <r>    6.3151    1.0000 </r>
       <r>    6.3227    1.0000 </r>
       <r>    6.3760    1.0000 </r>
       <r>    6.5119    1.0000 </r>
       <r>    6.5267    1.0000 </r>
       <r>    6.6276    1.0000 </r>
       <r>    6.8989    1.0000 </r>
       <r>    6.9211    1.0000 </r>
       <r>    7.0397    1.0000 </r>
       <r>    7.0490    1.0000 </r>
       <r>    7.0906    1.0000 </r>
       <r>    7.1900    1.0000 </r>
       <r>    7.4068    1.0000 </r>
       <r>    7.4130    1.0000 </r>
       <r>    7.5074    1.0000 </r>
       <r>    7.5611    1.0000 </r>
       <r>    7.6433    1.0000 </r>
       <r>   10.9397    0.0000 </r>
       <r>   11.0175    0.0000 </r>
       <r>   11.1338    0.0000 </r>
       <r>   11.2235    0.0000 </r>
       <r>   11.2607    0.0000 </r>
       <r>   11.4868    0.0000 </r>
       <r>   11.6561    0.0000 </r>
       <r>   12.0257    0.0000 </r>
       <r>   12.3899    0.0000 </r>
       <r>   12.5864    0.0000 </r>
       <r>   12.8253    0.0000 </r>
       <r>   12.8823    0.0000 </r>
       <r>   13.2051    0.0000 </r>
       <r>   13.5996    0.0000 </r>
       <r>   13.7908    0.0000 </r>
       <r>   13.9132    0.0000 </r>
       <r>   13.9630    0.0000 </r>
       <r>   14.4131    0.0000 </r>
       <r>   14.6774    0.0000 </r>
       <r>   14.7641    0.0000 </r>
      </set>
      <set comment="kpoint 2">
       <r>   -8.6434    1.0000 </r>
       <r>   -8.6133    1.0000 </r>
       <r>   -7.9588    1.0000 </r>
       <r>   -7.8279    1.0000 </r>
       <r>   -7.4024    1.0000 </r>
       <r>   -7.2787    1.0000 </r>
       <r>   -5.5373    1.0000 </r>
       <r>   -5.5220    1.0000 </r>
       <r>   -4.4116    1.0000 </r>
       <r>   -4.3298    1.0000 </r>
       <r>   -4.0654    1.0000 </r>
       <r>   -4.0054    1.0000 </r>
       <r>   -3.2295    1.0000 </r>
       <r>   -3.1889    1.0000 </r>
       <r>   -2.7121    1.0000 </r>
       <r>   -2.5831    1.0000 </r>
       <r>   -0.2499    1.0000 </r>
       <r>    0.0533    1.0000 </r>
       <r>    0.1607    1.0000 </r>
       <r>    0.2606    1.0000 </r>
       <r>    0.4026    1.0000 </r>
       <r>    0.6798    1.0000 </r>
       <r>    1.0522    1.0000 </r>
       <r>    1.3401    1.0000 </r>
       <r>    1.4703    1.0000 </r>
       <r>    1.5341    1.0000 </r>
       <r>    2.1777    1.0000 </r>
       <r>    2.6824    1.0000 </r>
       <r>    2.7014    1.0000 </r>
       <r>    3.0155    1.0000 </r>
       <r>    3.1252    1.0000 </r>
       <r>    3.1265    1.0000 </r>
       <r>    3.3534    1.0000 </r>
       <r>    3.5710    1.0000 </r>
       <r>    3.6829    1.0000 </r>
       <r>    4.1977    1.0000 </r>
       <r>    4.3070    1.0000 </r>
       <r>    4.3525    1.0000 </r>
       <r>    4.4034    1.0000 </r>
       <r>    4.6216    1.0000 </r>
       <r>    4.7568    1.0000 </r>
       <r>    4.8925    1.0000 </r>
       <r>    5.0309    1.0000 </r>
       <r>    5.1321    1.0000 </r>
       <r>    5.1775    1.0000 </r>
       <r>    5.2681    1.0000 </r>
       <r>    5.3097    1.0000 </r>
       <r>    5.5287    1.0000 </r>
       <r>    5.6664    1.0000 </r>
       <r>    5.7281    1.0000 </r>
       <r>    5.8466    1.0000 </r>
       <r>    5.8926    1.0000 </r>
       <r>    6.1101    1.0000 </r>
       <r>    6.2260    1.0000 </r>
       <r>    6.4338    1.0000 </r>
       <r>    6.4344    1.0000 </r>
       <r>    6.6479    1.0000 </r>
       <r>    6.8010    1.0000 </r>
       <r>    6.8184    1.0000 </r>
       <r>    6.9263    1.0000 </r>
       <r>    7.1000    1.0000 </r>
       <r>    7.1963    1.0000 </r>
       <r>    7.2969    1.0000 </r>
       <r>    7.5330    1.0000 </r>
       <r>   11.3889    0.0000 </r>
       <r>   11.5148    0.0000 </r>
       <r>   11.7104    0.0000 </r>
       <r>   11.9631    0.0000 </r>
       <r>   12.3379    0.0000 </r>
       <r>   12.7698    0.0000 </r>
       <r>   13.1036    0.0000 </r>
       <r>   13.2558    0.0000 </r>
       <r>   13.2927    0.0000 </r>
       <r>   13.4430    0.0000 </r>
       <r>   13.4492    0.0000 </r>
       <r>   13.4684    0.0000 </r>
       <r>   13.9413    0.0000 </r>
       <r>   13.9939    0.0000 </r>
       <r>   14.1187    0.0000 </r>
       <r>   14.1533    0.0000 </r>
       <r>   14.3370    0.0000 </r>
       <r>   14.5053    0.0000 </r>
       <r>   14.6052    0.0000 </r>
       <r>   14.8281    0.0000 </r>
      </set>
      <set comment="kpoint 3">
       <r>   -8.1102    1.0000 </r>
       <r>   -8.0953    1.0000 </r>
       <r>   -7.4363    1.0000 </r>
       <r>   -7.3728    1.0000 </r>
       <r>   -6.9877    1.0000 </r>
       <r>   -6.9334    1.0000 </r>
       <r>   -4.7735    1.0000 </r>
       <r>   -4.7633    1.0000 </r>
       <r>   -3.6612    1.0000 </r>
       <r>   -3.6381    1.0000 </r>
       <r>   -3.4240    1.0000 </r>
       <r>   -3.3744    1.0000 </r>
       <r>   -2.7471    1.0000 </r>
       <r>   -2.7108    1.0000 </r>
       <r>   -2.4995    1.0000 </r>
       <r>   -2.3331    1.0000 </r>
       <r>    0.2550    1.0000 </r>
       <r>    0.2909    1.0000 </r>
       <r>    0.3779    1.0000 </r>
       <r>    0.5713    1.0000 </r>
       <r>    0.9172    1.0000 </r>
       <r>    0.9874    1.0000 </r>
       <r>    1.2825    1.0000 </r>
       <r>    1.3355    1.0000 </r>
       <r>    1.4613    1.0000 </r>
       <r>    1.6300    1.0000 </r>
       <r>    1.7970    1.0000 </r>
       <r>    1.8127    1.0000 </r>
       <r>    1.9361    1.0000 </r>
       <r>    2.1740    1.0000 </r>
       <r>    2.3825    1.0000 </r>
       <r>    2.5037    1.0000 </r>
       <r>    2.5105    1.0000 </r>
       <r>    2.5779    1.0000 </r>
       <r>    2.9047    1.0000 </r>
       <r>    3.1906    1.0000 </r>
       <r>    3.2419    1.0000 </r>
       <r>    3.3874    1.0000 </r>
       <r>    3.3929    1.0000 </r>
       <r>    3.4849    1.0000 </r>
       <r>    3.4926    1.0000 </r>
       <r>    3.6924    1.0000 </r>
       <r>    3.9205    1.0000 </r>
       <r>    4.0038    1.0000 </r>
       <r>    4.1487    1.0000 </r>
       <r>    4.1941    1.0000 </r>
       <r>    4.2733    1.0000 </r>
       <r>    4.5283    1.0000 </r>
       <r>    4.7950    1.0000 </r>
       <r>    4.9117    1.0000 </r>
       <r>    5.1471    1.0000 </r>
       <r>    5.2867    1.0000 </r>
       <r>    5.2976    1.0000 </r>
       <r>    5.4068    1.0000 </r>
       <r>    5.5961    1.0000 </r>
       <r>    6.0120    1.0000 </r>
       <r>    6.0523    1.0000 </r>
       <r>    6.0683    1.0000 </r>
       <r>    6.4148    1.0000 </r>
       <r>    6.4347    1.0000 </r>
       <r>    6.5857    1.0000 </r>
       <r>    6.8751    1.0000 </r>
       <r>    6.9729    1.0000 </r>
       <r>    7.3736    1.0000 </r>
       <r>   10.6846    0.0000 </r>
       <r>   11.6436    0.0000 </r>
       <r>   11.8172    0.0000 </r>
       <r>   12.5182    0.0000 </r>
       <r>   12.7799    0.0000 </r>
       <r>   12.8692    0.0000 </r>
       <r>   13.0047    0.0000 </r>
       <r>   13.0086    0.0000 </r>
       <r>   13.2709    0.0000 </r>
       <r>   13.2999    0.0000 </r>
       <r>   13.4941    0.0000 </r>
       <r>   13.5329    0.0000 </r>
       <r>   13.6902    0.0000 </r>
       <r>   13.8482    0.0000 </r>
       <r>   13.8744    0.0000 </r>
       <r>   14.0467    0.0000 </r>
       <r>   14.1697    0.0000 </r>
       <r>   14.4420    0.0000 </r>
       <r>   14.7797    0.0000 </r>
       <r>   14.8312    0.0000 </r>
      </set>
      <set comment="kpoint 4">
       <r>   -7.7784    1.0000 </r>
       <r>   -7.7784    1.0000 </r>
       <r>   -7.1050    1.0000 </r>
       <r>   -7.1050    1.0000 </r>
       <r>   -6.7599    1.0000 </r>
       <r>   -6.7599    1.0000 </r>
       <r>   -3.9240    1.0000 </r>
       <r>   -3.9240    1.0000 </r>
       <r>   -3.4352    1.0000 </r>
       <r>   -3.4352    1.0000 </r>
       <r>   -3.0884    1.0000 </r>
       <r>   -3.0884    1.0000 </r>
       <r>   -2.6510    1.0000 </r>
       <r>   -2.6510    1.0000 </r>
       <r>   -2.2224    1.0000 </r>
       <r>   -2.2224    1.0000 </r>
       <r>   -0.1380    1.0000 </r>
       <r>   -0.1380    1.0000 </r>
       <r>    0.3278    1.0000 </r>
       <r>    0.3278    1.0000 </r>
       <r>    0.7028    1.0000 </r>
       <r>    0.7028    1.0000 </r>
       <r>    1.2198    1.0000 </r>
       <r>    1.2198    1.0000 </r>
       <r>    1.4685    1.0000 </r>
       <r>    1.4685    1.0000 </r>
       <r>    1.8014    1.0000 </r>
       <r>    1.8014    1.0000 </r>
       <r>    2.0217    1.0000 </r>
       <r>    2.0217    1.0000 </r>
       <r>    2.1263    1.0000 </r>
       <r>    2.1263    1.0000 </r>
       <r>    2.4250    1.0000 </r>
       <r>    2.4250    1.0000 </r>
       <r>    2.5125    1.0000 </r>
       <r>    2.5125    1.0000 </r>
       <r>    2.8638    1.0000 </r>
       <r>    2.8638    1.0000 </r>
       <r>    3.1968    1.0000 </r>
       <r>    3.1968    1.0000 </r>
       <r>    3.4177    1.0000 </r>
       <r>    3.4177    1.0000 </r>
       <r>    3.7065    1.0000 </r>
       <r>    3.7065    1.0000 </r>
       <r>    4.0433    1.0000 </r>
       <r>    4.0433    1.0000 </r>
       <r>    4.1770    1.0000 </r>
       <r>    4.1770    1.0000 </r>
       <r>    4.3142    1.0000 </r>
       <r>    4.3142    1.0000 </r>
       <r>    4.6192    1.0000 </r>
       <r>    4.6192    1.0000 </r>
       <r>    4.8559    1.0000 </r>
       <r>    4.8559    1.0000 </r>
       <r>    5.4645    1.0000 </r>
       <r>    5.4645    1.0000 </r>
       <r>    5.7391    1.0000 </r>
       <r>    5.7391    1.0000 </r>
       <r>    6.1851    1.0000 </r>
       <r>    6.1851    1.0000 </r>
       <r>    6.5686    1.0000 </r>
       <r>    6.5686    1.0000 </r>
       <r>    6.9830    1.0000 </r>
       <r>    6.9830    1.0000 </r>
       <r>   11.4454    0.0000 </r>
       <r>   11.4454    0.0000 </r>
       <r>   12.0395    0.0000 </r>
       <r>   12.0396    0.0000 </r>
       <r>   12.2844    0.0000 </r>
       <r>   12.2844    0.0000 </r>
       <r>   12.5271    0.0000 </r>
       <r>   12.5271    0.0000 </r>
       <r>   12.7779    0.0000 </r>
       <r>   12.7780    0.0000 </r>
       <r>   13.3832    0.0000 </r>
       <r>   13.3835    0.0000 </r>
       <r>   13.6098    0.0000 </r>
       <r>   13.6129    0.0000 </r>
       <r>   13.9803    0.0000 </r>
       <r>   13.9975    0.0000 </r>
       <r>   14.4552    0.0000 </r>
       <r>   14.5055    0.0000 </r>
       <r>   14.6839    0.0000 </r>
       <r>   14.7769    0.0000 </r>
      </set>
      <set comment="kpoint 5">
       <r>   -8.7611    1.0000 </r>
       <r>   -8.7483    1.0000 </r>
       <r>   -8.0529    1.0000 </r>
       <r>   -8.0114    1.0000 </r>
       <r>   -7.5053    1.0000 </r>
       <r>   -7.4824    1.0000 </r>
       <r>   -5.8075    1.0000 </r>
       <r>   -5.8005    1.0000 </r>
       <r>   -5.0551    1.0000 </r>
       <r>   -4.9082    1.0000 </r>
       <r>   -4.5643    1.0000 </r>
       <r>   -4.5167    1.0000 </r>
       <r>   -3.9638    1.0000 </r>
       <r>   -3.5420    1.0000 </r>
       <r>   -3.0935    1.0000 </r>
       <r>   -2.9397    1.0000 </r>
       <r>   -0.3558    1.0000 </r>
       <r>    0.1712    1.0000 </r>
       <r>    0.6006    1.0000 </r>
       <r>    0.6515    1.0000 </r>
       <r>    0.8319    1.0000 </r>
       <r>    1.0541    1.0000 </r>
       <r>    1.2776    1.0000 </r>
       <r>    1.6853    1.0000 </r>
       <r>    1.7427    1.0000 </r>
       <r>    2.1580    1.0000 </r>
       <r>    2.1638    1.0000 </r>
       <r>    2.4598    1.0000 </r>
       <r>    2.7797    1.0000 </r>
       <r>    3.1142    1.0000 </r>
       <r>    3.5386    1.0000 </r>
       <r>    4.0265    1.0000 </r>
       <r>    4.0596    1.0000 </r>
       <r>    4.3572    1.0000 </r>
       <r>    4.3846    1.0000 </r>
       <r>    4.8815    1.0000 </r>
       <r>    4.9299    1.0000 </r>
       <r>    4.9750    1.0000 </r>
       <r>    5.0748    1.0000 </r>
       <r>    5.1620    1.0000 </r>
       <r>    5.3114    1.0000 </r>
       <r>    5.3518    1.0000 </r>
       <r>    5.3582    1.0000 </r>
       <r>    5.4861    1.0000 </r>
       <r>    5.6459    1.0000 </r>
       <r>    5.8776    1.0000 </r>
       <r>    5.9148    1.0000 </r>
       <r>    6.0531    1.0000 </r>
       <r>    6.1277    1.0000 </r>
       <r>    6.1468    1.0000 </r>
       <r>    6.2104    1.0000 </r>
       <r>    6.2544    1.0000 </r>
       <r>    6.3193    1.0000 </r>
       <r>    6.4498    1.0000 </r>
       <r>    6.4645    1.0000 </r>
       <r>    6.5327    1.0000 </r>
       <r>    6.6603    1.0000 </r>
       <r>    6.7486    1.0000 </r>
       <r>    6.8509    1.0000 </r>
       <r>    7.0711    1.0000 </r>
       <r>    7.2922    1.0000 </r>
       <r>    7.3426    1.0000 </r>
       <r>    7.4340    1.0000 </r>
       <r>    7.4957    1.0000 </r>
       <r>   11.1561    0.0000 </r>
       <r>   11.3000    0.0000 </r>
       <r>   11.3309    0.0000 </r>
       <r>   11.5814    0.0000 </r>
       <r>   11.7603    0.0000 </r>
       <r>   11.9654    0.0000 </r>
       <r>   12.0776    0.0000 </r>
       <r>   12.2637    0.0000 </r>
       <r>   12.9900    0.0000 </r>
       <r>   13.1310    0.0000 </r>
       <r>   13.3810    0.0000 </r>
       <r>   13.4930    0.0000 </r>
       <r>   13.5099    0.0000 </r>
       <r>   13.7460    0.0000 </r>
       <r>   14.0425    0.0000 </r>
       <r>   14.2410    0.0000 </r>
       <r>   14.2736    0.0000 </r>
       <r>   14.5770    0.0000 </r>
       <r>   14.8763    0.0000 </r>
       <r>   15.0021    0.0000 </r>
      </set>
      <set comment="kpoint 6">
       <r>   -8.5484    1.0000 </r>
       <r>   -8.5381    1.0000 </r>
       <r>   -7.8500    1.0000 </r>
       <r>   -7.8175    1.0000 </r>
       <r>   -7.3303    1.0000 </r>
       <r>   -7.3130    1.0000 </r>
       <r>   -5.5208    1.0000 </r>
       <r>   -5.5067    1.0000 </r>
       <r>   -4.7472    1.0000 </r>
       <r>   -4.5998    1.0000 </r>
       <r>   -4.2766    1.0000 </r>
       <r>   -4.2382    1.0000 </r>
       <r>   -3.6746    1.0000 </r>
       <r>   -3.3185    1.0000 </r>
       <r>   -2.8508    1.0000 </r>
       <r>   -2.7487    1.0000 </r>
       <r>   -0.1196    1.0000 </r>
       <r>    0.3355    1.0000 </r>
       <r>    0.7734    1.0000 </r>
       <r>    0.8121    1.0000 </r>
       <r>    1.0274    1.0000 </r>
       <r>    1.2013    1.0000 </r>
       <r>    1.4264    1.0000 </r>
       <r>    1.6882    1.0000 </r>
       <r>    1.8972    1.0000 </r>
       <r>    2.1239    1.0000 </r>
       <r>    2.1916    1.0000 </r>
       <r>    2.5015    1.0000 </r>
       <r>    2.7037    1.0000 </r>
       <r>    2.9742    1.0000 </r>
       <r>    3.2796    1.0000 </r>
       <r>    3.2892    1.0000 </r>
       <r>    3.4894    1.0000 </r>
       <r>    3.6761    1.0000 </r>
       <r>    3.8652    1.0000 </r>
       <r>    3.9182    1.0000 </r>
       <r>    4.0379    1.0000 </r>
       <r>    4.1316    1.0000 </r>
       <r>    4.2108    1.0000 </r>
       <r>    4.2938    1.0000 </r>
       <r>    4.5849    1.0000 </r>
       <r>    4.6877    1.0000 </r>
       <r>    4.8249    1.0000 </r>
       <r>    4.9852    1.0000 </r>
       <r>    5.0285    1.0000 </r>
       <r>    5.1384    1.0000 </r>
       <r>    5.3354    1.0000 </r>
       <r>    5.4569    1.0000 </r>
       <r>    5.5020    1.0000 </r>
       <r>    5.5711    1.0000 </r>
       <r>    5.5891    1.0000 </r>
       <r>    5.7800    1.0000 </r>
       <r>    5.8823    1.0000 </r>
       <r>    5.9180    1.0000 </r>
       <r>    6.2813    1.0000 </r>
       <r>    6.3457    1.0000 </r>
       <r>    6.4305    1.0000 </r>
       <r>    6.5858    1.0000 </r>
       <r>    6.7100    1.0000 </r>
       <r>    6.7485    1.0000 </r>
       <r>    6.9044    1.0000 </r>
       <r>    7.0710    1.0000 </r>
       <r>    7.3085    1.0000 </r>
       <r>    7.4379    1.0000 </r>
       <r>   11.8971    0.0000 </r>
       <r>   11.9152    0.0000 </r>
       <r>   12.1357    0.0000 </r>
       <r>   12.2798    0.0000 </r>
       <r>   12.4929    0.0000 </r>
       <r>   12.8747    0.0000 </r>
       <r>   12.9017    0.0000 </r>
       <r>   13.0309    0.0000 </r>
       <r>   13.1121    0.0000 </r>
       <r>   13.2447    0.0000 </r>
       <r>   13.4039    0.0000 </r>
       <r>   13.4606    0.0000 </r>
       <r>   13.6688    0.0000 </r>
       <r>   13.9359    0.0000 </r>
       <r>   14.0968    0.0000 </r>
       <r>   14.1601    0.0000 </r>
       <r>   14.3971    0.0000 </r>
       <r>   14.6220    0.0000 </r>
       <r>   14.7294    0.0000 </r>
       <r>   14.9415    0.0000 </r>
      </set>
      <set comment="kpoint 7">
       <r>   -8.0522    1.0000 </r>
       <r>   -8.0477    1.0000 </r>
       <r>   -7.3833    1.0000 </r>
       <r>   -7.3701    1.0000 </r>
       <r>   -6.9467    1.0000 </r>
       <r>   -6.9399    1.0000 </r>
       <r>   -4.7083    1.0000 </r>
       <r>   -4.6837    1.0000 </r>
       <r>   -3.8905    1.0000 </r>
       <r>   -3.7858    1.0000 </r>
       <r>   -3.5283    1.0000 </r>
       <r>   -3.4898    1.0000 </r>
       <r>   -2.9912    1.0000 </r>
       <r>   -2.8787    1.0000 </r>
       <r>   -2.4212    1.0000 </r>
       <r>   -2.3516    1.0000 </r>
       <r>    0.0463    1.0000 </r>
       <r>    0.1205    1.0000 </r>
       <r>    0.4997    1.0000 </r>
       <r>    0.5487    1.0000 </r>
       <r>    0.7548    1.0000 </r>
       <r>    0.7606    1.0000 </r>
       <r>    1.2417    1.0000 </r>
       <r>    1.3351    1.0000 </r>
       <r>    1.4967    1.0000 </r>
       <r>    1.5926    1.0000 </r>
       <r>    1.8755    1.0000 </r>
       <r>    1.9383    1.0000 </r>
       <r>    2.0878    1.0000 </r>
       <r>    2.2922    1.0000 </r>
       <r>    2.3732    1.0000 </r>
       <r>    2.5925    1.0000 </r>
       <r>    2.6894    1.0000 </r>
       <r>    2.7953    1.0000 </r>
       <r>    2.9152    1.0000 </r>
       <r>    2.9899    1.0000 </r>
       <r>    3.0980    1.0000 </r>
       <r>    3.3365    1.0000 </r>
       <r>    3.3939    1.0000 </r>
       <r>    3.5795    1.0000 </r>
       <r>    3.6365    1.0000 </r>
       <r>    3.8660    1.0000 </r>
       <r>    3.9006    1.0000 </r>
       <r>    4.1416    1.0000 </r>
       <r>    4.3642    1.0000 </r>
       <r>    4.5088    1.0000 </r>
       <r>    4.6316    1.0000 </r>
       <r>    4.6550    1.0000 </r>
       <r>    4.9640    1.0000 </r>
       <r>    5.0384    1.0000 </r>
       <r>    5.2437    1.0000 </r>
       <r>    5.4197    1.0000 </r>
       <r>    5.5700    1.0000 </r>
       <r>    5.6343    1.0000 </r>
       <r>    5.9036    1.0000 </r>
       <r>    6.0094    1.0000 </r>
       <r>    6.2407    1.0000 </r>
       <r>    6.4240    1.0000 </r>
       <r>    6.4497    1.0000 </r>
       <r>    6.5458    1.0000 </r>
       <r>    6.7685    1.0000 </r>
       <r>    6.7785    1.0000 </r>
       <r>    7.0807    1.0000 </r>
       <r>    7.1299    1.0000 </r>
       <r>   11.2502    0.0000 </r>
       <r>   11.5771    0.0000 </r>
       <r>   11.6539    0.0000 </r>
       <r>   11.7191    0.0000 </r>
       <r>   11.7413    0.0000 </r>
       <r>   11.9806    0.0000 </r>
       <r>   12.1557    0.0000 </r>
       <r>   12.1859    0.0000 </r>
       <r>   12.5094    0.0000 </r>
       <r>   12.6359    0.0000 </r>
       <r>   12.9156    0.0000 </r>
       <r>   13.0555    0.0000 </r>
       <r>   13.1867    0.0000 </r>
       <r>   13.2917    0.0000 </r>
       <r>   14.0425    0.0000 </r>
       <r>   14.1683    0.0000 </r>
       <r>   14.2998    0.0000 </r>
       <r>   14.3452    0.0000 </r>
       <r>   14.4732    0.0000 </r>
       <r>   14.5709    0.0000 </r>
      </set>
      <set comment="kpoint 8">
       <r>   -7.7521    1.0000 </r>
       <r>   -7.7521    1.0000 </r>
       <r>   -7.1027    1.0000 </r>
       <r>   -7.1027    1.0000 </r>
       <r>   -6.7385    1.0000 </r>
       <r>   -6.7385    1.0000 </r>
       <r>   -3.7777    1.0000 </r>
       <r>   -3.7777    1.0000 </r>
       <r>   -3.3941    1.0000 </r>
       <r>   -3.3941    1.0000 </r>
       <r>   -3.0294    1.0000 </r>
       <r>   -3.0294    1.0000 </r>
       <r>   -2.6458    1.0000 </r>
       <r>   -2.6458    1.0000 </r>
       <r>   -2.3316    1.0000 </r>
       <r>   -2.3316    1.0000 </r>
       <r>   -0.4925    1.0000 </r>
       <r>   -0.4925    1.0000 </r>
       <r>   -0.0180    1.0000 </r>
       <r>   -0.0180    1.0000 </r>
       <r>    0.3286    1.0000 </r>
       <r>    0.3286    1.0000 </r>
       <r>    0.6964    1.0000 </r>
       <r>    0.6964    1.0000 </r>
       <r>    1.1045    1.0000 </r>
       <r>    1.1045    1.0000 </r>
       <r>    1.3114    1.0000 </r>
       <r>    1.3114    1.0000 </r>
       <r>    1.7373    1.0000 </r>
       <r>    1.7373    1.0000 </r>
       <r>    2.1442    1.0000 </r>
       <r>    2.1442    1.0000 </r>
       <r>    2.3951    1.0000 </r>
       <r>    2.3951    1.0000 </r>
       <r>    2.9512    1.0000 </r>
       <r>    2.9512    1.0000 </r>
       <r>    3.4645    1.0000 </r>
       <r>    3.4645    1.0000 </r>
       <r>    3.6113    1.0000 </r>
       <r>    3.6113    1.0000 </r>
       <r>    3.8336    1.0000 </r>
       <r>    3.8336    1.0000 </r>
       <r>    4.1321    1.0000 </r>
       <r>    4.1321    1.0000 </r>
       <r>    4.2581    1.0000 </r>
       <r>    4.2581    1.0000 </r>
       <r>    4.5543    1.0000 </r>
       <r>    4.5543    1.0000 </r>
       <r>    4.8381    1.0000 </r>
       <r>    4.8381    1.0000 </r>
       <r>    5.1266    1.0000 </r>
       <r>    5.1266    1.0000 </r>
       <r>    5.3547    1.0000 </r>
       <r>    5.3547    1.0000 </r>
       <r>    5.6216    1.0000 </r>
       <r>    5.6216    1.0000 </r>
       <r>    6.0060    1.0000 </r>
       <r>    6.0060    1.0000 </r>
       <r>    6.3385    1.0000 </r>
       <r>    6.3385    1.0000 </r>
       <r>    6.5551    1.0000 </r>
       <r>    6.5551    1.0000 </r>
       <r>    6.9270    1.0000 </r>
       <r>    6.9270    1.0000 </r>
       <r>   11.1525    0.0000 </r>
       <r>   11.1525    0.0000 </r>
       <r>   11.3798    0.0000 </r>
       <r>   11.3798    0.0000 </r>
       <r>   11.6813    0.0000 </r>
       <r>   11.6813    0.0000 </r>
       <r>   12.1090    0.0000 </r>
       <r>   12.1090    0.0000 </r>
       <r>   12.2551    0.0000 </r>
       <r>   12.2551    0.0000 </r>
       <r>   12.3568    0.0000 </r>
       <r>   12.3568    0.0000 </r>
       <r>   12.8047    0.0000 </r>
       <r>   12.8049    0.0000 </r>
       <r>   13.3277    0.0000 </r>
       <r>   13.3305    0.0000 </r>
       <r>   13.8886    0.0000 </r>
       <r>   13.9855    0.0000 </r>
       <r>   14.2751    0.0000 </r>
       <r>   14.4740    0.0000 </r>
      </set>
      <set comment="kpoint 9">
       <r>   -8.6458    1.0000 </r>
       <r>   -8.6328    1.0000 </r>
       <r>   -7.9899    1.0000 </r>
       <r>   -7.9180    1.0000 </r>
       <r>   -7.5223    1.0000 </r>
       <r>   -7.4500    1.0000 </r>
       <r>   -5.9563    1.0000 </r>
       <r>   -5.7926    1.0000 </r>
       <r>   -5.3490    1.0000 </r>
       <r>   -4.8749    1.0000 </r>
       <r>   -4.8097    1.0000 </r>
       <r>   -4.7244    1.0000 </r>
       <r>   -4.4210    1.0000 </r>
       <r>   -3.7415    1.0000 </r>
       <r>   -3.3971    1.0000 </r>
       <r>   -3.1225    1.0000 </r>
       <r>    0.0786    1.0000 </r>
       <r>    0.3686    1.0000 </r>
       <r>    1.0937    1.0000 </r>
       <r>    1.2279    1.0000 </r>
       <r>    1.6604    1.0000 </r>
       <r>    1.8018    1.0000 </r>
       <r>    2.2246    1.0000 </r>
       <r>    2.2528    1.0000 </r>
       <r>    2.3834    1.0000 </r>
       <r>    2.7899    1.0000 </r>
       <r>    2.8885    1.0000 </r>
       <r>    2.9112    1.0000 </r>
       <r>    3.2006    1.0000 </r>
       <r>    3.2164    1.0000 </r>
       <r>    3.4618    1.0000 </r>
       <r>    3.5660    1.0000 </r>
       <r>    3.7333    1.0000 </r>
       <r>    3.8612    1.0000 </r>
       <r>    4.1085    1.0000 </r>
       <r>    4.3630    1.0000 </r>
       <r>    4.4942    1.0000 </r>
       <r>    4.5312    1.0000 </r>
       <r>    4.5371    1.0000 </r>
       <r>    4.6076    1.0000 </r>
       <r>    4.9947    1.0000 </r>
       <r>    5.0327    1.0000 </r>
       <r>    5.0527    1.0000 </r>
       <r>    5.1039    1.0000 </r>
       <r>    5.2864    1.0000 </r>
       <r>    5.3518    1.0000 </r>
       <r>    5.3604    1.0000 </r>
       <r>    5.5033    1.0000 </r>
       <r>    5.6688    1.0000 </r>
       <r>    5.8175    1.0000 </r>
       <r>    6.0685    1.0000 </r>
       <r>    6.1258    1.0000 </r>
       <r>    6.4021    1.0000 </r>
       <r>    6.4286    1.0000 </r>
       <r>    6.5002    1.0000 </r>
       <r>    6.5284    1.0000 </r>
       <r>    6.5369    1.0000 </r>
       <r>    6.5566    1.0000 </r>
       <r>    6.7319    1.0000 </r>
       <r>    6.9203    1.0000 </r>
       <r>    7.1717    1.0000 </r>
       <r>    7.2216    1.0000 </r>
       <r>    7.2784    1.0000 </r>
       <r>    7.4528    1.0000 </r>
       <r>   11.7460    0.0000 </r>
       <r>   11.9065    0.0000 </r>
       <r>   11.9529    0.0000 </r>
       <r>   11.9909    0.0000 </r>
       <r>   12.2674    0.0000 </r>
       <r>   12.2681    0.0000 </r>
       <r>   12.4139    0.0000 </r>
       <r>   12.5266    0.0000 </r>
       <r>   13.0905    0.0000 </r>
       <r>   13.1704    0.0000 </r>
       <r>   13.4163    0.0000 </r>
       <r>   13.4826    0.0000 </r>
       <r>   13.5762    0.0000 </r>
       <r>   13.6531    0.0000 </r>
       <r>   13.8659    0.0000 </r>
       <r>   13.9191    0.0000 </r>
       <r>   14.4075    0.0000 </r>
       <r>   14.7087    0.0000 </r>
       <r>   14.8567    0.0000 </r>
       <r>   15.0027    0.0000 </r>
      </set>
      <set comment="kpoint 10">
       <r>   -8.4489    1.0000 </r>
       <r>   -8.4378    1.0000 </r>
       <r>   -7.8004    1.0000 </r>
       <r>   -7.7407    1.0000 </r>
       <r>   -7.3404    1.0000 </r>
       <r>   -7.2811    1.0000 </r>
       <r>   -5.6215    1.0000 </r>
       <r>   -5.4715    1.0000 </r>
       <r>   -5.0186    1.0000 </r>
       <r>   -4.5797    1.0000 </r>
       <r>   -4.5175    1.0000 </r>
       <r>   -4.4440    1.0000 </r>
       <r>   -4.1096    1.0000 </r>
       <r>   -3.4899    1.0000 </r>
       <r>   -3.1132    1.0000 </r>
       <r>   -2.8692    1.0000 </r>
       <r>    0.2441    1.0000 </r>
       <r>    0.4967    1.0000 </r>
       <r>    1.2723    1.0000 </r>
       <r>    1.4326    1.0000 </r>
       <r>    1.6648    1.0000 </r>
       <r>    1.6740    1.0000 </r>
       <r>    2.0183    1.0000 </r>
       <r>    2.0685    1.0000 </r>
       <r>    2.3322    1.0000 </r>
       <r>    2.6625    1.0000 </r>
       <r>    2.6680    1.0000 </r>
       <r>    2.7565    1.0000 </r>
       <r>    2.9656    1.0000 </r>
       <r>    2.9734    1.0000 </r>
       <r>    3.1156    1.0000 </r>
       <r>    3.2435    1.0000 </r>
       <r>    3.3358    1.0000 </r>
       <r>    3.4401    1.0000 </r>
       <r>    3.5325    1.0000 </r>
       <r>    3.6438    1.0000 </r>
       <r>    3.7588    1.0000 </r>
       <r>    3.9979    1.0000 </r>
       <r>    4.2007    1.0000 </r>
       <r>    4.2751    1.0000 </r>
       <r>    4.3907    1.0000 </r>
       <r>    4.6225    1.0000 </r>
       <r>    4.6684    1.0000 </r>
       <r>    4.8227    1.0000 </r>
       <r>    4.9167    1.0000 </r>
       <r>    4.9405    1.0000 </r>
       <r>    5.1309    1.0000 </r>
       <r>    5.3255    1.0000 </r>
       <r>    5.3463    1.0000 </r>
       <r>    5.3826    1.0000 </r>
       <r>    5.5511    1.0000 </r>
       <r>    5.5779    1.0000 </r>
       <r>    5.6926    1.0000 </r>
       <r>    5.8014    1.0000 </r>
       <r>    5.8543    1.0000 </r>
       <r>    6.1503    1.0000 </r>
       <r>    6.1700    1.0000 </r>
       <r>    6.2706    1.0000 </r>
       <r>    6.3817    1.0000 </r>
       <r>    6.6039    1.0000 </r>
       <r>    6.7083    1.0000 </r>
       <r>    6.7337    1.0000 </r>
       <r>    7.2414    1.0000 </r>
       <r>    7.3228    1.0000 </r>
       <r>   12.5595    0.0000 </r>
       <r>   12.6849    0.0000 </r>
       <r>   12.7521    0.0000 </r>
       <r>   12.8981    0.0000 </r>
       <r>   13.0078    0.0000 </r>
       <r>   13.0128    0.0000 </r>
       <r>   13.1687    0.0000 </r>
       <r>   13.1744    0.0000 </r>
       <r>   13.4008    0.0000 </r>
       <r>   13.4276    0.0000 </r>
       <r>   13.5303    0.0000 </r>
       <r>   13.5885    0.0000 </r>
       <r>   13.5990    0.0000 </r>
       <r>   13.6884    0.0000 </r>
       <r>   13.8606    0.0000 </r>
       <r>   13.9469    0.0000 </r>
       <r>   14.3635    0.0000 </r>
       <r>   14.6760    0.0000 </r>
       <r>   14.8981    0.0000 </r>
       <r>   15.0897    0.0000 </r>
      </set>
      <set comment="kpoint 11">
       <r>   -7.9950    1.0000 </r>
       <r>   -7.9892    1.0000 </r>
       <r>   -7.3650    1.0000 </r>
       <r>   -7.3358    1.0000 </r>
       <r>   -6.9398    1.0000 </r>
       <r>   -6.9123    1.0000 </r>
       <r>   -4.6674    1.0000 </r>
       <r>   -4.5643    1.0000 </r>
       <r>   -4.0806    1.0000 </r>
       <r>   -3.8010    1.0000 </r>
       <r>   -3.7412    1.0000 </r>
       <r>   -3.6708    1.0000 </r>
       <r>   -3.2795    1.0000 </r>
       <r>   -2.9038    1.0000 </r>
       <r>   -2.4483    1.0000 </r>
       <r>   -2.3473    1.0000 </r>
       <r>    0.0095    1.0000 </r>
       <r>    0.0275    1.0000 </r>
       <r>    0.4762    1.0000 </r>
       <r>    0.4991    1.0000 </r>
       <r>    0.7933    1.0000 </r>
       <r>    0.8701    1.0000 </r>
       <r>    1.0841    1.0000 </r>
       <r>    1.1168    1.0000 </r>
       <r>    1.5548    1.0000 </r>
       <r>    1.5759    1.0000 </r>
       <r>    1.6627    1.0000 </r>
       <r>    1.8045    1.0000 </r>
       <r>    2.0687    1.0000 </r>
       <r>    2.1293    1.0000 </r>
       <r>    2.3315    1.0000 </r>
       <r>    2.3785    1.0000 </r>
       <r>    2.5056    1.0000 </r>
       <r>    2.5877    1.0000 </r>
       <r>    2.9591    1.0000 </r>
       <r>    2.9698    1.0000 </r>
       <r>    3.4685    1.0000 </r>
       <r>    3.7225    1.0000 </r>
       <r>    3.9260    1.0000 </r>
       <r>    3.9603    1.0000 </r>
       <r>    4.1664    1.0000 </r>
       <r>    4.2687    1.0000 </r>
       <r>    4.3556    1.0000 </r>
       <r>    4.3799    1.0000 </r>
       <r>    4.5269    1.0000 </r>
       <r>    4.7072    1.0000 </r>
       <r>    4.8529    1.0000 </r>
       <r>    4.8849    1.0000 </r>
       <r>    5.1150    1.0000 </r>
       <r>    5.3472    1.0000 </r>
       <r>    5.5385    1.0000 </r>
       <r>    5.6065    1.0000 </r>
       <r>    5.6521    1.0000 </r>
       <r>    5.8427    1.0000 </r>
       <r>    5.9337    1.0000 </r>
       <r>    6.0285    1.0000 </r>
       <r>    6.0991    1.0000 </r>
       <r>    6.1126    1.0000 </r>
       <r>    6.4135    1.0000 </r>
       <r>    6.5198    1.0000 </r>
       <r>    6.6997    1.0000 </r>
       <r>    6.7701    1.0000 </r>
       <r>    6.8114    1.0000 </r>
       <r>    7.1200    1.0000 </r>
       <r>   11.2869    0.0000 </r>
       <r>   11.3173    0.0000 </r>
       <r>   11.4794    0.0000 </r>
       <r>   11.6860    0.0000 </r>
       <r>   11.6965    0.0000 </r>
       <r>   11.7190    0.0000 </r>
       <r>   11.9823    0.0000 </r>
       <r>   12.0282    0.0000 </r>
       <r>   12.0836    0.0000 </r>
       <r>   12.0953    0.0000 </r>
       <r>   12.4462    0.0000 </r>
       <r>   12.5326    0.0000 </r>
       <r>   12.7671    0.0000 </r>
       <r>   12.8149    0.0000 </r>
       <r>   13.0369    0.0000 </r>
       <r>   13.1397    0.0000 </r>
       <r>   13.7631    0.0000 </r>
       <r>   13.9792    0.0000 </r>
       <r>   14.2374    0.0000 </r>
       <r>   14.6525    0.0000 </r>
      </set>
      <set comment="kpoint 12">
       <r>   -7.7247    1.0000 </r>
       <r>   -7.7247    1.0000 </r>
       <r>   -7.1014    1.0000 </r>
       <r>   -7.1014    1.0000 </r>
       <r>   -6.7166    1.0000 </r>
       <r>   -6.7166    1.0000 </r>
       <r>   -3.5719    1.0000 </r>
       <r>   -3.5719    1.0000 </r>
       <r>   -3.3526    1.0000 </r>
       <r>   -3.3526    1.0000 </r>
       <r>   -2.9675    1.0000 </r>
       <r>   -2.9675    1.0000 </r>
       <r>   -2.7395    1.0000 </r>
       <r>   -2.7395    1.0000 </r>
       <r>   -2.4094    1.0000 </r>
       <r>   -2.4094    1.0000 </r>
       <r>   -0.7604    1.0000 </r>
       <r>   -0.7604    1.0000 </r>
       <r>   -0.3045    1.0000 </r>
       <r>   -0.3045    1.0000 </r>
       <r>    0.1380    1.0000 </r>
       <r>    0.1380    1.0000 </r>
       <r>    0.3276    1.0000 </r>
       <r>    0.3276    1.0000 </r>
       <r>    0.7902    1.0000 </r>
       <r>    0.7902    1.0000 </r>
       <r>    1.0270    1.0000 </r>
       <r>    1.0270    1.0000 </r>
       <r>    1.4766    1.0000 </r>
       <r>    1.4766    1.0000 </r>
       <r>    1.8240    1.0000 </r>
       <r>    1.8240    1.0000 </r>
       <r>    2.4069    1.0000 </r>
       <r>    2.4069    1.0000 </r>
       <r>    3.2951    1.0000 </r>
       <r>    3.2951    1.0000 </r>
       <r>    3.6321    1.0000 </r>
       <r>    3.6321    1.0000 </r>
       <r>    4.2384    1.0000 </r>
       <r>    4.2384    1.0000 </r>
       <r>    4.4107    1.0000 </r>
       <r>    4.4107    1.0000 </r>
       <r>    4.4496    1.0000 </r>
       <r>    4.4496    1.0000 </r>
       <r>    4.6844    1.0000 </r>
       <r>    4.6844    1.0000 </r>
       <r>    4.9656    1.0000 </r>
       <r>    4.9656    1.0000 </r>
       <r>    5.1119    1.0000 </r>
       <r>    5.1119    1.0000 </r>
       <r>    5.4917    1.0000 </r>
       <r>    5.4917    1.0000 </r>
       <r>    5.8193    1.0000 </r>
       <r>    5.8193    1.0000 </r>
       <r>    5.9683    1.0000 </r>
       <r>    5.9683    1.0000 </r>
       <r>    6.0435    1.0000 </r>
       <r>    6.0435    1.0000 </r>
       <r>    6.6665    1.0000 </r>
       <r>    6.6665    1.0000 </r>
       <r>    6.7953    1.0000 </r>
       <r>    6.7953    1.0000 </r>
       <r>    7.0426    1.0000 </r>
       <r>    7.0426    1.0000 </r>
       <r>   10.4813    0.0000 </r>
       <r>   10.4813    0.0000 </r>
       <r>   10.5769    0.0000 </r>
       <r>   10.5769    0.0000 </r>
       <r>   11.0946    0.0000 </r>
       <r>   11.0946    0.0000 </r>
       <r>   11.1833    0.0000 </r>
       <r>   11.1833    0.0000 </r>
       <r>   11.4748    0.0000 </r>
       <r>   11.4748    0.0000 </r>
       <r>   11.8279    0.0000 </r>
       <r>   11.8279    0.0000 </r>
       <r>   12.3221    0.0000 </r>
       <r>   12.3222    0.0000 </r>
       <r>   12.4902    0.0000 </r>
       <r>   12.4903    0.0000 </r>
       <r>   13.4610    0.0000 </r>
       <r>   13.4668    0.0000 </r>
       <r>   14.1762    0.0000 </r>
       <r>   14.2281    0.0000 </r>
      </set>
     </set>
    </set>
   </array>
  </eigenvalues>
  <separator name="orbital magnetization" >
   <v name="MAGDIPOLOUT">      0.00000000      0.00000000      0.00000000</v>
  </separator>
  <dos>
   <i name="efermi">      8.11925216 </i>
   <total>
    <array>
     <dimension dim="1">gridpoints</dimension>
     <dimension dim="2">spin</dimension>
     <field>energy</field>
     <field>total</field>
     <field>integrated</field>
     <set>
      <set comment="spin 1">
       <r>   -10.0664     0.0000     0.0000 </r>
       <r>    -9.9786     0.0000     0.0000 </r>
       <r>    -9.8907     0.0000     0.0000 </r>
       <r>    -9.8029     0.0000     0.0000 </r>
       <r>    -9.7150     0.0000     0.0000 </r>
       <r>    -9.6272     0.0000     0.0000 </r>
       <r>    -9.5393     0.0000     0.0000 </r>
       <r>    -9.4515     0.0000     0.0000 </r>
       <r>    -9.3636     0.0000     0.0000 </r>
       <r>    -9.2758     0.0000     0.0000 </r>
       <r>    -9.1880     0.0000     0.0000 </r>
       <r>    -9.1001     0.0006     0.0001 </r>
       <r>    -9.0123     0.0252     0.0023 </r>
       <r>    -8.9244     0.3022     0.0288 </r>
       <r>    -8.8366     1.2503     0.1386 </r>
       <r>    -8.7487     2.5021     0.3585 </r>
       <r>    -8.6609     3.5816     0.6731 </r>
       <r>    -8.5730     5.2123     1.1310 </r>
       <r>    -8.4852     5.4661     1.6112 </r>
       <r>    -8.3973     3.2941     1.9005 </r>
       <r>    -8.3095     1.0577     1.9934 </r>
       <r>    -8.2216     0.6024     2.0464 </r>
       <r>    -8.1338     2.8324     2.2952 </r>
       <r>    -8.0459     7.8025     2.9806 </r>
       <r>    -7.9581     9.2308     3.7915 </r>
       <r>    -7.8702     7.1441     4.4191 </r>
       <r>    -7.7824     8.4880     5.1647 </r>
       <r>    -7.6946     7.0657     5.7854 </r>
       <r>    -7.6067     2.9637     6.0458 </r>
       <r>    -7.5189     3.0298     6.3119 </r>
       <r>    -7.4310     7.3564     6.9582 </r>
       <r>    -7.3432    12.6921     8.0731 </r>
       <r>    -7.2553    10.6960     9.0128 </r>
       <r>    -7.1675     4.6609     9.4222 </r>
       <r>    -7.0796     4.2404     9.7947 </r>
       <r>    -6.9918     5.7505    10.2999 </r>
       <r>    -6.9039     7.3301    10.9438 </r>
       <r>    -6.8161     4.8856    11.3730 </r>
       <r>    -6.7282     3.7418    11.7017 </r>
       <r>    -6.6404     2.7290    11.9414 </r>
       <r>    -6.5525     0.6282    11.9966 </r>
       <r>    -6.4647     0.0381    11.9999 </r>
       <r>    -6.3769     0.0006    12.0000 </r>
       <r>    -6.2890     0.0000    12.0000 </r>
       <r>    -6.2012     0.0003    12.0000 </r>
       <r>    -6.1133     0.0123    12.0011 </r>
       <r>    -6.0255     0.1484    12.0141 </r>
       <r>    -5.9376     0.5950    12.0664 </r>
       <r>    -5.8498     1.7737    12.2222 </r>
       <r>    -5.7619     3.1774    12.5013 </r>
       <r>    -5.6741     2.2455    12.6986 </r>
       <r>    -5.5862     3.0136    12.9633 </r>
       <r>    -5.4984     6.1102    13.5001 </r>
       <r>    -5.4105     4.7670    13.9189 </r>
       <r>    -5.3227     1.4681    14.0478 </r>
       <r>    -5.2348     0.3651    14.0799 </r>
       <r>    -5.1470     0.2876    14.1052 </r>
       <r>    -5.0591     1.2304    14.2132 </r>
       <r>    -4.9713     2.0719    14.3953 </r>
       <r>    -4.8835     2.3060    14.5978 </r>
       <r>    -4.7956     4.2967    14.9753 </r>
       <r>    -4.7078     8.4011    15.7133 </r>
       <r>    -4.6199     9.6344    16.5596 </r>
       <r>    -4.5321     8.1376    17.2745 </r>
       <r>    -4.4442     5.6905    17.7744 </r>
       <r>    -4.3564     4.3626    18.1576 </r>
       <r>    -4.2685     5.1418    18.6093 </r>
       <r>    -4.1807     4.6639    19.0190 </r>
       <r>    -4.0928     3.5315    19.3293 </r>
       <r>    -4.0050     4.0489    19.6850 </r>
       <r>    -3.9171     4.5829    20.0875 </r>
       <r>    -3.8293     5.7374    20.5916 </r>
       <r>    -3.7414     7.6594    21.2644 </r>
       <r>    -3.6536     7.9168    21.9599 </r>
       <r>    -3.5658     7.3436    22.6050 </r>
       <r>    -3.4779     8.6886    23.3683 </r>
       <r>    -3.3901     9.5886    24.2106 </r>
       <r>    -3.3022     8.0610    24.9187 </r>
       <r>    -3.2144     5.2629    25.3811 </r>
       <r>    -3.1265     4.6515    25.7897 </r>
       <r>    -3.0387     6.2299    26.3370 </r>
       <r>    -2.9508     7.6242    27.0067 </r>
       <r>    -2.8630     8.4956    27.7530 </r>
       <r>    -2.7751     8.3812    28.4893 </r>
       <r>    -2.6873     8.2470    29.2138 </r>
       <r>    -2.5994     6.2538    29.7631 </r>
       <r>    -2.5116     4.0213    30.1164 </r>
       <r>    -2.4237     5.5286    30.6021 </r>
       <r>    -2.3359     7.9194    31.2978 </r>
       <r>    -2.2481     5.6318    31.7925 </r>
       <r>    -2.1602     1.9377    31.9627 </r>
       <r>    -2.0724     0.3912    31.9971 </r>
       <r>    -1.9845     0.0323    31.9999 </r>
       <r>    -1.8967     0.0007    32.0000 </r>
       <r>    -1.8088     0.0000    32.0000 </r>
       <r>    -1.7210     0.0000    32.0000 </r>
       <r>    -1.6331     0.0000    32.0000 </r>
       <r>    -1.5453     0.0000    32.0000 </r>
       <r>    -1.4574     0.0000    32.0000 </r>
       <r>    -1.3696     0.0000    32.0000 </r>
       <r>    -1.2817     0.0000    32.0000 </r>
       <r>    -1.1939     0.0000    32.0000 </r>
       <r>    -1.1060     0.0000    32.0000 </r>
       <r>    -1.0182     0.0003    32.0000 </r>
       <r>    -0.9303     0.0152    32.0014 </r>
       <r>    -0.8425     0.2176    32.0205 </r>
       <r>    -0.7547     0.7782    32.0888 </r>
       <r>    -0.6668     0.7613    32.1557 </r>
       <r>    -0.5790     0.7694    32.2233 </r>
       <r>    -0.4911     2.0171    32.4005 </r>
       <r>    -0.4033     2.3158    32.6039 </r>
       <r>    -0.3154     2.3419    32.8096 </r>
       <r>    -0.2276     2.9055    33.0649 </r>
       <r>    -0.1397     3.8397    33.4022 </r>
       <r>    -0.0519     5.3069    33.8684 </r>
       <r>     0.0360     7.6654    34.5418 </r>
       <r>     0.1238     9.1033    35.3415 </r>
       <r>     0.2117     8.0422    36.0479 </r>
       <r>     0.2995     8.9198    36.8315 </r>
       <r>     0.3874    10.0904    37.7179 </r>
       <r>     0.4752     8.6310    38.4761 </r>
       <r>     0.5630     8.4104    39.2150 </r>
       <r>     0.6509     7.8463    39.9042 </r>
       <r>     0.7387    10.4388    40.8213 </r>
       <r>     0.8266    12.2746    41.8995 </r>
       <r>     0.9144     7.9619    42.5990 </r>
       <r>     1.0023     6.1947    43.1432 </r>
       <r>     1.0901     8.8297    43.9188 </r>
       <r>     1.1780     9.4126    44.7457 </r>
       <r>     1.2658    11.2333    45.7325 </r>
       <r>     1.3537    12.1430    46.7992 </r>
       <r>     1.4415    10.5949    47.7300 </r>
       <r>     1.5294    10.6446    48.6651 </r>
       <r>     1.6172    10.3139    49.5711 </r>
       <r>     1.7051    11.2237    50.5571 </r>
       <r>     1.7929    11.1778    51.5390 </r>
       <r>     1.8808    10.2936    52.4433 </r>
       <r>     1.9686     8.8488    53.2206 </r>
       <r>     2.0564     9.2807    54.0359 </r>
       <r>     2.1443    13.2634    55.2010 </r>
       <r>     2.2321    12.4878    56.2980 </r>
       <r>     2.3200     9.5732    57.1390 </r>
       <r>     2.4078    11.5133    58.1504 </r>
       <r>     2.4957    11.8298    59.1896 </r>
       <r>     2.5835    10.7276    60.1320 </r>
       <r>     2.6714    10.7029    61.0722 </r>
       <r>     2.7592    10.6164    62.0049 </r>
       <r>     2.8471     9.1164    62.8057 </r>
       <r>     2.9349    11.7411    63.8371 </r>
       <r>     3.0228    13.4953    65.0226 </r>
       <r>     3.1106    10.2216    65.9206 </r>
       <r>     3.1985     9.7198    66.7744 </r>
       <r>     3.2863    11.5385    67.7881 </r>
       <r>     3.3741    13.2757    68.9543 </r>
       <r>     3.4620    14.0820    70.1913 </r>
       <r>     3.5498    14.0583    71.4263 </r>
       <r>     3.6377    13.8703    72.6448 </r>
       <r>     3.7255    12.5011    73.7430 </r>
       <r>     3.8134     9.8320    74.6067 </r>
       <r>     3.9012    11.7224    75.6364 </r>
       <r>     3.9891    12.4604    76.7311 </r>
       <r>     4.0769    12.2879    77.8105 </r>
       <r>     4.1648    15.2193    79.1475 </r>
       <r>     4.2526    17.9776    80.7268 </r>
       <r>     4.3405    18.0712    82.3143 </r>
       <r>     4.4283    15.0422    83.6357 </r>
       <r>     4.5162    11.8550    84.6771 </r>
       <r>     4.6040    13.8188    85.8910 </r>
       <r>     4.6919    14.4713    87.1623 </r>
       <r>     4.7797    11.6203    88.1831 </r>
       <r>     4.8675    13.1523    89.3385 </r>
       <r>     4.9554    16.5221    90.7899 </r>
       <r>     5.0432    17.2797    92.3079 </r>
       <r>     5.1311    16.3368    93.7430 </r>
       <r>     5.2189    13.9123    94.9652 </r>
       <r>     5.3068    14.5443    96.2428 </r>
       <r>     5.3946    18.1289    97.8354 </r>
       <r>     5.4825    17.5483    99.3770 </r>
       <r>     5.5703    18.8784   101.0354 </r>
       <r>     5.6582    18.2970   102.6427 </r>
       <r>     5.7460    12.8452   103.7711 </r>
       <r>     5.8339    12.1249   104.8363 </r>
       <r>     5.9217    15.7176   106.2170 </r>
       <r>     6.0096    16.3058   107.6494 </r>
       <r>     6.0974    15.4789   109.0092 </r>
       <r>     6.1852    13.6063   110.2045 </r>
       <r>     6.2731    13.3656   111.3786 </r>
       <r>     6.3609    15.7669   112.7636 </r>
       <r>     6.4488    19.2136   114.4515 </r>
       <r>     6.5366    19.1591   116.1346 </r>
       <r>     6.6245    16.3833   117.5738 </r>
       <r>     6.7123    15.3270   118.9202 </r>
       <r>     6.8002    16.8938   120.4043 </r>
       <r>     6.8880    14.1426   121.6467 </r>
       <r>     6.9759    11.3207   122.6412 </r>
       <r>     7.0637    11.0806   123.6146 </r>
       <r>     7.1516    11.2695   124.6045 </r>
       <r>     7.2394     8.6786   125.3669 </r>
       <r>     7.3273     8.6641   126.1280 </r>
       <r>     7.4151     8.5650   126.8805 </r>
       <r>     7.5030     6.9239   127.4887 </r>
       <r>     7.5908     3.9739   127.8378 </r>
       <r>     7.6786     1.4513   127.9653 </r>
       <r>     7.7665     0.3535   127.9963 </r>
       <r>     7.8543     0.0402   127.9999 </r>
       <r>     7.9422     0.0014   128.0000 </r>
       <r>     8.0300     0.0000   128.0000 </r>
       <r>     8.1179     0.0000   128.0000 </r>
       <r>     8.2057     0.0000   128.0000 </r>
       <r>     8.2936     0.0000   128.0000 </r>
       <r>     8.3814     0.0000   128.0000 </r>
       <r>     8.4693     0.0000   128.0000 </r>
       <r>     8.5571     0.0000   128.0000 </r>
       <r>     8.6450     0.0000   128.0000 </r>
       <r>     8.7328     0.0000   128.0000 </r>
       <r>     8.8207     0.0000   128.0000 </r>
       <r>     8.9085     0.0000   128.0000 </r>
       <r>     8.9963     0.0000   128.0000 </r>
       <r>     9.0842     0.0000   128.0000 </r>
       <r>     9.1720     0.0000   128.0000 </r>
       <r>     9.2599     0.0000   128.0000 </r>
       <r>     9.3477     0.0000   128.0000 </r>
       <r>     9.4356     0.0000   128.0000 </r>
       <r>     9.5234     0.0000   128.0000 </r>
       <r>     9.6113     0.0000   128.0000 </r>
       <r>     9.6991     0.0000   128.0000 </r>
       <r>     9.7870     0.0000   128.0000 </r>
       <r>     9.8748     0.0000   128.0000 </r>
       <r>     9.9627     0.0000   128.0000 </r>
       <r>    10.0505     0.0000   128.0000 </r>
       <r>    10.1384     0.0000   128.0000 </r>
       <r>    10.2262     0.0003   128.0000 </r>
       <r>    10.3141     0.0170   128.0015 </r>
       <r>    10.4019     0.2436   128.0229 </r>
       <r>    10.4897     0.9903   128.1099 </r>
       <r>    10.5776     1.5612   128.2471 </r>
       <r>    10.6654     1.5193   128.3805 </r>
       <r>    10.7533     1.0374   128.4717 </r>
       <r>    10.8411     0.3808   128.5051 </r>
       <r>    10.9290     0.4829   128.5475 </r>
       <r>    11.0168     1.2234   128.6550 </r>
       <r>    11.1047     3.1908   128.9353 </r>
       <r>    11.1925     6.2053   129.4804 </r>
       <r>    11.2804     7.7198   130.1586 </r>
       <r>    11.3682     7.8532   130.8485 </r>
       <r>    11.4561     7.0204   131.4652 </r>
       <r>    11.5439     6.8116   132.0636 </r>
       <r>    11.6318     9.0142   132.8554 </r>
       <r>    11.7196    13.0504   134.0019 </r>
       <r>    11.8074    11.2488   134.9900 </r>
       <r>    11.8953     8.5945   135.7450 </r>
       <r>    11.9831    10.7009   136.6851 </r>
       <r>    12.0710    11.6664   137.7099 </r>
       <r>    12.1588    11.6251   138.7311 </r>
       <r>    12.2467    11.0545   139.7022 </r>
       <r>    12.3345    10.5512   140.6291 </r>
       <r>    12.4224     8.6013   141.3847 </r>
       <r>    12.5102     9.5827   142.2265 </r>
       <r>    12.5981     9.3097   143.0444 </r>
       <r>    12.6859     6.4179   143.6082 </r>
       <r>    12.7738     8.1611   144.3251 </r>
       <r>    12.8616    11.7342   145.3559 </r>
       <r>    12.9495    12.3676   146.4424 </r>
       <r>    13.0373    12.8146   147.5681 </r>
       <r>    13.1252    13.3087   148.7372 </r>
       <r>    13.2130    12.6263   149.8464 </r>
       <r>    13.3008    12.5316   150.9473 </r>
       <r>    13.3887    13.2884   152.1146 </r>
       <r>    13.4765    14.9973   153.4321 </r>
       <r>    13.5644    12.8344   154.5595 </r>
       <r>    13.6522     9.3721   155.3828 </r>
       <r>    13.7401     7.4273   156.0353 </r>
       <r>    13.8279     6.5756   156.6130 </r>
       <r>    13.9158     9.5210   157.4494 </r>
       <r>    14.0036    12.3615   158.5353 </r>
       <r>    14.0915    11.8804   159.5789 </r>
       <r>    14.1793    11.5397   160.5927 </r>
       <r>    14.2672    10.9545   161.5550 </r>
       <r>    14.3550    10.6010   162.4862 </r>
       <r>    14.4429    10.3120   163.3921 </r>
       <r>    14.5307     9.3610   164.2145 </r>
       <r>    14.6185     8.9639   165.0019 </r>
       <r>    14.7064     8.7171   165.7677 </r>
       <r>    14.7942     7.5694   166.4326 </r>
       <r>    14.8821     6.6533   167.0171 </r>
       <r>    14.9699     5.5233   167.5023 </r>
       <r>    15.0578     3.5439   167.8136 </r>
       <r>    15.1456     1.6459   167.9582 </r>
       <r>    15.2335     0.4343   167.9964 </r>
       <r>    15.3213     0.0405   167.9999 </r>
       <r>    15.4092     0.0010   168.0000 </r>
       <r>    15.4970     0.0000   168.0000 </r>
       <r>    15.5849     0.0000   168.0000 </r>
       <r>    15.6727     0.0000   168.0000 </r>
       <r>    15.7606     0.0000   168.0000 </r>
       <r>    15.8484     0.0000   168.0000 </r>
       <r>    15.9363     0.0000   168.0000 </r>
       <r>    16.0241     0.0000   168.0000 </r>
       <r>    16.1119     0.0000   168.0000 </r>
       <r>    16.1998     0.0000   168.0000 </r>
       <r>    16.2876     0.0000   168.0000 </r>
      </set>
     </set>
    </array>
   </total>
  </dos>
 </calculation>
 <structure name="finalpos" >
  <crystal>
   <varray name="basis" >
    <v>      20.90150769       0.00000000       0.09245871 </v>
    <v>       0.00000000       3.10545342       0.00000000 </v>
    <v>      -1.40280315       0.00000000       5.20352303 </v>
   </varray>
   <i name="volume">    338.15648095 </i>
   <varray name="rec_basis" >
    <v>       0.04778645       0.00000000       0.01288262 </v>
    <v>       0.00000000       0.32201417       0.00000000 </v>
    <v>      -0.00084909       0.00000000       0.19194859 </v>
   </varray>
  </crystal>
  <varray name="positions" >
   <v>       0.00234694       0.50000000       0.83522404 </v>
   <v>       0.74998775       0.50000000       0.58965245 </v>
   <v>       0.87387063       0.50000000       0.03701174 </v>
   <v>       0.62556183       0.50000000       0.79679246 </v>
   <v>       0.87454314       0.00000000       0.54506955 </v>
   <v>       0.50234694       0.00000000       0.83522404 </v>
   <v>       0.24998775       0.00000000       0.58965245 </v>
   <v>       0.37387063       0.00000000       0.03701174 </v>
   <v>       0.12556183       0.00000000       0.79679246 </v>
   <v>       0.37454314       0.50000000       0.54506955 </v>
   <v>       0.99853133       0.00000000       0.32740812 </v>
   <v>       0.75219699       0.00000000       0.08396904 </v>
   <v>       0.62660565       0.00000000       0.29007031 </v>
   <v>       0.49853133       0.50000000       0.32740812 </v>
   <v>       0.25219699       0.50000000       0.08396904 </v>
   <v>       0.12660565       0.50000000       0.29007031 </v>
   <v>       0.89871740       0.00000000       0.23053186 </v>
   <v>       0.65588291       0.00000000       0.97229211 </v>
   <v>       0.90696437       0.50000000       0.74191835 </v>
   <v>       0.53249254       0.50000000       0.70669889 </v>
   <v>       0.78002519       0.00000000       0.46727419 </v>
   <v>       0.39871740       0.50000000       0.23053186 </v>
   <v>       0.15588291       0.50000000       0.97229211 </v>
   <v>       0.40696437       0.00000000       0.74191835 </v>
   <v>       0.03249254       0.00000000       0.70669889 </v>
   <v>       0.28002519       0.50000000       0.46727419 </v>
   <v>       0.65855926       0.50000000       0.50621564 </v>
   <v>       0.78290742       0.50000000       0.93425378 </v>
   <v>       0.53080666       0.00000000       0.18561748 </v>
   <v>       0.15855926       0.00000000       0.50621564 </v>
   <v>       0.28290742       0.00000000       0.93425378 </v>
   <v>       0.03080666       0.50000000       0.18561748 </v>
  </varray>
 </structure>
</modeling>
