<?xml version="1.0" encoding="ISO-8859-1"?>
<modeling>
 <generator>
  <i name="program" type="string">vasp </i>
  <i name="version" type="string">5.3.5  </i>
  <i name="subversion" type="string">31Mar14 (build Jun 20 2014 13:15:13) complex                          parallel </i>
  <i name="platform" type="string">LinuxIFC </i>
  <i name="date" type="string">2025 11 27 </i>
  <i name="time" type="string">22:36:53 </i>
 </generator>
 <incar>
  <i type="string" name="PREC">accurate</i>
  <i type="int" name="IALGO">    68</i>
  <i type="logical" name="ADDGRID"> T  </i>
  <i type="int" name="NELM">   200</i>
  <i type="int" name="NELMIN">     4</i>
  <i type="int" name="IBRION">     2</i>
  <i name="EDIFF">      0.00000100</i>
  <i name="EDIFFG">     -0.02000000</i>
  <i type="int" name="NSW">    30</i>
  <i type="int" name="ISIF">     3</i>
  <i name="ENCUT">    500.00000000</i>
  <i type="logical" name="LREAL"> F  </i>
  <i type="int" name="ISMEAR">     1</i>
  <i name="SIGMA">      0.30000000</i>
  <i type="logical" name="LWAVE"> F  </i>
  <i type="logical" name="LCHARG"> F  </i>
  <i type="int" name="NELM">   200</i>
 </incar>
 <kpoints>
  <generation param="Auto">
   <i name="subdivisionlength">     70.00000000 </i>
   <v type="int" name="divisions">      25       15       10 </v>
   <v name="usershift">      0.00000000       0.00000000       0.00000000 </v>
   <v name="genvec1">      0.04000000       0.00000000       0.00000000 </v>
   <v name="genvec2">      0.00000000       0.06666667       0.00000000 </v>
   <v name="genvec3">      0.00000000       0.00000000       0.10000000 </v>
   <v name="shift">      0.00000000       0.00000000       0.00000000 </v>
  </generation>
  <varray name="kpointlist" >
   <v>       0.00000000       0.00000000       0.00000000 </v>
   <v>       0.04000000       0.00000000       0.00000000 </v>
   <v>       0.08000000       0.00000000       0.00000000 </v>
   <v>       0.12000000       0.00000000       0.00000000 </v>
   <v>       0.16000000       0.00000000       0.00000000 </v>
   <v>       0.20000000       0.00000000       0.00000000 </v>
   <v>       0.24000000       0.00000000       0.00000000 </v>
   <v>       0.28000000       0.00000000       0.00000000 </v>
   <v>       0.32000000       0.00000000       0.00000000 </v>
   <v>       0.36000000       0.00000000       0.00000000 </v>
   <v>       0.40000000       0.00000000       0.00000000 </v>
   <v>       0.44000000       0.00000000       0.00000000 </v>
   <v>       0.48000000       0.00000000       0.00000000 </v>
   <v>       0.00000000       0.06666667       0.00000000 </v>
   <v>       0.04000000       0.06666667       0.00000000 </v>
   <v>       0.08000000       0.06666667       0.00000000 </v>
   <v>       0.12000000       0.06666667       0.00000000 </v>
   <v>       0.16000000       0.06666667       0.00000000 </v>
   <v>       0.20000000       0.06666667       0.00000000 </v>
   <v>       0.24000000       0.06666667       0.00000000 </v>
   <v>       0.28000000       0.06666667       0.00000000 </v>
   <v>       0.32000000       0.06666667       0.00000000 </v>
   <v>       0.36000000       0.06666667       0.00000000 </v>
   <v>       0.40000000       0.06666667       0.00000000 </v>
   <v>       0.44000000       0.06666667       0.00000000 </v>
   <v>       0.48000000       0.06666667       0.00000000 </v>
   <v>       0.00000000       0.13333333       0.00000000 </v>
   <v>       0.04000000       0.13333333       0.00000000 </v>
   <v>       0.08000000       0.13333333       0.00000000 </v>
   <v>       0.12000000       0.13333333       0.00000000 </v>
   <v>       0.16000000       0.13333333       0.00000000 </v>
   <v>       0.20000000       0.13333333       0.00000000 </v>
   <v>       0.24000000       0.13333333       0.00000000 </v>
   <v>       0.28000000       0.13333333       0.00000000 </v>
   <v>       0.32000000       0.13333333       0.00000000 </v>
   <v>       0.36000000       0.13333333       0.00000000 </v>
   <v>       0.40000000       0.13333333       0.00000000 </v>
   <v>       0.44000000       0.13333333       0.00000000 </v>
   <v>       0.48000000       0.13333333       0.00000000 </v>
   <v>       0.00000000       0.20000000       0.00000000 </v>
   <v>       0.04000000       0.20000000       0.00000000 </v>
   <v>       0.08000000       0.20000000       0.00000000 </v>
   <v>       0.12000000       0.20000000       0.00000000 </v>
   <v>       0.16000000       0.20000000       0.00000000 </v>
   <v>       0.20000000       0.20000000       0.00000000 </v>
   <v>       0.24000000       0.20000000       0.00000000 </v>
   <v>       0.28000000       0.20000000       0.00000000 </v>
   <v>       0.32000000       0.20000000       0.00000000 </v>
   <v>       0.36000000       0.20000000       0.00000000 </v>
   <v>       0.40000000       0.20000000       0.00000000 </v>
   <v>       0.44000000       0.20000000       0.00000000 </v>
   <v>       0.48000000       0.20000000       0.00000000 </v>
   <v>       0.00000000       0.26666667       0.00000000 </v>
   <v>       0.04000000       0.26666667       0.00000000 </v>
   <v>       0.08000000       0.26666667       0.00000000 </v>
   <v>       0.12000000       0.26666667       0.00000000 </v>
   <v>       0.16000000       0.26666667       0.00000000 </v>
   <v>       0.20000000       0.26666667       0.00000000 </v>
   <v>       0.24000000       0.26666667       0.00000000 </v>
   <v>       0.28000000       0.26666667       0.00000000 </v>
   <v>       0.32000000       0.26666667       0.00000000 </v>
   <v>       0.36000000       0.26666667       0.00000000 </v>
   <v>       0.40000000       0.26666667       0.00000000 </v>
   <v>       0.44000000       0.26666667       0.00000000 </v>
   <v>       0.48000000       0.26666667       0.00000000 </v>
   <v>       0.00000000       0.33333333       0.00000000 </v>
   <v>       0.04000000       0.33333333       0.00000000 </v>
   <v>       0.08000000       0.33333333       0.00000000 </v>
   <v>       0.12000000       0.33333333       0.00000000 </v>
   <v>       0.16000000       0.33333333       0.00000000 </v>
   <v>       0.20000000       0.33333333       0.00000000 </v>
   <v>       0.24000000       0.33333333       0.00000000 </v>
   <v>       0.28000000       0.33333333       0.00000000 </v>
   <v>       0.32000000       0.33333333       0.00000000 </v>
   <v>       0.36000000       0.33333333       0.00000000 </v>
   <v>       0.40000000       0.33333333       0.00000000 </v>
   <v>       0.44000000       0.33333333       0.00000000 </v>
   <v>       0.48000000       0.33333333       0.00000000 </v>
   <v>       0.00000000       0.40000000       0.00000000 </v>
   <v>       0.04000000       0.40000000       0.00000000 </v>
   <v>       0.08000000       0.40000000       0.00000000 </v>
   <v>       0.12000000       0.40000000       0.00000000 </v>
   <v>       0.16000000       0.40000000       0.00000000 </v>
   <v>       0.20000000       0.40000000       0.00000000 </v>
   <v>       0.24000000       0.40000000       0.00000000 </v>
   <v>       0.28000000       0.40000000       0.00000000 </v>
   <v>       0.32000000       0.40000000       0.00000000 </v>
   <v>       0.36000000       0.40000000       0.00000000 </v>
   <v>       0.40000000       0.40000000       0.00000000 </v>
   <v>       0.44000000       0.40000000       0.00000000 </v>
   <v>       0.48000000       0.40000000       0.00000000 </v>
   <v>       0.00000000       0.46666667       0.00000000 </v>
   <v>       0.04000000       0.46666667       0.00000000 </v>
   <v>       0.08000000       0.46666667       0.00000000 </v>
   <v>       0.12000000       0.46666667       0.00000000 </v>
   <v>       0.16000000       0.46666667       0.00000000 </v>
   <v>       0.20000000       0.46666667       0.00000000 </v>
   <v>       0.24000000       0.46666667       0.00000000 </v>
   <v>       0.28000000       0.46666667       0.00000000 </v>
   <v>       0.32000000       0.46666667       0.00000000 </v>
   <v>       0.36000000       0.46666667       0.00000000 </v>
   <v>       0.40000000       0.46666667       0.00000000 </v>
   <v>       0.44000000       0.46666667       0.00000000 </v>
   <v>       0.48000000       0.46666667       0.00000000 </v>
   <v>       0.00000000       0.00000000       0.10000000 </v>
   <v>       0.04000000       0.00000000       0.10000000 </v>
   <v>       0.08000000       0.00000000       0.10000000 </v>
   <v>       0.12000000       0.00000000       0.10000000 </v>
   <v>       0.16000000       0.00000000       0.10000000 </v>
   <v>       0.20000000       0.00000000       0.10000000 </v>
   <v>       0.24000000       0.00000000       0.10000000 </v>
   <v>       0.28000000       0.00000000       0.10000000 </v>
   <v>       0.32000000       0.00000000       0.10000000 </v>
   <v>       0.36000000       0.00000000       0.10000000 </v>
   <v>       0.40000000       0.00000000       0.10000000 </v>
   <v>       0.44000000       0.00000000       0.10000000 </v>
   <v>       0.48000000       0.00000000       0.10000000 </v>
   <v>       0.00000000       0.06666667       0.10000000 </v>
   <v>       0.04000000       0.06666667       0.10000000 </v>
   <v>       0.08000000       0.06666667       0.10000000 </v>
   <v>       0.12000000       0.06666667       0.10000000 </v>
   <v>       0.16000000       0.06666667       0.10000000 </v>
   <v>       0.20000000       0.06666667       0.10000000 </v>
   <v>       0.24000000       0.06666667       0.10000000 </v>
   <v>       0.28000000       0.06666667       0.10000000 </v>
   <v>       0.32000000       0.06666667       0.10000000 </v>
   <v>       0.36000000       0.06666667       0.10000000 </v>
   <v>       0.40000000       0.06666667       0.10000000 </v>
   <v>       0.44000000       0.06666667       0.10000000 </v>
   <v>       0.48000000       0.06666667       0.10000000 </v>
   <v>       0.00000000       0.13333333       0.10000000 </v>
   <v>       0.04000000       0.13333333       0.10000000 </v>
   <v>       0.08000000       0.13333333       0.10000000 </v>
   <v>       0.12000000       0.13333333       0.10000000 </v>
   <v>       0.16000000       0.13333333       0.10000000 </v>
   <v>       0.20000000       0.13333333       0.10000000 </v>
   <v>       0.24000000       0.13333333       0.10000000 </v>
   <v>       0.28000000       0.13333333       0.10000000 </v>
   <v>       0.32000000       0.13333333       0.10000000 </v>
   <v>       0.36000000       0.13333333       0.10000000 </v>
   <v>       0.40000000       0.13333333       0.10000000 </v>
   <v>       0.44000000       0.13333333       0.10000000 </v>
   <v>       0.48000000       0.13333333       0.10000000 </v>
   <v>       0.00000000       0.20000000       0.10000000 </v>
   <v>       0.04000000       0.20000000       0.10000000 </v>
   <v>       0.08000000       0.20000000       0.10000000 </v>
   <v>       0.12000000       0.20000000       0.10000000 </v>
   <v>       0.16000000       0.20000000       0.10000000 </v>
   <v>       0.20000000       0.20000000       0.10000000 </v>
   <v>       0.24000000       0.20000000       0.10000000 </v>
   <v>       0.28000000       0.20000000       0.10000000 </v>
   <v>       0.32000000       0.20000000       0.10000000 </v>
   <v>       0.36000000       0.20000000       0.10000000 </v>
   <v>       0.40000000       0.20000000       0.10000000 </v>
   <v>       0.44000000       0.20000000       0.10000000 </v>
   <v>       0.48000000       0.20000000       0.10000000 </v>
   <v>       0.00000000       0.26666667       0.10000000 </v>
   <v>       0.04000000       0.26666667       0.10000000 </v>
   <v>       0.08000000       0.26666667       0.10000000 </v>
   <v>       0.12000000       0.26666667       0.10000000 </v>
   <v>       0.16000000       0.26666667       0.10000000 </v>
   <v>       0.20000000       0.26666667       0.10000000 </v>
   <v>       0.24000000       0.26666667       0.10000000 </v>
   <v>       0.28000000       0.26666667       0.10000000 </v>
   <v>       0.32000000       0.26666667       0.10000000 </v>
   <v>       0.36000000       0.26666667       0.10000000 </v>
   <v>       0.40000000       0.26666667       0.10000000 </v>
   <v>       0.44000000       0.26666667       0.10000000 </v>
   <v>       0.48000000       0.26666667       0.10000000 </v>
   <v>       0.00000000       0.33333333       0.10000000 </v>
   <v>       0.04000000       0.33333333       0.10000000 </v>
   <v>       0.08000000       0.33333333       0.10000000 </v>
   <v>       0.12000000       0.33333333       0.10000000 </v>
   <v>       0.16000000       0.33333333       0.10000000 </v>
   <v>       0.20000000       0.33333333       0.10000000 </v>
   <v>       0.24000000       0.33333333       0.10000000 </v>
   <v>       0.28000000       0.33333333       0.10000000 </v>
   <v>       0.32000000       0.33333333       0.10000000 </v>
   <v>       0.36000000       0.33333333       0.10000000 </v>
   <v>       0.40000000       0.33333333       0.10000000 </v>
   <v>       0.44000000       0.33333333       0.10000000 </v>
   <v>       0.48000000       0.33333333       0.10000000 </v>
   <v>       0.00000000       0.40000000       0.10000000 </v>
   <v>       0.04000000       0.40000000       0.10000000 </v>
   <v>       0.08000000       0.40000000       0.10000000 </v>
   <v>       0.12000000       0.40000000       0.10000000 </v>
   <v>       0.16000000       0.40000000       0.10000000 </v>
   <v>       0.20000000       0.40000000       0.10000000 </v>
   <v>       0.24000000       0.40000000       0.10000000 </v>
   <v>       0.28000000       0.40000000       0.10000000 </v>
   <v>       0.32000000       0.40000000       0.10000000 </v>
   <v>       0.36000000       0.40000000       0.10000000 </v>
   <v>       0.40000000       0.40000000       0.10000000 </v>
   <v>       0.44000000       0.40000000       0.10000000 </v>
   <v>       0.48000000       0.40000000       0.10000000 </v>
   <v>       0.00000000       0.46666667       0.10000000 </v>
   <v>       0.04000000       0.46666667       0.10000000 </v>
   <v>       0.08000000       0.46666667       0.10000000 </v>
   <v>       0.12000000       0.46666667       0.10000000 </v>
   <v>       0.16000000       0.46666667       0.10000000 </v>
   <v>       0.20000000       0.46666667       0.10000000 </v>
   <v>       0.24000000       0.46666667       0.10000000 </v>
   <v>       0.28000000       0.46666667       0.10000000 </v>
   <v>       0.32000000       0.46666667       0.10000000 </v>
   <v>       0.36000000       0.46666667       0.10000000 </v>
   <v>       0.40000000       0.46666667       0.10000000 </v>
   <v>       0.44000000       0.46666667       0.10000000 </v>
   <v>       0.48000000       0.46666667       0.10000000 </v>
   <v>       0.00000000      -0.46666667       0.10000000 </v>
   <v>       0.04000000      -0.46666667       0.10000000 </v>
   <v>       0.08000000      -0.46666667       0.10000000 </v>
   <v>       0.12000000      -0.46666667       0.10000000 </v>
   <v>       0.16000000      -0.46666667       0.10000000 </v>
   <v>       0.20000000      -0.46666667       0.10000000 </v>
   <v>       0.24000000      -0.46666667       0.10000000 </v>
   <v>       0.28000000      -0.46666667       0.10000000 </v>
   <v>       0.32000000      -0.46666667       0.10000000 </v>
   <v>       0.36000000      -0.46666667       0.10000000 </v>
   <v>       0.40000000      -0.46666667       0.10000000 </v>
   <v>       0.44000000      -0.46666667       0.10000000 </v>
   <v>       0.48000000      -0.46666667       0.10000000 </v>
   <v>       0.00000000      -0.40000000       0.10000000 </v>
   <v>       0.04000000      -0.40000000       0.10000000 </v>
   <v>       0.08000000      -0.40000000       0.10000000 </v>
   <v>       0.12000000      -0.40000000       0.10000000 </v>
   <v>       0.16000000      -0.40000000       0.10000000 </v>
   <v>       0.20000000      -0.40000000       0.10000000 </v>
   <v>       0.24000000      -0.40000000       0.10000000 </v>
   <v>       0.28000000      -0.40000000       0.10000000 </v>
   <v>       0.32000000      -0.40000000       0.10000000 </v>
   <v>       0.36000000      -0.40000000       0.10000000 </v>
   <v>       0.40000000      -0.40000000       0.10000000 </v>
   <v>       0.44000000      -0.40000000       0.10000000 </v>
   <v>       0.48000000      -0.40000000       0.10000000 </v>
   <v>       0.00000000      -0.33333333       0.10000000 </v>
   <v>       0.04000000      -0.33333333       0.10000000 </v>
   <v>       0.08000000      -0.33333333       0.10000000 </v>
   <v>       0.12000000      -0.33333333       0.10000000 </v>
   <v>       0.16000000      -0.33333333       0.10000000 </v>
   <v>       0.20000000      -0.33333333       0.10000000 </v>
   <v>       0.24000000      -0.33333333       0.10000000 </v>
   <v>       0.28000000      -0.33333333       0.10000000 </v>
   <v>       0.32000000      -0.33333333       0.10000000 </v>
   <v>       0.36000000      -0.33333333       0.10000000 </v>
   <v>       0.40000000      -0.33333333       0.10000000 </v>
   <v>       0.44000000      -0.33333333       0.10000000 </v>
   <v>       0.48000000      -0.33333333       0.10000000 </v>
   <v>       0.00000000      -0.26666667       0.10000000 </v>
   <v>       0.04000000      -0.26666667       0.10000000 </v>
   <v>       0.08000000      -0.26666667       0.10000000 </v>
   <v>       0.12000000      -0.26666667       0.10000000 </v>
   <v>       0.16000000      -0.26666667       0.10000000 </v>
   <v>       0.20000000      -0.26666667       0.10000000 </v>
   <v>       0.24000000      -0.26666667       0.10000000 </v>
   <v>       0.28000000      -0.26666667       0.10000000 </v>
   <v>       0.32000000      -0.26666667       0.10000000 </v>
   <v>       0.36000000      -0.26666667       0.10000000 </v>
   <v>       0.40000000      -0.26666667       0.10000000 </v>
   <v>       0.44000000      -0.26666667       0.10000000 </v>
   <v>       0.48000000      -0.26666667       0.10000000 </v>
   <v>       0.00000000      -0.20000000       0.10000000 </v>
   <v>       0.04000000      -0.20000000       0.10000000 </v>
   <v>       0.08000000      -0.20000000       0.10000000 </v>
   <v>       0.12000000      -0.20000000       0.10000000 </v>
   <v>       0.16000000      -0.20000000       0.10000000 </v>
   <v>       0.20000000      -0.20000000       0.10000000 </v>
   <v>       0.24000000      -0.20000000       0.10000000 </v>
   <v>       0.28000000      -0.20000000       0.10000000 </v>
   <v>       0.32000000      -0.20000000       0.10000000 </v>
   <v>       0.36000000      -0.20000000       0.10000000 </v>
   <v>       0.40000000      -0.20000000       0.10000000 </v>
   <v>       0.44000000      -0.20000000       0.10000000 </v>
   <v>       0.48000000      -0.20000000       0.10000000 </v>
   <v>       0.00000000      -0.13333333       0.10000000 </v>
   <v>       0.04000000      -0.13333333       0.10000000 </v>
   <v>       0.08000000      -0.13333333       0.10000000 </v>
   <v>       0.12000000      -0.13333333       0.10000000 </v>
   <v>       0.16000000      -0.13333333       0.10000000 </v>
   <v>       0.20000000      -0.13333333       0.10000000 </v>
   <v>       0.24000000      -0.13333333       0.10000000 </v>
   <v>       0.28000000      -0.13333333       0.10000000 </v>
   <v>       0.32000000      -0.13333333       0.10000000 </v>
   <v>       0.36000000      -0.13333333       0.10000000 </v>
   <v>       0.40000000      -0.13333333       0.10000000 </v>
   <v>       0.44000000      -0.13333333       0.10000000 </v>
   <v>       0.48000000      -0.13333333       0.10000000 </v>
   <v>       0.00000000      -0.06666667       0.10000000 </v>
   <v>       0.04000000      -0.06666667       0.10000000 </v>
   <v>       0.08000000      -0.06666667       0.10000000 </v>
   <v>       0.12000000      -0.06666667       0.10000000 </v>
   <v>       0.16000000      -0.06666667       0.10000000 </v>
   <v>       0.20000000      -0.06666667       0.10000000 </v>
   <v>       0.24000000      -0.06666667       0.10000000 </v>
   <v>       0.28000000      -0.06666667       0.10000000 </v>
   <v>       0.32000000      -0.06666667       0.10000000 </v>
   <v>       0.36000000      -0.06666667       0.10000000 </v>
   <v>       0.40000000      -0.06666667       0.10000000 </v>
   <v>       0.44000000      -0.06666667       0.10000000 </v>
   <v>       0.48000000      -0.06666667       0.10000000 </v>
   <v>       0.00000000       0.00000000       0.20000000 </v>
   <v>       0.04000000       0.00000000       0.20000000 </v>
   <v>       0.08000000       0.00000000       0.20000000 </v>
   <v>       0.12000000       0.00000000       0.20000000 </v>
   <v>       0.16000000       0.00000000       0.20000000 </v>
   <v>       0.20000000       0.00000000       0.20000000 </v>
   <v>       0.24000000       0.00000000       0.20000000 </v>
   <v>       0.28000000       0.00000000       0.20000000 </v>
   <v>       0.32000000       0.00000000       0.20000000 </v>
   <v>       0.36000000       0.00000000       0.20000000 </v>
   <v>       0.40000000       0.00000000       0.20000000 </v>
   <v>       0.44000000       0.00000000       0.20000000 </v>
   <v>       0.48000000       0.00000000       0.20000000 </v>
   <v>       0.00000000       0.06666667       0.20000000 </v>
   <v>       0.04000000       0.06666667       0.20000000 </v>
   <v>       0.08000000       0.06666667       0.20000000 </v>
   <v>       0.12000000       0.06666667       0.20000000 </v>
   <v>       0.16000000       0.06666667       0.20000000 </v>
   <v>       0.20000000       0.06666667       0.20000000 </v>
   <v>       0.24000000       0.06666667       0.20000000 </v>
   <v>       0.28000000       0.06666667       0.20000000 </v>
   <v>       0.32000000       0.06666667       0.20000000 </v>
   <v>       0.36000000       0.06666667       0.20000000 </v>
   <v>       0.40000000       0.06666667       0.20000000 </v>
   <v>       0.44000000       0.06666667       0.20000000 </v>
   <v>       0.48000000       0.06666667       0.20000000 </v>
   <v>       0.00000000       0.13333333       0.20000000 </v>
   <v>       0.04000000       0.13333333       0.20000000 </v>
   <v>       0.08000000       0.13333333       0.20000000 </v>
   <v>       0.12000000       0.13333333       0.20000000 </v>
   <v>       0.16000000       0.13333333       0.20000000 </v>
   <v>       0.20000000       0.13333333       0.20000000 </v>
   <v>       0.24000000       0.13333333       0.20000000 </v>
   <v>       0.28000000       0.13333333       0.20000000 </v>
   <v>       0.32000000       0.13333333       0.20000000 </v>
   <v>       0.36000000       0.13333333       0.20000000 </v>
   <v>       0.40000000       0.13333333       0.20000000 </v>
   <v>       0.44000000       0.13333333       0.20000000 </v>
   <v>       0.48000000       0.13333333       0.20000000 </v>
   <v>       0.00000000       0.20000000       0.20000000 </v>
   <v>       0.04000000       0.20000000       0.20000000 </v>
   <v>       0.08000000       0.20000000       0.20000000 </v>
   <v>       0.12000000       0.20000000       0.20000000 </v>
   <v>       0.16000000       0.20000000       0.20000000 </v>
   <v>       0.20000000       0.20000000       0.20000000 </v>
   <v>       0.24000000       0.20000000       0.20000000 </v>
   <v>       0.28000000       0.20000000       0.20000000 </v>
   <v>       0.32000000       0.20000000       0.20000000 </v>
   <v>       0.36000000       0.20000000       0.20000000 </v>
   <v>       0.40000000       0.20000000       0.20000000 </v>
   <v>       0.44000000       0.20000000       0.20000000 </v>
   <v>       0.48000000       0.20000000       0.20000000 </v>
   <v>       0.00000000       0.26666667       0.20000000 </v>
   <v>       0.04000000       0.26666667       0.20000000 </v>
   <v>       0.08000000       0.26666667       0.20000000 </v>
   <v>       0.12000000       0.26666667       0.20000000 </v>
   <v>       0.16000000       0.26666667       0.20000000 </v>
   <v>       0.20000000       0.26666667       0.20000000 </v>
   <v>       0.24000000       0.26666667       0.20000000 </v>
   <v>       0.28000000       0.26666667       0.20000000 </v>
   <v>       0.32000000       0.26666667       0.20000000 </v>
   <v>       0.36000000       0.26666667       0.20000000 </v>
   <v>       0.40000000       0.26666667       0.20000000 </v>
   <v>       0.44000000       0.26666667       0.20000000 </v>
   <v>       0.48000000       0.26666667       0.20000000 </v>
   <v>       0.00000000       0.33333333       0.20000000 </v>
   <v>       0.04000000       0.33333333       0.20000000 </v>
   <v>       0.08000000       0.33333333       0.20000000 </v>
   <v>       0.12000000       0.33333333       0.20000000 </v>
   <v>       0.16000000       0.33333333       0.20000000 </v>
   <v>       0.20000000       0.33333333       0.20000000 </v>
   <v>       0.24000000       0.33333333       0.20000000 </v>
   <v>       0.28000000       0.33333333       0.20000000 </v>
   <v>       0.32000000       0.33333333       0.20000000 </v>
   <v>       0.36000000       0.33333333       0.20000000 </v>
   <v>       0.40000000       0.33333333       0.20000000 </v>
   <v>       0.44000000       0.33333333       0.20000000 </v>
   <v>       0.48000000       0.33333333       0.20000000 </v>
   <v>       0.00000000       0.40000000       0.20000000 </v>
   <v>       0.04000000       0.40000000       0.20000000 </v>
   <v>       0.08000000       0.40000000       0.20000000 </v>
   <v>       0.12000000       0.40000000       0.20000000 </v>
   <v>       0.16000000       0.40000000       0.20000000 </v>
   <v>       0.20000000       0.40000000       0.20000000 </v>
   <v>       0.24000000       0.40000000       0.20000000 </v>
   <v>       0.28000000       0.40000000       0.20000000 </v>
   <v>       0.32000000       0.40000000       0.20000000 </v>
   <v>       0.36000000       0.40000000       0.20000000 </v>
   <v>       0.40000000       0.40000000       0.20000000 </v>
   <v>       0.44000000       0.40000000       0.20000000 </v>
   <v>       0.48000000       0.40000000       0.20000000 </v>
   <v>       0.00000000       0.46666667       0.20000000 </v>
   <v>       0.04000000       0.46666667       0.20000000 </v>
   <v>       0.08000000       0.46666667       0.20000000 </v>
   <v>       0.12000000       0.46666667       0.20000000 </v>
   <v>       0.16000000       0.46666667       0.20000000 </v>
   <v>       0.20000000       0.46666667       0.20000000 </v>
   <v>       0.24000000       0.46666667       0.20000000 </v>
   <v>       0.28000000       0.46666667       0.20000000 </v>
   <v>       0.32000000       0.46666667       0.20000000 </v>
   <v>       0.36000000       0.46666667       0.20000000 </v>
   <v>       0.40000000       0.46666667       0.20000000 </v>
   <v>       0.44000000       0.46666667       0.20000000 </v>
   <v>       0.48000000       0.46666667       0.20000000 </v>
   <v>       0.00000000      -0.46666667       0.20000000 </v>
   <v>       0.04000000      -0.46666667       0.20000000 </v>
   <v>       0.08000000      -0.46666667       0.20000000 </v>
   <v>       0.12000000      -0.46666667       0.20000000 </v>
   <v>       0.16000000      -0.46666667       0.20000000 </v>
   <v>       0.20000000      -0.46666667       0.20000000 </v>
   <v>       0.24000000      -0.46666667       0.20000000 </v>
   <v>       0.28000000      -0.46666667       0.20000000 </v>
   <v>       0.32000000      -0.46666667       0.20000000 </v>
   <v>       0.36000000      -0.46666667       0.20000000 </v>
   <v>       0.40000000      -0.46666667       0.20000000 </v>
   <v>       0.44000000      -0.46666667       0.20000000 </v>
   <v>       0.48000000      -0.46666667       0.20000000 </v>
   <v>       0.00000000      -0.40000000       0.20000000 </v>
   <v>       0.04000000      -0.40000000       0.20000000 </v>
   <v>       0.08000000      -0.40000000       0.20000000 </v>
   <v>       0.12000000      -0.40000000       0.20000000 </v>
   <v>       0.16000000      -0.40000000       0.20000000 </v>
   <v>       0.20000000      -0.40000000       0.20000000 </v>
   <v>       0.24000000      -0.40000000       0.20000000 </v>
   <v>       0.28000000      -0.40000000       0.20000000 </v>
   <v>       0.32000000      -0.40000000       0.20000000 </v>
   <v>       0.36000000      -0.40000000       0.20000000 </v>
   <v>       0.40000000      -0.40000000       0.20000000 </v>
   <v>       0.44000000      -0.40000000       0.20000000 </v>
   <v>       0.48000000      -0.40000000       0.20000000 </v>
   <v>       0.00000000      -0.33333333       0.20000000 </v>
   <v>       0.04000000      -0.33333333       0.20000000 </v>
   <v>       0.08000000      -0.33333333       0.20000000 </v>
   <v>       0.12000000      -0.33333333       0.20000000 </v>
   <v>       0.16000000      -0.33333333       0.20000000 </v>
   <v>       0.20000000      -0.33333333       0.20000000 </v>
   <v>       0.24000000      -0.33333333       0.20000000 </v>
   <v>       0.28000000      -0.33333333       0.20000000 </v>
   <v>       0.32000000      -0.33333333       0.20000000 </v>
   <v>       0.36000000      -0.33333333       0.20000000 </v>
   <v>       0.40000000      -0.33333333       0.20000000 </v>
   <v>       0.44000000      -0.33333333       0.20000000 </v>
   <v>       0.48000000      -0.33333333       0.20000000 </v>
   <v>       0.00000000      -0.26666667       0.20000000 </v>
   <v>       0.04000000      -0.26666667       0.20000000 </v>
   <v>       0.08000000      -0.26666667       0.20000000 </v>
   <v>       0.12000000      -0.26666667       0.20000000 </v>
   <v>       0.16000000      -0.26666667       0.20000000 </v>
   <v>       0.20000000      -0.26666667       0.20000000 </v>
   <v>       0.24000000      -0.26666667       0.20000000 </v>
   <v>       0.28000000      -0.26666667       0.20000000 </v>
   <v>       0.32000000      -0.26666667       0.20000000 </v>
   <v>       0.36000000      -0.26666667       0.20000000 </v>
   <v>       0.40000000      -0.26666667       0.20000000 </v>
   <v>       0.44000000      -0.26666667       0.20000000 </v>
   <v>       0.48000000      -0.26666667       0.20000000 </v>
   <v>       0.00000000      -0.20000000       0.20000000 </v>
   <v>       0.04000000      -0.20000000       0.20000000 </v>
   <v>       0.08000000      -0.20000000       0.20000000 </v>
   <v>       0.12000000      -0.20000000       0.20000000 </v>
   <v>       0.16000000      -0.20000000       0.20000000 </v>
   <v>       0.20000000      -0.20000000       0.20000000 </v>
   <v>       0.24000000      -0.20000000       0.20000000 </v>
   <v>       0.28000000      -0.20000000       0.20000000 </v>
   <v>       0.32000000      -0.20000000       0.20000000 </v>
   <v>       0.36000000      -0.20000000       0.20000000 </v>
   <v>       0.40000000      -0.20000000       0.20000000 </v>
   <v>       0.44000000      -0.20000000       0.20000000 </v>
   <v>       0.48000000      -0.20000000       0.20000000 </v>
   <v>       0.00000000      -0.13333333       0.20000000 </v>
   <v>       0.04000000      -0.13333333       0.20000000 </v>
   <v>       0.08000000      -0.13333333       0.20000000 </v>
   <v>       0.12000000      -0.13333333       0.20000000 </v>
   <v>       0.16000000      -0.13333333       0.20000000 </v>
   <v>       0.20000000      -0.13333333       0.20000000 </v>
   <v>       0.24000000      -0.13333333       0.20000000 </v>
   <v>       0.28000000      -0.13333333       0.20000000 </v>
   <v>       0.32000000      -0.13333333       0.20000000 </v>
   <v>       0.36000000      -0.13333333       0.20000000 </v>
   <v>       0.40000000      -0.13333333       0.20000000 </v>
   <v>       0.44000000      -0.13333333       0.20000000 </v>
   <v>       0.48000000      -0.13333333       0.20000000 </v>
   <v>       0.00000000      -0.06666667       0.20000000 </v>
   <v>       0.04000000      -0.06666667       0.20000000 </v>
   <v>       0.08000000      -0.06666667       0.20000000 </v>
   <v>       0.12000000      -0.06666667       0.20000000 </v>
   <v>       0.16000000      -0.06666667       0.20000000 </v>
   <v>       0.20000000      -0.06666667       0.20000000 </v>
   <v>       0.24000000      -0.06666667       0.20000000 </v>
   <v>       0.28000000      -0.06666667       0.20000000 </v>
   <v>       0.32000000      -0.06666667       0.20000000 </v>
   <v>       0.36000000      -0.06666667       0.20000000 </v>
   <v>       0.40000000      -0.06666667       0.20000000 </v>
   <v>       0.44000000      -0.06666667       0.20000000 </v>
   <v>       0.48000000      -0.06666667       0.20000000 </v>
   <v>       0.00000000       0.00000000       0.30000000 </v>
   <v>       0.04000000       0.00000000       0.30000000 </v>
   <v>       0.08000000       0.00000000       0.30000000 </v>
   <v>       0.12000000       0.00000000       0.30000000 </v>
   <v>       0.16000000       0.00000000       0.30000000 </v>
   <v>       0.20000000       0.00000000       0.30000000 </v>
   <v>       0.24000000       0.00000000       0.30000000 </v>
   <v>       0.28000000       0.00000000       0.30000000 </v>
   <v>       0.32000000       0.00000000       0.30000000 </v>
   <v>       0.36000000       0.00000000       0.30000000 </v>
   <v>       0.40000000       0.00000000       0.30000000 </v>
   <v>       0.44000000       0.00000000       0.30000000 </v>
   <v>       0.48000000       0.00000000       0.30000000 </v>
   <v>       0.00000000       0.06666667       0.30000000 </v>
   <v>       0.04000000       0.06666667       0.30000000 </v>
   <v>       0.08000000       0.06666667       0.30000000 </v>
   <v>       0.12000000       0.06666667       0.30000000 </v>
   <v>       0.16000000       0.06666667       0.30000000 </v>
   <v>       0.20000000       0.06666667       0.30000000 </v>
   <v>       0.24000000       0.06666667       0.30000000 </v>
   <v>       0.28000000       0.06666667       0.30000000 </v>
   <v>       0.32000000       0.06666667       0.30000000 </v>
   <v>       0.36000000       0.06666667       0.30000000 </v>
   <v>       0.40000000       0.06666667       0.30000000 </v>
   <v>       0.44000000       0.06666667       0.30000000 </v>
   <v>       0.48000000       0.06666667       0.30000000 </v>
   <v>       0.00000000       0.13333333       0.30000000 </v>
   <v>       0.04000000       0.13333333       0.30000000 </v>
   <v>       0.08000000       0.13333333       0.30000000 </v>
   <v>       0.12000000       0.13333333       0.30000000 </v>
   <v>       0.16000000       0.13333333       0.30000000 </v>
   <v>       0.20000000       0.13333333       0.30000000 </v>
   <v>       0.24000000       0.13333333       0.30000000 </v>
   <v>       0.28000000       0.13333333       0.30000000 </v>
   <v>       0.32000000       0.13333333       0.30000000 </v>
   <v>       0.36000000       0.13333333       0.30000000 </v>
   <v>       0.40000000       0.13333333       0.30000000 </v>
   <v>       0.44000000       0.13333333       0.30000000 </v>
   <v>       0.48000000       0.13333333       0.30000000 </v>
   <v>       0.00000000       0.20000000       0.30000000 </v>
   <v>       0.04000000       0.20000000       0.30000000 </v>
   <v>       0.08000000       0.20000000       0.30000000 </v>
   <v>       0.12000000       0.20000000       0.30000000 </v>
   <v>       0.16000000       0.20000000       0.30000000 </v>
   <v>       0.20000000       0.20000000       0.30000000 </v>
   <v>       0.24000000       0.20000000       0.30000000 </v>
   <v>       0.28000000       0.20000000       0.30000000 </v>
   <v>       0.32000000       0.20000000       0.30000000 </v>
   <v>       0.36000000       0.20000000       0.30000000 </v>
   <v>       0.40000000       0.20000000       0.30000000 </v>
   <v>       0.44000000       0.20000000       0.30000000 </v>
   <v>       0.48000000       0.20000000       0.30000000 </v>
   <v>       0.00000000       0.26666667       0.30000000 </v>
   <v>       0.04000000       0.26666667       0.30000000 </v>
   <v>       0.08000000       0.26666667       0.30000000 </v>
   <v>       0.12000000       0.26666667       0.30000000 </v>
   <v>       0.16000000       0.26666667       0.30000000 </v>
   <v>       0.20000000       0.26666667       0.30000000 </v>
   <v>       0.24000000       0.26666667       0.30000000 </v>
   <v>       0.28000000       0.26666667       0.30000000 </v>
   <v>       0.32000000       0.26666667       0.30000000 </v>
   <v>       0.36000000       0.26666667       0.30000000 </v>
   <v>       0.40000000       0.26666667       0.30000000 </v>
   <v>       0.44000000       0.26666667       0.30000000 </v>
   <v>       0.48000000       0.26666667       0.30000000 </v>
   <v>       0.00000000       0.33333333       0.30000000 </v>
   <v>       0.04000000       0.33333333       0.30000000 </v>
   <v>       0.08000000       0.33333333       0.30000000 </v>
   <v>       0.12000000       0.33333333       0.30000000 </v>
   <v>       0.16000000       0.33333333       0.30000000 </v>
   <v>       0.20000000       0.33333333       0.30000000 </v>
   <v>       0.24000000       0.33333333       0.30000000 </v>
   <v>       0.28000000       0.33333333       0.30000000 </v>
   <v>       0.32000000       0.33333333       0.30000000 </v>
   <v>       0.36000000       0.33333333       0.30000000 </v>
   <v>       0.40000000       0.33333333       0.30000000 </v>
   <v>       0.44000000       0.33333333       0.30000000 </v>
   <v>       0.48000000       0.33333333       0.30000000 </v>
   <v>       0.00000000       0.40000000       0.30000000 </v>
   <v>       0.04000000       0.40000000       0.30000000 </v>
   <v>       0.08000000       0.40000000       0.30000000 </v>
   <v>       0.12000000       0.40000000       0.30000000 </v>
   <v>       0.16000000       0.40000000       0.30000000 </v>
   <v>       0.20000000       0.40000000       0.30000000 </v>
   <v>       0.24000000       0.40000000       0.30000000 </v>
   <v>       0.28000000       0.40000000       0.30000000 </v>
   <v>       0.32000000       0.40000000       0.30000000 </v>
   <v>       0.36000000       0.40000000       0.30000000 </v>
   <v>       0.40000000       0.40000000       0.30000000 </v>
   <v>       0.44000000       0.40000000       0.30000000 </v>
   <v>       0.48000000       0.40000000       0.30000000 </v>
   <v>       0.00000000       0.46666667       0.30000000 </v>
   <v>       0.04000000       0.46666667       0.30000000 </v>
   <v>       0.08000000       0.46666667       0.30000000 </v>
   <v>       0.12000000       0.46666667       0.30000000 </v>
   <v>       0.16000000       0.46666667       0.30000000 </v>
   <v>       0.20000000       0.46666667       0.30000000 </v>
   <v>       0.24000000       0.46666667       0.30000000 </v>
   <v>       0.28000000       0.46666667       0.30000000 </v>
   <v>       0.32000000       0.46666667       0.30000000 </v>
   <v>       0.36000000       0.46666667       0.30000000 </v>
   <v>       0.40000000       0.46666667       0.30000000 </v>
   <v>       0.44000000       0.46666667       0.30000000 </v>
   <v>       0.48000000       0.46666667       0.30000000 </v>
   <v>       0.00000000      -0.46666667       0.30000000 </v>
   <v>       0.04000000      -0.46666667       0.30000000 </v>
   <v>       0.08000000      -0.46666667       0.30000000 </v>
   <v>       0.12000000      -0.46666667       0.30000000 </v>
   <v>       0.16000000      -0.46666667       0.30000000 </v>
   <v>       0.20000000      -0.46666667       0.30000000 </v>
   <v>       0.24000000      -0.46666667       0.30000000 </v>
   <v>       0.28000000      -0.46666667       0.30000000 </v>
   <v>       0.32000000      -0.46666667       0.30000000 </v>
   <v>       0.36000000      -0.46666667       0.30000000 </v>
   <v>       0.40000000      -0.46666667       0.30000000 </v>
   <v>       0.44000000      -0.46666667       0.30000000 </v>
   <v>       0.48000000      -0.46666667       0.30000000 </v>
   <v>       0.00000000      -0.40000000       0.30000000 </v>
   <v>       0.04000000      -0.40000000       0.30000000 </v>
   <v>       0.08000000      -0.40000000       0.30000000 </v>
   <v>       0.12000000      -0.40000000       0.30000000 </v>
   <v>       0.16000000      -0.40000000       0.30000000 </v>
   <v>       0.20000000      -0.40000000       0.30000000 </v>
   <v>       0.24000000      -0.40000000       0.30000000 </v>
   <v>       0.28000000      -0.40000000       0.30000000 </v>
   <v>       0.32000000      -0.40000000       0.30000000 </v>
   <v>       0.36000000      -0.40000000       0.30000000 </v>
   <v>       0.40000000      -0.40000000       0.30000000 </v>
   <v>       0.44000000      -0.40000000       0.30000000 </v>
   <v>       0.48000000      -0.40000000       0.30000000 </v>
   <v>       0.00000000      -0.33333333       0.30000000 </v>
   <v>       0.04000000      -0.33333333       0.30000000 </v>
   <v>       0.08000000      -0.33333333       0.30000000 </v>
   <v>       0.12000000      -0.33333333       0.30000000 </v>
   <v>       0.16000000      -0.33333333       0.30000000 </v>
   <v>       0.20000000      -0.33333333       0.30000000 </v>
   <v>       0.24000000      -0.33333333       0.30000000 </v>
   <v>       0.28000000      -0.33333333       0.30000000 </v>
   <v>       0.32000000      -0.33333333       0.30000000 </v>
   <v>       0.36000000      -0.33333333       0.30000000 </v>
   <v>       0.40000000      -0.33333333       0.30000000 </v>
   <v>       0.44000000      -0.33333333       0.30000000 </v>
   <v>       0.48000000      -0.33333333       0.30000000 </v>
   <v>       0.00000000      -0.26666667       0.30000000 </v>
   <v>       0.04000000      -0.26666667       0.30000000 </v>
   <v>       0.08000000      -0.26666667       0.30000000 </v>
   <v>       0.12000000      -0.26666667       0.30000000 </v>
   <v>       0.16000000      -0.26666667       0.30000000 </v>
   <v>       0.20000000      -0.26666667       0.30000000 </v>
   <v>       0.24000000      -0.26666667       0.30000000 </v>
   <v>       0.28000000      -0.26666667       0.30000000 </v>
   <v>       0.32000000      -0.26666667       0.30000000 </v>
   <v>       0.36000000      -0.26666667       0.30000000 </v>
   <v>       0.40000000      -0.26666667       0.30000000 </v>
   <v>       0.44000000      -0.26666667       0.30000000 </v>
   <v>       0.48000000      -0.26666667       0.30000000 </v>
   <v>       0.00000000      -0.20000000       0.30000000 </v>
   <v>       0.04000000      -0.20000000       0.30000000 </v>
   <v>       0.08000000      -0.20000000       0.30000000 </v>
   <v>       0.12000000      -0.20000000       0.30000000 </v>
   <v>       0.16000000      -0.20000000       0.30000000 </v>
   <v>       0.20000000      -0.20000000       0.30000000 </v>
   <v>       0.24000000      -0.20000000       0.30000000 </v>
   <v>       0.28000000      -0.20000000       0.30000000 </v>
   <v>       0.32000000      -0.20000000       0.30000000 </v>
   <v>       0.36000000      -0.20000000       0.30000000 </v>
   <v>       0.40000000      -0.20000000       0.30000000 </v>
   <v>       0.44000000      -0.20000000       0.30000000 </v>
   <v>       0.48000000      -0.20000000       0.30000000 </v>
   <v>       0.00000000      -0.13333333       0.30000000 </v>
   <v>       0.04000000      -0.13333333       0.30000000 </v>
   <v>       0.08000000      -0.13333333       0.30000000 </v>
   <v>       0.12000000      -0.13333333       0.30000000 </v>
   <v>       0.16000000      -0.13333333       0.30000000 </v>
   <v>       0.20000000      -0.13333333       0.30000000 </v>
   <v>       0.24000000      -0.13333333       0.30000000 </v>
   <v>       0.28000000      -0.13333333       0.30000000 </v>
   <v>       0.32000000      -0.13333333       0.30000000 </v>
   <v>       0.36000000      -0.13333333       0.30000000 </v>
   <v>       0.40000000      -0.13333333       0.30000000 </v>
   <v>       0.44000000      -0.13333333       0.30000000 </v>
   <v>       0.48000000      -0.13333333       0.30000000 </v>
   <v>       0.00000000      -0.06666667       0.30000000 </v>
   <v>       0.04000000      -0.06666667       0.30000000 </v>
   <v>       0.08000000      -0.06666667       0.30000000 </v>
   <v>       0.12000000      -0.06666667       0.30000000 </v>
   <v>       0.16000000      -0.06666667       0.30000000 </v>
   <v>       0.20000000      -0.06666667       0.30000000 </v>
   <v>       0.24000000      -0.06666667       0.30000000 </v>
   <v>       0.28000000      -0.06666667       0.30000000 </v>
   <v>       0.32000000      -0.06666667       0.30000000 </v>
   <v>       0.36000000      -0.06666667       0.30000000 </v>
   <v>       0.40000000      -0.06666667       0.30000000 </v>
   <v>       0.44000000      -0.06666667       0.30000000 </v>
   <v>       0.48000000      -0.06666667       0.30000000 </v>
   <v>       0.00000000       0.00000000       0.40000000 </v>
   <v>       0.04000000       0.00000000       0.40000000 </v>
   <v>       0.08000000       0.00000000       0.40000000 </v>
   <v>       0.12000000       0.00000000       0.40000000 </v>
   <v>       0.16000000       0.00000000       0.40000000 </v>
   <v>       0.20000000       0.00000000       0.40000000 </v>
   <v>       0.24000000       0.00000000       0.40000000 </v>
   <v>       0.28000000       0.00000000       0.40000000 </v>
   <v>       0.32000000       0.00000000       0.40000000 </v>
   <v>       0.36000000       0.00000000       0.40000000 </v>
   <v>       0.40000000       0.00000000       0.40000000 </v>
   <v>       0.44000000       0.00000000       0.40000000 </v>
   <v>       0.48000000       0.00000000       0.40000000 </v>
   <v>       0.00000000       0.06666667       0.40000000 </v>
   <v>       0.04000000       0.06666667       0.40000000 </v>
   <v>       0.08000000       0.06666667       0.40000000 </v>
   <v>       0.12000000       0.06666667       0.40000000 </v>
   <v>       0.16000000       0.06666667       0.40000000 </v>
   <v>       0.20000000       0.06666667       0.40000000 </v>
   <v>       0.24000000       0.06666667       0.40000000 </v>
   <v>       0.28000000       0.06666667       0.40000000 </v>
   <v>       0.32000000       0.06666667       0.40000000 </v>
   <v>       0.36000000       0.06666667       0.40000000 </v>
   <v>       0.40000000       0.06666667       0.40000000 </v>
   <v>       0.44000000       0.06666667       0.40000000 </v>
   <v>       0.48000000       0.06666667       0.40000000 </v>
   <v>       0.00000000       0.13333333       0.40000000 </v>
   <v>       0.04000000       0.13333333       0.40000000 </v>
   <v>       0.08000000       0.13333333       0.40000000 </v>
   <v>       0.12000000       0.13333333       0.40000000 </v>
   <v>       0.16000000       0.13333333       0.40000000 </v>
   <v>       0.20000000       0.13333333       0.40000000 </v>
   <v>       0.24000000       0.13333333       0.40000000 </v>
   <v>       0.28000000       0.13333333       0.40000000 </v>
   <v>       0.32000000       0.13333333       0.40000000 </v>
   <v>       0.36000000       0.13333333       0.40000000 </v>
   <v>       0.40000000       0.13333333       0.40000000 </v>
   <v>       0.44000000       0.13333333       0.40000000 </v>
   <v>       0.48000000       0.13333333       0.40000000 </v>
   <v>       0.00000000       0.20000000       0.40000000 </v>
   <v>       0.04000000       0.20000000       0.40000000 </v>
   <v>       0.08000000       0.20000000       0.40000000 </v>
   <v>       0.12000000       0.20000000       0.40000000 </v>
   <v>       0.16000000       0.20000000       0.40000000 </v>
   <v>       0.20000000       0.20000000       0.40000000 </v>
   <v>       0.24000000       0.20000000       0.40000000 </v>
   <v>       0.28000000       0.20000000       0.40000000 </v>
   <v>       0.32000000       0.20000000       0.40000000 </v>
   <v>       0.36000000       0.20000000       0.40000000 </v>
   <v>       0.40000000       0.20000000       0.40000000 </v>
   <v>       0.44000000       0.20000000       0.40000000 </v>
   <v>       0.48000000       0.20000000       0.40000000 </v>
   <v>       0.00000000       0.26666667       0.40000000 </v>
   <v>       0.04000000       0.26666667       0.40000000 </v>
   <v>       0.08000000       0.26666667       0.40000000 </v>
   <v>       0.12000000       0.26666667       0.40000000 </v>
   <v>       0.16000000       0.26666667       0.40000000 </v>
   <v>       0.20000000       0.26666667       0.40000000 </v>
   <v>       0.24000000       0.26666667       0.40000000 </v>
   <v>       0.28000000       0.26666667       0.40000000 </v>
   <v>       0.32000000       0.26666667       0.40000000 </v>
   <v>       0.36000000       0.26666667       0.40000000 </v>
   <v>       0.40000000       0.26666667       0.40000000 </v>
   <v>       0.44000000       0.26666667       0.40000000 </v>
   <v>       0.48000000       0.26666667       0.40000000 </v>
   <v>       0.00000000       0.33333333       0.40000000 </v>
   <v>       0.04000000       0.33333333       0.40000000 </v>
   <v>       0.08000000       0.33333333       0.40000000 </v>
   <v>       0.12000000       0.33333333       0.40000000 </v>
   <v>       0.16000000       0.33333333       0.40000000 </v>
   <v>       0.20000000       0.33333333       0.40000000 </v>
   <v>       0.24000000       0.33333333       0.40000000 </v>
   <v>       0.28000000       0.33333333       0.40000000 </v>
   <v>       0.32000000       0.33333333       0.40000000 </v>
   <v>       0.36000000       0.33333333       0.40000000 </v>
   <v>       0.40000000       0.33333333       0.40000000 </v>
   <v>       0.44000000       0.33333333       0.40000000 </v>
   <v>       0.48000000       0.33333333       0.40000000 </v>
   <v>       0.00000000       0.40000000       0.40000000 </v>
   <v>       0.04000000       0.40000000       0.40000000 </v>
   <v>       0.08000000       0.40000000       0.40000000 </v>
   <v>       0.12000000       0.40000000       0.40000000 </v>
   <v>       0.16000000       0.40000000       0.40000000 </v>
   <v>       0.20000000       0.40000000       0.40000000 </v>
   <v>       0.24000000       0.40000000       0.40000000 </v>
   <v>       0.28000000       0.40000000       0.40000000 </v>
   <v>       0.32000000       0.40000000       0.40000000 </v>
   <v>       0.36000000       0.40000000       0.40000000 </v>
   <v>       0.40000000       0.40000000       0.40000000 </v>
   <v>       0.44000000       0.40000000       0.40000000 </v>
   <v>       0.48000000       0.40000000       0.40000000 </v>
   <v>       0.00000000       0.46666667       0.40000000 </v>
   <v>       0.04000000       0.46666667       0.40000000 </v>
   <v>       0.08000000       0.46666667       0.40000000 </v>
   <v>       0.12000000       0.46666667       0.40000000 </v>
   <v>       0.16000000       0.46666667       0.40000000 </v>
   <v>       0.20000000       0.46666667       0.40000000 </v>
   <v>       0.24000000       0.46666667       0.40000000 </v>
   <v>       0.28000000       0.46666667       0.40000000 </v>
   <v>       0.32000000       0.46666667       0.40000000 </v>
   <v>       0.36000000       0.46666667       0.40000000 </v>
   <v>       0.40000000       0.46666667       0.40000000 </v>
   <v>       0.44000000       0.46666667       0.40000000 </v>
   <v>       0.48000000       0.46666667       0.40000000 </v>
   <v>       0.00000000      -0.46666667       0.40000000 </v>
   <v>       0.04000000      -0.46666667       0.40000000 </v>
   <v>       0.08000000      -0.46666667       0.40000000 </v>
   <v>       0.12000000      -0.46666667       0.40000000 </v>
   <v>       0.16000000      -0.46666667       0.40000000 </v>
   <v>       0.20000000      -0.46666667       0.40000000 </v>
   <v>       0.24000000      -0.46666667       0.40000000 </v>
   <v>       0.28000000      -0.46666667       0.40000000 </v>
   <v>       0.32000000      -0.46666667       0.40000000 </v>
   <v>       0.36000000      -0.46666667       0.40000000 </v>
   <v>       0.40000000      -0.46666667       0.40000000 </v>
   <v>       0.44000000      -0.46666667       0.40000000 </v>
   <v>       0.48000000      -0.46666667       0.40000000 </v>
   <v>       0.00000000      -0.40000000       0.40000000 </v>
   <v>       0.04000000      -0.40000000       0.40000000 </v>
   <v>       0.08000000      -0.40000000       0.40000000 </v>
   <v>       0.12000000      -0.40000000       0.40000000 </v>
   <v>       0.16000000      -0.40000000       0.40000000 </v>
   <v>       0.20000000      -0.40000000       0.40000000 </v>
   <v>       0.24000000      -0.40000000       0.40000000 </v>
   <v>       0.28000000      -0.40000000       0.40000000 </v>
   <v>       0.32000000      -0.40000000       0.40000000 </v>
   <v>       0.36000000      -0.40000000       0.40000000 </v>
   <v>       0.40000000      -0.40000000       0.40000000 </v>
   <v>       0.44000000      -0.40000000       0.40000000 </v>
   <v>       0.48000000      -0.40000000       0.40000000 </v>
   <v>       0.00000000      -0.33333333       0.40000000 </v>
   <v>       0.04000000      -0.33333333       0.40000000 </v>
   <v>       0.08000000      -0.33333333       0.40000000 </v>
   <v>       0.12000000      -0.33333333       0.40000000 </v>
   <v>       0.16000000      -0.33333333       0.40000000 </v>
   <v>       0.20000000      -0.33333333       0.40000000 </v>
   <v>       0.24000000      -0.33333333       0.40000000 </v>
   <v>       0.28000000      -0.33333333       0.40000000 </v>
   <v>       0.32000000      -0.33333333       0.40000000 </v>
   <v>       0.36000000      -0.33333333       0.40000000 </v>
   <v>       0.40000000      -0.33333333       0.40000000 </v>
   <v>       0.44000000      -0.33333333       0.40000000 </v>
   <v>       0.48000000      -0.33333333       0.40000000 </v>
   <v>       0.00000000      -0.26666667       0.40000000 </v>
   <v>       0.04000000      -0.26666667       0.40000000 </v>
   <v>       0.08000000      -0.26666667       0.40000000 </v>
   <v>       0.12000000      -0.26666667       0.40000000 </v>
   <v>       0.16000000      -0.26666667       0.40000000 </v>
   <v>       0.20000000      -0.26666667       0.40000000 </v>
   <v>       0.24000000      -0.26666667       0.40000000 </v>
   <v>       0.28000000      -0.26666667       0.40000000 </v>
   <v>       0.32000000      -0.26666667       0.40000000 </v>
   <v>       0.36000000      -0.26666667       0.40000000 </v>
   <v>       0.40000000      -0.26666667       0.40000000 </v>
   <v>       0.44000000      -0.26666667       0.40000000 </v>
   <v>       0.48000000      -0.26666667       0.40000000 </v>
   <v>       0.00000000      -0.20000000       0.40000000 </v>
   <v>       0.04000000      -0.20000000       0.40000000 </v>
   <v>       0.08000000      -0.20000000       0.40000000 </v>
   <v>       0.12000000      -0.20000000       0.40000000 </v>
   <v>       0.16000000      -0.20000000       0.40000000 </v>
   <v>       0.20000000      -0.20000000       0.40000000 </v>
   <v>       0.24000000      -0.20000000       0.40000000 </v>
   <v>       0.28000000      -0.20000000       0.40000000 </v>
   <v>       0.32000000      -0.20000000       0.40000000 </v>
   <v>       0.36000000      -0.20000000       0.40000000 </v>
   <v>       0.40000000      -0.20000000       0.40000000 </v>
   <v>       0.44000000      -0.20000000       0.40000000 </v>
   <v>       0.48000000      -0.20000000       0.40000000 </v>
   <v>       0.00000000      -0.13333333       0.40000000 </v>
   <v>       0.04000000      -0.13333333       0.40000000 </v>
   <v>       0.08000000      -0.13333333       0.40000000 </v>
   <v>       0.12000000      -0.13333333       0.40000000 </v>
   <v>       0.16000000      -0.13333333       0.40000000 </v>
   <v>       0.20000000      -0.13333333       0.40000000 </v>
   <v>       0.24000000      -0.13333333       0.40000000 </v>
   <v>       0.28000000      -0.13333333       0.40000000 </v>
   <v>       0.32000000      -0.13333333       0.40000000 </v>
   <v>       0.36000000      -0.13333333       0.40000000 </v>
   <v>       0.40000000      -0.13333333       0.40000000 </v>
   <v>       0.44000000      -0.13333333       0.40000000 </v>
   <v>       0.48000000      -0.13333333       0.40000000 </v>
   <v>       0.00000000      -0.06666667       0.40000000 </v>
   <v>       0.04000000      -0.06666667       0.40000000 </v>
   <v>       0.08000000      -0.06666667       0.40000000 </v>
   <v>       0.12000000      -0.06666667       0.40000000 </v>
   <v>       0.16000000      -0.06666667       0.40000000 </v>
   <v>       0.20000000      -0.06666667       0.40000000 </v>
   <v>       0.24000000      -0.06666667       0.40000000 </v>
   <v>       0.28000000      -0.06666667       0.40000000 </v>
   <v>       0.32000000      -0.06666667       0.40000000 </v>
   <v>       0.36000000      -0.06666667       0.40000000 </v>
   <v>       0.40000000      -0.06666667       0.40000000 </v>
   <v>       0.44000000      -0.06666667       0.40000000 </v>
   <v>       0.48000000      -0.06666667       0.40000000 </v>
   <v>       0.00000000       0.00000000       0.50000000 </v>
   <v>       0.04000000       0.00000000       0.50000000 </v>
   <v>       0.08000000       0.00000000       0.50000000 </v>
   <v>       0.12000000       0.00000000       0.50000000 </v>
   <v>       0.16000000       0.00000000       0.50000000 </v>
   <v>       0.20000000       0.00000000       0.50000000 </v>
   <v>       0.24000000       0.00000000       0.50000000 </v>
   <v>       0.28000000       0.00000000       0.50000000 </v>
   <v>       0.32000000       0.00000000       0.50000000 </v>
   <v>       0.36000000       0.00000000       0.50000000 </v>
   <v>       0.40000000       0.00000000       0.50000000 </v>
   <v>       0.44000000       0.00000000       0.50000000 </v>
   <v>       0.48000000       0.00000000       0.50000000 </v>
   <v>       0.00000000       0.06666667       0.50000000 </v>
   <v>       0.04000000       0.06666667       0.50000000 </v>
   <v>       0.08000000       0.06666667       0.50000000 </v>
   <v>       0.12000000       0.06666667       0.50000000 </v>
   <v>       0.16000000       0.06666667       0.50000000 </v>
   <v>       0.20000000       0.06666667       0.50000000 </v>
   <v>       0.24000000       0.06666667       0.50000000 </v>
   <v>       0.28000000       0.06666667       0.50000000 </v>
   <v>       0.32000000       0.06666667       0.50000000 </v>
   <v>       0.36000000       0.06666667       0.50000000 </v>
   <v>       0.40000000       0.06666667       0.50000000 </v>
   <v>       0.44000000       0.06666667       0.50000000 </v>
   <v>       0.48000000       0.06666667       0.50000000 </v>
   <v>       0.00000000       0.13333333       0.50000000 </v>
   <v>       0.04000000       0.13333333       0.50000000 </v>
   <v>       0.08000000       0.13333333       0.50000000 </v>
   <v>       0.12000000       0.13333333       0.50000000 </v>
   <v>       0.16000000       0.13333333       0.50000000 </v>
   <v>       0.20000000       0.13333333       0.50000000 </v>
   <v>       0.24000000       0.13333333       0.50000000 </v>
   <v>       0.28000000       0.13333333       0.50000000 </v>
   <v>       0.32000000       0.13333333       0.50000000 </v>
   <v>       0.36000000       0.13333333       0.50000000 </v>
   <v>       0.40000000       0.13333333       0.50000000 </v>
   <v>       0.44000000       0.13333333       0.50000000 </v>
   <v>       0.48000000       0.13333333       0.50000000 </v>
   <v>       0.00000000       0.20000000       0.50000000 </v>
   <v>       0.04000000       0.20000000       0.50000000 </v>
   <v>       0.08000000       0.20000000       0.50000000 </v>
   <v>       0.12000000       0.20000000       0.50000000 </v>
   <v>       0.16000000       0.20000000       0.50000000 </v>
   <v>       0.20000000       0.20000000       0.50000000 </v>
   <v>       0.24000000       0.20000000       0.50000000 </v>
   <v>       0.28000000       0.20000000       0.50000000 </v>
   <v>       0.32000000       0.20000000       0.50000000 </v>
   <v>       0.36000000       0.20000000       0.50000000 </v>
   <v>       0.40000000       0.20000000       0.50000000 </v>
   <v>       0.44000000       0.20000000       0.50000000 </v>
   <v>       0.48000000       0.20000000       0.50000000 </v>
   <v>       0.00000000       0.26666667       0.50000000 </v>
   <v>       0.04000000       0.26666667       0.50000000 </v>
   <v>       0.08000000       0.26666667       0.50000000 </v>
   <v>       0.12000000       0.26666667       0.50000000 </v>
   <v>       0.16000000       0.26666667       0.50000000 </v>
   <v>       0.20000000       0.26666667       0.50000000 </v>
   <v>       0.24000000       0.26666667       0.50000000 </v>
   <v>       0.28000000       0.26666667       0.50000000 </v>
   <v>       0.32000000       0.26666667       0.50000000 </v>
   <v>       0.36000000       0.26666667       0.50000000 </v>
   <v>       0.40000000       0.26666667       0.50000000 </v>
   <v>       0.44000000       0.26666667       0.50000000 </v>
   <v>       0.48000000       0.26666667       0.50000000 </v>
   <v>       0.00000000       0.33333333       0.50000000 </v>
   <v>       0.04000000       0.33333333       0.50000000 </v>
   <v>       0.08000000       0.33333333       0.50000000 </v>
   <v>       0.12000000       0.33333333       0.50000000 </v>
   <v>       0.16000000       0.33333333       0.50000000 </v>
   <v>       0.20000000       0.33333333       0.50000000 </v>
   <v>       0.24000000       0.33333333       0.50000000 </v>
   <v>       0.28000000       0.33333333       0.50000000 </v>
   <v>       0.32000000       0.33333333       0.50000000 </v>
   <v>       0.36000000       0.33333333       0.50000000 </v>
   <v>       0.40000000       0.33333333       0.50000000 </v>
   <v>       0.44000000       0.33333333       0.50000000 </v>
   <v>       0.48000000       0.33333333       0.50000000 </v>
   <v>       0.00000000       0.40000000       0.50000000 </v>
   <v>       0.04000000       0.40000000       0.50000000 </v>
   <v>       0.08000000       0.40000000       0.50000000 </v>
   <v>       0.12000000       0.40000000       0.50000000 </v>
   <v>       0.16000000       0.40000000       0.50000000 </v>
   <v>       0.20000000       0.40000000       0.50000000 </v>
   <v>       0.24000000       0.40000000       0.50000000 </v>
   <v>       0.28000000       0.40000000       0.50000000 </v>
   <v>       0.32000000       0.40000000       0.50000000 </v>
   <v>       0.36000000       0.40000000       0.50000000 </v>
   <v>       0.40000000       0.40000000       0.50000000 </v>
   <v>       0.44000000       0.40000000       0.50000000 </v>
   <v>       0.48000000       0.40000000       0.50000000 </v>
   <v>       0.00000000       0.46666667       0.50000000 </v>
   <v>       0.04000000       0.46666667       0.50000000 </v>
   <v>       0.08000000       0.46666667       0.50000000 </v>
   <v>       0.12000000       0.46666667       0.50000000 </v>
   <v>       0.16000000       0.46666667       0.50000000 </v>
   <v>       0.20000000       0.46666667       0.50000000 </v>
   <v>       0.24000000       0.46666667       0.50000000 </v>
   <v>       0.28000000       0.46666667       0.50000000 </v>
   <v>       0.32000000       0.46666667       0.50000000 </v>
   <v>       0.36000000       0.46666667       0.50000000 </v>
   <v>       0.40000000       0.46666667       0.50000000 </v>
   <v>       0.44000000       0.46666667       0.50000000 </v>
   <v>       0.48000000       0.46666667       0.50000000 </v>
  </varray>
  <varray name="weights" >
   <v>       0.00026667 </v>
   <v>       0.00053333 </v>
   <v>       0.00053333 </v>
   <v>       0.00053333 </v>
   <v>       0.00053333 </v>
   <v>       0.00053333 </v>
   <v>       0.00053333 </v>
   <v>       0.00053333 </v>
   <v>       0.00053333 </v>
   <v>       0.00053333 </v>
   <v>       0.00053333 </v>
   <v>       0.00053333 </v>
   <v>       0.00053333 </v>
   <v>       0.00053333 </v>
   <v>       0.00106667 </v>
   <v>       0.00106667 </v>
   <v>       0.00106667 </v>
   <v>       0.00106667 </v>
   <v>       0.00106667 </v>
   <v>       0.00106667 </v>
   <v>       0.00106667 </v>
   <v>       0.00106667 </v>
   <v>       0.00106667 </v>
   <v>       0.00106667 </v>
   <v>       0.00106667 </v>
   <v>       0.00106667 </v>
   <v>       0.00053333 </v>
   <v>       0.00106667 </v>
   <v>       0.00106667 </v>
   <v>       0.00106667 </v>
   <v>       0.00106667 </v>
   <v>       0.00106667 </v>
   <v>       0.00106667 </v>
   <v>       0.00106667 </v>
   <v>       0.00106667 </v>
   <v>       0.00106667 </v>
   <v>       0.00106667 </v>
   <v>       0.00106667 </v>
   <v>       0.00106667 </v>
   <v>       0.00053333 </v>
   <v>       0.00106667 </v>
   <v>       0.00106667 </v>
   <v>       0.00106667 </v>
   <v>       0.00106667 </v>
   <v>       0.00106667 </v>
   <v>       0.00106667 </v>
   <v>       0.00106667 </v>
   <v>       0.00106667 </v>
   <v>       0.00106667 </v>
   <v>       0.00106667 </v>
   <v>       0.00106667 </v>
   <v>       0.00106667 </v>
   <v>       0.00053333 </v>
   <v>       0.00106667 </v>
   <v>       0.00106667 </v>
   <v>       0.00106667 </v>
   <v>       0.00106667 </v>
   <v>       0.00106667 </v>
   <v>       0.00106667 </v>
   <v>       0.00106667 </v>
   <v>       0.00106667 </v>
   <v>       0.00106667 </v>
   <v>       0.00106667 </v>
   <v>       0.00106667 </v>
   <v>       0.00106667 </v>
   <v>       0.00053333 </v>
   <v>       0.00106667 </v>
   <v>       0.00106667 </v>
   <v>       0.00106667 </v>
   <v>       0.00106667 </v>
   <v>       0.00106667 </v>
   <v>       0.00106667 </v>
   <v>       0.00106667 </v>
   <v>       0.00106667 </v>
   <v>       0.00106667 </v>
   <v>       0.00106667 </v>
   <v>       0.00106667 </v>
   <v>       0.00106667 </v>
   <v>       0.00053333 </v>
   <v>       0.00106667 </v>
   <v>       0.00106667 </v>
   <v>       0.00106667 </v>
   <v>       0.00106667 </v>
   <v>       0.00106667 </v>
   <v>       0.00106667 </v>
   <v>       0.00106667 </v>
   <v>       0.00106667 </v>
   <v>       0.00106667 </v>
   <v>       0.00106667 </v>
   <v>       0.00106667 </v>
   <v>       0.00106667 </v>
   <v>       0.00053333 </v>
   <v>       0.00106667 </v>
   <v>       0.00106667 </v>
   <v>       0.00106667 </v>
   <v>       0.00106667 </v>
   <v>       0.00106667 </v>
   <v>       0.00106667 </v>
   <v>       0.00106667 </v>
   <v>       0.00106667 </v>
   <v>       0.00106667 </v>
   <v>       0.00106667 </v>
   <v>       0.00106667 </v>
   <v>       0.00106667 </v>
   <v>       0.00053333 </v>
   <v>       0.00106667 </v>
   <v>       0.00106667 </v>
   <v>       0.00106667 </v>
   <v>       0.00106667 </v>
   <v>       0.00106667 </v>
   <v>       0.00106667 </v>
   <v>       0.00106667 </v>
   <v>       0.00106667 </v>
   <v>       0.00106667 </v>
   <v>       0.00106667 </v>
   <v>       0.00106667 </v>
   <v>       0.00106667 </v>
   <v>       0.00053333 </v>
   <v>       0.00106667 </v>
   <v>       0.00106667 </v>
   <v>       0.00106667 </v>
   <v>       0.00106667 </v>
   <v>       0.00106667 </v>
   <v>       0.00106667 </v>
   <v>       0.00106667 </v>
   <v>       0.00106667 </v>
   <v>       0.00106667 </v>
   <v>       0.00106667 </v>
   <v>       0.00106667 </v>
   <v>       0.00106667 </v>
   <v>       0.00053333 </v>
   <v>       0.00106667 </v>
   <v>       0.00106667 </v>
   <v>       0.00106667 </v>
   <v>       0.00106667 </v>
   <v>       0.00106667 </v>
   <v>       0.00106667 </v>
   <v>       0.00106667 </v>
   <v>       0.00106667 </v>
   <v>       0.00106667 </v>
   <v>       0.00106667 </v>
   <v>       0.00106667 </v>
   <v>       0.00106667 </v>
   <v>       0.00053333 </v>
   <v>       0.00106667 </v>
   <v>       0.00106667 </v>
   <v>       0.00106667 </v>
   <v>       0.00106667 </v>
   <v>       0.00106667 </v>
   <v>       0.00106667 </v>
   <v>       0.00106667 </v>
   <v>       0.00106667 </v>
   <v>       0.00106667 </v>
   <v>       0.00106667 </v>
   <v>       0.00106667 </v>
   <v>       0.00106667 </v>
   <v>       0.00053333 </v>
   <v>       0.00106667 </v>
   <v>       0.00106667 </v>
   <v>       0.00106667 </v>
   <v>       0.00106667 </v>
   <v>       0.00106667 </v>
   <v>       0.00106667 </v>
   <v>       0.00106667 </v>
   <v>       0.00106667 </v>
   <v>       0.00106667 </v>
   <v>       0.00106667 </v>
   <v>       0.00106667 </v>
   <v>       0.00106667 </v>
   <v>       0.00053333 </v>
   <v>       0.00106667 </v>
   <v>       0.00106667 </v>
   <v>       0.00106667 </v>
   <v>       0.00106667 </v>
   <v>       0.00106667 </v>
   <v>       0.00106667 </v>
   <v>       0.00106667 </v>
   <v>       0.00106667 </v>
   <v>       0.00106667 </v>
   <v>       0.00106667 </v>
   <v>       0.00106667 </v>
   <v>       0.00106667 </v>
   <v>       0.00053333 </v>
   <v>       0.00106667 </v>
   <v>       0.00106667 </v>
   <v>       0.00106667 </v>
   <v>       0.00106667 </v>
   <v>       0.00106667 </v>
   <v>       0.00106667 </v>
   <v>       0.00106667 </v>
   <v>       0.00106667 </v>
   <v>       0.00106667 </v>
   <v>       0.00106667 </v>
   <v>       0.00106667 </v>
   <v>       0.00106667 </v>
   <v>       0.00053333 </v>
   <v>       0.00106667 </v>
   <v>       0.00106667 </v>
   <v>       0.00106667 </v>
   <v>       0.00106667 </v>
   <v>       0.00106667 </v>
   <v>       0.00106667 </v>
   <v>       0.00106667 </v>
   <v>       0.00106667 </v>
   <v>       0.00106667 </v>
   <v>       0.00106667 </v>
   <v>       0.00106667 </v>
   <v>       0.00106667 </v>
   <v>       0.00053333 </v>
   <v>       0.00106667 </v>
   <v>       0.00106667 </v>
   <v>       0.00106667 </v>
   <v>       0.00106667 </v>
   <v>       0.00106667 </v>
   <v>       0.00106667 </v>
   <v>       0.00106667 </v>
   <v>       0.00106667 </v>
   <v>       0.00106667 </v>
   <v>       0.00106667 </v>
   <v>       0.00106667 </v>
   <v>       0.00106667 </v>
   <v>       0.00053333 </v>
   <v>       0.00106667 </v>
   <v>       0.00106667 </v>
   <v>       0.00106667 </v>
   <v>       0.00106667 </v>
   <v>       0.00106667 </v>
   <v>       0.00106667 </v>
   <v>       0.00106667 </v>
   <v>       0.00106667 </v>
   <v>       0.00106667 </v>
   <v>       0.00106667 </v>
   <v>       0.00106667 </v>
   <v>       0.00106667 </v>
   <v>       0.00053333 </v>
   <v>       0.00106667 </v>
   <v>       0.00106667 </v>
   <v>       0.00106667 </v>
   <v>       0.00106667 </v>
   <v>       0.00106667 </v>
   <v>       0.00106667 </v>
   <v>       0.00106667 </v>
   <v>       0.00106667 </v>
   <v>       0.00106667 </v>
   <v>       0.00106667 </v>
   <v>       0.00106667 </v>
   <v>       0.00106667 </v>
   <v>       0.00053333 </v>
   <v>       0.00106667 </v>
   <v>       0.00106667 </v>
   <v>       0.00106667 </v>
   <v>       0.00106667 </v>
   <v>       0.00106667 </v>
   <v>       0.00106667 </v>
   <v>       0.00106667 </v>
   <v>       0.00106667 </v>
   <v>       0.00106667 </v>
   <v>       0.00106667 </v>
   <v>       0.00106667 </v>
   <v>       0.00106667 </v>
   <v>       0.00053333 </v>
   <v>       0.00106667 </v>
   <v>       0.00106667 </v>
   <v>       0.00106667 </v>
   <v>       0.00106667 </v>
   <v>       0.00106667 </v>
   <v>       0.00106667 </v>
   <v>       0.00106667 </v>
   <v>       0.00106667 </v>
   <v>       0.00106667 </v>
   <v>       0.00106667 </v>
   <v>       0.00106667 </v>
   <v>       0.00106667 </v>
   <v>       0.00053333 </v>
   <v>       0.00106667 </v>
   <v>       0.00106667 </v>
   <v>       0.00106667 </v>
   <v>       0.00106667 </v>
   <v>       0.00106667 </v>
   <v>       0.00106667 </v>
   <v>       0.00106667 </v>
   <v>       0.00106667 </v>
   <v>       0.00106667 </v>
   <v>       0.00106667 </v>
   <v>       0.00106667 </v>
   <v>       0.00106667 </v>
   <v>       0.00053333 </v>
   <v>       0.00106667 </v>
   <v>       0.00106667 </v>
   <v>       0.00106667 </v>
   <v>       0.00106667 </v>
   <v>       0.00106667 </v>
   <v>       0.00106667 </v>
   <v>       0.00106667 </v>
   <v>       0.00106667 </v>
   <v>       0.00106667 </v>
   <v>       0.00106667 </v>
   <v>       0.00106667 </v>
   <v>       0.00106667 </v>
   <v>       0.00053333 </v>
   <v>       0.00106667 </v>
   <v>       0.00106667 </v>
   <v>       0.00106667 </v>
   <v>       0.00106667 </v>
   <v>       0.00106667 </v>
   <v>       0.00106667 </v>
   <v>       0.00106667 </v>
   <v>       0.00106667 </v>
   <v>       0.00106667 </v>
   <v>       0.00106667 </v>
   <v>       0.00106667 </v>
   <v>       0.00106667 </v>
   <v>       0.00053333 </v>
   <v>       0.00106667 </v>
   <v>       0.00106667 </v>
   <v>       0.00106667 </v>
   <v>       0.00106667 </v>
   <v>       0.00106667 </v>
   <v>       0.00106667 </v>
   <v>       0.00106667 </v>
   <v>       0.00106667 </v>
   <v>       0.00106667 </v>
   <v>       0.00106667 </v>
   <v>       0.00106667 </v>
   <v>       0.00106667 </v>
   <v>       0.00053333 </v>
   <v>       0.00106667 </v>
   <v>       0.00106667 </v>
   <v>       0.00106667 </v>
   <v>       0.00106667 </v>
   <v>       0.00106667 </v>
   <v>       0.00106667 </v>
   <v>       0.00106667 </v>
   <v>       0.00106667 </v>
   <v>       0.00106667 </v>
   <v>       0.00106667 </v>
   <v>       0.00106667 </v>
   <v>       0.00106667 </v>
   <v>       0.00053333 </v>
   <v>       0.00106667 </v>
   <v>       0.00106667 </v>
   <v>       0.00106667 </v>
   <v>       0.00106667 </v>
   <v>       0.00106667 </v>
   <v>       0.00106667 </v>
   <v>       0.00106667 </v>
   <v>       0.00106667 </v>
   <v>       0.00106667 </v>
   <v>       0.00106667 </v>
   <v>       0.00106667 </v>
   <v>       0.00106667 </v>
   <v>       0.00053333 </v>
   <v>       0.00106667 </v>
   <v>       0.00106667 </v>
   <v>       0.00106667 </v>
   <v>       0.00106667 </v>
   <v>       0.00106667 </v>
   <v>       0.00106667 </v>
   <v>       0.00106667 </v>
   <v>       0.00106667 </v>
   <v>       0.00106667 </v>
   <v>       0.00106667 </v>
   <v>       0.00106667 </v>
   <v>       0.00106667 </v>
   <v>       0.00053333 </v>
   <v>       0.00106667 </v>
   <v>       0.00106667 </v>
   <v>       0.00106667 </v>
   <v>       0.00106667 </v>
   <v>       0.00106667 </v>
   <v>       0.00106667 </v>
   <v>       0.00106667 </v>
   <v>       0.00106667 </v>
   <v>       0.00106667 </v>
   <v>       0.00106667 </v>
   <v>       0.00106667 </v>
   <v>       0.00106667 </v>
   <v>       0.00053333 </v>
   <v>       0.00106667 </v>
   <v>       0.00106667 </v>
   <v>       0.00106667 </v>
   <v>       0.00106667 </v>
   <v>       0.00106667 </v>
   <v>       0.00106667 </v>
   <v>       0.00106667 </v>
   <v>       0.00106667 </v>
   <v>       0.00106667 </v>
   <v>       0.00106667 </v>
   <v>       0.00106667 </v>
   <v>       0.00106667 </v>
   <v>       0.00053333 </v>
   <v>       0.00106667 </v>
   <v>       0.00106667 </v>
   <v>       0.00106667 </v>
   <v>       0.00106667 </v>
   <v>       0.00106667 </v>
   <v>       0.00106667 </v>
   <v>       0.00106667 </v>
   <v>       0.00106667 </v>
   <v>       0.00106667 </v>
   <v>       0.00106667 </v>
   <v>       0.00106667 </v>
   <v>       0.00106667 </v>
   <v>       0.00053333 </v>
   <v>       0.00106667 </v>
   <v>       0.00106667 </v>
   <v>       0.00106667 </v>
   <v>       0.00106667 </v>
   <v>       0.00106667 </v>
   <v>       0.00106667 </v>
   <v>       0.00106667 </v>
   <v>       0.00106667 </v>
   <v>       0.00106667 </v>
   <v>       0.00106667 </v>
   <v>       0.00106667 </v>
   <v>       0.00106667 </v>
   <v>       0.00053333 </v>
   <v>       0.00106667 </v>
   <v>       0.00106667 </v>
   <v>       0.00106667 </v>
   <v>       0.00106667 </v>
   <v>       0.00106667 </v>
   <v>       0.00106667 </v>
   <v>       0.00106667 </v>
   <v>       0.00106667 </v>
   <v>       0.00106667 </v>
   <v>       0.00106667 </v>
   <v>       0.00106667 </v>
   <v>       0.00106667 </v>
   <v>       0.00053333 </v>
   <v>       0.00106667 </v>
   <v>       0.00106667 </v>
   <v>       0.00106667 </v>
   <v>       0.00106667 </v>
   <v>       0.00106667 </v>
   <v>       0.00106667 </v>
   <v>       0.00106667 </v>
   <v>       0.00106667 </v>
   <v>       0.00106667 </v>
   <v>       0.00106667 </v>
   <v>       0.00106667 </v>
   <v>       0.00106667 </v>
   <v>       0.00053333 </v>
   <v>       0.00106667 </v>
   <v>       0.00106667 </v>
   <v>       0.00106667 </v>
   <v>       0.00106667 </v>
   <v>       0.00106667 </v>
   <v>       0.00106667 </v>
   <v>       0.00106667 </v>
   <v>       0.00106667 </v>
   <v>       0.00106667 </v>
   <v>       0.00106667 </v>
   <v>       0.00106667 </v>
   <v>       0.00106667 </v>
   <v>       0.00053333 </v>
   <v>       0.00106667 </v>
   <v>       0.00106667 </v>
   <v>       0.00106667 </v>
   <v>       0.00106667 </v>
   <v>       0.00106667 </v>
   <v>       0.00106667 </v>
   <v>       0.00106667 </v>
   <v>       0.00106667 </v>
   <v>       0.00106667 </v>
   <v>       0.00106667 </v>
   <v>       0.00106667 </v>
   <v>       0.00106667 </v>
   <v>       0.00053333 </v>
   <v>       0.00106667 </v>
   <v>       0.00106667 </v>
   <v>       0.00106667 </v>
   <v>       0.00106667 </v>
   <v>       0.00106667 </v>
   <v>       0.00106667 </v>
   <v>       0.00106667 </v>
   <v>       0.00106667 </v>
   <v>       0.00106667 </v>
   <v>       0.00106667 </v>
   <v>       0.00106667 </v>
   <v>       0.00106667 </v>
   <v>       0.00053333 </v>
   <v>       0.00106667 </v>
   <v>       0.00106667 </v>
   <v>       0.00106667 </v>
   <v>       0.00106667 </v>
   <v>       0.00106667 </v>
   <v>       0.00106667 </v>
   <v>       0.00106667 </v>
   <v>       0.00106667 </v>
   <v>       0.00106667 </v>
   <v>       0.00106667 </v>
   <v>       0.00106667 </v>
   <v>       0.00106667 </v>
   <v>       0.00053333 </v>
   <v>       0.00106667 </v>
   <v>       0.00106667 </v>
   <v>       0.00106667 </v>
   <v>       0.00106667 </v>
   <v>       0.00106667 </v>
   <v>       0.00106667 </v>
   <v>       0.00106667 </v>
   <v>       0.00106667 </v>
   <v>       0.00106667 </v>
   <v>       0.00106667 </v>
   <v>       0.00106667 </v>
   <v>       0.00106667 </v>
   <v>       0.00053333 </v>
   <v>       0.00106667 </v>
   <v>       0.00106667 </v>
   <v>       0.00106667 </v>
   <v>       0.00106667 </v>
   <v>       0.00106667 </v>
   <v>       0.00106667 </v>
   <v>       0.00106667 </v>
   <v>       0.00106667 </v>
   <v>       0.00106667 </v>
   <v>       0.00106667 </v>
   <v>       0.00106667 </v>
   <v>       0.00106667 </v>
   <v>       0.00053333 </v>
   <v>       0.00106667 </v>
   <v>       0.00106667 </v>
   <v>       0.00106667 </v>
   <v>       0.00106667 </v>
   <v>       0.00106667 </v>
   <v>       0.00106667 </v>
   <v>       0.00106667 </v>
   <v>       0.00106667 </v>
   <v>       0.00106667 </v>
   <v>       0.00106667 </v>
   <v>       0.00106667 </v>
   <v>       0.00106667 </v>
   <v>       0.00053333 </v>
   <v>       0.00106667 </v>
   <v>       0.00106667 </v>
   <v>       0.00106667 </v>
   <v>       0.00106667 </v>
   <v>       0.00106667 </v>
   <v>       0.00106667 </v>
   <v>       0.00106667 </v>
   <v>       0.00106667 </v>
   <v>       0.00106667 </v>
   <v>       0.00106667 </v>
   <v>       0.00106667 </v>
   <v>       0.00106667 </v>
   <v>       0.00053333 </v>
   <v>       0.00106667 </v>
   <v>       0.00106667 </v>
   <v>       0.00106667 </v>
   <v>       0.00106667 </v>
[...]
       <r>    5.2785    1.0000 </r>
       <r>    5.4766    1.0000 </r>
       <r>    5.5311    1.0000 </r>
       <r>    5.5789    1.0000 </r>
       <r>    5.7881    1.0000 </r>
       <r>    5.8048    1.0000 </r>
       <r>    5.8762    1.0000 </r>
       <r>    5.9207    1.0000 </r>
       <r>    5.9911    1.0000 </r>
       <r>    6.5503    1.0000 </r>
       <r>    6.7909    1.0002 </r>
       <r>    7.2069    1.0269 </r>
       <r>    7.3592    1.0260 </r>
       <r>    9.9477    0.0000 </r>
       <r>   10.7695    0.0000 </r>
       <r>   12.2274    0.0000 </r>
       <r>   12.7565    0.0000 </r>
       <r>   13.5106    0.0000 </r>
       <r>   13.8406    0.0000 </r>
      </set>
      <set comment="kpoint 987">
       <r>    1.4236    1.0000 </r>
       <r>    1.6273    1.0000 </r>
       <r>    1.7095    1.0000 </r>
       <r>    1.9265    1.0000 </r>
       <r>    2.1907    1.0000 </r>
       <r>    2.5552    1.0000 </r>
       <r>    2.6009    1.0000 </r>
       <r>    2.6152    1.0000 </r>
       <r>    2.6418    1.0000 </r>
       <r>    2.9323    1.0000 </r>
       <r>    3.2412    1.0000 </r>
       <r>    3.3598    1.0000 </r>
       <r>    3.7893    1.0000 </r>
       <r>    3.9261    1.0000 </r>
       <r>    4.2511    1.0000 </r>
       <r>    4.5006    1.0000 </r>
       <r>    4.5722    1.0000 </r>
       <r>    5.0067    1.0000 </r>
       <r>    5.0857    1.0000 </r>
       <r>    5.2315    1.0000 </r>
       <r>    5.2709    1.0000 </r>
       <r>    5.3743    1.0000 </r>
       <r>    5.4824    1.0000 </r>
       <r>    5.5441    1.0000 </r>
       <r>    5.5825    1.0000 </r>
       <r>    5.8235    1.0000 </r>
       <r>    5.8815    1.0000 </r>
       <r>    5.9002    1.0000 </r>
       <r>    5.9280    1.0000 </r>
       <r>    6.0036    1.0000 </r>
       <r>    6.9128    1.0012 </r>
       <r>    7.1866    1.0238 </r>
       <r>    7.5029    0.8861 </r>
       <r>    7.8406    0.0818 </r>
       <r>    9.2504    0.0000 </r>
       <r>   10.0159    0.0000 </r>
       <r>   11.6744    0.0000 </r>
       <r>   12.1102    0.0000 </r>
       <r>   13.9316    0.0000 </r>
       <r>   14.2577    0.0000 </r>
      </set>
      <set comment="kpoint 988">
       <r>    1.3966    1.0000 </r>
       <r>    1.6264    1.0000 </r>
       <r>    1.6749    1.0000 </r>
       <r>    1.8887    1.0000 </r>
       <r>    2.1812    1.0000 </r>
       <r>    2.5568    1.0000 </r>
       <r>    2.5711    1.0000 </r>
       <r>    2.6278    1.0000 </r>
       <r>    2.6388    1.0000 </r>
       <r>    2.9377    1.0000 </r>
       <r>    3.2409    1.0000 </r>
       <r>    3.3578    1.0000 </r>
       <r>    3.8198    1.0000 </r>
       <r>    3.9467    1.0000 </r>
       <r>    4.2792    1.0000 </r>
       <r>    4.5385    1.0000 </r>
       <r>    4.5729    1.0000 </r>
       <r>    5.0783    1.0000 </r>
       <r>    5.0945    1.0000 </r>
       <r>    5.2836    1.0000 </r>
       <r>    5.3705    1.0000 </r>
       <r>    5.3883    1.0000 </r>
       <r>    5.4744    1.0000 </r>
       <r>    5.5705    1.0000 </r>
       <r>    5.6026    1.0000 </r>
       <r>    5.8540    1.0000 </r>
       <r>    5.8821    1.0000 </r>
       <r>    5.9274    1.0000 </r>
       <r>    5.9347    1.0000 </r>
       <r>    6.0114    1.0000 </r>
       <r>    7.2394    1.0315 </r>
       <r>    7.3908    1.0120 </r>
       <r>    7.9005    0.0111 </r>
       <r>    8.3998   -0.0014 </r>
       <r>    8.6355    0.0000 </r>
       <r>    9.2505    0.0000 </r>
       <r>   11.3908    0.0000 </r>
       <r>   11.6944    0.0000 </r>
       <r>   14.4445    0.0000 </r>
       <r>   14.7352    0.0000 </r>
      </set>
     </set>
    </set>
   </array>
  </eigenvalues>
  <separator name="orbital magnetization" >
   <v name="MAGDIPOLOUT">      0.00000000      0.00000000      0.00000000</v>
  </separator>
  <dos>
   <i name="efermi">      7.66185532 </i>
   <total>
    <array>
     <dimension dim="1">gridpoints</dimension>
     <dimension dim="2">spin</dimension>
     <field>energy</field>
     <field>total</field>
     <field>integrated</field>
     <set>
      <set comment="spin 1">
       <r>    -3.5754     0.0000     0.0000 </r>
       <r>    -3.4987     0.0000     0.0000 </r>
       <r>    -3.4219     0.0000     0.0000 </r>
       <r>    -3.3452     0.0000     0.0000 </r>
       <r>    -3.2685     0.0000     0.0000 </r>
       <r>    -3.1917     0.0000     0.0000 </r>
       <r>    -3.1150     0.0000     0.0000 </r>
       <r>    -3.0382     0.0000     0.0000 </r>
       <r>    -2.9615     0.0000     0.0000 </r>
       <r>    -2.8847     0.0000     0.0000 </r>
       <r>    -2.8080     0.0000     0.0000 </r>
       <r>    -2.7312     0.0000     0.0000 </r>
       <r>    -2.6545     0.0000     0.0000 </r>
       <r>    -2.5777     0.0000     0.0000 </r>
       <r>    -2.5010     0.0000     0.0000 </r>
       <r>    -2.4243     0.0000     0.0000 </r>
       <r>    -2.3475     0.0000     0.0000 </r>
       <r>    -2.2708     0.0000     0.0000 </r>
       <r>    -2.1940     0.0000     0.0000 </r>
       <r>    -2.1173     0.0000     0.0000 </r>
       <r>    -2.0405     0.0000     0.0000 </r>
       <r>    -1.9638     0.0000     0.0000 </r>
       <r>    -1.8870     0.0000     0.0000 </r>
       <r>    -1.8103     0.0000     0.0000 </r>
       <r>    -1.7335     0.0000     0.0000 </r>
       <r>    -1.6568     0.0000     0.0000 </r>
       <r>    -1.5801     0.0000     0.0000 </r>
       <r>    -1.5033     0.0000     0.0000 </r>
       <r>    -1.4266     0.0000     0.0000 </r>
       <r>    -1.3498    -0.0001     0.0000 </r>
       <r>    -1.2731    -0.0002     0.0000 </r>
       <r>    -1.1963    -0.0005    -0.0001 </r>
       <r>    -1.1196    -0.0013    -0.0002 </r>
       <r>    -1.0428    -0.0029    -0.0004 </r>
       <r>    -0.9661    -0.0053    -0.0008 </r>
       <r>    -0.8893    -0.0077    -0.0014 </r>
       <r>    -0.8126    -0.0076    -0.0020 </r>
       <r>    -0.7359    -0.0010    -0.0021 </r>
       <r>    -0.6591     0.0169    -0.0008 </r>
       <r>    -0.5824     0.0494     0.0030 </r>
       <r>    -0.5056     0.0958     0.0104 </r>
       <r>    -0.4289     0.1517     0.0220 </r>
       <r>    -0.3521     0.2103     0.0382 </r>
       <r>    -0.2754     0.2658     0.0586 </r>
       <r>    -0.1986     0.3156     0.0828 </r>
       <r>    -0.1219     0.3596     0.1104 </r>
       <r>    -0.0451     0.3993     0.1410 </r>
       <r>     0.0316     0.4361     0.1745 </r>
       <r>     0.1083     0.4710     0.2107 </r>
       <r>     0.1851     0.5042     0.2493 </r>
       <r>     0.2618     0.5363     0.2905 </r>
       <r>     0.3386     0.5682     0.3341 </r>
       <r>     0.4153     0.6015     0.3803 </r>
       <r>     0.4921     0.6377     0.4292 </r>
       <r>     0.5688     0.6777     0.4812 </r>
       <r>     0.6456     0.7203     0.5365 </r>
       <r>     0.7223     0.7641     0.5951 </r>
       <r>     0.7991     0.8077     0.6571 </r>
       <r>     0.8758     0.8491     0.7223 </r>
       <r>     0.9525     0.8850     0.7902 </r>
       <r>     1.0293     0.9169     0.8606 </r>
       <r>     1.1060     0.9644     0.9346 </r>
       <r>     1.1828     1.0839     1.0178 </r>
       <r>     1.2595     1.3758     1.1234 </r>
       <r>     1.3363     1.9663     1.2743 </r>
       <r>     1.4130     2.9530     1.5009 </r>
       <r>     1.4898     4.3347     1.8336 </r>
       <r>     1.5665     5.9676     2.2915 </r>
       <r>     1.6432     7.5962     2.8745 </r>
       <r>     1.7200     8.9595     3.5621 </r>
       <r>     1.7967     9.9165     4.3232 </r>
       <r>     1.8735    10.5011     5.1291 </r>
       <r>     1.9502    10.8637     5.9628 </r>
       <r>     2.0270    11.1450     6.8181 </r>
       <r>     2.1037    11.3872     7.6921 </r>
       <r>     2.1805    11.5623     8.5794 </r>
       <r>     2.2572    11.6813     9.4759 </r>
       <r>     2.3340    11.8683    10.3867 </r>
       <r>     2.4107    12.3018    11.3308 </r>
       <r>     2.4874    13.0557    12.3328 </r>
       <r>     2.5642    13.9727    13.4052 </r>
       <r>     2.6409    14.6968    14.5331 </r>
       <r>     2.7177    14.8662    15.6740 </r>
       <r>     2.7944    14.3464    16.7750 </r>
       <r>     2.8712    13.3376    17.7986 </r>
       <r>     2.9479    12.2737    18.7405 </r>
       <r>     3.0247    11.5767    19.6290 </r>
       <r>     3.1014    11.4339    20.5065 </r>
       <r>     3.1782    11.7474    21.4081 </r>
       <r>     3.2549    12.2668    22.3495 </r>
       <r>     3.3316    12.7795    23.3302 </r>
       <r>     3.4084    13.2022    24.3434 </r>
       <r>     3.4851    13.5242    25.3814 </r>
       <r>     3.5619    13.6905    26.4321 </r>
       <r>     3.6386    13.5570    27.4725 </r>
       <r>     3.7154    12.9674    28.4677 </r>
       <r>     3.7921    11.8803    29.3794 </r>
       <r>     3.8689    10.4337    30.1802 </r>
       <r>     3.9456     8.9039    30.8635 </r>
       <r>     4.0224     7.6006    31.4468 </r>
       <r>     4.0991     6.7698    31.9664 </r>
       <r>     4.1758     6.5366    32.4680 </r>
       <r>     4.2526     6.8902    32.9968 </r>
       <r>     4.3293     7.7015    33.5879 </r>
       <r>     4.4061     8.7688    34.2608 </r>
       <r>     4.4828     9.8831    35.0193 </r>
       <r>     4.5596    10.8921    35.8552 </r>
       <r>     4.6363    11.7326    36.7557 </r>
       <r>     4.7131    12.4138    37.7084 </r>
       <r>     4.7898    12.9666    38.7035 </r>
       <r>     4.8666    13.4108    39.7327 </r>
       <r>     4.9433    13.7716    40.7896 </r>
       <r>     5.0200    14.1250    41.8736 </r>
       <r>     5.0968    14.6187    42.9956 </r>
       <r>     5.1735    15.4352    44.1801 </r>
       <r>     5.2503    16.7082    45.4624 </r>
       <r>     5.3270    18.4395    46.8776 </r>
       <r>     5.4038    20.4693    48.4485 </r>
       <r>     5.4805    22.5190    50.1767 </r>
       <r>     5.5573    24.2613    52.0387 </r>
       <r>     5.6340    25.3564    53.9846 </r>
       <r>     5.7108    25.4599    55.9386 </r>
       <r>     5.7875    24.2783    57.8018 </r>
       <r>     5.8642    21.7109    59.4680 </r>
       <r>     5.9410    17.9946    60.8490 </r>
       <r>     6.0177    13.7073    61.9010 </r>
       <r>     6.0945     9.5794    62.6362 </r>
       <r>     6.1712     6.2146    63.1131 </r>
       <r>     6.2480     3.8934    63.4119 </r>
       <r>     6.3247     2.5561    63.6081 </r>
       <r>     6.4015     1.9358    63.7566 </r>
       <r>     6.4782     1.7282    63.8893 </r>
       <r>     6.5550     1.7056    64.0202 </r>
       <r>     6.6317     1.7436    64.1540 </r>
       <r>     6.7084     1.7910    64.2914 </r>
       <r>     6.7852     1.8278    64.4317 </r>
       <r>     6.8619     1.8425    64.5731 </r>
       <r>     6.9387     1.8319    64.7137 </r>
       <r>     7.0154     1.8068    64.8524 </r>
       <r>     7.0922     1.7870    64.9895 </r>
       <r>     7.1689     1.7857    65.1266 </r>
       <r>     7.2457     1.7986    65.2646 </r>
       <r>     7.3224     1.8085    65.4034 </r>
       <r>     7.3992     1.8013    65.5416 </r>
       <r>     7.4759     1.7776    65.6780 </r>
       <r>     7.5526     1.7485    65.8122 </r>
       <r>     7.6294     1.7236    65.9445 </r>
       <r>     7.7061     1.7037    66.0753 </r>
       <r>     7.7829     1.6848    66.2046 </r>
       <r>     7.8596     1.6680    66.3326 </r>
       <r>     7.9364     1.6618    66.4601 </r>
       <r>     8.0131     1.6743    66.5886 </r>
       <r>     8.0899     1.7039    66.7194 </r>
       <r>     8.1666     1.7379    66.8527 </r>
       <r>     8.2433     1.7605    66.9879 </r>
       <r>     8.3201     1.7615    67.1230 </r>
       <r>     8.3968     1.7393    67.2565 </r>
       <r>     8.4736     1.7000    67.3870 </r>
       <r>     8.5503     1.6551    67.5140 </r>
       <r>     8.6271     1.6201    67.6383 </r>
       <r>     8.7038     1.6088    67.7618 </r>
       <r>     8.7806     1.6262    67.8866 </r>
       <r>     8.8573     1.6621    68.0142 </r>
       <r>     8.9341     1.6937    68.1442 </r>
       <r>     9.0108     1.6962    68.2743 </r>
       <r>     9.0875     1.6561    68.4014 </r>
       <r>     9.1643     1.5792    68.5226 </r>
       <r>     9.2410     1.4885    68.6369 </r>
       <r>     9.3178     1.4139    68.7454 </r>
       <r>     9.3945     1.3774    68.8511 </r>
       <r>     9.4713     1.3822    68.9572 </r>
       <r>     9.5480     1.4112    69.0655 </r>
       <r>     9.6248     1.4365    69.1757 </r>
       <r>     9.7015     1.4356    69.2859 </r>
       <r>     9.7783     1.4029    69.3935 </r>
       <r>     9.8550     1.3502    69.4972 </r>
       <r>     9.9317     1.2965    69.5967 </r>
       <r>    10.0085     1.2566    69.6931 </r>
       <r>    10.0852     1.2347    69.7879 </r>
       <r>    10.1620     1.2269    69.8820 </r>
       <r>    10.2387     1.2258    69.9761 </r>
       <r>    10.3155     1.2245    70.0701 </r>
       <r>    10.3922     1.2193    70.1636 </r>
       <r>    10.4690     1.2110    70.2566 </r>
       <r>    10.5457     1.2050    70.3491 </r>
       <r>    10.6225     1.2085    70.4418 </r>
       <r>    10.6992     1.2258    70.5359 </r>
       <r>    10.7759     1.2557    70.6322 </r>
       <r>    10.8527     1.2902    70.7313 </r>
       <r>    10.9294     1.3157    70.8322 </r>
       <r>    11.0062     1.3183    70.9334 </r>
       <r>    11.0829     1.2919    71.0326 </r>
       <r>    11.1597     1.2449    71.1281 </r>
       <r>    11.2364     1.2011    71.2203 </r>
       <r>    11.3132     1.1893    71.3116 </r>
       <r>    11.3899     1.2308    71.4060 </r>
       <r>    11.4667     1.3282    71.5079 </r>
       <r>    11.5434     1.4659    71.6204 </r>
       <r>    11.6201     1.6172    71.7446 </r>
       <r>    11.6969     1.7552    71.8793 </r>
       <r>    11.7736     1.8598    72.0220 </r>
       <r>    11.8504     1.9216    72.1695 </r>
       <r>    11.9271     1.9427    72.3186 </r>
       <r>    12.0039     1.9351    72.4671 </r>
       <r>    12.0806     1.9144    72.6140 </r>
       <r>    12.1574     1.8917    72.7592 </r>
       <r>    12.2341     1.8677    72.9025 </r>
       <r>    12.3109     1.8373    73.0435 </r>
       <r>    12.3876     1.7992    73.1816 </r>
       <r>    12.4643     1.7616    73.3168 </r>
       <r>    12.5411     1.7371    73.4501 </r>
       <r>    12.6178     1.7308    73.5829 </r>
       <r>    12.6946     1.7362    73.7162 </r>
       <r>    12.7713     1.7426    73.8499 </r>
       <r>    12.8481     1.7487    73.9841 </r>
       <r>    12.9248     1.7670    74.1197 </r>
       <r>    13.0016     1.8140    74.2589 </r>
       <r>    13.0783     1.8937    74.4043 </r>
       <r>    13.1551     1.9899    74.5570 </r>
       <r>    13.2318     2.0751    74.7162 </r>
       <r>    13.3085     2.1292    74.8797 </r>
       <r>    13.3853     2.1534    75.0449 </r>
       <r>    13.4620     2.1688    75.2114 </r>
       <r>    13.5388     2.2028    75.3804 </r>
       <r>    13.6155     2.2716    75.5547 </r>
       <r>    13.6923     2.3700    75.7366 </r>
       <r>    13.7690     2.4740    75.9265 </r>
       <r>    13.8458     2.5534    76.1225 </r>
       <r>    13.9225     2.5883    76.3211 </r>
       <r>    13.9993     2.5771    76.5189 </r>
       <r>    14.0760     2.5323    76.7132 </r>
       <r>    14.1527     2.4701    76.9028 </r>
       <r>    14.2295     2.4028    77.0872 </r>
       <r>    14.3062     2.3388    77.2667 </r>
       <r>    14.3830     2.2834    77.4419 </r>
       <r>    14.4597     2.2383    77.6137 </r>
       <r>    14.5365     2.1976    77.7824 </r>
       <r>    14.6132     2.1492    77.9473 </r>
       <r>    14.6900     2.0807    78.1070 </r>
       <r>    14.7667     1.9878    78.2595 </r>
       <r>    14.8434     1.8778    78.4037 </r>
       <r>    14.9202     1.7638    78.5390 </r>
       <r>    14.9969     1.6556    78.6661 </r>
       <r>    15.0737     1.5563    78.7855 </r>
       <r>    15.1504     1.4665    78.8981 </r>
       <r>    15.2272     1.3904    79.0048 </r>
       <r>    15.3039     1.3380    79.1075 </r>
       <r>    15.3807     1.3197    79.2087 </r>
       <r>    15.4574     1.3404    79.3116 </r>
       <r>    15.5342     1.3930    79.4185 </r>
       <r>    15.6109     1.4532    79.5300 </r>
       <r>    15.6876     1.4781    79.6435 </r>
       <r>    15.7644     1.4182    79.7523 </r>
       <r>    15.8411     1.2426    79.8477 </r>
       <r>    15.9179     0.9638    79.9216 </r>
       <r>    15.9946     0.6392    79.9707 </r>
       <r>    16.0714     0.3432    79.9970 </r>
       <r>    16.1481     0.1297    80.0070 </r>
       <r>    16.2249     0.0118    80.0079 </r>
       <r>    16.3016    -0.0314    80.0055 </r>
       <r>    16.3784    -0.0335    80.0029 </r>
       <r>    16.4551    -0.0215    80.0013 </r>
       <r>    16.5318    -0.0101    80.0005 </r>
       <r>    16.6086    -0.0035    80.0002 </r>
       <r>    16.6853    -0.0009    80.0002 </r>
       <r>    16.7621    -0.0004    80.0001 </r>
       <r>    16.8388    -0.0005    80.0001 </r>
       <r>    16.9156    -0.0005    80.0001 </r>
       <r>    16.9923    -0.0004    80.0000 </r>
       <r>    17.0691    -0.0002    80.0000 </r>
       <r>    17.1458    -0.0001    80.0000 </r>
       <r>    17.2226     0.0000    80.0000 </r>
       <r>    17.2993     0.0000    80.0000 </r>
       <r>    17.3760     0.0000    80.0000 </r>
       <r>    17.4528     0.0000    80.0000 </r>
       <r>    17.5295     0.0000    80.0000 </r>
       <r>    17.6063     0.0000    80.0000 </r>
       <r>    17.6830     0.0000    80.0000 </r>
       <r>    17.7598     0.0000    80.0000 </r>
       <r>    17.8365     0.0000    80.0000 </r>
       <r>    17.9133     0.0000    80.0000 </r>
       <r>    17.9900     0.0000    80.0000 </r>
       <r>    18.0668     0.0000    80.0000 </r>
       <r>    18.1435     0.0000    80.0000 </r>
       <r>    18.2202     0.0000    80.0000 </r>
       <r>    18.2970     0.0000    80.0000 </r>
       <r>    18.3737     0.0000    80.0000 </r>
       <r>    18.4505     0.0000    80.0000 </r>
       <r>    18.5272     0.0000    80.0000 </r>
       <r>    18.6040     0.0000    80.0000 </r>
       <r>    18.6807     0.0000    80.0000 </r>
       <r>    18.7575     0.0000    80.0000 </r>
       <r>    18.8342     0.0000    80.0000 </r>
       <r>    18.9110     0.0000    80.0000 </r>
       <r>    18.9877     0.0000    80.0000 </r>
       <r>    19.0644     0.0000    80.0000 </r>
       <r>    19.1412     0.0000    80.0000 </r>
       <r>    19.2179     0.0000    80.0000 </r>
       <r>    19.2947     0.0000    80.0000 </r>
       <r>    19.3714     0.0000    80.0000 </r>
       <r>    19.4482     0.0000    80.0000 </r>
      </set>
     </set>
    </array>
   </total>
  </dos>
 </calculation>
 <structure name="finalpos" >
  <crystal>
   <varray name="basis" >
    <v>       0.00000000      -2.00392670      -2.00392670 </v>
    <v>      -3.52478371       2.11261795      -2.11261795 </v>
    <v>       3.53993362       4.23311930      -4.23311930 </v>
   </varray>
   <i name="volume">     89.77333987 </i>
   <varray name="rec_basis" >
    <v>       0.00000000      -0.24951012      -0.24951012 </v>
    <v>      -0.18898396       0.07901864      -0.07901864 </v>
    <v>       0.09431601       0.07868047      -0.07868047 </v>
   </varray>
  </crystal>
  <varray name="positions" >
   <v>       0.50000000       0.52104401       0.03546556 </v>
   <v>       0.00000000       0.33333333       0.33333333 </v>
   <v>       0.50000000       0.14562266       0.63120110 </v>
   <v>       0.00000000       0.04364801       0.97166297 </v>
   <v>       0.50000000       0.83333333       0.33333333 </v>
   <v>       0.00000000       0.62301866       0.69500370 </v>
  </varray>
 </structure>
</modeling>
