<?xml version="1.0" encoding="ISO-8859-1"?>
<modeling>
 <generator>
  <i name="program" type="string">vasp </i>
  <i name="version" type="string">5.3.5  </i>
  <i name="subversion" type="string">31Mar14 (build Jun 20 2014 13:15:13) complex                          parallel </i>
  <i name="platform" type="string">LinuxIFC </i>
  <i name="date" type="string">2025 11 27 </i>
  <i name="time" type="string">09:32:58 </i>
 </generator>
 <incar>
  <i type="string" name="PREC">accurate</i>
  <i type="int" name="IALGO">    68</i>
  <i type="logical" name="ADDGRID"> T  </i>
  <i type="int" name="NELM">   200</i>
  <i type="int" name="NELMIN">     4</i>
  <i type="int" name="IBRION">     2</i>
  <i name="EDIFF">      0.00000100</i>
  <i name="EDIFFG">     -0.02000000</i>
  <i type="int" name="NSW">    30</i>
  <i type="int" name="ISIF">     3</i>
  <i name="ENCUT">    500.00000000</i>
  <i type="logical" name="LREAL"> F  </i>
  <i type="int" name="ISMEAR">     1</i>
  <i name="SIGMA">      0.30000000</i>
  <i type="logical" name="LWAVE"> F  </i>
  <i type="logical" name="LCHARG"> F  </i>
  <i type="int" name="NELM">   200</i>
 </incar>
 <kpoints>
  <generation param="Auto">
   <i name="subdivisionlength">     70.00000000 </i>
   <v type="int" name="divisions">      24       19        8 </v>
   <v name="usershift">      0.00000000       0.00000000       0.00000000 </v>
   <v name="genvec1">      0.04166667       0.00000000       0.00000000 </v>
   <v name="genvec2">      0.00000000       0.05263158       0.00000000 </v>
   <v name="genvec3">      0.00000000       0.00000000       0.12500000 </v>
   <v name="shift">      0.00000000       0.00000000       0.00000000 </v>
  </generation>
  <varray name="kpointlist" >
   <v>       0.00000000       0.00000000       0.00000000 </v>
   <v>       0.04166667       0.00000000       0.00000000 </v>
   <v>       0.08333333       0.00000000       0.00000000 </v>
   <v>       0.12500000       0.00000000       0.00000000 </v>
   <v>       0.16666667       0.00000000       0.00000000 </v>
   <v>       0.20833333       0.00000000       0.00000000 </v>
   <v>       0.25000000       0.00000000       0.00000000 </v>
   <v>       0.29166667       0.00000000       0.00000000 </v>
   <v>       0.33333333       0.00000000       0.00000000 </v>
   <v>       0.37500000       0.00000000       0.00000000 </v>
   <v>       0.41666667       0.00000000       0.00000000 </v>
   <v>       0.45833333       0.00000000       0.00000000 </v>
   <v>       0.50000000       0.00000000       0.00000000 </v>
   <v>       0.00000000       0.05263158       0.00000000 </v>
   <v>       0.04166667       0.05263158       0.00000000 </v>
   <v>       0.08333333       0.05263158       0.00000000 </v>
   <v>       0.12500000       0.05263158       0.00000000 </v>
   <v>       0.16666667       0.05263158       0.00000000 </v>
   <v>       0.20833333       0.05263158       0.00000000 </v>
   <v>       0.25000000       0.05263158       0.00000000 </v>
   <v>       0.29166667       0.05263158       0.00000000 </v>
   <v>       0.33333333       0.05263158       0.00000000 </v>
   <v>       0.37500000       0.05263158       0.00000000 </v>
   <v>       0.41666667       0.05263158       0.00000000 </v>
   <v>       0.45833333       0.05263158       0.00000000 </v>
   <v>       0.50000000       0.05263158       0.00000000 </v>
   <v>       0.00000000       0.10526316       0.00000000 </v>
   <v>       0.04166667       0.10526316       0.00000000 </v>
   <v>       0.08333333       0.10526316       0.00000000 </v>
   <v>       0.12500000       0.10526316       0.00000000 </v>
   <v>       0.16666667       0.10526316       0.00000000 </v>
   <v>       0.20833333       0.10526316       0.00000000 </v>
   <v>       0.25000000       0.10526316       0.00000000 </v>
   <v>       0.29166667       0.10526316       0.00000000 </v>
   <v>       0.33333333       0.10526316       0.00000000 </v>
   <v>       0.37500000       0.10526316       0.00000000 </v>
   <v>       0.41666667       0.10526316       0.00000000 </v>
   <v>       0.45833333       0.10526316       0.00000000 </v>
   <v>       0.50000000       0.10526316       0.00000000 </v>
   <v>       0.00000000       0.15789474       0.00000000 </v>
   <v>       0.04166667       0.15789474       0.00000000 </v>
   <v>       0.08333333       0.15789474       0.00000000 </v>
   <v>       0.12500000       0.15789474       0.00000000 </v>
   <v>       0.16666667       0.15789474       0.00000000 </v>
   <v>       0.20833333       0.15789474       0.00000000 </v>
   <v>       0.25000000       0.15789474       0.00000000 </v>
   <v>       0.29166667       0.15789474       0.00000000 </v>
   <v>       0.33333333       0.15789474       0.00000000 </v>
   <v>       0.37500000       0.15789474       0.00000000 </v>
   <v>       0.41666667       0.15789474       0.00000000 </v>
   <v>       0.45833333       0.15789474       0.00000000 </v>
   <v>       0.50000000       0.15789474       0.00000000 </v>
   <v>       0.00000000       0.21052632       0.00000000 </v>
   <v>       0.04166667       0.21052632       0.00000000 </v>
   <v>       0.08333333       0.21052632       0.00000000 </v>
   <v>       0.12500000       0.21052632       0.00000000 </v>
   <v>       0.16666667       0.21052632       0.00000000 </v>
   <v>       0.20833333       0.21052632       0.00000000 </v>
   <v>       0.25000000       0.21052632       0.00000000 </v>
   <v>       0.29166667       0.21052632       0.00000000 </v>
   <v>       0.33333333       0.21052632       0.00000000 </v>
   <v>       0.37500000       0.21052632       0.00000000 </v>
   <v>       0.41666667       0.21052632       0.00000000 </v>
   <v>       0.45833333       0.21052632       0.00000000 </v>
   <v>       0.50000000       0.21052632       0.00000000 </v>
   <v>       0.00000000       0.26315789       0.00000000 </v>
   <v>       0.04166667       0.26315789       0.00000000 </v>
   <v>       0.08333333       0.26315789       0.00000000 </v>
   <v>       0.12500000       0.26315789       0.00000000 </v>
   <v>       0.16666667       0.26315789       0.00000000 </v>
   <v>       0.20833333       0.26315789       0.00000000 </v>
   <v>       0.25000000       0.26315789       0.00000000 </v>
   <v>       0.29166667       0.26315789       0.00000000 </v>
   <v>       0.33333333       0.26315789       0.00000000 </v>
   <v>       0.37500000       0.26315789       0.00000000 </v>
   <v>       0.41666667       0.26315789       0.00000000 </v>
   <v>       0.45833333       0.26315789       0.00000000 </v>
   <v>       0.50000000       0.26315789       0.00000000 </v>
   <v>       0.00000000       0.31578947       0.00000000 </v>
   <v>       0.04166667       0.31578947       0.00000000 </v>
   <v>       0.08333333       0.31578947       0.00000000 </v>
   <v>       0.12500000       0.31578947       0.00000000 </v>
   <v>       0.16666667       0.31578947       0.00000000 </v>
   <v>       0.20833333       0.31578947       0.00000000 </v>
   <v>       0.25000000       0.31578947       0.00000000 </v>
   <v>       0.29166667       0.31578947       0.00000000 </v>
   <v>       0.33333333       0.31578947       0.00000000 </v>
   <v>       0.37500000       0.31578947       0.00000000 </v>
   <v>       0.41666667       0.31578947       0.00000000 </v>
   <v>       0.45833333       0.31578947       0.00000000 </v>
   <v>       0.50000000       0.31578947       0.00000000 </v>
   <v>       0.00000000       0.36842105       0.00000000 </v>
   <v>       0.04166667       0.36842105       0.00000000 </v>
   <v>       0.08333333       0.36842105       0.00000000 </v>
   <v>       0.12500000       0.36842105       0.00000000 </v>
   <v>       0.16666667       0.36842105       0.00000000 </v>
   <v>       0.20833333       0.36842105       0.00000000 </v>
   <v>       0.25000000       0.36842105       0.00000000 </v>
   <v>       0.29166667       0.36842105       0.00000000 </v>
   <v>       0.33333333       0.36842105       0.00000000 </v>
   <v>       0.37500000       0.36842105       0.00000000 </v>
   <v>       0.41666667       0.36842105       0.00000000 </v>
   <v>       0.45833333       0.36842105       0.00000000 </v>
   <v>       0.50000000       0.36842105       0.00000000 </v>
   <v>       0.00000000       0.42105263       0.00000000 </v>
   <v>       0.04166667       0.42105263       0.00000000 </v>
   <v>       0.08333333       0.42105263       0.00000000 </v>
   <v>       0.12500000       0.42105263       0.00000000 </v>
   <v>       0.16666667       0.42105263       0.00000000 </v>
   <v>       0.20833333       0.42105263       0.00000000 </v>
   <v>       0.25000000       0.42105263       0.00000000 </v>
   <v>       0.29166667       0.42105263       0.00000000 </v>
   <v>       0.33333333       0.42105263       0.00000000 </v>
   <v>       0.37500000       0.42105263       0.00000000 </v>
   <v>       0.41666667       0.42105263       0.00000000 </v>
   <v>       0.45833333       0.42105263       0.00000000 </v>
   <v>       0.50000000       0.42105263       0.00000000 </v>
   <v>       0.00000000       0.47368421       0.00000000 </v>
   <v>       0.04166667       0.47368421       0.00000000 </v>
   <v>       0.08333333       0.47368421       0.00000000 </v>
   <v>       0.12500000       0.47368421       0.00000000 </v>
   <v>       0.16666667       0.47368421       0.00000000 </v>
   <v>       0.20833333       0.47368421       0.00000000 </v>
   <v>       0.25000000       0.47368421       0.00000000 </v>
   <v>       0.29166667       0.47368421       0.00000000 </v>
   <v>       0.33333333       0.47368421       0.00000000 </v>
   <v>       0.37500000       0.47368421       0.00000000 </v>
   <v>       0.41666667       0.47368421       0.00000000 </v>
   <v>       0.45833333       0.47368421       0.00000000 </v>
   <v>       0.50000000       0.47368421       0.00000000 </v>
   <v>       0.00000000       0.00000000       0.12500000 </v>
   <v>       0.04166667       0.00000000       0.12500000 </v>
   <v>       0.08333333       0.00000000       0.12500000 </v>
   <v>       0.12500000       0.00000000       0.12500000 </v>
   <v>       0.16666667       0.00000000       0.12500000 </v>
   <v>       0.20833333       0.00000000       0.12500000 </v>
   <v>       0.25000000       0.00000000       0.12500000 </v>
   <v>       0.29166667       0.00000000       0.12500000 </v>
   <v>       0.33333333       0.00000000       0.12500000 </v>
   <v>       0.37500000       0.00000000       0.12500000 </v>
   <v>       0.41666667       0.00000000       0.12500000 </v>
   <v>       0.45833333       0.00000000       0.12500000 </v>
   <v>       0.50000000       0.00000000       0.12500000 </v>
   <v>       0.00000000       0.05263158       0.12500000 </v>
   <v>       0.04166667       0.05263158       0.12500000 </v>
   <v>       0.08333333       0.05263158       0.12500000 </v>
   <v>       0.12500000       0.05263158       0.12500000 </v>
   <v>       0.16666667       0.05263158       0.12500000 </v>
   <v>       0.20833333       0.05263158       0.12500000 </v>
   <v>       0.25000000       0.05263158       0.12500000 </v>
   <v>       0.29166667       0.05263158       0.12500000 </v>
   <v>       0.33333333       0.05263158       0.12500000 </v>
   <v>       0.37500000       0.05263158       0.12500000 </v>
   <v>       0.41666667       0.05263158       0.12500000 </v>
   <v>       0.45833333       0.05263158       0.12500000 </v>
   <v>       0.50000000       0.05263158       0.12500000 </v>
   <v>       0.00000000       0.10526316       0.12500000 </v>
   <v>       0.04166667       0.10526316       0.12500000 </v>
   <v>       0.08333333       0.10526316       0.12500000 </v>
   <v>       0.12500000       0.10526316       0.12500000 </v>
   <v>       0.16666667       0.10526316       0.12500000 </v>
   <v>       0.20833333       0.10526316       0.12500000 </v>
   <v>       0.25000000       0.10526316       0.12500000 </v>
   <v>       0.29166667       0.10526316       0.12500000 </v>
   <v>       0.33333333       0.10526316       0.12500000 </v>
   <v>       0.37500000       0.10526316       0.12500000 </v>
   <v>       0.41666667       0.10526316       0.12500000 </v>
   <v>       0.45833333       0.10526316       0.12500000 </v>
   <v>       0.50000000       0.10526316       0.12500000 </v>
   <v>       0.00000000       0.15789474       0.12500000 </v>
   <v>       0.04166667       0.15789474       0.12500000 </v>
   <v>       0.08333333       0.15789474       0.12500000 </v>
   <v>       0.12500000       0.15789474       0.12500000 </v>
   <v>       0.16666667       0.15789474       0.12500000 </v>
   <v>       0.20833333       0.15789474       0.12500000 </v>
   <v>       0.25000000       0.15789474       0.12500000 </v>
   <v>       0.29166667       0.15789474       0.12500000 </v>
   <v>       0.33333333       0.15789474       0.12500000 </v>
   <v>       0.37500000       0.15789474       0.12500000 </v>
   <v>       0.41666667       0.15789474       0.12500000 </v>
   <v>       0.45833333       0.15789474       0.12500000 </v>
   <v>       0.50000000       0.15789474       0.12500000 </v>
   <v>       0.00000000       0.21052632       0.12500000 </v>
   <v>       0.04166667       0.21052632       0.12500000 </v>
   <v>       0.08333333       0.21052632       0.12500000 </v>
   <v>       0.12500000       0.21052632       0.12500000 </v>
   <v>       0.16666667       0.21052632       0.12500000 </v>
   <v>       0.20833333       0.21052632       0.12500000 </v>
   <v>       0.25000000       0.21052632       0.12500000 </v>
   <v>       0.29166667       0.21052632       0.12500000 </v>
   <v>       0.33333333       0.21052632       0.12500000 </v>
   <v>       0.37500000       0.21052632       0.12500000 </v>
   <v>       0.41666667       0.21052632       0.12500000 </v>
   <v>       0.45833333       0.21052632       0.12500000 </v>
   <v>       0.50000000       0.21052632       0.12500000 </v>
   <v>       0.00000000       0.26315789       0.12500000 </v>
   <v>       0.04166667       0.26315789       0.12500000 </v>
   <v>       0.08333333       0.26315789       0.12500000 </v>
   <v>       0.12500000       0.26315789       0.12500000 </v>
   <v>       0.16666667       0.26315789       0.12500000 </v>
   <v>       0.20833333       0.26315789       0.12500000 </v>
   <v>       0.25000000       0.26315789       0.12500000 </v>
   <v>       0.29166667       0.26315789       0.12500000 </v>
   <v>       0.33333333       0.26315789       0.12500000 </v>
   <v>       0.37500000       0.26315789       0.12500000 </v>
   <v>       0.41666667       0.26315789       0.12500000 </v>
   <v>       0.45833333       0.26315789       0.12500000 </v>
   <v>       0.50000000       0.26315789       0.12500000 </v>
   <v>       0.00000000       0.31578947       0.12500000 </v>
   <v>       0.04166667       0.31578947       0.12500000 </v>
   <v>       0.08333333       0.31578947       0.12500000 </v>
   <v>       0.12500000       0.31578947       0.12500000 </v>
   <v>       0.16666667       0.31578947       0.12500000 </v>
   <v>       0.20833333       0.31578947       0.12500000 </v>
   <v>       0.25000000       0.31578947       0.12500000 </v>
   <v>       0.29166667       0.31578947       0.12500000 </v>
   <v>       0.33333333       0.31578947       0.12500000 </v>
   <v>       0.37500000       0.31578947       0.12500000 </v>
   <v>       0.41666667       0.31578947       0.12500000 </v>
   <v>       0.45833333       0.31578947       0.12500000 </v>
   <v>       0.50000000       0.31578947       0.12500000 </v>
   <v>       0.00000000       0.36842105       0.12500000 </v>
   <v>       0.04166667       0.36842105       0.12500000 </v>
   <v>       0.08333333       0.36842105       0.12500000 </v>
   <v>       0.12500000       0.36842105       0.12500000 </v>
   <v>       0.16666667       0.36842105       0.12500000 </v>
   <v>       0.20833333       0.36842105       0.12500000 </v>
   <v>       0.25000000       0.36842105       0.12500000 </v>
   <v>       0.29166667       0.36842105       0.12500000 </v>
   <v>       0.33333333       0.36842105       0.12500000 </v>
   <v>       0.37500000       0.36842105       0.12500000 </v>
   <v>       0.41666667       0.36842105       0.12500000 </v>
   <v>       0.45833333       0.36842105       0.12500000 </v>
   <v>       0.50000000       0.36842105       0.12500000 </v>
   <v>       0.00000000       0.42105263       0.12500000 </v>
   <v>       0.04166667       0.42105263       0.12500000 </v>
   <v>       0.08333333       0.42105263       0.12500000 </v>
   <v>       0.12500000       0.42105263       0.12500000 </v>
   <v>       0.16666667       0.42105263       0.12500000 </v>
   <v>       0.20833333       0.42105263       0.12500000 </v>
   <v>       0.25000000       0.42105263       0.12500000 </v>
   <v>       0.29166667       0.42105263       0.12500000 </v>
   <v>       0.33333333       0.42105263       0.12500000 </v>
   <v>       0.37500000       0.42105263       0.12500000 </v>
   <v>       0.41666667       0.42105263       0.12500000 </v>
   <v>       0.45833333       0.42105263       0.12500000 </v>
   <v>       0.50000000       0.42105263       0.12500000 </v>
   <v>       0.00000000       0.47368421       0.12500000 </v>
   <v>       0.04166667       0.47368421       0.12500000 </v>
   <v>       0.08333333       0.47368421       0.12500000 </v>
   <v>       0.12500000       0.47368421       0.12500000 </v>
   <v>       0.16666667       0.47368421       0.12500000 </v>
   <v>       0.20833333       0.47368421       0.12500000 </v>
   <v>       0.25000000       0.47368421       0.12500000 </v>
   <v>       0.29166667       0.47368421       0.12500000 </v>
   <v>       0.33333333       0.47368421       0.12500000 </v>
   <v>       0.37500000       0.47368421       0.12500000 </v>
   <v>       0.41666667       0.47368421       0.12500000 </v>
   <v>       0.45833333       0.47368421       0.12500000 </v>
   <v>       0.50000000       0.47368421       0.12500000 </v>
   <v>       0.00000000       0.00000000       0.25000000 </v>
   <v>       0.04166667       0.00000000       0.25000000 </v>
   <v>       0.08333333       0.00000000       0.25000000 </v>
   <v>       0.12500000       0.00000000       0.25000000 </v>
   <v>       0.16666667       0.00000000       0.25000000 </v>
   <v>       0.20833333       0.00000000       0.25000000 </v>
   <v>       0.25000000       0.00000000       0.25000000 </v>
   <v>       0.29166667       0.00000000       0.25000000 </v>
   <v>       0.33333333       0.00000000       0.25000000 </v>
   <v>       0.37500000       0.00000000       0.25000000 </v>
   <v>       0.41666667       0.00000000       0.25000000 </v>
   <v>       0.45833333       0.00000000       0.25000000 </v>
   <v>       0.50000000       0.00000000       0.25000000 </v>
   <v>       0.00000000       0.05263158       0.25000000 </v>
   <v>       0.04166667       0.05263158       0.25000000 </v>
   <v>       0.08333333       0.05263158       0.25000000 </v>
   <v>       0.12500000       0.05263158       0.25000000 </v>
   <v>       0.16666667       0.05263158       0.25000000 </v>
   <v>       0.20833333       0.05263158       0.25000000 </v>
   <v>       0.25000000       0.05263158       0.25000000 </v>
   <v>       0.29166667       0.05263158       0.25000000 </v>
   <v>       0.33333333       0.05263158       0.25000000 </v>
   <v>       0.37500000       0.05263158       0.25000000 </v>
   <v>       0.41666667       0.05263158       0.25000000 </v>
   <v>       0.45833333       0.05263158       0.25000000 </v>
   <v>       0.50000000       0.05263158       0.25000000 </v>
   <v>       0.00000000       0.10526316       0.25000000 </v>
   <v>       0.04166667       0.10526316       0.25000000 </v>
   <v>       0.08333333       0.10526316       0.25000000 </v>
   <v>       0.12500000       0.10526316       0.25000000 </v>
   <v>       0.16666667       0.10526316       0.25000000 </v>
   <v>       0.20833333       0.10526316       0.25000000 </v>
   <v>       0.25000000       0.10526316       0.25000000 </v>
   <v>       0.29166667       0.10526316       0.25000000 </v>
   <v>       0.33333333       0.10526316       0.25000000 </v>
   <v>       0.37500000       0.10526316       0.25000000 </v>
   <v>       0.41666667       0.10526316       0.25000000 </v>
   <v>       0.45833333       0.10526316       0.25000000 </v>
   <v>       0.50000000       0.10526316       0.25000000 </v>
   <v>       0.00000000       0.15789474       0.25000000 </v>
   <v>       0.04166667       0.15789474       0.25000000 </v>
   <v>       0.08333333       0.15789474       0.25000000 </v>
   <v>       0.12500000       0.15789474       0.25000000 </v>
   <v>       0.16666667       0.15789474       0.25000000 </v>
   <v>       0.20833333       0.15789474       0.25000000 </v>
   <v>       0.25000000       0.15789474       0.25000000 </v>
   <v>       0.29166667       0.15789474       0.25000000 </v>
   <v>       0.33333333       0.15789474       0.25000000 </v>
   <v>       0.37500000       0.15789474       0.25000000 </v>
   <v>       0.41666667       0.15789474       0.25000000 </v>
   <v>       0.45833333       0.15789474       0.25000000 </v>
   <v>       0.50000000       0.15789474       0.25000000 </v>
   <v>       0.00000000       0.21052632       0.25000000 </v>
   <v>       0.04166667       0.21052632       0.25000000 </v>
   <v>       0.08333333       0.21052632       0.25000000 </v>
   <v>       0.12500000       0.21052632       0.25000000 </v>
   <v>       0.16666667       0.21052632       0.25000000 </v>
   <v>       0.20833333       0.21052632       0.25000000 </v>
   <v>       0.25000000       0.21052632       0.25000000 </v>
   <v>       0.29166667       0.21052632       0.25000000 </v>
   <v>       0.33333333       0.21052632       0.25000000 </v>
   <v>       0.37500000       0.21052632       0.25000000 </v>
   <v>       0.41666667       0.21052632       0.25000000 </v>
   <v>       0.45833333       0.21052632       0.25000000 </v>
   <v>       0.50000000       0.21052632       0.25000000 </v>
   <v>       0.00000000       0.26315789       0.25000000 </v>
   <v>       0.04166667       0.26315789       0.25000000 </v>
   <v>       0.08333333       0.26315789       0.25000000 </v>
   <v>       0.12500000       0.26315789       0.25000000 </v>
   <v>       0.16666667       0.26315789       0.25000000 </v>
   <v>       0.20833333       0.26315789       0.25000000 </v>
   <v>       0.25000000       0.26315789       0.25000000 </v>
   <v>       0.29166667       0.26315789       0.25000000 </v>
   <v>       0.33333333       0.26315789       0.25000000 </v>
   <v>       0.37500000       0.26315789       0.25000000 </v>
   <v>       0.41666667       0.26315789       0.25000000 </v>
   <v>       0.45833333       0.26315789       0.25000000 </v>
   <v>       0.50000000       0.26315789       0.25000000 </v>
   <v>       0.00000000       0.31578947       0.25000000 </v>
   <v>       0.04166667       0.31578947       0.25000000 </v>
   <v>       0.08333333       0.31578947       0.25000000 </v>
   <v>       0.12500000       0.31578947       0.25000000 </v>
   <v>       0.16666667       0.31578947       0.25000000 </v>
   <v>       0.20833333       0.31578947       0.25000000 </v>
   <v>       0.25000000       0.31578947       0.25000000 </v>
   <v>       0.29166667       0.31578947       0.25000000 </v>
   <v>       0.33333333       0.31578947       0.25000000 </v>
   <v>       0.37500000       0.31578947       0.25000000 </v>
   <v>       0.41666667       0.31578947       0.25000000 </v>
   <v>       0.45833333       0.31578947       0.25000000 </v>
   <v>       0.50000000       0.31578947       0.25000000 </v>
   <v>       0.00000000       0.36842105       0.25000000 </v>
   <v>       0.04166667       0.36842105       0.25000000 </v>
   <v>       0.08333333       0.36842105       0.25000000 </v>
   <v>       0.12500000       0.36842105       0.25000000 </v>
   <v>       0.16666667       0.36842105       0.25000000 </v>
   <v>       0.20833333       0.36842105       0.25000000 </v>
   <v>       0.25000000       0.36842105       0.25000000 </v>
   <v>       0.29166667       0.36842105       0.25000000 </v>
   <v>       0.33333333       0.36842105       0.25000000 </v>
   <v>       0.37500000       0.36842105       0.25000000 </v>
   <v>       0.41666667       0.36842105       0.25000000 </v>
   <v>       0.45833333       0.36842105       0.25000000 </v>
   <v>       0.50000000       0.36842105       0.25000000 </v>
   <v>       0.00000000       0.42105263       0.25000000 </v>
   <v>       0.04166667       0.42105263       0.25000000 </v>
   <v>       0.08333333       0.42105263       0.25000000 </v>
   <v>       0.12500000       0.42105263       0.25000000 </v>
   <v>       0.16666667       0.42105263       0.25000000 </v>
   <v>       0.20833333       0.42105263       0.25000000 </v>
   <v>       0.25000000       0.42105263       0.25000000 </v>
   <v>       0.29166667       0.42105263       0.25000000 </v>
   <v>       0.33333333       0.42105263       0.25000000 </v>
   <v>       0.37500000       0.42105263       0.25000000 </v>
   <v>       0.41666667       0.42105263       0.25000000 </v>
   <v>       0.45833333       0.42105263       0.25000000 </v>
   <v>       0.50000000       0.42105263       0.25000000 </v>
   <v>       0.00000000       0.47368421       0.25000000 </v>
   <v>       0.04166667       0.47368421       0.25000000 </v>
   <v>       0.08333333       0.47368421       0.25000000 </v>
   <v>       0.12500000       0.47368421       0.25000000 </v>
   <v>       0.16666667       0.47368421       0.25000000 </v>
   <v>       0.20833333       0.47368421       0.25000000 </v>
   <v>       0.25000000       0.47368421       0.25000000 </v>
   <v>       0.29166667       0.47368421       0.25000000 </v>
   <v>       0.33333333       0.47368421       0.25000000 </v>
   <v>       0.37500000       0.47368421       0.25000000 </v>
   <v>       0.41666667       0.47368421       0.25000000 </v>
   <v>       0.45833333       0.47368421       0.25000000 </v>
   <v>       0.50000000       0.47368421       0.25000000 </v>
   <v>       0.00000000       0.00000000       0.37500000 </v>
   <v>       0.04166667       0.00000000       0.37500000 </v>
   <v>       0.08333333       0.00000000       0.37500000 </v>
   <v>       0.12500000       0.00000000       0.37500000 </v>
   <v>       0.16666667       0.00000000       0.37500000 </v>
   <v>       0.20833333       0.00000000       0.37500000 </v>
   <v>       0.25000000       0.00000000       0.37500000 </v>
   <v>       0.29166667       0.00000000       0.37500000 </v>
   <v>       0.33333333       0.00000000       0.37500000 </v>
   <v>       0.37500000       0.00000000       0.37500000 </v>
   <v>       0.41666667       0.00000000       0.37500000 </v>
   <v>       0.45833333       0.00000000       0.37500000 </v>
   <v>       0.50000000       0.00000000       0.37500000 </v>
   <v>       0.00000000       0.05263158       0.37500000 </v>
   <v>       0.04166667       0.05263158       0.37500000 </v>
   <v>       0.08333333       0.05263158       0.37500000 </v>
   <v>       0.12500000       0.05263158       0.37500000 </v>
   <v>       0.16666667       0.05263158       0.37500000 </v>
   <v>       0.20833333       0.05263158       0.37500000 </v>
   <v>       0.25000000       0.05263158       0.37500000 </v>
   <v>       0.29166667       0.05263158       0.37500000 </v>
   <v>       0.33333333       0.05263158       0.37500000 </v>
   <v>       0.37500000       0.05263158       0.37500000 </v>
   <v>       0.41666667       0.05263158       0.37500000 </v>
   <v>       0.45833333       0.05263158       0.37500000 </v>
   <v>       0.50000000       0.05263158       0.37500000 </v>
   <v>       0.00000000       0.10526316       0.37500000 </v>
   <v>       0.04166667       0.10526316       0.37500000 </v>
   <v>       0.08333333       0.10526316       0.37500000 </v>
   <v>       0.12500000       0.10526316       0.37500000 </v>
   <v>       0.16666667       0.10526316       0.37500000 </v>
   <v>       0.20833333       0.10526316       0.37500000 </v>
   <v>       0.25000000       0.10526316       0.37500000 </v>
   <v>       0.29166667       0.10526316       0.37500000 </v>
   <v>       0.33333333       0.10526316       0.37500000 </v>
   <v>       0.37500000       0.10526316       0.37500000 </v>
   <v>       0.41666667       0.10526316       0.37500000 </v>
   <v>       0.45833333       0.10526316       0.37500000 </v>
   <v>       0.50000000       0.10526316       0.37500000 </v>
   <v>       0.00000000       0.15789474       0.37500000 </v>
   <v>       0.04166667       0.15789474       0.37500000 </v>
   <v>       0.08333333       0.15789474       0.37500000 </v>
   <v>       0.12500000       0.15789474       0.37500000 </v>
   <v>       0.16666667       0.15789474       0.37500000 </v>
   <v>       0.20833333       0.15789474       0.37500000 </v>
   <v>       0.25000000       0.15789474       0.37500000 </v>
   <v>       0.29166667       0.15789474       0.37500000 </v>
   <v>       0.33333333       0.15789474       0.37500000 </v>
   <v>       0.37500000       0.15789474       0.37500000 </v>
   <v>       0.41666667       0.15789474       0.37500000 </v>
   <v>       0.45833333       0.15789474       0.37500000 </v>
   <v>       0.50000000       0.15789474       0.37500000 </v>
   <v>       0.00000000       0.21052632       0.37500000 </v>
   <v>       0.04166667       0.21052632       0.37500000 </v>
   <v>       0.08333333       0.21052632       0.37500000 </v>
   <v>       0.12500000       0.21052632       0.37500000 </v>
   <v>       0.16666667       0.21052632       0.37500000 </v>
   <v>       0.20833333       0.21052632       0.37500000 </v>
   <v>       0.25000000       0.21052632       0.37500000 </v>
   <v>       0.29166667       0.21052632       0.37500000 </v>
   <v>       0.33333333       0.21052632       0.37500000 </v>
   <v>       0.37500000       0.21052632       0.37500000 </v>
   <v>       0.41666667       0.21052632       0.37500000 </v>
   <v>       0.45833333       0.21052632       0.37500000 </v>
   <v>       0.50000000       0.21052632       0.37500000 </v>
   <v>       0.00000000       0.26315789       0.37500000 </v>
   <v>       0.04166667       0.26315789       0.37500000 </v>
   <v>       0.08333333       0.26315789       0.37500000 </v>
   <v>       0.12500000       0.26315789       0.37500000 </v>
   <v>       0.16666667       0.26315789       0.37500000 </v>
   <v>       0.20833333       0.26315789       0.37500000 </v>
   <v>       0.25000000       0.26315789       0.37500000 </v>
   <v>       0.29166667       0.26315789       0.37500000 </v>
   <v>       0.33333333       0.26315789       0.37500000 </v>
   <v>       0.37500000       0.26315789       0.37500000 </v>
   <v>       0.41666667       0.26315789       0.37500000 </v>
   <v>       0.45833333       0.26315789       0.37500000 </v>
   <v>       0.50000000       0.26315789       0.37500000 </v>
   <v>       0.00000000       0.31578947       0.37500000 </v>
   <v>       0.04166667       0.31578947       0.37500000 </v>
   <v>       0.08333333       0.31578947       0.37500000 </v>
   <v>       0.12500000       0.31578947       0.37500000 </v>
   <v>       0.16666667       0.31578947       0.37500000 </v>
   <v>       0.20833333       0.31578947       0.37500000 </v>
   <v>       0.25000000       0.31578947       0.37500000 </v>
   <v>       0.29166667       0.31578947       0.37500000 </v>
   <v>       0.33333333       0.31578947       0.37500000 </v>
   <v>       0.37500000       0.31578947       0.37500000 </v>
   <v>       0.41666667       0.31578947       0.37500000 </v>
   <v>       0.45833333       0.31578947       0.37500000 </v>
   <v>       0.50000000       0.31578947       0.37500000 </v>
   <v>       0.00000000       0.36842105       0.37500000 </v>
   <v>       0.04166667       0.36842105       0.37500000 </v>
   <v>       0.08333333       0.36842105       0.37500000 </v>
   <v>       0.12500000       0.36842105       0.37500000 </v>
   <v>       0.16666667       0.36842105       0.37500000 </v>
   <v>       0.20833333       0.36842105       0.37500000 </v>
   <v>       0.25000000       0.36842105       0.37500000 </v>
   <v>       0.29166667       0.36842105       0.37500000 </v>
   <v>       0.33333333       0.36842105       0.37500000 </v>
   <v>       0.37500000       0.36842105       0.37500000 </v>
   <v>       0.41666667       0.36842105       0.37500000 </v>
   <v>       0.45833333       0.36842105       0.37500000 </v>
   <v>       0.50000000       0.36842105       0.37500000 </v>
   <v>       0.00000000       0.42105263       0.37500000 </v>
   <v>       0.04166667       0.42105263       0.37500000 </v>
   <v>       0.08333333       0.42105263       0.37500000 </v>
   <v>       0.12500000       0.42105263       0.37500000 </v>
   <v>       0.16666667       0.42105263       0.37500000 </v>
   <v>       0.20833333       0.42105263       0.37500000 </v>
   <v>       0.25000000       0.42105263       0.37500000 </v>
   <v>       0.29166667       0.42105263       0.37500000 </v>
   <v>       0.33333333       0.42105263       0.37500000 </v>
   <v>       0.37500000       0.42105263       0.37500000 </v>
   <v>       0.41666667       0.42105263       0.37500000 </v>
   <v>       0.45833333       0.42105263       0.37500000 </v>
   <v>       0.50000000       0.42105263       0.37500000 </v>
   <v>       0.00000000       0.47368421       0.37500000 </v>
   <v>       0.04166667       0.47368421       0.37500000 </v>
   <v>       0.08333333       0.47368421       0.37500000 </v>
   <v>       0.12500000       0.47368421       0.37500000 </v>
   <v>       0.16666667       0.47368421       0.37500000 </v>
   <v>       0.20833333       0.47368421       0.37500000 </v>
   <v>       0.25000000       0.47368421       0.37500000 </v>
   <v>       0.29166667       0.47368421       0.37500000 </v>
   <v>       0.33333333       0.47368421       0.37500000 </v>
   <v>       0.37500000       0.47368421       0.37500000 </v>
   <v>       0.41666667       0.47368421       0.37500000 </v>
   <v>       0.45833333       0.47368421       0.37500000 </v>
   <v>       0.50000000       0.47368421       0.37500000 </v>
   <v>       0.00000000       0.00000000       0.50000000 </v>
   <v>       0.04166667       0.00000000       0.50000000 </v>
   <v>       0.08333333       0.00000000       0.50000000 </v>
   <v>       0.12500000       0.00000000       0.50000000 </v>
   <v>       0.16666667       0.00000000       0.50000000 </v>
   <v>       0.20833333       0.00000000       0.50000000 </v>
   <v>       0.25000000       0.00000000       0.50000000 </v>
   <v>       0.29166667       0.00000000       0.50000000 </v>
   <v>       0.33333333       0.00000000       0.50000000 </v>
   <v>       0.37500000       0.00000000       0.50000000 </v>
   <v>       0.41666667       0.00000000       0.50000000 </v>
   <v>       0.45833333       0.00000000       0.50000000 </v>
   <v>       0.50000000       0.00000000       0.50000000 </v>
   <v>       0.00000000       0.05263158       0.50000000 </v>
   <v>       0.04166667       0.05263158       0.50000000 </v>
   <v>       0.08333333       0.05263158       0.50000000 </v>
   <v>       0.12500000       0.05263158       0.50000000 </v>
   <v>       0.16666667       0.05263158       0.50000000 </v>
   <v>       0.20833333       0.05263158       0.50000000 </v>
   <v>       0.25000000       0.05263158       0.50000000 </v>
   <v>       0.29166667       0.05263158       0.50000000 </v>
   <v>       0.33333333       0.05263158       0.50000000 </v>
   <v>       0.37500000       0.05263158       0.50000000 </v>
   <v>       0.41666667       0.05263158       0.50000000 </v>
   <v>       0.45833333       0.05263158       0.50000000 </v>
   <v>       0.50000000       0.05263158       0.50000000 </v>
   <v>       0.00000000       0.10526316       0.50000000 </v>
   <v>       0.04166667       0.10526316       0.50000000 </v>
   <v>       0.08333333       0.10526316       0.50000000 </v>
   <v>       0.12500000       0.10526316       0.50000000 </v>
   <v>       0.16666667       0.10526316       0.50000000 </v>
   <v>       0.20833333       0.10526316       0.50000000 </v>
   <v>       0.25000000       0.10526316       0.50000000 </v>
   <v>       0.29166667       0.10526316       0.50000000 </v>
   <v>       0.33333333       0.10526316       0.50000000 </v>
   <v>       0.37500000       0.10526316       0.50000000 </v>
   <v>       0.41666667       0.10526316       0.50000000 </v>
   <v>       0.45833333       0.10526316       0.50000000 </v>
   <v>       0.50000000       0.10526316       0.50000000 </v>
   <v>       0.00000000       0.15789474       0.50000000 </v>
   <v>       0.04166667       0.15789474       0.50000000 </v>
   <v>       0.08333333       0.15789474       0.50000000 </v>
   <v>       0.12500000       0.15789474       0.50000000 </v>
   <v>       0.16666667       0.15789474       0.50000000 </v>
   <v>       0.20833333       0.15789474       0.50000000 </v>
   <v>       0.25000000       0.15789474       0.50000000 </v>
   <v>       0.29166667       0.15789474       0.50000000 </v>
   <v>       0.33333333       0.15789474       0.50000000 </v>
   <v>       0.37500000       0.15789474       0.50000000 </v>
   <v>       0.41666667       0.15789474       0.50000000 </v>
   <v>       0.45833333       0.15789474       0.50000000 </v>
   <v>       0.50000000       0.15789474       0.50000000 </v>
   <v>       0.00000000       0.21052632       0.50000000 </v>
   <v>       0.04166667       0.21052632       0.50000000 </v>
   <v>       0.08333333       0.21052632       0.50000000 </v>
   <v>       0.12500000       0.21052632       0.50000000 </v>
   <v>       0.16666667       0.21052632       0.50000000 </v>
   <v>       0.20833333       0.21052632       0.50000000 </v>
   <v>       0.25000000       0.21052632       0.50000000 </v>
   <v>       0.29166667       0.21052632       0.50000000 </v>
   <v>       0.33333333       0.21052632       0.50000000 </v>
   <v>       0.37500000       0.21052632       0.50000000 </v>
   <v>       0.41666667       0.21052632       0.50000000 </v>
   <v>       0.45833333       0.21052632       0.50000000 </v>
   <v>       0.50000000       0.21052632       0.50000000 </v>
   <v>       0.00000000       0.26315789       0.50000000 </v>
   <v>       0.04166667       0.26315789       0.50000000 </v>
   <v>       0.08333333       0.26315789       0.50000000 </v>
   <v>       0.12500000       0.26315789       0.50000000 </v>
   <v>       0.16666667       0.26315789       0.50000000 </v>
   <v>       0.20833333       0.26315789       0.50000000 </v>
   <v>       0.25000000       0.26315789       0.50000000 </v>
   <v>       0.29166667       0.26315789       0.50000000 </v>
   <v>       0.33333333       0.26315789       0.50000000 </v>
   <v>       0.37500000       0.26315789       0.50000000 </v>
   <v>       0.41666667       0.26315789       0.50000000 </v>
   <v>       0.45833333       0.26315789       0.50000000 </v>
   <v>       0.50000000       0.26315789       0.50000000 </v>
   <v>       0.00000000       0.31578947       0.50000000 </v>
   <v>       0.04166667       0.31578947       0.50000000 </v>
   <v>       0.08333333       0.31578947       0.50000000 </v>
   <v>       0.12500000       0.31578947       0.50000000 </v>
   <v>       0.16666667       0.31578947       0.50000000 </v>
   <v>       0.20833333       0.31578947       0.50000000 </v>
   <v>       0.25000000       0.31578947       0.50000000 </v>
   <v>       0.29166667       0.31578947       0.50000000 </v>
   <v>       0.33333333       0.31578947       0.50000000 </v>
   <v>       0.37500000       0.31578947       0.50000000 </v>
   <v>       0.41666667       0.31578947       0.50000000 </v>
   <v>       0.45833333       0.31578947       0.50000000 </v>
   <v>       0.50000000       0.31578947       0.50000000 </v>
   <v>       0.00000000       0.36842105       0.50000000 </v>
   <v>       0.04166667       0.36842105       0.50000000 </v>
   <v>       0.08333333       0.36842105       0.50000000 </v>
   <v>       0.12500000       0.36842105       0.50000000 </v>
   <v>       0.16666667       0.36842105       0.50000000 </v>
   <v>       0.20833333       0.36842105       0.50000000 </v>
   <v>       0.25000000       0.36842105       0.50000000 </v>
   <v>       0.29166667       0.36842105       0.50000000 </v>
   <v>       0.33333333       0.36842105       0.50000000 </v>
   <v>       0.37500000       0.36842105       0.50000000 </v>
   <v>       0.41666667       0.36842105       0.50000000 </v>
   <v>       0.45833333       0.36842105       0.50000000 </v>
   <v>       0.50000000       0.36842105       0.50000000 </v>
   <v>       0.00000000       0.42105263       0.50000000 </v>
   <v>       0.04166667       0.42105263       0.50000000 </v>
   <v>       0.08333333       0.42105263       0.50000000 </v>
   <v>       0.12500000       0.42105263       0.50000000 </v>
   <v>       0.16666667       0.42105263       0.50000000 </v>
   <v>       0.20833333       0.42105263       0.50000000 </v>
   <v>       0.25000000       0.42105263       0.50000000 </v>
   <v>       0.29166667       0.42105263       0.50000000 </v>
   <v>       0.33333333       0.42105263       0.50000000 </v>
   <v>       0.37500000       0.42105263       0.50000000 </v>
   <v>       0.41666667       0.42105263       0.50000000 </v>
   <v>       0.45833333       0.42105263       0.50000000 </v>
   <v>       0.50000000       0.42105263       0.50000000 </v>
   <v>       0.00000000       0.47368421       0.50000000 </v>
   <v>       0.04166667       0.47368421       0.50000000 </v>
   <v>       0.08333333       0.47368421       0.50000000 </v>
   <v>       0.12500000       0.47368421       0.50000000 </v>
   <v>       0.16666667       0.47368421       0.50000000 </v>
   <v>       0.20833333       0.47368421       0.50000000 </v>
   <v>       0.25000000       0.47368421       0.50000000 </v>
   <v>       0.29166667       0.47368421       0.50000000 </v>
   <v>       0.33333333       0.47368421       0.50000000 </v>
   <v>       0.37500000       0.47368421       0.50000000 </v>
   <v>       0.41666667       0.47368421       0.50000000 </v>
   <v>       0.45833333       0.47368421       0.50000000 </v>
   <v>       0.50000000       0.47368421       0.50000000 </v>
  </varray>
  <varray name="weights" >
   <v>       0.00027412 </v>
   <v>       0.00054825 </v>
   <v>       0.00054825 </v>
   <v>       0.00054825 </v>
   <v>       0.00054825 </v>
   <v>       0.00054825 </v>
   <v>       0.00054825 </v>
   <v>       0.00054825 </v>
   <v>       0.00054825 </v>
   <v>       0.00054825 </v>
   <v>       0.00054825 </v>
   <v>       0.00054825 </v>
   <v>       0.00027412 </v>
   <v>       0.00054825 </v>
   <v>       0.00109649 </v>
   <v>       0.00109649 </v>
   <v>       0.00109649 </v>
   <v>       0.00109649 </v>
   <v>       0.00109649 </v>
   <v>       0.00109649 </v>
   <v>       0.00109649 </v>
   <v>       0.00109649 </v>
   <v>       0.00109649 </v>
   <v>       0.00109649 </v>
   <v>       0.00109649 </v>
   <v>       0.00054825 </v>
   <v>       0.00054825 </v>
   <v>       0.00109649 </v>
   <v>       0.00109649 </v>
   <v>       0.00109649 </v>
   <v>       0.00109649 </v>
   <v>       0.00109649 </v>
   <v>       0.00109649 </v>
   <v>       0.00109649 </v>
   <v>       0.00109649 </v>
   <v>       0.00109649 </v>
   <v>       0.00109649 </v>
   <v>       0.00109649 </v>
   <v>       0.00054825 </v>
   <v>       0.00054825 </v>
   <v>       0.00109649 </v>
   <v>       0.00109649 </v>
   <v>       0.00109649 </v>
   <v>       0.00109649 </v>
   <v>       0.00109649 </v>
   <v>       0.00109649 </v>
   <v>       0.00109649 </v>
   <v>       0.00109649 </v>
   <v>       0.00109649 </v>
   <v>       0.00109649 </v>
   <v>       0.00109649 </v>
   <v>       0.00054825 </v>
   <v>       0.00054825 </v>
   <v>       0.00109649 </v>
   <v>       0.00109649 </v>
   <v>       0.00109649 </v>
   <v>       0.00109649 </v>
   <v>       0.00109649 </v>
   <v>       0.00109649 </v>
   <v>       0.00109649 </v>
   <v>       0.00109649 </v>
   <v>       0.00109649 </v>
   <v>       0.00109649 </v>
   <v>       0.00109649 </v>
   <v>       0.00054825 </v>
   <v>       0.00054825 </v>
   <v>       0.00109649 </v>
   <v>       0.00109649 </v>
   <v>       0.00109649 </v>
   <v>       0.00109649 </v>
   <v>       0.00109649 </v>
   <v>       0.00109649 </v>
   <v>       0.00109649 </v>
   <v>       0.00109649 </v>
   <v>       0.00109649 </v>
   <v>       0.00109649 </v>
   <v>       0.00109649 </v>
   <v>       0.00054825 </v>
   <v>       0.00054825 </v>
   <v>       0.00109649 </v>
   <v>       0.00109649 </v>
   <v>       0.00109649 </v>
   <v>       0.00109649 </v>
   <v>       0.00109649 </v>
   <v>       0.00109649 </v>
   <v>       0.00109649 </v>
   <v>       0.00109649 </v>
   <v>       0.00109649 </v>
   <v>       0.00109649 </v>
   <v>       0.00109649 </v>
   <v>       0.00054825 </v>
   <v>       0.00054825 </v>
   <v>       0.00109649 </v>
   <v>       0.00109649 </v>
   <v>       0.00109649 </v>
   <v>       0.00109649 </v>
   <v>       0.00109649 </v>
   <v>       0.00109649 </v>
   <v>       0.00109649 </v>
   <v>       0.00109649 </v>
   <v>       0.00109649 </v>
   <v>       0.00109649 </v>
   <v>       0.00109649 </v>
   <v>       0.00054825 </v>
   <v>       0.00054825 </v>
   <v>       0.00109649 </v>
   <v>       0.00109649 </v>
   <v>       0.00109649 </v>
   <v>       0.00109649 </v>
   <v>       0.00109649 </v>
   <v>       0.00109649 </v>
   <v>       0.00109649 </v>
   <v>       0.00109649 </v>
   <v>       0.00109649 </v>
   <v>       0.00109649 </v>
   <v>       0.00109649 </v>
   <v>       0.00054825 </v>
   <v>       0.00054825 </v>
   <v>       0.00109649 </v>
   <v>       0.00109649 </v>
   <v>       0.00109649 </v>
   <v>       0.00109649 </v>
   <v>       0.00109649 </v>
   <v>       0.00109649 </v>
   <v>       0.00109649 </v>
   <v>       0.00109649 </v>
   <v>       0.00109649 </v>
   <v>       0.00109649 </v>
   <v>       0.00109649 </v>
   <v>       0.00054825 </v>
   <v>       0.00054825 </v>
   <v>       0.00109649 </v>
   <v>       0.00109649 </v>
   <v>       0.00109649 </v>
   <v>       0.00109649 </v>
   <v>       0.00109649 </v>
   <v>       0.00109649 </v>
   <v>       0.00109649 </v>
   <v>       0.00109649 </v>
   <v>       0.00109649 </v>
   <v>       0.00109649 </v>
   <v>       0.00109649 </v>
   <v>       0.00054825 </v>
   <v>       0.00109649 </v>
   <v>       0.00219298 </v>
   <v>       0.00219298 </v>
   <v>       0.00219298 </v>
   <v>       0.00219298 </v>
   <v>       0.00219298 </v>
   <v>       0.00219298 </v>
   <v>       0.00219298 </v>
   <v>       0.00219298 </v>
   <v>       0.00219298 </v>
   <v>       0.00219298 </v>
   <v>       0.00219298 </v>
   <v>       0.00109649 </v>
   <v>       0.00109649 </v>
   <v>       0.00219298 </v>
   <v>       0.00219298 </v>
   <v>       0.00219298 </v>
   <v>       0.00219298 </v>
   <v>       0.00219298 </v>
   <v>       0.00219298 </v>
   <v>       0.00219298 </v>
   <v>       0.00219298 </v>
   <v>       0.00219298 </v>
   <v>       0.00219298 </v>
   <v>       0.00219298 </v>
   <v>       0.00109649 </v>
   <v>       0.00109649 </v>
   <v>       0.00219298 </v>
   <v>       0.00219298 </v>
   <v>       0.00219298 </v>
   <v>       0.00219298 </v>
   <v>       0.00219298 </v>
   <v>       0.00219298 </v>
   <v>       0.00219298 </v>
   <v>       0.00219298 </v>
   <v>       0.00219298 </v>
   <v>       0.00219298 </v>
   <v>       0.00219298 </v>
   <v>       0.00109649 </v>
   <v>       0.00109649 </v>
   <v>       0.00219298 </v>
   <v>       0.00219298 </v>
   <v>       0.00219298 </v>
   <v>       0.00219298 </v>
   <v>       0.00219298 </v>
   <v>       0.00219298 </v>
   <v>       0.00219298 </v>
   <v>       0.00219298 </v>
   <v>       0.00219298 </v>
   <v>       0.00219298 </v>
   <v>       0.00219298 </v>
   <v>       0.00109649 </v>
   <v>       0.00109649 </v>
   <v>       0.00219298 </v>
   <v>       0.00219298 </v>
   <v>       0.00219298 </v>
   <v>       0.00219298 </v>
   <v>       0.00219298 </v>
   <v>       0.00219298 </v>
   <v>       0.00219298 </v>
   <v>       0.00219298 </v>
   <v>       0.00219298 </v>
   <v>       0.00219298 </v>
   <v>       0.00219298 </v>
   <v>       0.00109649 </v>
   <v>       0.00109649 </v>
   <v>       0.00219298 </v>
   <v>       0.00219298 </v>
   <v>       0.00219298 </v>
   <v>       0.00219298 </v>
   <v>       0.00219298 </v>
   <v>       0.00219298 </v>
   <v>       0.00219298 </v>
   <v>       0.00219298 </v>
   <v>       0.00219298 </v>
   <v>       0.00219298 </v>
   <v>       0.00219298 </v>
   <v>       0.00109649 </v>
   <v>       0.00109649 </v>
   <v>       0.00219298 </v>
   <v>       0.00219298 </v>
   <v>       0.00219298 </v>
   <v>       0.00219298 </v>
   <v>       0.00219298 </v>
   <v>       0.00219298 </v>
   <v>       0.00219298 </v>
   <v>       0.00219298 </v>
   <v>       0.00219298 </v>
   <v>       0.00219298 </v>
   <v>       0.00219298 </v>
   <v>       0.00109649 </v>
   <v>       0.00109649 </v>
   <v>       0.00219298 </v>
   <v>       0.00219298 </v>
   <v>       0.00219298 </v>
   <v>       0.00219298 </v>
   <v>       0.00219298 </v>
   <v>       0.00219298 </v>
   <v>       0.00219298 </v>
   <v>       0.00219298 </v>
   <v>       0.00219298 </v>
   <v>       0.00219298 </v>
   <v>       0.00219298 </v>
   <v>       0.00109649 </v>
   <v>       0.00109649 </v>
   <v>       0.00219298 </v>
   <v>       0.00219298 </v>
   <v>       0.00219298 </v>
   <v>       0.00219298 </v>
   <v>       0.00219298 </v>
   <v>       0.00219298 </v>
   <v>       0.00219298 </v>
   <v>       0.00219298 </v>
   <v>       0.00219298 </v>
   <v>       0.00219298 </v>
   <v>       0.00219298 </v>
   <v>       0.00109649 </v>
   <v>       0.00054825 </v>
   <v>       0.00109649 </v>
   <v>       0.00109649 </v>
   <v>       0.00109649 </v>
   <v>       0.00109649 </v>
   <v>       0.00109649 </v>
   <v>       0.00109649 </v>
   <v>       0.00109649 </v>
   <v>       0.00109649 </v>
   <v>       0.00109649 </v>
   <v>       0.00109649 </v>
   <v>       0.00109649 </v>
   <v>       0.00054825 </v>
   <v>       0.00109649 </v>
   <v>       0.00219298 </v>
   <v>       0.00219298 </v>
   <v>       0.00219298 </v>
   <v>       0.00219298 </v>
   <v>       0.00219298 </v>
   <v>       0.00219298 </v>
   <v>       0.00219298 </v>
   <v>       0.00219298 </v>
   <v>       0.00219298 </v>
   <v>       0.00219298 </v>
   <v>       0.00219298 </v>
   <v>       0.00109649 </v>
   <v>       0.00109649 </v>
   <v>       0.00219298 </v>
   <v>       0.00219298 </v>
   <v>       0.00219298 </v>
   <v>       0.00219298 </v>
   <v>       0.00219298 </v>
   <v>       0.00219298 </v>
   <v>       0.00219298 </v>
   <v>       0.00219298 </v>
   <v>       0.00219298 </v>
   <v>       0.00219298 </v>
   <v>       0.00219298 </v>
   <v>       0.00109649 </v>
   <v>       0.00109649 </v>
   <v>       0.00219298 </v>
   <v>       0.00219298 </v>
   <v>       0.00219298 </v>
   <v>       0.00219298 </v>
   <v>       0.00219298 </v>
   <v>       0.00219298 </v>
   <v>       0.00219298 </v>
   <v>       0.00219298 </v>
   <v>       0.00219298 </v>
   <v>       0.00219298 </v>
   <v>       0.00219298 </v>
   <v>       0.00109649 </v>
   <v>       0.00109649 </v>
   <v>       0.00219298 </v>
   <v>       0.00219298 </v>
   <v>       0.00219298 </v>
   <v>       0.00219298 </v>
   <v>       0.00219298 </v>
   <v>       0.00219298 </v>
   <v>       0.00219298 </v>
   <v>       0.00219298 </v>
   <v>       0.00219298 </v>
   <v>       0.00219298 </v>
   <v>       0.00219298 </v>
   <v>       0.00109649 </v>
   <v>       0.00109649 </v>
   <v>       0.00219298 </v>
   <v>       0.00219298 </v>
   <v>       0.00219298 </v>
   <v>       0.00219298 </v>
   <v>       0.00219298 </v>
   <v>       0.00219298 </v>
   <v>       0.00219298 </v>
   <v>       0.00219298 </v>
   <v>       0.00219298 </v>
   <v>       0.00219298 </v>
   <v>       0.00219298 </v>
   <v>       0.00109649 </v>
   <v>       0.00109649 </v>
   <v>       0.00219298 </v>
   <v>       0.00219298 </v>
   <v>       0.00219298 </v>
   <v>       0.00219298 </v>
   <v>       0.00219298 </v>
   <v>       0.00219298 </v>
   <v>       0.00219298 </v>
   <v>       0.00219298 </v>
   <v>       0.00219298 </v>
   <v>       0.00219298 </v>
   <v>       0.00219298 </v>
   <v>       0.00109649 </v>
   <v>       0.00109649 </v>
   <v>       0.00219298 </v>
   <v>       0.00219298 </v>
   <v>       0.00219298 </v>
   <v>       0.00219298 </v>
   <v>       0.00219298 </v>
   <v>       0.00219298 </v>
   <v>       0.00219298 </v>
   <v>       0.00219298 </v>
   <v>       0.00219298 </v>
   <v>       0.00219298 </v>
   <v>       0.00219298 </v>
   <v>       0.00109649 </v>
   <v>       0.00109649 </v>
   <v>       0.00219298 </v>
   <v>       0.00219298 </v>
   <v>       0.00219298 </v>
   <v>       0.00219298 </v>
   <v>       0.00219298 </v>
   <v>       0.00219298 </v>
   <v>       0.00219298 </v>
   <v>       0.00219298 </v>
   <v>       0.00219298 </v>
   <v>       0.00219298 </v>
   <v>       0.00219298 </v>
   <v>       0.00109649 </v>
   <v>       0.00109649 </v>
   <v>       0.00219298 </v>
   <v>       0.00219298 </v>
   <v>       0.00219298 </v>
   <v>       0.00219298 </v>
   <v>       0.00219298 </v>
   <v>       0.00219298 </v>
   <v>       0.00219298 </v>
   <v>       0.00219298 </v>
   <v>       0.00219298 </v>
   <v>       0.00219298 </v>
   <v>       0.00219298 </v>
   <v>       0.00109649 </v>
   <v>       0.00054825 </v>
   <v>       0.00109649 </v>
   <v>       0.00109649 </v>
   <v>       0.00109649 </v>
   <v>       0.00109649 </v>
   <v>       0.00109649 </v>
   <v>       0.00109649 </v>
   <v>       0.00109649 </v>
   <v>       0.00109649 </v>
   <v>       0.00109649 </v>
   <v>       0.00109649 </v>
   <v>       0.00109649 </v>
   <v>       0.00054825 </v>
   <v>       0.00109649 </v>
   <v>       0.00219298 </v>
   <v>       0.00219298 </v>
   <v>       0.00219298 </v>
   <v>       0.00219298 </v>
   <v>       0.00219298 </v>
   <v>       0.00219298 </v>
   <v>       0.00219298 </v>
   <v>       0.00219298 </v>
   <v>       0.00219298 </v>
   <v>       0.00219298 </v>
   <v>       0.00219298 </v>
   <v>       0.00109649 </v>
   <v>       0.00109649 </v>
   <v>       0.00219298 </v>
   <v>       0.00219298 </v>
   <v>       0.00219298 </v>
   <v>       0.00219298 </v>
   <v>       0.00219298 </v>
   <v>       0.00219298 </v>
   <v>       0.00219298 </v>
   <v>       0.00219298 </v>
   <v>       0.00219298 </v>
   <v>       0.00219298 </v>
   <v>       0.00219298 </v>
   <v>       0.00109649 </v>
   <v>       0.00109649 </v>
   <v>       0.00219298 </v>
   <v>       0.00219298 </v>
   <v>       0.00219298 </v>
   <v>       0.00219298 </v>
   <v>       0.00219298 </v>
   <v>       0.00219298 </v>
   <v>       0.00219298 </v>
   <v>       0.00219298 </v>
   <v>       0.00219298 </v>
   <v>       0.00219298 </v>
   <v>       0.00219298 </v>
   <v>       0.00109649 </v>
   <v>       0.00109649 </v>
   <v>       0.00219298 </v>
   <v>       0.00219298 </v>
   <v>       0.00219298 </v>
   <v>       0.00219298 </v>
   <v>       0.00219298 </v>
   <v>       0.00219298 </v>
   <v>       0.00219298 </v>
   <v>       0.00219298 </v>
   <v>       0.00219298 </v>
   <v>       0.00219298 </v>
   <v>       0.00219298 </v>
   <v>       0.00109649 </v>
   <v>       0.00109649 </v>
   <v>       0.00219298 </v>
   <v>       0.00219298 </v>
   <v>       0.00219298 </v>
   <v>       0.00219298 </v>
   <v>       0.00219298 </v>
   <v>       0.00219298 </v>
   <v>       0.00219298 </v>
   <v>       0.00219298 </v>
   <v>       0.00219298 </v>
   <v>       0.00219298 </v>
   <v>       0.00219298 </v>
   <v>       0.00109649 </v>
   <v>       0.00109649 </v>
   <v>       0.00219298 </v>
   <v>       0.00219298 </v>
   <v>       0.00219298 </v>
   <v>       0.00219298 </v>
   <v>       0.00219298 </v>
   <v>       0.00219298 </v>
   <v>       0.00219298 </v>
   <v>       0.00219298 </v>
   <v>       0.00219298 </v>
   <v>       0.00219298 </v>
   <v>       0.00219298 </v>
   <v>       0.00109649 </v>
   <v>       0.00109649 </v>
   <v>       0.00219298 </v>
   <v>       0.00219298 </v>
   <v>       0.00219298 </v>
   <v>       0.00219298 </v>
   <v>       0.00219298 </v>
   <v>       0.00219298 </v>
   <v>       0.00219298 </v>
   <v>       0.00219298 </v>
   <v>       0.00219298 </v>
   <v>       0.00219298 </v>
   <v>       0.00219298 </v>
   <v>       0.00109649 </v>
   <v>       0.00109649 </v>
   <v>       0.00219298 </v>
   <v>       0.00219298 </v>
   <v>       0.00219298 </v>
   <v>       0.00219298 </v>
   <v>       0.00219298 </v>
   <v>       0.00219298 </v>
   <v>       0.00219298 </v>
   <v>       0.00219298 </v>
   <v>       0.00219298 </v>
   <v>       0.00219298 </v>
   <v>       0.00219298 </v>
   <v>       0.00109649 </v>
   <v>       0.00109649 </v>
   <v>       0.00219298 </v>
   <v>       0.00219298 </v>
   <v>       0.00219298 </v>
   <v>       0.00219298 </v>
   <v>       0.00219298 </v>
   <v>       0.00219298 </v>
   <v>       0.00219298 </v>
   <v>       0.00219298 </v>
   <v>       0.00219298 </v>
   <v>       0.00219298 </v>
   <v>       0.00219298 </v>
   <v>       0.00109649 </v>
   <v>       0.00027412 </v>
   <v>       0.00054825 </v>
   <v>       0.00054825 </v>
   <v>       0.00054825 </v>
   <v>       0.00054825 </v>
   <v>       0.00054825 </v>
   <v>       0.00054825 </v>
   <v>       0.00054825 </v>
   <v>       0.00054825 </v>
   <v>       0.00054825 </v>
   <v>       0.00054825 </v>
   <v>       0.00054825 </v>
   <v>       0.00027412 </v>
   <v>       0.00054825 </v>
   <v>       0.00109649 </v>
   <v>       0.00109649 </v>
   <v>       0.00109649 </v>
   <v>       0.00109649 </v>
   <v>       0.00109649 </v>
   <v>       0.00109649 </v>
   <v>       0.00109649 </v>
   <v>       0.00109649 </v>
   <v>       0.00109649 </v>
   <v>       0.00109649 </v>
   <v>       0.00109649 </v>
   <v>       0.00054825 </v>
   <v>       0.00054825 </v>
   <v>       0.00109649 </v>
   <v>       0.00109649 </v>
   <v>       0.00109649 </v>
   <v>       0.00109649 </v>
   <v>       0.00109649 </v>
   <v>       0.00109649 </v>
   <v>       0.00109649 </v>
   <v>       0.00109649 </v>
   <v>       0.00109649 </v>
   <v>       0.00109649 </v>
   <v>       0.00109649 </v>
   <v>       0.00054825 </v>
   <v>       0.00054825 </v>
   <v>       0.00109649 </v>
   <v>       0.00109649 </v>
   <v>       0.00109649 </v>
   <v>       0.00109649 </v>
   <v>       0.00109649 </v>
   <v>       0.00109649 </v>
   <v>       0.00109649 </v>
   <v>       0.00109649 </v>
   <v>       0.00109649 </v>
   <v>       0.00109649 </v>
   <v>       0.00109649 </v>
   <v>       0.00054825 </v>
   <v>       0.00054825 </v>
   <v>       0.00109649 </v>
   <v>       0.00109649 </v>
   <v>       0.00109649 </v>
   <v>       0.00109649 </v>
   <v>       0.00109649 </v>
   <v>       0.00109649 </v>
   <v>       0.00109649 </v>
   <v>       0.00109649 </v>
   <v>       0.00109649 </v>
   <v>       0.00109649 </v>
   <v>       0.00109649 </v>
   <v>       0.00054825 </v>
   <v>       0.00054825 </v>
   <v>       0.00109649 </v>
   <v>       0.00109649 </v>
   <v>       0.00109649 </v>
   <v>       0.00109649 </v>
   <v>       0.00109649 </v>
   <v>       0.00109649 </v>
   <v>       0.00109649 </v>
   <v>       0.00109649 </v>
   <v>       0.00109649 </v>
   <v>       0.00109649 </v>
   <v>       0.00109649 </v>
   <v>       0.00054825 </v>
   <v>       0.00054825 </v>
   <v>       0.00109649 </v>
   <v>       0.00109649 </v>
   <v>       0.00109649 </v>
   <v>       0.00109649 </v>
   <v>       0.00109649 </v>
   <v>       0.00109649 </v>
   <v>       0.00109649 </v>
   <v>       0.00109649 </v>
   <v>       0.00109649 </v>
   <v>       0.00109649 </v>
   <v>       0.00109649 </v>
   <v>       0.00054825 </v>
   <v>       0.00054825 </v>
   <v>       0.00109649 </v>
   <v>       0.00109649 </v>
   <v>       0.00109649 </v>
   <v>       0.00109649 </v>
   <v>       0.00109649 </v>
   <v>       0.00109649 </v>
   <v>       0.00109649 </v>
   <v>       0.00109649 </v>
   <v>       0.00109649 </v>
   <v>       0.00109649 </v>
   <v>       0.00109649 </v>
   <v>       0.00054825 </v>
   <v>       0.00054825 </v>
   <v>       0.00109649 </v>
   <v>       0.00109649 </v>
   <v>       0.00109649 </v>
   <v>       0.00109649 </v>
   <v>       0.00109649 </v>
   <v>       0.00109649 </v>
   <v>       0.00109649 </v>
   <v>       0.00109649 </v>
   <v>       0.00109649 </v>
   <v>       0.00109649 </v>
   <v>       0.00109649 </v>
   <v>       0.00054825 </v>
   <v>       0.00054825 </v>
   <v>       0.00109649 </v>
   <v>       0.00109649 </v>
   <v>       0.00109649 </v>
   <v>       0.00109649 </v>
   <v>       0.00109649 </v>
   <v>       0.00109649 </v>
   <v>       0.00109649 </v>
   <v>       0.00109649 </v>
   <v>       0.00109649 </v>
   <v>       0.00109649 </v>
   <v>       0.00109649 </v>
   <v>       0.00054825 </v>
  </varray>
 </kpoints>
 <parameters>
  <separator name="general" >
   <i type="string" name="SYSTEM">unknown system</i>
   <i type="logical" name="LCOMPAT"> F  </i>
  </separator>
  <separator name="electronic" >
   <i type="string" name="PREC">accura</i>
   <i name="ENMAX">    500.00000000</i>
   <i name="ENAUG">    586.98000000</i>
   <i name="EDIFF">      0.00000100</i>
   <i type="int" name="IALGO">    68</i>
   <i type="int" name="IWAVPR">    11</i>
   <i type="int" name="NBANDS">    40</i>
   <i name="NELECT">     66.00000000</i>
   <i type="int" name="TURBO">     0</i>
   <i type="int" name="IRESTART">     0</i>
   <i type="int" name="NREBOOT">     0</i>
   <i type="int" name="NMIN">     0</i>
   <i name="EREF">      0.00000000</i>
   <separator name="electronic smearing" >
    <i type="int" name="ISMEAR">     1</i>
    <i name="SIGMA">      0.30000000</i>
    <i name="KSPACING">      0.50000000</i>
    <i type="logical" name="KGAMMA"> T  </i>
   </separator>
   <separator name="electronic projectors" >
    <i type="logical" name="LREAL"> F  </i>
    <v name="ROPT">      0.00000000      0.00000000      0.00000000</v>
    <i type="int" name="LMAXPAW">  -100</i>
    <i type="int" name="LMAXMIX">     2</i>
    <i type="logical" name="NLSPLINE"> F  </i>
   </separator>
   <separator name="electronic startup" >
    <i type="int" name="ISTART">     0</i>
    <i type="int" name="ICHARG">     2</i>
    <i type="int" name="INIWAV">     1</i>
   </separator>
   <separator name="electronic spin" >
    <i type="int" name="ISPIN">     1</i>
    <i type="logical" name="LNONCOLLINEAR"> F  </i>
    <v name="MAGMOM">      1.00000000      1.00000000      1.00000000      1.00000000      1.00000000      1.00000000</v>
    <i name="NUPDOWN">     -1.00000000</i>
    <i type="logical" name="LSORBIT"> F  </i>
    <v name="SAXIS">      0.00000000      0.00000000      1.00000000</v>
    <i type="logical" name="LSPIRAL"> F  </i>
    <v name="QSPIRAL">      0.00000000      0.00000000      0.00000000</v>
    <i type="logical" name="LZEROZ"> F  </i>
   </separator>
   <separator name="electronic exchange-correlation" >
    <i type="logical" name="LASPH"> F  </i>
    <i type="logical" name="LMETAGGA"> F  </i>
   </separator>
   <separator name="electronic convergence" >
    <i type="int" name="NELM">   200</i>
    <i type="int" name="NELMDL">     0</i>
    <i type="int" name="NELMIN">     4</i>
    <i name="ENINI">    500.00000000</i>
    <separator name="electronic convergence detail" >
     <i type="logical" name="LDIAG"> T  </i>
     <i type="logical" name="LSUBROT"> F  </i>
     <i name="WEIMIN">      0.00100000</i>
     <i name="EBREAK">      0.00000001</i>
     <i name="DEPER">      0.30000000</i>
     <i type="int" name="NRMM">     4</i>
     <i name="TIME">      0.40000000</i>
    </separator>
   </separator>
   <separator name="electronic mixer" >
    <i name="AMIX">      0.40000000</i>
    <i name="BMIX">      1.00000000</i>
    <i name="AMIN">      0.10000000</i>
    <i name="AMIX_MAG">      1.60000000</i>
    <i name="BMIX_MAG">      1.00000000</i>
    <separator name="electronic mixer details" >
     <i type="int" name="IMIX">     4</i>
     <i type="int" name="MAXMIX">   -45</i>
     <i name="WC">    100.00000000</i>
     <i type="int" name="INIMIX">     1</i>
     <i type="int" name="MIXPRE">     1</i>
     <i type="int" name="MREMOVE">     5</i>
    </separator>
   </separator>
   <separator name="electronic dipolcorrection" >
    <i type="logical" name="LDIPOL"> F  </i>
    <i type="logical" name="LMONO"> F  </i>
    <i type="int" name="IDIPOL">     0</i>
    <i name="EPSILON">      1.00000000</i>
    <v name="DIPOL">   -100.00000000   -100.00000000   -100.00000000</v>
    <i name="EFIELD">      0.00000000</i>
   </separator>
  </separator>
  <separator name="grids" >
   <i type="int" name="NGX">    24</i>
   <i type="int" name="NGY">    28</i>
   <i type="int" name="NGZ">    70</i>
   <i type="int" name="NGXF">    48</i>
   <i type="int" name="NGYF">    56</i>
   <i type="int" name="NGZF">   140</i>
   <i type="logical" name="ADDGRID"> T  </i>
  </separator>
  <separator name="ionic" >
   <i type="int" name="NSW">    30</i>
   <i type="int" name="IBRION">     2</i>
   <i type="int" name="ISIF">     3</i>
   <i name="PSTRESS">      0.00000000</i>
   <i name="EDIFFG">     -0.02000000</i>
   <i type="int" name="NFREE">     1</i>
   <i name="POTIM">      0.50000000</i>
   <i name="SMASS">     -3.00000000</i>
   <i name="SCALEE">      1.00000000</i>
  </separator>
  <separator name="ionic md" >
   <i name="TEBEG">      0.00010000</i>
   <i name="TEEND">      0.00010000</i>
   <i type="int" name="NBLOCK">     1</i>
   <i type="int" name="KBLOCK">    30</i>
   <i type="int" name="NPACO">   256</i>
   <i name="APACO">     16.00000000</i>
  </separator>
  <separator name="symmetry" >
   <i type="int" name="ISYM">     2</i>
   <i name="SYMPREC">      0.00001000</i>
  </separator>
  <separator name="dos" >
   <i type="logical" name="LORBIT"> F  </i>
   <v name="RWIGS">     -1.00000000     -1.00000000     -1.00000000</v>
   <i type="int" name="NEDOS">   301</i>
   <i name="EMIN">     10.00000000</i>
   <i name="EMAX">    -10.00000000</i>
   <i name="EFERMI">      0.00000000</i>
  </separator>
  <separator name="writing" >
   <i type="int" name="NWRITE">     2</i>
   <i type="logical" name="LWAVE"> F  </i>
   <i type="logical" name="LCHARG"> F  </i>
   <i type="logical" name="LPARD"> F  </i>
   <i type="logical" name="LVTOT"> F  </i>
   <i type="logical" name="LVHAR"> F  </i>
   <i type="logical" name="LELF"> F  </i>
   <i type="logical" name="LOPTICS"> F  </i>
   <v name="STM">      0.00000000      0.00000000      0.00000000      0.00000000      0.00000000      0.00000000      0.00000000</v>
  </separator>
  <separator name="performance" >
   <i type="int" name="NPAR">     4</i>
   <i type="int" name="NSIM">     4</i>
   <i type="int" name="NBLK">    -1</i>
   <i type="logical" name="LPLANE"> T  </i>
   <i type="logical" name="LSCALAPACK"> T  </i>
   <i type="logical" name="LSCAAWARE"> F  </i>
   <i type="logical" name="LSCALU"> F  </i>
   <i type="logical" name="LASYNC"> F  </i>
   <i type="logical" name="LORBITALREAL"> F  </i>
  </separator>
  <separator name="miscellaneous" >
   <i type="int" name="IDIOT">     3</i>
   <i type="logical" name="LMUSIC"> F  </i>
   <v name="POMASS">     63.54600000    107.86800000    196.96600000</v>
   <v name="DARWINR">      0.00000000      0.00000000      0.00000000</v>
   <v name="DARWINV">      1.00000000      1.00000000      1.00000000</v>
   <i type="logical" name="LCORR"> T  </i>
  </separator>
  <i type="logical" name="GGA_COMPAT"> T  </i>
  <i type="logical" name="LBERRY"> F  </i>
  <i type="int" name="ICORELEVEL">     0</i>
  <i type="logical" name="LDAU"> F  </i>
  <i type="int" name="I_CONSTRAINED_M">     0</i>
  <separator name="electronic exchange-correlation" >
   <i type="string" name="GGA">--</i>
   <i type="int" name="VOSKOWN">     0</i>
   <i type="logical" name="LHFCALC"> F  </i>
   <i type="string" name="PRECFOCK"></i>
   <i type="logical" name="LSYMGRAD"> F  </i>
   <i type="logical" name="LHFONE"> F  </i>
   <i type="logical" name="LRHFCALC"> F  </i>
   <i type="logical" name="LTHOMAS"> F  </i>
   <i type="logical" name="LMODELHF"> F  </i>
   <i name="ENCUT4O">     -1.00000000</i>
   <i type="int" name="EXXOEP">     0</i>
   <i type="int" name="FOURORBIT">     0</i>
   <i name="AEXX">      0.00000000</i>
   <i name="HFALPHA">      0.00000000</i>
   <i name="MCALPHA">      0.00000000</i>
   <i name="ALDAX">      1.00000000</i>
   <i name="AGGAX">      1.00000000</i>
   <i name="ALDAC">      1.00000000</i>
   <i name="AGGAC">      1.00000000</i>
   <i type="int" name="NKREDX">     1</i>
   <i type="int" name="NKREDY">     1</i>
   <i type="int" name="NKREDZ">     1</i>
   <i type="logical" name="SHIFTRED"> F  </i>
   <i type="logical" name="ODDONLY"> F  </i>
   <i type="logical" name="EVENONLY"> F  </i>
   <i type="int" name="LMAXFOCK">     0</i>
   <i type="int" name="NMAXFOCKAE">     0</i>
   <i type="logical" name="LFOCKAEDFT"> F  </i>
   <i name="HFSCREEN">      0.00000000</i>
   <i name="HFSCREENC">      0.00000000</i>
   <i type="int" name="NBANDSGWLOW">     0</i>
  </separator>
  <separator name="vdW DFT" >
   <i type="logical" name="LUSE_VDW"> F  </i>
   <i name="Zab_VDW">     -0.84910000</i>
   <i name="PARAM1">      0.12340000</i>
   <i name="PARAM2">      1.00000000</i>
   <i name="PARAM3">      0.00000000</i>
  </separator>
  <separator name="model GW" >
   <i type="int" name="MODEL_GW">     0</i>
   <i name="MODEL_EPS0">      9.62381281</i>
   <i name="MODEL_ALPHA">      1.00000000</i>
  </separator>
  <separator name="linear response parameters" >
   <i type="logical" name="LEPSILON"> F  </i>
   <i type="logical" name="LRPA"> F  </i>
   <i type="logical" name="LNABLA"> F  </i>
   <i type="logical" name="LVEL"> F  </i>
   <i type="int" name="KINTER">     0</i>
   <i name="CSHIFT">      0.10000000</i>
   <i name="OMEGAMAX">     -1.00000000</i>
   <i name="DEG_THRESHOLD">      0.00200000</i>
  </separator>
  <separator name="orbital magnetization" >
   <i type="logical" name="NUCIND"> F  </i>
   <v name="MAGPOS">      0.00000000      0.00000000      0.00000000</v>
   <i type="logical" name="LNICSALL"> T  </i>
   <i type="logical" name="ORBITALMAG"> F  </i>
   <i type="logical" name="LMAGBLOCH"> F  </i>
   <i type="logical" name="LCHIMAG"> F  </i>
   <i type="logical" name="LGAUGE"> T  </i>
   <i type="int" name="MAGATOM">     0</i>
   <v name="MAGDIPOL">      0.00000000      0.00000000      0.00000000</v>
   <v name="AVECCONST">      0.00000000      0.00000000      0.00000000</v>
  </separator>
  <separator name="response functions" >
   <i type="logical" name="LADDER"> F  </i>
   <i type="logical" name="LFXC"> F  </i>
   <i type="logical" name="LHARTREE"> T  </i>
   <i type="int" name="IBSE">     0</i>
   <i type="logical" name="LTCTE"> F  </i>
   <i type="logical" name="LTETE"> F  </i>
   <i type="logical" name="LTRIPLET"> F  </i>
   <i type="logical" name="LFXCEPS"> F  </i>
   <i type="logical" name="LFXHEG"> F  </i>
   <i type="logical" name="L2ORDER"> F  </i>
   <i type="logical" name="LUSEW"> F  </i>
   <i name="ENCUTGW">     -2.00000000</i>
   <i name="ENCUTGWSOFT">     -2.00000000</i>
   <i name="ENCUTLF">     -1.00000000</i>
   <i type="int" name="LMAXMP2">    -1</i>
   <i name="SCISSOR">      0.00000000</i>
   <i type="int" name="NOMEGA">     0</i>
   <i type="int" name="NOMEGAR">     0</i>
   <i type="int" name="NBANDSGW">    -1</i>
   <i type="int" name="NBANDSO">    -1</i>
   <i type="int" name="NBANDSV">    -1</i>
   <i type="int" name="NELM">   200</i>
   <i type="int" name="DIM">     3</i>
   <i type="int" name="ANTIRES">     0</i>
   <i name="OMEGAMAX">    -30.00000000</i>
   <i name="OMEGAMIN">    -30.00000000</i>
   <i name="OMEGATL">   -200.00000000</i>
   <i type="int" name="OMEGAGRID">     0</i>
   <i name="CSHIFT">     -0.10000000</i>
   <i type="logical" name="SELFENERGY"> F  </i>
   <i type="logical" name="LSPECTRAL"> F  </i>
   <i type="logical" name="ODDONLYGW"> F  </i>
   <i type="logical" name="EVENONLYGW"> F  </i>
   <i type="int" name="NKREDLFX">     1</i>
   <i type="int" name="NKREDLFY">     1</i>
   <i type="int" name="NKREDLFZ">     1</i>
   <i type="int" name="MAXMEM">  1800</i>
   <i type="int" name="TELESCOPE">     0</i>
   <i type="int" name="TAUPAR">     1</i>
  </separator>
  <separator name="External order field" >
   <i name="OFIELD_KAPPA">      0.00000000</i>
   <v name="OFIELD_K">      0.00000000      0.00000000      0.00000000</v>
   <i name="OFIELD_Q6_NEAR">      0.00000000</i>
   <i name="OFIELD_Q6_FAR">      0.00000000</i>
   <i name="OFIELD_A">      0.00000000</i>
  </separator>
 </parameters>
 <atominfo>
  <atoms>       6 </atoms>
  <types>       3 </types>
  <array name="atoms" >
   <dimension dim="1">ion</dimension>
   <field type="string">element</field>
   <field type="int">atomtype</field>
   <set>
    <rc><c>Cu</c><c>   1</c></rc>
    <rc><c>Cu</c><c>   1</c></rc>
    <rc><c>Ag</c><c>   2</c></rc>
    <rc><c>Au</c><c>   3</c></rc>
    <rc><c>Au</c><c>   3</c></rc>
    <rc><c>Au</c><c>   3</c></rc>
   </set>
  </array>
  <array name="atomtypes" >
   <dimension dim="1">type</dimension>
   <field type="int">atomspertype</field>
   <field type="string">element</field>
   <field>mass</field>
   <field>valence</field>
   <field type="string">pseudopotential</field>
   <set>
    <rc><c>   2</c><c>Cu</c><c>     63.54600000</c><c>     11.00000000</c><c>  PAW_PBE Cu 22Jun2005                  </c></rc>
    <rc><c>   1</c><c>Ag</c><c>    107.86800000</c><c>     11.00000000</c><c>  PAW_PBE Ag 02Apr2005                  </c></rc>
    <rc><c>   3</c><c>Au</c><c>    196.96600000</c><c>     11.00000000</c><c>  PAW_PBE Au 04Oct2007                  </c></rc>
   </set>
  </array>
 </atominfo>
 <structure name="initialpos" >
  <crystal>
   <varray name="basis" >
    <v>       0.00000000       2.03334228       2.03334228 </v>
    <v>       3.69652301       0.00000000       0.00000000 </v>
    <v>       0.00000000       6.40196456      -6.40196456 </v>
   </varray>
   <i name="volume">     96.23812813 </i>
   <varray name="rec_basis" >
    <v>       0.00000000       0.24590056       0.24590056 </v>
    <v>       0.27052449       0.00000000       0.00000000 </v>
    <v>       0.00000000       0.07810103      -0.07810103 </v>
   </varray>
  </crystal>
  <varray name="positions" >
   <v>       0.00000000       0.00000000       0.33347869 </v>
   <v>       0.50000000       0.50000000       0.83573372 </v>
   <v>       0.00000000       0.00000000       0.67439721 </v>
   <v>       0.00000000       0.00000000       0.98724055 </v>
   <v>       0.50000000       0.50000000       0.17687741 </v>
   <v>       0.50000000       0.50000000       0.49227243 </v>
  </varray>
 </structure>
 <calculation>
  <scstep>
   <time name="dav">   10.49   10.49</time>
   <time name="total">   10.57   10.58</time>
   <energy>
    <i name="alphaZ">    362.07825771 </i>
    <i name="ewald">  -5973.59265704 </i>
    <i name="hartreedc">  -1400.12832088 </i>
    <i name="XCdc">    127.27982297 </i>
    <i name="pawpsdc">   6082.16797914 </i>
    <i name="pawaedc">  -6178.47661296 </i>
    <i name="eentropy">      0.00041260 </i>
    <i name="bandstr">   1016.04624733 </i>
    <i name="atom">   6597.46278871 </i>
    <i name="e_fr_energy">    632.83791759 </i>
    <i name="e_wo_entrp">    632.83750499 </i>
    <i name="e_0_energy">    632.83778005 </i>
   </energy>
  </scstep>
  <scstep>
   <time name="dav">   10.99   10.99</time>
   <time name="total">   11.03   11.04</time>
   <energy>
    <i name="e_fr_energy">     39.85955096 </i>
    <i name="e_wo_entrp">     39.85885985 </i>
    <i name="e_0_energy">     39.85932059 </i>
   </energy>
  </scstep>
  <scstep>
   <time name="dav">   11.73   11.73</time>
   <time name="total">   11.77   11.79</time>
   <energy>
    <i name="e_fr_energy">    -20.48547605 </i>
    <i name="e_wo_entrp">    -20.48838923 </i>
    <i name="e_0_energy">    -20.48644711 </i>
   </energy>
  </scstep>
  <scstep>
   <time name="dav">   12.44   12.45</time>
   <time name="total">   12.49   12.51</time>
   <energy>
    <i name="e_fr_energy">    -22.34457946 </i>
    <i name="e_wo_entrp">    -22.34730512 </i>
    <i name="e_0_energy">    -22.34548802 </i>
   </energy>
  </scstep>
  <scstep>
   <time name="dav">   12.63   12.63</time>
   <time name="total">   13.42   13.44</time>
   <energy>
    <i name="e_fr_energy">    -22.39084002 </i>
    <i name="e_wo_entrp">    -22.39356416 </i>
    <i name="e_0_energy">    -22.39174807 </i>
   </energy>
  </scstep>
  <scstep>
   <time name="diag">    2.91    2.91</time>
   <time name="diis">    5.23    5.23</time>
   <time name="orth">    0.40    0.40</time>
   <time name="total">    9.37    9.38</time>
   <energy>
    <i name="e_fr_energy">    -21.14091807 </i>
    <i name="e_wo_entrp">    -21.14284447 </i>
    <i name="e_0_energy">    -21.14156020 </i>
   </energy>
  </scstep>
  <scstep>
   <time name="diag">    2.91    2.91</time>
   <time name="diis">    5.51    5.51</time>
   <time name="orth">    0.39    0.39</time>
   <time name="total">    9.64    9.65</time>
   <energy>
    <i name="e_fr_energy">    -20.21770010 </i>
    <i name="e_wo_entrp">    -20.21994404 </i>
    <i name="e_0_energy">    -20.21844808 </i>
   </energy>
  </scstep>
  <scstep>
   <time name="diag">    2.90    2.90</time>
   <time name="diis">    5.28    5.28</time>
   <time name="orth">    0.40    0.40</time>
   <time name="total">    9.41    9.42</time>
   <energy>
    <i name="e_fr_energy">    -19.95726608 </i>
    <i name="e_wo_entrp">    -19.95880054 </i>
    <i name="e_0_energy">    -19.95777757 </i>
   </energy>
  </scstep>
  <scstep>
   <time name="diag">    2.84    2.84</time>
   <time name="diis">    5.35    5.35</time>
   <time name="orth">    0.42    0.42</time>
   <time name="total">    9.47    9.49</time>
   <energy>
    <i name="e_fr_energy">    -20.00167143 </i>
    <i name="e_wo_entrp">    -20.00338741 </i>
    <i name="e_0_energy">    -20.00224343 </i>
   </energy>
  </scstep>
  <scstep>
   <time name="diag">    2.84    2.84</time>
   <time name="diis">    5.29    5.29</time>
   <time name="orth">    0.40    0.40</time>
   <time name="total">    9.36    9.37</time>
   <energy>
    <i name="e_fr_energy">    -19.94760823 </i>
    <i name="e_wo_entrp">    -19.94929510 </i>
    <i name="e_0_energy">    -19.94817052 </i>
   </energy>
  </scstep>
  <scstep>
   <time name="diag">    2.84    2.84</time>
   <time name="diis">    5.32    5.32</time>
   <time name="orth">    0.40    0.40</time>
   <time name="total">    9.43    9.45</time>
   <energy>
    <i name="e_fr_energy">    -19.94325654 </i>
    <i name="e_wo_entrp">    -19.94487810 </i>
    <i name="e_0_energy">    -19.94379706 </i>
   </energy>
  </scstep>
  <scstep>
   <time name="diag">    2.91    2.92</time>
   <time name="diis">    6.86    6.86</time>
   <time name="orth">    0.40    0.40</time>
   <time name="total">   11.00   11.03</time>
   <energy>
    <i name="e_fr_energy">    -19.94347337 </i>
    <i name="e_wo_entrp">    -19.94509209 </i>
    <i name="e_0_energy">    -19.94401294 </i>
   </energy>
  </scstep>
  <scstep>
   <time name="diag">    2.84    2.84</time>
[...]
       <r>    5.5083    1.0000 </r>
       <r>    5.7429    1.0000 </r>
       <r>    5.8345    1.0000 </r>
       <r>    6.0137    1.0000 </r>
       <r>    6.1241    1.0000 </r>
       <r>    6.2278    1.0000 </r>
       <r>    6.3258    1.0000 </r>
       <r>    6.4449    1.0000 </r>
       <r>    6.4550    1.0000 </r>
       <r>    8.2680    0.2717 </r>
       <r>    8.5372   -0.0351 </r>
       <r>    8.8909   -0.0021 </r>
       <r>    9.1597    0.0000 </r>
       <r>   11.7900    0.0000 </r>
       <r>   12.0683    0.0000 </r>
       <r>   12.1380    0.0000 </r>
       <r>   12.8455    0.0000 </r>
       <r>   12.9684    0.0000 </r>
       <r>   13.4067    0.0000 </r>
      </set>
      <set comment="kpoint 649">
       <r>    1.9062    1.0000 </r>
       <r>    1.9261    1.0000 </r>
       <r>    2.1262    1.0000 </r>
       <r>    2.1791    1.0000 </r>
       <r>    2.3619    1.0000 </r>
       <r>    2.4030    1.0000 </r>
       <r>    2.7514    1.0000 </r>
       <r>    2.7654    1.0000 </r>
       <r>    3.7439    1.0000 </r>
       <r>    3.7537    1.0000 </r>
       <r>    3.9368    1.0000 </r>
       <r>    3.9415    1.0000 </r>
       <r>    4.1084    1.0000 </r>
       <r>    4.1979    1.0000 </r>
       <r>    4.4620    1.0000 </r>
       <r>    4.6988    1.0000 </r>
       <r>    4.8565    1.0000 </r>
       <r>    5.0440    1.0000 </r>
       <r>    5.3901    1.0000 </r>
       <r>    5.5622    1.0000 </r>
       <r>    5.5871    1.0000 </r>
       <r>    5.6789    1.0000 </r>
       <r>    5.7436    1.0000 </r>
       <r>    5.8572    1.0000 </r>
       <r>    6.0409    1.0000 </r>
       <r>    6.2445    1.0000 </r>
       <r>    6.2839    1.0000 </r>
       <r>    6.3636    1.0000 </r>
       <r>    6.4920    1.0000 </r>
       <r>    6.5007    1.0000 </r>
       <r>    8.7513   -0.0111 </r>
       <r>    9.0254   -0.0003 </r>
       <r>    9.1873    0.0000 </r>
       <r>    9.4492    0.0000 </r>
       <r>   11.2700    0.0000 </r>
       <r>   11.5015    0.0000 </r>
       <r>   12.0978    0.0000 </r>
       <r>   12.7074    0.0000 </r>
       <r>   12.8274    0.0000 </r>
       <r>   13.4461    0.0000 </r>
      </set>
      <set comment="kpoint 650">
       <r>    1.8951    1.0000 </r>
       <r>    1.9058    1.0000 </r>
       <r>    2.1194    1.0000 </r>
       <r>    2.1665    1.0000 </r>
       <r>    2.3385    1.0000 </r>
       <r>    2.3815    1.0000 </r>
       <r>    2.7509    1.0000 </r>
       <r>    2.7631    1.0000 </r>
       <r>    3.7459    1.0000 </r>
       <r>    3.7499    1.0000 </r>
       <r>    3.9469    1.0000 </r>
       <r>    3.9483    1.0000 </r>
       <r>    4.1211    1.0000 </r>
       <r>    4.2081    1.0000 </r>
       <r>    4.4640    1.0000 </r>
       <r>    4.6969    1.0000 </r>
       <r>    4.8584    1.0000 </r>
       <r>    5.0481    1.0000 </r>
       <r>    5.4513    1.0000 </r>
       <r>    5.5912    1.0000 </r>
       <r>    5.6177    1.0000 </r>
       <r>    5.7398    1.0000 </r>
       <r>    5.7410    1.0000 </r>
       <r>    5.8617    1.0000 </r>
       <r>    6.0471    1.0000 </r>
       <r>    6.2899    1.0000 </r>
       <r>    6.3120    1.0000 </r>
       <r>    6.3816    1.0000 </r>
       <r>    6.5090    1.0000 </r>
       <r>    6.5166    1.0000 </r>
       <r>    9.1229    0.0000 </r>
       <r>    9.1610    0.0000 </r>
       <r>    9.4365    0.0000 </r>
       <r>    9.4595    0.0000 </r>
       <r>   10.9003    0.0000 </r>
       <r>   11.2755    0.0000 </r>
       <r>   11.8825    0.0000 </r>
       <r>   12.6643    0.0000 </r>
       <r>   13.0115    0.0000 </r>
       <r>   13.7586    0.0000 </r>
      </set>
     </set>
    </set>
   </array>
  </eigenvalues>
  <separator name="orbital magnetization" >
   <v name="MAGDIPOLOUT">      0.00000000      0.00000000      0.00000000</v>
  </separator>
  <dos>
   <i name="efermi">      8.18352297 </i>
   <total>
    <array>
     <dimension dim="1">gridpoints</dimension>
     <dimension dim="2">spin</dimension>
     <field>energy</field>
     <field>total</field>
     <field>integrated</field>
     <set>
      <set comment="spin 1">
       <r>    -3.9277     0.0000     0.0000 </r>
       <r>    -3.8479     0.0000     0.0000 </r>
       <r>    -3.7680     0.0000     0.0000 </r>
       <r>    -3.6881     0.0000     0.0000 </r>
       <r>    -3.6082     0.0000     0.0000 </r>
       <r>    -3.5283     0.0000     0.0000 </r>
       <r>    -3.4484     0.0000     0.0000 </r>
       <r>    -3.3686     0.0000     0.0000 </r>
       <r>    -3.2887     0.0000     0.0000 </r>
       <r>    -3.2088     0.0000     0.0000 </r>
       <r>    -3.1289     0.0000     0.0000 </r>
       <r>    -3.0490     0.0000     0.0000 </r>
       <r>    -2.9691     0.0000     0.0000 </r>
       <r>    -2.8893     0.0000     0.0000 </r>
       <r>    -2.8094     0.0000     0.0000 </r>
       <r>    -2.7295     0.0000     0.0000 </r>
       <r>    -2.6496     0.0000     0.0000 </r>
       <r>    -2.5697     0.0000     0.0000 </r>
       <r>    -2.4898     0.0000     0.0000 </r>
       <r>    -2.4099     0.0000     0.0000 </r>
       <r>    -2.3301     0.0000     0.0000 </r>
       <r>    -2.2502     0.0000     0.0000 </r>
       <r>    -2.1703     0.0000     0.0000 </r>
       <r>    -2.0904     0.0000     0.0000 </r>
       <r>    -2.0105     0.0000     0.0000 </r>
       <r>    -1.9306     0.0000     0.0000 </r>
       <r>    -1.8508     0.0000     0.0000 </r>
       <r>    -1.7709     0.0000     0.0000 </r>
       <r>    -1.6910    -0.0001     0.0000 </r>
       <r>    -1.6111    -0.0002     0.0000 </r>
       <r>    -1.5312    -0.0007    -0.0001 </r>
       <r>    -1.4513    -0.0018    -0.0002 </r>
       <r>    -1.3715    -0.0038    -0.0005 </r>
       <r>    -1.2916    -0.0067    -0.0011 </r>
       <r>    -1.2117    -0.0090    -0.0018 </r>
       <r>    -1.1318    -0.0070    -0.0023 </r>
       <r>    -1.0519     0.0051    -0.0019 </r>
       <r>    -0.9720     0.0331     0.0007 </r>
       <r>    -0.8921     0.0799     0.0071 </r>
       <r>    -0.8123     0.1425     0.0185 </r>
       <r>    -0.7324     0.2125     0.0355 </r>
       <r>    -0.6525     0.2786     0.0577 </r>
       <r>    -0.5726     0.3317     0.0842 </r>
       <r>    -0.4927     0.3672     0.1135 </r>
       <r>    -0.4128     0.3866     0.1444 </r>
       <r>    -0.3330     0.3953     0.1760 </r>
       <r>    -0.2531     0.4008     0.2080 </r>
       <r>    -0.1732     0.4104     0.2408 </r>
       <r>    -0.0933     0.4295     0.2751 </r>
       <r>    -0.0134     0.4595     0.3118 </r>
       <r>     0.0665     0.4984     0.3516 </r>
       <r>     0.1463     0.5421     0.3950 </r>
       <r>     0.2262     0.5873     0.4419 </r>
       <r>     0.3061     0.6328     0.4924 </r>
       <r>     0.3860     0.6787     0.5466 </r>
       <r>     0.4659     0.7261     0.6046 </r>
       <r>     0.5458     0.7766     0.6667 </r>
       <r>     0.6257     0.8322     0.7332 </r>
       <r>     0.7055     0.8950     0.8047 </r>
       <r>     0.7854     0.9653     0.8818 </r>
       <r>     0.8653     1.0417     0.9650 </r>
       <r>     0.9452     1.1219     1.0546 </r>
       <r>     1.0251     1.2033     1.1507 </r>
       <r>     1.1050     1.2826     1.2532 </r>
       <r>     1.1848     1.3575     1.3616 </r>
       <r>     1.2647     1.4353     1.4763 </r>
       <r>     1.3446     1.5491     1.6000 </r>
       <r>     1.4245     1.7634     1.7409 </r>
       <r>     1.5044     2.1506     1.9127 </r>
       <r>     1.5843     2.7392     2.1315 </r>
       <r>     1.6641     3.4740     2.4090 </r>
       <r>     1.7440     4.2354     2.7474 </r>
       <r>     1.8239     4.9177     3.1402 </r>
       <r>     1.9038     5.5083     3.5802 </r>
       <r>     1.9837     6.0996     4.0675 </r>
       <r>     2.0636     6.8270     4.6129 </r>
       <r>     2.1434     7.7829     5.2346 </r>
       <r>     2.2233     8.9620     5.9505 </r>
       <r>     2.3032    10.2565     6.7698 </r>
       <r>     2.3831    11.4924     7.6879 </r>
       <r>     2.4630    12.4969     8.6862 </r>
       <r>     2.5429    13.1662     9.7380 </r>
       <r>     2.6228    13.4878    10.8154 </r>
       <r>     2.7026    13.4967    11.8936 </r>
       <r>     2.7825    13.2189    12.9496 </r>
       <r>     2.8624    12.6658    13.9614 </r>
       <r>     2.9423    11.8823    14.9106 </r>
       <r>     3.0222    10.9837    15.7880 </r>
       <r>     3.1021    10.1314    16.5973 </r>
       <r>     3.1819     9.4684    17.3537 </r>
       <r>     3.2618     9.0688    18.0782 </r>
       <r>     3.3417     8.9392    18.7923 </r>
       <r>     3.4216     9.0537    19.5155 </r>
       <r>     3.5015     9.3876    20.2654 </r>
       <r>     3.5814     9.9300    21.0587 </r>
       <r>     3.6612    10.6842    21.9122 </r>
       <r>     3.7411    11.6590    22.8436 </r>
       <r>     3.8210    12.8305    23.8685 </r>
       <r>     3.9009    14.0702    24.9925 </r>
       <r>     3.9808    15.1014    26.1989 </r>
       <r>     4.0607    15.5652    27.4423 </r>
       <r>     4.1406    15.1952    28.6561 </r>
       <r>     4.2204    13.9848    29.7733 </r>
       <r>     4.3003    12.2318    30.7504 </r>
       <r>     4.3802    10.4422    31.5846 </r>
       <r>     4.4601     9.1503    32.3156 </r>
       <r>     4.5400     8.7151    33.0118 </r>
       <r>     4.6199     9.1584    33.7434 </r>
       <r>     4.6997    10.1406    34.5534 </r>
       <r>     4.7796    11.1286    35.4424 </r>
       <r>     4.8595    11.6730    36.3749 </r>
       <r>     4.9394    11.6161    37.3029 </r>
       <r>     5.0193    11.1089    38.1903 </r>
       <r>     5.0992    10.4694    39.0266 </r>
       <r>     5.1790    10.0093    39.8262 </r>
       <r>     5.2589     9.9258    40.6191 </r>
       <r>     5.3388    10.2750    41.4400 </r>
       <r>     5.4187    10.9826    42.3173 </r>
       <r>     5.4986    11.8576    43.2645 </r>
       <r>     5.5785    12.6315    44.2736 </r>
       <r>     5.6584    13.0679    45.3175 </r>
       <r>     5.7382    13.1177    46.3654 </r>
       <r>     5.8181    13.0024    47.4041 </r>
       <r>     5.8980    13.1360    48.4534 </r>
       <r>     5.9779    13.9323    49.5664 </r>
       <r>     6.0578    15.6138    50.8137 </r>
       <r>     6.1377    18.0825    52.2582 </r>
       <r>     6.2175    20.8491    53.9237 </r>
       <r>     6.2974    23.0753    55.7670 </r>
       <r>     6.3773    23.8218    57.6700 </r>
       <r>     6.4572    22.4739    59.4653 </r>
       <r>     6.5371    19.1022    60.9913 </r>
       <r>     6.6170    14.4875    62.1486 </r>
       <r>     6.6968     9.7583    62.9282 </r>
       <r>     6.7767     5.8788    63.3978 </r>
       <r>     6.8566     3.3081    63.6621 </r>
       <r>     6.9365     1.9834    63.8205 </r>
       <r>     7.0164     1.5373    63.9433 </r>
       <r>     7.0963     1.5495    64.0671 </r>
       <r>     7.1761     1.7010    64.2030 </r>
       <r>     7.2560     1.8175    64.3482 </r>
       <r>     7.3359     1.8507    64.4960 </r>
       <r>     7.4158     1.8305    64.6422 </r>
       <r>     7.4957     1.8084    64.7867 </r>
       <r>     7.5756     1.8117    64.9314 </r>
       <r>     7.6555     1.8306    65.0776 </r>
       <r>     7.7353     1.8379    65.2245 </r>
       <r>     7.8152     1.8180    65.3697 </r>
       <r>     7.8951     1.7770    65.5116 </r>
       <r>     7.9750     1.7316    65.6500 </r>
       <r>     8.0549     1.6941    65.7853 </r>
       <r>     8.1348     1.6708    65.9188 </r>
       <r>     8.2146     1.6677    66.0520 </r>
       <r>     8.2945     1.6893    66.1869 </r>
       <r>     8.3744     1.7283    66.3250 </r>
       <r>     8.4543     1.7623    66.4658 </r>
       <r>     8.5342     1.7689    66.6071 </r>
       <r>     8.6141     1.7452    66.7465 </r>
       <r>     8.6939     1.7102    66.8831 </r>
       <r>     8.7738     1.6857    67.0178 </r>
       <r>     8.8537     1.6772    67.1518 </r>
       <r>     8.9336     1.6745    67.2855 </r>
       <r>     9.0135     1.6675    67.4187 </r>
       <r>     9.0934     1.6585    67.5512 </r>
       <r>     9.1733     1.6572    67.6836 </r>
       <r>     9.2531     1.6662    67.8167 </r>
       <r>     9.3330     1.6734    67.9504 </r>
       <r>     9.4129     1.6611    68.0831 </r>
       <r>     9.4928     1.6243    68.2128 </r>
       <r>     9.5727     1.5772    68.3388 </r>
       <r>     9.6526     1.5396    68.4618 </r>
       <r>     9.7324     1.5174    68.5830 </r>
       <r>     9.8123     1.4983    68.7027 </r>
       <r>     9.8922     1.4691    68.8201 </r>
       <r>     9.9721     1.4312    68.9344 </r>
       <r>    10.0520     1.3983    69.0461 </r>
       <r>    10.1319     1.3805    69.1564 </r>
       <r>    10.2117     1.3759    69.2663 </r>
       <r>    10.2916     1.3741    69.3761 </r>
       <r>    10.3715     1.3661    69.4852 </r>
       <r>    10.4514     1.3481    69.5929 </r>
       <r>    10.5313     1.3216    69.6985 </r>
       <r>    10.6112     1.2931    69.8018 </r>
       <r>    10.6911     1.2743    69.9035 </r>
       <r>    10.7709     1.2785    70.0057 </r>
       <r>    10.8508     1.3144    70.1107 </r>
       <r>    10.9307     1.3803    70.2210 </r>
       <r>    11.0106     1.4634    70.3379 </r>
       <r>    11.0905     1.5453    70.4613 </r>
       <r>    11.1704     1.6096    70.5899 </r>
       <r>    11.2502     1.6489    70.7216 </r>
       <r>    11.3301     1.6662    70.8547 </r>
       <r>    11.4100     1.6706    70.9882 </r>
       <r>    11.4899     1.6723    71.1218 </r>
       <r>    11.5698     1.6820    71.2561 </r>
       <r>    11.6497     1.7101    71.3927 </r>
       <r>    11.7295     1.7601    71.5333 </r>
       <r>    11.8094     1.8195    71.6787 </r>
       <r>    11.8893     1.8634    71.8275 </r>
       <r>    11.9692     1.8700    71.9769 </r>
       <r>    12.0491     1.8368    72.1237 </r>
       <r>    12.1290     1.7810    72.2659 </r>
       <r>    12.2088     1.7287    72.4040 </r>
       <r>    12.2887     1.7025    72.5400 </r>
       <r>    12.3686     1.7141    72.6769 </r>
       <r>    12.4485     1.7598    72.8175 </r>
       <r>    12.5284     1.8187    72.9628 </r>
       <r>    12.6083     1.8622    73.1116 </r>
       <r>    12.6882     1.8721    73.2611 </r>
       <r>    12.7680     1.8558    73.4094 </r>
       <r>    12.8479     1.8412    73.5565 </r>
       <r>    12.9278     1.8541    73.7046 </r>
       <r>    13.0077     1.8991    73.8563 </r>
       <r>    13.0876     1.9608    74.0129 </r>
       <r>    13.1675     2.0201    74.1743 </r>
       <r>    13.2473     2.0660    74.3393 </r>
       <r>    13.3272     2.0961    74.5068 </r>
       <r>    13.4071     2.1093    74.6753 </r>
       <r>    13.4870     2.1012    74.8431 </r>
       <r>    13.5669     2.0665    75.0082 </r>
       <r>    13.6468     2.0040    75.1683 </r>
       <r>    13.7266     1.9238    75.3220 </r>
       <r>    13.8065     1.8473    75.4695 </r>
       <r>    13.8864     1.7977    75.6132 </r>
       <r>    13.9663     1.7845    75.7557 </r>
       <r>    14.0462     1.7959    75.8992 </r>
       <r>    14.1261     1.8081    76.0436 </r>
       <r>    14.2060     1.8051    76.1878 </r>
       <r>    14.2858     1.7892    76.3307 </r>
       <r>    14.3657     1.7742    76.4725 </r>
       <r>    14.4456     1.7688    76.6138 </r>
       <r>    14.5255     1.7686    76.7551 </r>
       <r>    14.6054     1.7633    76.8959 </r>
       <r>    14.6853     1.7490    77.0356 </r>
       <r>    14.7651     1.7307    77.1739 </r>
       <r>    14.8450     1.7138    77.3108 </r>
       <r>    14.9249     1.6962    77.4463 </r>
       <r>    15.0048     1.6708    77.5798 </r>
       <r>    15.0847     1.6339    77.7103 </r>
       <r>    15.1646     1.5883    77.8372 </r>
       <r>    15.2444     1.5405    77.9602 </r>
       <r>    15.3243     1.4973    78.0799 </r>
       <r>    15.4042     1.4647    78.1969 </r>
       <r>    15.4841     1.4452    78.3123 </r>
       <r>    15.5640     1.4332    78.4268 </r>
       <r>    15.6439     1.4170    78.5400 </r>
       <r>    15.7238     1.3897    78.6510 </r>
       <r>    15.8036     1.3563    78.7594 </r>
       <r>    15.8835     1.3283    78.8655 </r>
       <r>    15.9634     1.3131    78.9704 </r>
       <r>    16.0433     1.3135    79.0753 </r>
       <r>    16.1232     1.3348    79.1819 </r>
       <r>    16.2031     1.3856    79.2926 </r>
       <r>    16.2829     1.4636    79.4095 </r>
       <r>    16.3628     1.5381    79.5324 </r>
       <r>    16.4427     1.5515    79.6563 </r>
       <r>    16.5226     1.4468    79.7719 </r>
       <r>    16.6025     1.2073    79.8684 </r>
       <r>    16.6824     0.8750    79.9383 </r>
       <r>    16.7622     0.5319    79.9807 </r>
       <r>    16.8421     0.2547    80.0011 </r>
       <r>    16.9220     0.0793    80.0074 </r>
       <r>    17.0019    -0.0037    80.0071 </r>
       <r>    17.0818    -0.0277    80.0049 </r>
       <r>    17.1617    -0.0253    80.0029 </r>
       <r>    17.2415    -0.0167    80.0016 </r>
       <r>    17.3214    -0.0096    80.0008 </r>
       <r>    17.4013    -0.0052    80.0004 </r>
       <r>    17.4812    -0.0027    80.0002 </r>
       <r>    17.5611    -0.0013    80.0001 </r>
       <r>    17.6410    -0.0006    80.0000 </r>
       <r>    17.7209    -0.0002    80.0000 </r>
       <r>    17.8007    -0.0001    80.0000 </r>
       <r>    17.8806     0.0000    80.0000 </r>
       <r>    17.9605     0.0000    80.0000 </r>
       <r>    18.0404     0.0000    80.0000 </r>
       <r>    18.1203     0.0000    80.0000 </r>
       <r>    18.2002     0.0000    80.0000 </r>
       <r>    18.2800     0.0000    80.0000 </r>
       <r>    18.3599     0.0000    80.0000 </r>
       <r>    18.4398     0.0000    80.0000 </r>
       <r>    18.5197     0.0000    80.0000 </r>
       <r>    18.5996     0.0000    80.0000 </r>
       <r>    18.6795     0.0000    80.0000 </r>
       <r>    18.7593     0.0000    80.0000 </r>
       <r>    18.8392     0.0000    80.0000 </r>
       <r>    18.9191     0.0000    80.0000 </r>
       <r>    18.9990     0.0000    80.0000 </r>
       <r>    19.0789     0.0000    80.0000 </r>
       <r>    19.1588     0.0000    80.0000 </r>
       <r>    19.2387     0.0000    80.0000 </r>
       <r>    19.3185     0.0000    80.0000 </r>
       <r>    19.3984     0.0000    80.0000 </r>
       <r>    19.4783     0.0000    80.0000 </r>
       <r>    19.5582     0.0000    80.0000 </r>
       <r>    19.6381     0.0000    80.0000 </r>
       <r>    19.7180     0.0000    80.0000 </r>
       <r>    19.7978     0.0000    80.0000 </r>
       <r>    19.8777     0.0000    80.0000 </r>
       <r>    19.9576     0.0000    80.0000 </r>
       <r>    20.0375     0.0000    80.0000 </r>
      </set>
     </set>
    </array>
   </total>
  </dos>
 </calculation>
 <structure name="finalpos" >
  <crystal>
   <varray name="basis" >
    <v>       0.00000000       2.03334228       2.03334228 </v>
    <v>       3.69652301       0.00000000       0.00000000 </v>
    <v>       0.00000000       6.40196456      -6.40196456 </v>
   </varray>
   <i name="volume">     96.23812813 </i>
   <varray name="rec_basis" >
    <v>       0.00000000       0.24590056       0.24590056 </v>
    <v>       0.27052449       0.00000000       0.00000000 </v>
    <v>       0.00000000       0.07810103      -0.07810103 </v>
   </varray>
  </crystal>
  <varray name="positions" >
   <v>       0.00000000       0.00000000       0.33347869 </v>
   <v>       0.50000000       0.50000000       0.83573372 </v>
   <v>       0.00000000       0.00000000       0.67439721 </v>
   <v>       0.00000000       0.00000000       0.98724055 </v>
   <v>       0.50000000       0.50000000       0.17687741 </v>
   <v>       0.50000000       0.50000000       0.49227243 </v>
  </varray>
 </structure>
</modeling>
