<?xml version="1.0" encoding="ISO-8859-1"?>
<modeling>
 <generator>
  <i name="program" type="string">vasp </i>
  <i name="version" type="string">5.3.5  </i>
  <i name="subversion" type="string">31Mar14 (build Jun 20 2014 13:15:13) complex                          parallel </i>
  <i name="platform" type="string">LinuxIFC </i>
  <i name="date" type="string">2025 11 21 </i>
  <i name="time" type="string">11:38:42 </i>
 </generator>
 <incar>
  <i type="string" name="PREC">accurate</i>
  <i type="int" name="IALGO">    68</i>
  <i type="logical" name="ADDGRID"> T  </i>
  <i type="int" name="NELM">   100</i>
  <i type="int" name="NELMIN">     4</i>
  <i type="int" name="IBRION">     2</i>
  <i name="EDIFF">      0.00000100</i>
  <i name="EDIFFG">     -0.02000000</i>
  <i type="int" name="NSW">    30</i>
  <i type="int" name="ISIF">     3</i>
  <i name="ENCUT">    500.00000000</i>
  <i type="logical" name="LREAL"> F  </i>
  <i type="int" name="ISMEAR">     1</i>
  <i name="SIGMA">      0.30000000</i>
  <i type="logical" name="LWAVE"> F  </i>
  <i type="logical" name="LCHARG"> F  </i>
  <i type="int" name="NELM">   100</i>
 </incar>
 <kpoints>
  <generation param="Auto">
   <i name="subdivisionlength">     70.00000000 </i>
   <v type="int" name="divisions">      24       17        8 </v>
   <v name="usershift">      0.00000000       0.00000000       0.00000000 </v>
   <v name="genvec1">      0.04166667       0.00000000       0.00000000 </v>
   <v name="genvec2">      0.00000000       0.05882353       0.00000000 </v>
   <v name="genvec3">      0.00000000       0.00000000       0.12500000 </v>
   <v name="shift">      0.00000000       0.00000000       0.00000000 </v>
  </generation>
  <varray name="kpointlist" >
   <v>       0.00000000       0.00000000       0.00000000 </v>
   <v>       0.04166667       0.00000000       0.00000000 </v>
   <v>       0.08333333       0.00000000       0.00000000 </v>
   <v>       0.12500000       0.00000000       0.00000000 </v>
   <v>       0.16666667       0.00000000       0.00000000 </v>
   <v>       0.20833333       0.00000000       0.00000000 </v>
   <v>       0.25000000       0.00000000       0.00000000 </v>
   <v>       0.29166667       0.00000000       0.00000000 </v>
   <v>       0.33333333       0.00000000       0.00000000 </v>
   <v>       0.37500000       0.00000000       0.00000000 </v>
   <v>       0.41666667       0.00000000       0.00000000 </v>
   <v>       0.45833333       0.00000000       0.00000000 </v>
   <v>       0.50000000       0.00000000       0.00000000 </v>
   <v>       0.00000000       0.05882353       0.00000000 </v>
   <v>       0.04166667       0.05882353       0.00000000 </v>
   <v>       0.08333333       0.05882353       0.00000000 </v>
   <v>       0.12500000       0.05882353       0.00000000 </v>
   <v>       0.16666667       0.05882353       0.00000000 </v>
   <v>       0.20833333       0.05882353       0.00000000 </v>
   <v>       0.25000000       0.05882353       0.00000000 </v>
   <v>       0.29166667       0.05882353       0.00000000 </v>
   <v>       0.33333333       0.05882353       0.00000000 </v>
   <v>       0.37500000       0.05882353       0.00000000 </v>
   <v>       0.41666667       0.05882353       0.00000000 </v>
   <v>       0.45833333       0.05882353       0.00000000 </v>
   <v>       0.50000000       0.05882353       0.00000000 </v>
   <v>       0.00000000       0.11764706       0.00000000 </v>
   <v>       0.04166667       0.11764706       0.00000000 </v>
   <v>       0.08333333       0.11764706       0.00000000 </v>
   <v>       0.12500000       0.11764706       0.00000000 </v>
   <v>       0.16666667       0.11764706       0.00000000 </v>
   <v>       0.20833333       0.11764706       0.00000000 </v>
   <v>       0.25000000       0.11764706       0.00000000 </v>
   <v>       0.29166667       0.11764706       0.00000000 </v>
   <v>       0.33333333       0.11764706       0.00000000 </v>
   <v>       0.37500000       0.11764706       0.00000000 </v>
   <v>       0.41666667       0.11764706       0.00000000 </v>
   <v>       0.45833333       0.11764706       0.00000000 </v>
   <v>       0.50000000       0.11764706       0.00000000 </v>
   <v>       0.00000000       0.17647059       0.00000000 </v>
   <v>       0.04166667       0.17647059       0.00000000 </v>
   <v>       0.08333333       0.17647059       0.00000000 </v>
   <v>       0.12500000       0.17647059       0.00000000 </v>
   <v>       0.16666667       0.17647059       0.00000000 </v>
   <v>       0.20833333       0.17647059       0.00000000 </v>
   <v>       0.25000000       0.17647059       0.00000000 </v>
   <v>       0.29166667       0.17647059       0.00000000 </v>
   <v>       0.33333333       0.17647059       0.00000000 </v>
   <v>       0.37500000       0.17647059       0.00000000 </v>
   <v>       0.41666667       0.17647059       0.00000000 </v>
   <v>       0.45833333       0.17647059       0.00000000 </v>
   <v>       0.50000000       0.17647059       0.00000000 </v>
   <v>       0.00000000       0.23529412       0.00000000 </v>
   <v>       0.04166667       0.23529412       0.00000000 </v>
   <v>       0.08333333       0.23529412       0.00000000 </v>
   <v>       0.12500000       0.23529412       0.00000000 </v>
   <v>       0.16666667       0.23529412       0.00000000 </v>
   <v>       0.20833333       0.23529412       0.00000000 </v>
   <v>       0.25000000       0.23529412       0.00000000 </v>
   <v>       0.29166667       0.23529412       0.00000000 </v>
   <v>       0.33333333       0.23529412       0.00000000 </v>
   <v>       0.37500000       0.23529412       0.00000000 </v>
   <v>       0.41666667       0.23529412       0.00000000 </v>
   <v>       0.45833333       0.23529412       0.00000000 </v>
   <v>       0.50000000       0.23529412       0.00000000 </v>
   <v>       0.00000000       0.29411765       0.00000000 </v>
   <v>       0.04166667       0.29411765       0.00000000 </v>
   <v>       0.08333333       0.29411765       0.00000000 </v>
   <v>       0.12500000       0.29411765       0.00000000 </v>
   <v>       0.16666667       0.29411765       0.00000000 </v>
   <v>       0.20833333       0.29411765       0.00000000 </v>
   <v>       0.25000000       0.29411765       0.00000000 </v>
   <v>       0.29166667       0.29411765       0.00000000 </v>
   <v>       0.33333333       0.29411765       0.00000000 </v>
   <v>       0.37500000       0.29411765       0.00000000 </v>
   <v>       0.41666667       0.29411765       0.00000000 </v>
   <v>       0.45833333       0.29411765       0.00000000 </v>
   <v>       0.50000000       0.29411765       0.00000000 </v>
   <v>       0.00000000       0.35294118       0.00000000 </v>
   <v>       0.04166667       0.35294118       0.00000000 </v>
   <v>       0.08333333       0.35294118       0.00000000 </v>
   <v>       0.12500000       0.35294118       0.00000000 </v>
   <v>       0.16666667       0.35294118       0.00000000 </v>
   <v>       0.20833333       0.35294118       0.00000000 </v>
   <v>       0.25000000       0.35294118       0.00000000 </v>
   <v>       0.29166667       0.35294118       0.00000000 </v>
   <v>       0.33333333       0.35294118       0.00000000 </v>
   <v>       0.37500000       0.35294118       0.00000000 </v>
   <v>       0.41666667       0.35294118       0.00000000 </v>
   <v>       0.45833333       0.35294118       0.00000000 </v>
   <v>       0.50000000       0.35294118       0.00000000 </v>
   <v>       0.00000000       0.41176471       0.00000000 </v>
   <v>       0.04166667       0.41176471       0.00000000 </v>
   <v>       0.08333333       0.41176471       0.00000000 </v>
   <v>       0.12500000       0.41176471       0.00000000 </v>
   <v>       0.16666667       0.41176471       0.00000000 </v>
   <v>       0.20833333       0.41176471       0.00000000 </v>
   <v>       0.25000000       0.41176471       0.00000000 </v>
   <v>       0.29166667       0.41176471       0.00000000 </v>
   <v>       0.33333333       0.41176471       0.00000000 </v>
   <v>       0.37500000       0.41176471       0.00000000 </v>
   <v>       0.41666667       0.41176471       0.00000000 </v>
   <v>       0.45833333       0.41176471       0.00000000 </v>
   <v>       0.50000000       0.41176471       0.00000000 </v>
   <v>       0.00000000       0.47058824       0.00000000 </v>
   <v>       0.04166667       0.47058824       0.00000000 </v>
   <v>       0.08333333       0.47058824       0.00000000 </v>
   <v>       0.12500000       0.47058824       0.00000000 </v>
   <v>       0.16666667       0.47058824       0.00000000 </v>
   <v>       0.20833333       0.47058824       0.00000000 </v>
   <v>       0.25000000       0.47058824       0.00000000 </v>
   <v>       0.29166667       0.47058824       0.00000000 </v>
   <v>       0.33333333       0.47058824       0.00000000 </v>
   <v>       0.37500000       0.47058824       0.00000000 </v>
   <v>       0.41666667       0.47058824       0.00000000 </v>
   <v>       0.45833333       0.47058824       0.00000000 </v>
   <v>       0.50000000       0.47058824       0.00000000 </v>
   <v>       0.00000000       0.00000000       0.12500000 </v>
   <v>       0.04166667       0.00000000       0.12500000 </v>
   <v>       0.08333333       0.00000000       0.12500000 </v>
   <v>       0.12500000       0.00000000       0.12500000 </v>
   <v>       0.16666667       0.00000000       0.12500000 </v>
   <v>       0.20833333       0.00000000       0.12500000 </v>
   <v>       0.25000000       0.00000000       0.12500000 </v>
   <v>       0.29166667       0.00000000       0.12500000 </v>
   <v>       0.33333333       0.00000000       0.12500000 </v>
   <v>       0.37500000       0.00000000       0.12500000 </v>
   <v>       0.41666667       0.00000000       0.12500000 </v>
   <v>       0.45833333       0.00000000       0.12500000 </v>
   <v>       0.50000000       0.00000000       0.12500000 </v>
   <v>       0.00000000       0.05882353       0.12500000 </v>
   <v>       0.04166667       0.05882353       0.12500000 </v>
   <v>       0.08333333       0.05882353       0.12500000 </v>
   <v>       0.12500000       0.05882353       0.12500000 </v>
   <v>       0.16666667       0.05882353       0.12500000 </v>
   <v>       0.20833333       0.05882353       0.12500000 </v>
   <v>       0.25000000       0.05882353       0.12500000 </v>
   <v>       0.29166667       0.05882353       0.12500000 </v>
   <v>       0.33333333       0.05882353       0.12500000 </v>
   <v>       0.37500000       0.05882353       0.12500000 </v>
   <v>       0.41666667       0.05882353       0.12500000 </v>
   <v>       0.45833333       0.05882353       0.12500000 </v>
   <v>       0.50000000       0.05882353       0.12500000 </v>
   <v>       0.00000000       0.11764706       0.12500000 </v>
   <v>       0.04166667       0.11764706       0.12500000 </v>
   <v>       0.08333333       0.11764706       0.12500000 </v>
   <v>       0.12500000       0.11764706       0.12500000 </v>
   <v>       0.16666667       0.11764706       0.12500000 </v>
   <v>       0.20833333       0.11764706       0.12500000 </v>
   <v>       0.25000000       0.11764706       0.12500000 </v>
   <v>       0.29166667       0.11764706       0.12500000 </v>
   <v>       0.33333333       0.11764706       0.12500000 </v>
   <v>       0.37500000       0.11764706       0.12500000 </v>
   <v>       0.41666667       0.11764706       0.12500000 </v>
   <v>       0.45833333       0.11764706       0.12500000 </v>
   <v>       0.50000000       0.11764706       0.12500000 </v>
   <v>       0.00000000       0.17647059       0.12500000 </v>
   <v>       0.04166667       0.17647059       0.12500000 </v>
   <v>       0.08333333       0.17647059       0.12500000 </v>
   <v>       0.12500000       0.17647059       0.12500000 </v>
   <v>       0.16666667       0.17647059       0.12500000 </v>
   <v>       0.20833333       0.17647059       0.12500000 </v>
   <v>       0.25000000       0.17647059       0.12500000 </v>
   <v>       0.29166667       0.17647059       0.12500000 </v>
   <v>       0.33333333       0.17647059       0.12500000 </v>
   <v>       0.37500000       0.17647059       0.12500000 </v>
   <v>       0.41666667       0.17647059       0.12500000 </v>
   <v>       0.45833333       0.17647059       0.12500000 </v>
   <v>       0.50000000       0.17647059       0.12500000 </v>
   <v>       0.00000000       0.23529412       0.12500000 </v>
   <v>       0.04166667       0.23529412       0.12500000 </v>
   <v>       0.08333333       0.23529412       0.12500000 </v>
   <v>       0.12500000       0.23529412       0.12500000 </v>
   <v>       0.16666667       0.23529412       0.12500000 </v>
   <v>       0.20833333       0.23529412       0.12500000 </v>
   <v>       0.25000000       0.23529412       0.12500000 </v>
   <v>       0.29166667       0.23529412       0.12500000 </v>
   <v>       0.33333333       0.23529412       0.12500000 </v>
   <v>       0.37500000       0.23529412       0.12500000 </v>
   <v>       0.41666667       0.23529412       0.12500000 </v>
   <v>       0.45833333       0.23529412       0.12500000 </v>
   <v>       0.50000000       0.23529412       0.12500000 </v>
   <v>       0.00000000       0.29411765       0.12500000 </v>
   <v>       0.04166667       0.29411765       0.12500000 </v>
   <v>       0.08333333       0.29411765       0.12500000 </v>
   <v>       0.12500000       0.29411765       0.12500000 </v>
   <v>       0.16666667       0.29411765       0.12500000 </v>
   <v>       0.20833333       0.29411765       0.12500000 </v>
   <v>       0.25000000       0.29411765       0.12500000 </v>
   <v>       0.29166667       0.29411765       0.12500000 </v>
   <v>       0.33333333       0.29411765       0.12500000 </v>
   <v>       0.37500000       0.29411765       0.12500000 </v>
   <v>       0.41666667       0.29411765       0.12500000 </v>
   <v>       0.45833333       0.29411765       0.12500000 </v>
   <v>       0.50000000       0.29411765       0.12500000 </v>
   <v>       0.00000000       0.35294118       0.12500000 </v>
   <v>       0.04166667       0.35294118       0.12500000 </v>
   <v>       0.08333333       0.35294118       0.12500000 </v>
   <v>       0.12500000       0.35294118       0.12500000 </v>
   <v>       0.16666667       0.35294118       0.12500000 </v>
   <v>       0.20833333       0.35294118       0.12500000 </v>
   <v>       0.25000000       0.35294118       0.12500000 </v>
   <v>       0.29166667       0.35294118       0.12500000 </v>
   <v>       0.33333333       0.35294118       0.12500000 </v>
   <v>       0.37500000       0.35294118       0.12500000 </v>
   <v>       0.41666667       0.35294118       0.12500000 </v>
   <v>       0.45833333       0.35294118       0.12500000 </v>
   <v>       0.50000000       0.35294118       0.12500000 </v>
   <v>       0.00000000       0.41176471       0.12500000 </v>
   <v>       0.04166667       0.41176471       0.12500000 </v>
   <v>       0.08333333       0.41176471       0.12500000 </v>
   <v>       0.12500000       0.41176471       0.12500000 </v>
   <v>       0.16666667       0.41176471       0.12500000 </v>
   <v>       0.20833333       0.41176471       0.12500000 </v>
   <v>       0.25000000       0.41176471       0.12500000 </v>
   <v>       0.29166667       0.41176471       0.12500000 </v>
   <v>       0.33333333       0.41176471       0.12500000 </v>
   <v>       0.37500000       0.41176471       0.12500000 </v>
   <v>       0.41666667       0.41176471       0.12500000 </v>
   <v>       0.45833333       0.41176471       0.12500000 </v>
   <v>       0.50000000       0.41176471       0.12500000 </v>
   <v>       0.00000000       0.47058824       0.12500000 </v>
   <v>       0.04166667       0.47058824       0.12500000 </v>
   <v>       0.08333333       0.47058824       0.12500000 </v>
   <v>       0.12500000       0.47058824       0.12500000 </v>
   <v>       0.16666667       0.47058824       0.12500000 </v>
   <v>       0.20833333       0.47058824       0.12500000 </v>
   <v>       0.25000000       0.47058824       0.12500000 </v>
   <v>       0.29166667       0.47058824       0.12500000 </v>
   <v>       0.33333333       0.47058824       0.12500000 </v>
   <v>       0.37500000       0.47058824       0.12500000 </v>
   <v>       0.41666667       0.47058824       0.12500000 </v>
   <v>       0.45833333       0.47058824       0.12500000 </v>
   <v>       0.50000000       0.47058824       0.12500000 </v>
   <v>       0.00000000       0.00000000       0.25000000 </v>
   <v>       0.04166667       0.00000000       0.25000000 </v>
   <v>       0.08333333       0.00000000       0.25000000 </v>
   <v>       0.12500000       0.00000000       0.25000000 </v>
   <v>       0.16666667       0.00000000       0.25000000 </v>
   <v>       0.20833333       0.00000000       0.25000000 </v>
   <v>       0.25000000       0.00000000       0.25000000 </v>
   <v>       0.29166667       0.00000000       0.25000000 </v>
   <v>       0.33333333       0.00000000       0.25000000 </v>
   <v>       0.37500000       0.00000000       0.25000000 </v>
   <v>       0.41666667       0.00000000       0.25000000 </v>
   <v>       0.45833333       0.00000000       0.25000000 </v>
   <v>       0.50000000       0.00000000       0.25000000 </v>
   <v>       0.00000000       0.05882353       0.25000000 </v>
   <v>       0.04166667       0.05882353       0.25000000 </v>
   <v>       0.08333333       0.05882353       0.25000000 </v>
   <v>       0.12500000       0.05882353       0.25000000 </v>
   <v>       0.16666667       0.05882353       0.25000000 </v>
   <v>       0.20833333       0.05882353       0.25000000 </v>
   <v>       0.25000000       0.05882353       0.25000000 </v>
   <v>       0.29166667       0.05882353       0.25000000 </v>
   <v>       0.33333333       0.05882353       0.25000000 </v>
   <v>       0.37500000       0.05882353       0.25000000 </v>
   <v>       0.41666667       0.05882353       0.25000000 </v>
   <v>       0.45833333       0.05882353       0.25000000 </v>
   <v>       0.50000000       0.05882353       0.25000000 </v>
   <v>       0.00000000       0.11764706       0.25000000 </v>
   <v>       0.04166667       0.11764706       0.25000000 </v>
   <v>       0.08333333       0.11764706       0.25000000 </v>
   <v>       0.12500000       0.11764706       0.25000000 </v>
   <v>       0.16666667       0.11764706       0.25000000 </v>
   <v>       0.20833333       0.11764706       0.25000000 </v>
   <v>       0.25000000       0.11764706       0.25000000 </v>
   <v>       0.29166667       0.11764706       0.25000000 </v>
   <v>       0.33333333       0.11764706       0.25000000 </v>
   <v>       0.37500000       0.11764706       0.25000000 </v>
   <v>       0.41666667       0.11764706       0.25000000 </v>
   <v>       0.45833333       0.11764706       0.25000000 </v>
   <v>       0.50000000       0.11764706       0.25000000 </v>
   <v>       0.00000000       0.17647059       0.25000000 </v>
   <v>       0.04166667       0.17647059       0.25000000 </v>
   <v>       0.08333333       0.17647059       0.25000000 </v>
   <v>       0.12500000       0.17647059       0.25000000 </v>
   <v>       0.16666667       0.17647059       0.25000000 </v>
   <v>       0.20833333       0.17647059       0.25000000 </v>
   <v>       0.25000000       0.17647059       0.25000000 </v>
   <v>       0.29166667       0.17647059       0.25000000 </v>
   <v>       0.33333333       0.17647059       0.25000000 </v>
   <v>       0.37500000       0.17647059       0.25000000 </v>
   <v>       0.41666667       0.17647059       0.25000000 </v>
   <v>       0.45833333       0.17647059       0.25000000 </v>
   <v>       0.50000000       0.17647059       0.25000000 </v>
   <v>       0.00000000       0.23529412       0.25000000 </v>
   <v>       0.04166667       0.23529412       0.25000000 </v>
   <v>       0.08333333       0.23529412       0.25000000 </v>
   <v>       0.12500000       0.23529412       0.25000000 </v>
   <v>       0.16666667       0.23529412       0.25000000 </v>
   <v>       0.20833333       0.23529412       0.25000000 </v>
   <v>       0.25000000       0.23529412       0.25000000 </v>
   <v>       0.29166667       0.23529412       0.25000000 </v>
   <v>       0.33333333       0.23529412       0.25000000 </v>
   <v>       0.37500000       0.23529412       0.25000000 </v>
   <v>       0.41666667       0.23529412       0.25000000 </v>
   <v>       0.45833333       0.23529412       0.25000000 </v>
   <v>       0.50000000       0.23529412       0.25000000 </v>
   <v>       0.00000000       0.29411765       0.25000000 </v>
   <v>       0.04166667       0.29411765       0.25000000 </v>
   <v>       0.08333333       0.29411765       0.25000000 </v>
   <v>       0.12500000       0.29411765       0.25000000 </v>
   <v>       0.16666667       0.29411765       0.25000000 </v>
   <v>       0.20833333       0.29411765       0.25000000 </v>
   <v>       0.25000000       0.29411765       0.25000000 </v>
   <v>       0.29166667       0.29411765       0.25000000 </v>
   <v>       0.33333333       0.29411765       0.25000000 </v>
   <v>       0.37500000       0.29411765       0.25000000 </v>
   <v>       0.41666667       0.29411765       0.25000000 </v>
   <v>       0.45833333       0.29411765       0.25000000 </v>
   <v>       0.50000000       0.29411765       0.25000000 </v>
   <v>       0.00000000       0.35294118       0.25000000 </v>
   <v>       0.04166667       0.35294118       0.25000000 </v>
   <v>       0.08333333       0.35294118       0.25000000 </v>
   <v>       0.12500000       0.35294118       0.25000000 </v>
   <v>       0.16666667       0.35294118       0.25000000 </v>
   <v>       0.20833333       0.35294118       0.25000000 </v>
   <v>       0.25000000       0.35294118       0.25000000 </v>
   <v>       0.29166667       0.35294118       0.25000000 </v>
   <v>       0.33333333       0.35294118       0.25000000 </v>
   <v>       0.37500000       0.35294118       0.25000000 </v>
   <v>       0.41666667       0.35294118       0.25000000 </v>
   <v>       0.45833333       0.35294118       0.25000000 </v>
   <v>       0.50000000       0.35294118       0.25000000 </v>
   <v>       0.00000000       0.41176471       0.25000000 </v>
   <v>       0.04166667       0.41176471       0.25000000 </v>
   <v>       0.08333333       0.41176471       0.25000000 </v>
   <v>       0.12500000       0.41176471       0.25000000 </v>
   <v>       0.16666667       0.41176471       0.25000000 </v>
   <v>       0.20833333       0.41176471       0.25000000 </v>
   <v>       0.25000000       0.41176471       0.25000000 </v>
   <v>       0.29166667       0.41176471       0.25000000 </v>
   <v>       0.33333333       0.41176471       0.25000000 </v>
   <v>       0.37500000       0.41176471       0.25000000 </v>
   <v>       0.41666667       0.41176471       0.25000000 </v>
   <v>       0.45833333       0.41176471       0.25000000 </v>
   <v>       0.50000000       0.41176471       0.25000000 </v>
   <v>       0.00000000       0.47058824       0.25000000 </v>
   <v>       0.04166667       0.47058824       0.25000000 </v>
   <v>       0.08333333       0.47058824       0.25000000 </v>
   <v>       0.12500000       0.47058824       0.25000000 </v>
   <v>       0.16666667       0.47058824       0.25000000 </v>
   <v>       0.20833333       0.47058824       0.25000000 </v>
   <v>       0.25000000       0.47058824       0.25000000 </v>
   <v>       0.29166667       0.47058824       0.25000000 </v>
   <v>       0.33333333       0.47058824       0.25000000 </v>
   <v>       0.37500000       0.47058824       0.25000000 </v>
   <v>       0.41666667       0.47058824       0.25000000 </v>
   <v>       0.45833333       0.47058824       0.25000000 </v>
   <v>       0.50000000       0.47058824       0.25000000 </v>
   <v>       0.00000000       0.00000000       0.37500000 </v>
   <v>       0.04166667       0.00000000       0.37500000 </v>
   <v>       0.08333333       0.00000000       0.37500000 </v>
   <v>       0.12500000       0.00000000       0.37500000 </v>
   <v>       0.16666667       0.00000000       0.37500000 </v>
   <v>       0.20833333       0.00000000       0.37500000 </v>
   <v>       0.25000000       0.00000000       0.37500000 </v>
   <v>       0.29166667       0.00000000       0.37500000 </v>
   <v>       0.33333333       0.00000000       0.37500000 </v>
   <v>       0.37500000       0.00000000       0.37500000 </v>
   <v>       0.41666667       0.00000000       0.37500000 </v>
   <v>       0.45833333       0.00000000       0.37500000 </v>
   <v>       0.50000000       0.00000000       0.37500000 </v>
   <v>       0.00000000       0.05882353       0.37500000 </v>
   <v>       0.04166667       0.05882353       0.37500000 </v>
   <v>       0.08333333       0.05882353       0.37500000 </v>
   <v>       0.12500000       0.05882353       0.37500000 </v>
   <v>       0.16666667       0.05882353       0.37500000 </v>
   <v>       0.20833333       0.05882353       0.37500000 </v>
   <v>       0.25000000       0.05882353       0.37500000 </v>
   <v>       0.29166667       0.05882353       0.37500000 </v>
   <v>       0.33333333       0.05882353       0.37500000 </v>
   <v>       0.37500000       0.05882353       0.37500000 </v>
   <v>       0.41666667       0.05882353       0.37500000 </v>
   <v>       0.45833333       0.05882353       0.37500000 </v>
   <v>       0.50000000       0.05882353       0.37500000 </v>
   <v>       0.00000000       0.11764706       0.37500000 </v>
   <v>       0.04166667       0.11764706       0.37500000 </v>
   <v>       0.08333333       0.11764706       0.37500000 </v>
   <v>       0.12500000       0.11764706       0.37500000 </v>
   <v>       0.16666667       0.11764706       0.37500000 </v>
   <v>       0.20833333       0.11764706       0.37500000 </v>
   <v>       0.25000000       0.11764706       0.37500000 </v>
   <v>       0.29166667       0.11764706       0.37500000 </v>
   <v>       0.33333333       0.11764706       0.37500000 </v>
   <v>       0.37500000       0.11764706       0.37500000 </v>
   <v>       0.41666667       0.11764706       0.37500000 </v>
   <v>       0.45833333       0.11764706       0.37500000 </v>
   <v>       0.50000000       0.11764706       0.37500000 </v>
   <v>       0.00000000       0.17647059       0.37500000 </v>
   <v>       0.04166667       0.17647059       0.37500000 </v>
   <v>       0.08333333       0.17647059       0.37500000 </v>
   <v>       0.12500000       0.17647059       0.37500000 </v>
   <v>       0.16666667       0.17647059       0.37500000 </v>
   <v>       0.20833333       0.17647059       0.37500000 </v>
   <v>       0.25000000       0.17647059       0.37500000 </v>
   <v>       0.29166667       0.17647059       0.37500000 </v>
   <v>       0.33333333       0.17647059       0.37500000 </v>
   <v>       0.37500000       0.17647059       0.37500000 </v>
   <v>       0.41666667       0.17647059       0.37500000 </v>
   <v>       0.45833333       0.17647059       0.37500000 </v>
   <v>       0.50000000       0.17647059       0.37500000 </v>
   <v>       0.00000000       0.23529412       0.37500000 </v>
   <v>       0.04166667       0.23529412       0.37500000 </v>
   <v>       0.08333333       0.23529412       0.37500000 </v>
   <v>       0.12500000       0.23529412       0.37500000 </v>
   <v>       0.16666667       0.23529412       0.37500000 </v>
   <v>       0.20833333       0.23529412       0.37500000 </v>
   <v>       0.25000000       0.23529412       0.37500000 </v>
   <v>       0.29166667       0.23529412       0.37500000 </v>
   <v>       0.33333333       0.23529412       0.37500000 </v>
   <v>       0.37500000       0.23529412       0.37500000 </v>
   <v>       0.41666667       0.23529412       0.37500000 </v>
   <v>       0.45833333       0.23529412       0.37500000 </v>
   <v>       0.50000000       0.23529412       0.37500000 </v>
   <v>       0.00000000       0.29411765       0.37500000 </v>
   <v>       0.04166667       0.29411765       0.37500000 </v>
   <v>       0.08333333       0.29411765       0.37500000 </v>
   <v>       0.12500000       0.29411765       0.37500000 </v>
   <v>       0.16666667       0.29411765       0.37500000 </v>
   <v>       0.20833333       0.29411765       0.37500000 </v>
   <v>       0.25000000       0.29411765       0.37500000 </v>
   <v>       0.29166667       0.29411765       0.37500000 </v>
   <v>       0.33333333       0.29411765       0.37500000 </v>
   <v>       0.37500000       0.29411765       0.37500000 </v>
   <v>       0.41666667       0.29411765       0.37500000 </v>
   <v>       0.45833333       0.29411765       0.37500000 </v>
   <v>       0.50000000       0.29411765       0.37500000 </v>
   <v>       0.00000000       0.35294118       0.37500000 </v>
   <v>       0.04166667       0.35294118       0.37500000 </v>
   <v>       0.08333333       0.35294118       0.37500000 </v>
   <v>       0.12500000       0.35294118       0.37500000 </v>
   <v>       0.16666667       0.35294118       0.37500000 </v>
   <v>       0.20833333       0.35294118       0.37500000 </v>
   <v>       0.25000000       0.35294118       0.37500000 </v>
   <v>       0.29166667       0.35294118       0.37500000 </v>
   <v>       0.33333333       0.35294118       0.37500000 </v>
   <v>       0.37500000       0.35294118       0.37500000 </v>
   <v>       0.41666667       0.35294118       0.37500000 </v>
   <v>       0.45833333       0.35294118       0.37500000 </v>
   <v>       0.50000000       0.35294118       0.37500000 </v>
   <v>       0.00000000       0.41176471       0.37500000 </v>
   <v>       0.04166667       0.41176471       0.37500000 </v>
   <v>       0.08333333       0.41176471       0.37500000 </v>
   <v>       0.12500000       0.41176471       0.37500000 </v>
   <v>       0.16666667       0.41176471       0.37500000 </v>
   <v>       0.20833333       0.41176471       0.37500000 </v>
   <v>       0.25000000       0.41176471       0.37500000 </v>
   <v>       0.29166667       0.41176471       0.37500000 </v>
   <v>       0.33333333       0.41176471       0.37500000 </v>
   <v>       0.37500000       0.41176471       0.37500000 </v>
   <v>       0.41666667       0.41176471       0.37500000 </v>
   <v>       0.45833333       0.41176471       0.37500000 </v>
   <v>       0.50000000       0.41176471       0.37500000 </v>
   <v>       0.00000000       0.47058824       0.37500000 </v>
   <v>       0.04166667       0.47058824       0.37500000 </v>
   <v>       0.08333333       0.47058824       0.37500000 </v>
   <v>       0.12500000       0.47058824       0.37500000 </v>
   <v>       0.16666667       0.47058824       0.37500000 </v>
   <v>       0.20833333       0.47058824       0.37500000 </v>
   <v>       0.25000000       0.47058824       0.37500000 </v>
   <v>       0.29166667       0.47058824       0.37500000 </v>
   <v>       0.33333333       0.47058824       0.37500000 </v>
   <v>       0.37500000       0.47058824       0.37500000 </v>
   <v>       0.41666667       0.47058824       0.37500000 </v>
   <v>       0.45833333       0.47058824       0.37500000 </v>
   <v>       0.50000000       0.47058824       0.37500000 </v>
   <v>       0.00000000       0.00000000       0.50000000 </v>
   <v>       0.04166667       0.00000000       0.50000000 </v>
   <v>       0.08333333       0.00000000       0.50000000 </v>
   <v>       0.12500000       0.00000000       0.50000000 </v>
   <v>       0.16666667       0.00000000       0.50000000 </v>
   <v>       0.20833333       0.00000000       0.50000000 </v>
   <v>       0.25000000       0.00000000       0.50000000 </v>
   <v>       0.29166667       0.00000000       0.50000000 </v>
   <v>       0.33333333       0.00000000       0.50000000 </v>
   <v>       0.37500000       0.00000000       0.50000000 </v>
   <v>       0.41666667       0.00000000       0.50000000 </v>
   <v>       0.45833333       0.00000000       0.50000000 </v>
   <v>       0.50000000       0.00000000       0.50000000 </v>
   <v>       0.00000000       0.05882353       0.50000000 </v>
   <v>       0.04166667       0.05882353       0.50000000 </v>
   <v>       0.08333333       0.05882353       0.50000000 </v>
   <v>       0.12500000       0.05882353       0.50000000 </v>
   <v>       0.16666667       0.05882353       0.50000000 </v>
   <v>       0.20833333       0.05882353       0.50000000 </v>
   <v>       0.25000000       0.05882353       0.50000000 </v>
   <v>       0.29166667       0.05882353       0.50000000 </v>
   <v>       0.33333333       0.05882353       0.50000000 </v>
   <v>       0.37500000       0.05882353       0.50000000 </v>
   <v>       0.41666667       0.05882353       0.50000000 </v>
   <v>       0.45833333       0.05882353       0.50000000 </v>
   <v>       0.50000000       0.05882353       0.50000000 </v>
   <v>       0.00000000       0.11764706       0.50000000 </v>
   <v>       0.04166667       0.11764706       0.50000000 </v>
   <v>       0.08333333       0.11764706       0.50000000 </v>
   <v>       0.12500000       0.11764706       0.50000000 </v>
   <v>       0.16666667       0.11764706       0.50000000 </v>
   <v>       0.20833333       0.11764706       0.50000000 </v>
   <v>       0.25000000       0.11764706       0.50000000 </v>
   <v>       0.29166667       0.11764706       0.50000000 </v>
   <v>       0.33333333       0.11764706       0.50000000 </v>
   <v>       0.37500000       0.11764706       0.50000000 </v>
   <v>       0.41666667       0.11764706       0.50000000 </v>
   <v>       0.45833333       0.11764706       0.50000000 </v>
   <v>       0.50000000       0.11764706       0.50000000 </v>
   <v>       0.00000000       0.17647059       0.50000000 </v>
   <v>       0.04166667       0.17647059       0.50000000 </v>
   <v>       0.08333333       0.17647059       0.50000000 </v>
   <v>       0.12500000       0.17647059       0.50000000 </v>
   <v>       0.16666667       0.17647059       0.50000000 </v>
   <v>       0.20833333       0.17647059       0.50000000 </v>
   <v>       0.25000000       0.17647059       0.50000000 </v>
   <v>       0.29166667       0.17647059       0.50000000 </v>
   <v>       0.33333333       0.17647059       0.50000000 </v>
   <v>       0.37500000       0.17647059       0.50000000 </v>
   <v>       0.41666667       0.17647059       0.50000000 </v>
   <v>       0.45833333       0.17647059       0.50000000 </v>
   <v>       0.50000000       0.17647059       0.50000000 </v>
   <v>       0.00000000       0.23529412       0.50000000 </v>
   <v>       0.04166667       0.23529412       0.50000000 </v>
   <v>       0.08333333       0.23529412       0.50000000 </v>
   <v>       0.12500000       0.23529412       0.50000000 </v>
   <v>       0.16666667       0.23529412       0.50000000 </v>
   <v>       0.20833333       0.23529412       0.50000000 </v>
   <v>       0.25000000       0.23529412       0.50000000 </v>
   <v>       0.29166667       0.23529412       0.50000000 </v>
   <v>       0.33333333       0.23529412       0.50000000 </v>
   <v>       0.37500000       0.23529412       0.50000000 </v>
   <v>       0.41666667       0.23529412       0.50000000 </v>
   <v>       0.45833333       0.23529412       0.50000000 </v>
   <v>       0.50000000       0.23529412       0.50000000 </v>
   <v>       0.00000000       0.29411765       0.50000000 </v>
   <v>       0.04166667       0.29411765       0.50000000 </v>
   <v>       0.08333333       0.29411765       0.50000000 </v>
   <v>       0.12500000       0.29411765       0.50000000 </v>
   <v>       0.16666667       0.29411765       0.50000000 </v>
   <v>       0.20833333       0.29411765       0.50000000 </v>
   <v>       0.25000000       0.29411765       0.50000000 </v>
   <v>       0.29166667       0.29411765       0.50000000 </v>
   <v>       0.33333333       0.29411765       0.50000000 </v>
   <v>       0.37500000       0.29411765       0.50000000 </v>
   <v>       0.41666667       0.29411765       0.50000000 </v>
   <v>       0.45833333       0.29411765       0.50000000 </v>
   <v>       0.50000000       0.29411765       0.50000000 </v>
   <v>       0.00000000       0.35294118       0.50000000 </v>
   <v>       0.04166667       0.35294118       0.50000000 </v>
   <v>       0.08333333       0.35294118       0.50000000 </v>
   <v>       0.12500000       0.35294118       0.50000000 </v>
   <v>       0.16666667       0.35294118       0.50000000 </v>
   <v>       0.20833333       0.35294118       0.50000000 </v>
   <v>       0.25000000       0.35294118       0.50000000 </v>
   <v>       0.29166667       0.35294118       0.50000000 </v>
   <v>       0.33333333       0.35294118       0.50000000 </v>
   <v>       0.37500000       0.35294118       0.50000000 </v>
   <v>       0.41666667       0.35294118       0.50000000 </v>
   <v>       0.45833333       0.35294118       0.50000000 </v>
   <v>       0.50000000       0.35294118       0.50000000 </v>
   <v>       0.00000000       0.41176471       0.50000000 </v>
   <v>       0.04166667       0.41176471       0.50000000 </v>
   <v>       0.08333333       0.41176471       0.50000000 </v>
   <v>       0.12500000       0.41176471       0.50000000 </v>
   <v>       0.16666667       0.41176471       0.50000000 </v>
   <v>       0.20833333       0.41176471       0.50000000 </v>
   <v>       0.25000000       0.41176471       0.50000000 </v>
   <v>       0.29166667       0.41176471       0.50000000 </v>
   <v>       0.33333333       0.41176471       0.50000000 </v>
   <v>       0.37500000       0.41176471       0.50000000 </v>
   <v>       0.41666667       0.41176471       0.50000000 </v>
   <v>       0.45833333       0.41176471       0.50000000 </v>
   <v>       0.50000000       0.41176471       0.50000000 </v>
   <v>       0.00000000       0.47058824       0.50000000 </v>
   <v>       0.04166667       0.47058824       0.50000000 </v>
   <v>       0.08333333       0.47058824       0.50000000 </v>
   <v>       0.12500000       0.47058824       0.50000000 </v>
   <v>       0.16666667       0.47058824       0.50000000 </v>
   <v>       0.20833333       0.47058824       0.50000000 </v>
   <v>       0.25000000       0.47058824       0.50000000 </v>
   <v>       0.29166667       0.47058824       0.50000000 </v>
   <v>       0.33333333       0.47058824       0.50000000 </v>
   <v>       0.37500000       0.47058824       0.50000000 </v>
   <v>       0.41666667       0.47058824       0.50000000 </v>
   <v>       0.45833333       0.47058824       0.50000000 </v>
   <v>       0.50000000       0.47058824       0.50000000 </v>
  </varray>
  <varray name="weights" >
   <v>       0.00030637 </v>
   <v>       0.00061275 </v>
   <v>       0.00061275 </v>
   <v>       0.00061275 </v>
   <v>       0.00061275 </v>
   <v>       0.00061275 </v>
   <v>       0.00061275 </v>
   <v>       0.00061275 </v>
   <v>       0.00061275 </v>
   <v>       0.00061275 </v>
   <v>       0.00061275 </v>
   <v>       0.00061275 </v>
   <v>       0.00030637 </v>
   <v>       0.00061275 </v>
   <v>       0.00122549 </v>
   <v>       0.00122549 </v>
   <v>       0.00122549 </v>
   <v>       0.00122549 </v>
   <v>       0.00122549 </v>
   <v>       0.00122549 </v>
   <v>       0.00122549 </v>
   <v>       0.00122549 </v>
   <v>       0.00122549 </v>
   <v>       0.00122549 </v>
   <v>       0.00122549 </v>
   <v>       0.00061275 </v>
   <v>       0.00061275 </v>
   <v>       0.00122549 </v>
   <v>       0.00122549 </v>
   <v>       0.00122549 </v>
   <v>       0.00122549 </v>
   <v>       0.00122549 </v>
   <v>       0.00122549 </v>
   <v>       0.00122549 </v>
   <v>       0.00122549 </v>
   <v>       0.00122549 </v>
   <v>       0.00122549 </v>
   <v>       0.00122549 </v>
   <v>       0.00061275 </v>
   <v>       0.00061275 </v>
   <v>       0.00122549 </v>
   <v>       0.00122549 </v>
   <v>       0.00122549 </v>
   <v>       0.00122549 </v>
   <v>       0.00122549 </v>
   <v>       0.00122549 </v>
   <v>       0.00122549 </v>
   <v>       0.00122549 </v>
   <v>       0.00122549 </v>
   <v>       0.00122549 </v>
   <v>       0.00122549 </v>
   <v>       0.00061275 </v>
   <v>       0.00061275 </v>
   <v>       0.00122549 </v>
   <v>       0.00122549 </v>
   <v>       0.00122549 </v>
   <v>       0.00122549 </v>
   <v>       0.00122549 </v>
   <v>       0.00122549 </v>
   <v>       0.00122549 </v>
   <v>       0.00122549 </v>
   <v>       0.00122549 </v>
   <v>       0.00122549 </v>
   <v>       0.00122549 </v>
   <v>       0.00061275 </v>
   <v>       0.00061275 </v>
   <v>       0.00122549 </v>
   <v>       0.00122549 </v>
   <v>       0.00122549 </v>
   <v>       0.00122549 </v>
   <v>       0.00122549 </v>
   <v>       0.00122549 </v>
   <v>       0.00122549 </v>
   <v>       0.00122549 </v>
   <v>       0.00122549 </v>
   <v>       0.00122549 </v>
   <v>       0.00122549 </v>
   <v>       0.00061275 </v>
   <v>       0.00061275 </v>
   <v>       0.00122549 </v>
   <v>       0.00122549 </v>
   <v>       0.00122549 </v>
   <v>       0.00122549 </v>
   <v>       0.00122549 </v>
   <v>       0.00122549 </v>
   <v>       0.00122549 </v>
   <v>       0.00122549 </v>
   <v>       0.00122549 </v>
   <v>       0.00122549 </v>
   <v>       0.00122549 </v>
   <v>       0.00061275 </v>
   <v>       0.00061275 </v>
   <v>       0.00122549 </v>
   <v>       0.00122549 </v>
   <v>       0.00122549 </v>
   <v>       0.00122549 </v>
   <v>       0.00122549 </v>
   <v>       0.00122549 </v>
   <v>       0.00122549 </v>
   <v>       0.00122549 </v>
   <v>       0.00122549 </v>
   <v>       0.00122549 </v>
   <v>       0.00122549 </v>
   <v>       0.00061275 </v>
   <v>       0.00061275 </v>
   <v>       0.00122549 </v>
   <v>       0.00122549 </v>
   <v>       0.00122549 </v>
   <v>       0.00122549 </v>
   <v>       0.00122549 </v>
   <v>       0.00122549 </v>
   <v>       0.00122549 </v>
   <v>       0.00122549 </v>
   <v>       0.00122549 </v>
   <v>       0.00122549 </v>
   <v>       0.00122549 </v>
   <v>       0.00061275 </v>
   <v>       0.00061275 </v>
   <v>       0.00122549 </v>
   <v>       0.00122549 </v>
   <v>       0.00122549 </v>
   <v>       0.00122549 </v>
   <v>       0.00122549 </v>
   <v>       0.00122549 </v>
   <v>       0.00122549 </v>
   <v>       0.00122549 </v>
   <v>       0.00122549 </v>
   <v>       0.00122549 </v>
   <v>       0.00122549 </v>
   <v>       0.00061275 </v>
   <v>       0.00122549 </v>
   <v>       0.00245098 </v>
   <v>       0.00245098 </v>
   <v>       0.00245098 </v>
   <v>       0.00245098 </v>
   <v>       0.00245098 </v>
   <v>       0.00245098 </v>
   <v>       0.00245098 </v>
   <v>       0.00245098 </v>
   <v>       0.00245098 </v>
   <v>       0.00245098 </v>
   <v>       0.00245098 </v>
   <v>       0.00122549 </v>
   <v>       0.00122549 </v>
   <v>       0.00245098 </v>
   <v>       0.00245098 </v>
   <v>       0.00245098 </v>
   <v>       0.00245098 </v>
   <v>       0.00245098 </v>
   <v>       0.00245098 </v>
   <v>       0.00245098 </v>
   <v>       0.00245098 </v>
   <v>       0.00245098 </v>
   <v>       0.00245098 </v>
   <v>       0.00245098 </v>
   <v>       0.00122549 </v>
   <v>       0.00122549 </v>
   <v>       0.00245098 </v>
   <v>       0.00245098 </v>
   <v>       0.00245098 </v>
   <v>       0.00245098 </v>
   <v>       0.00245098 </v>
   <v>       0.00245098 </v>
   <v>       0.00245098 </v>
   <v>       0.00245098 </v>
   <v>       0.00245098 </v>
   <v>       0.00245098 </v>
   <v>       0.00245098 </v>
   <v>       0.00122549 </v>
   <v>       0.00122549 </v>
   <v>       0.00245098 </v>
   <v>       0.00245098 </v>
   <v>       0.00245098 </v>
   <v>       0.00245098 </v>
   <v>       0.00245098 </v>
   <v>       0.00245098 </v>
   <v>       0.00245098 </v>
   <v>       0.00245098 </v>
   <v>       0.00245098 </v>
   <v>       0.00245098 </v>
   <v>       0.00245098 </v>
   <v>       0.00122549 </v>
   <v>       0.00122549 </v>
   <v>       0.00245098 </v>
   <v>       0.00245098 </v>
   <v>       0.00245098 </v>
   <v>       0.00245098 </v>
   <v>       0.00245098 </v>
   <v>       0.00245098 </v>
   <v>       0.00245098 </v>
   <v>       0.00245098 </v>
   <v>       0.00245098 </v>
   <v>       0.00245098 </v>
   <v>       0.00245098 </v>
   <v>       0.00122549 </v>
   <v>       0.00122549 </v>
   <v>       0.00245098 </v>
   <v>       0.00245098 </v>
   <v>       0.00245098 </v>
   <v>       0.00245098 </v>
   <v>       0.00245098 </v>
   <v>       0.00245098 </v>
   <v>       0.00245098 </v>
   <v>       0.00245098 </v>
   <v>       0.00245098 </v>
   <v>       0.00245098 </v>
   <v>       0.00245098 </v>
   <v>       0.00122549 </v>
   <v>       0.00122549 </v>
   <v>       0.00245098 </v>
   <v>       0.00245098 </v>
   <v>       0.00245098 </v>
   <v>       0.00245098 </v>
   <v>       0.00245098 </v>
   <v>       0.00245098 </v>
   <v>       0.00245098 </v>
   <v>       0.00245098 </v>
   <v>       0.00245098 </v>
   <v>       0.00245098 </v>
   <v>       0.00245098 </v>
   <v>       0.00122549 </v>
   <v>       0.00122549 </v>
   <v>       0.00245098 </v>
   <v>       0.00245098 </v>
   <v>       0.00245098 </v>
   <v>       0.00245098 </v>
   <v>       0.00245098 </v>
   <v>       0.00245098 </v>
   <v>       0.00245098 </v>
   <v>       0.00245098 </v>
   <v>       0.00245098 </v>
   <v>       0.00245098 </v>
   <v>       0.00245098 </v>
   <v>       0.00122549 </v>
   <v>       0.00061275 </v>
   <v>       0.00122549 </v>
   <v>       0.00122549 </v>
   <v>       0.00122549 </v>
   <v>       0.00122549 </v>
   <v>       0.00122549 </v>
   <v>       0.00122549 </v>
   <v>       0.00122549 </v>
   <v>       0.00122549 </v>
   <v>       0.00122549 </v>
   <v>       0.00122549 </v>
   <v>       0.00122549 </v>
   <v>       0.00061275 </v>
   <v>       0.00122549 </v>
   <v>       0.00245098 </v>
   <v>       0.00245098 </v>
   <v>       0.00245098 </v>
   <v>       0.00245098 </v>
   <v>       0.00245098 </v>
   <v>       0.00245098 </v>
   <v>       0.00245098 </v>
   <v>       0.00245098 </v>
   <v>       0.00245098 </v>
   <v>       0.00245098 </v>
   <v>       0.00245098 </v>
   <v>       0.00122549 </v>
   <v>       0.00122549 </v>
   <v>       0.00245098 </v>
   <v>       0.00245098 </v>
   <v>       0.00245098 </v>
   <v>       0.00245098 </v>
   <v>       0.00245098 </v>
   <v>       0.00245098 </v>
   <v>       0.00245098 </v>
   <v>       0.00245098 </v>
   <v>       0.00245098 </v>
   <v>       0.00245098 </v>
   <v>       0.00245098 </v>
   <v>       0.00122549 </v>
   <v>       0.00122549 </v>
   <v>       0.00245098 </v>
   <v>       0.00245098 </v>
   <v>       0.00245098 </v>
   <v>       0.00245098 </v>
   <v>       0.00245098 </v>
   <v>       0.00245098 </v>
   <v>       0.00245098 </v>
   <v>       0.00245098 </v>
   <v>       0.00245098 </v>
   <v>       0.00245098 </v>
   <v>       0.00245098 </v>
   <v>       0.00122549 </v>
   <v>       0.00122549 </v>
   <v>       0.00245098 </v>
   <v>       0.00245098 </v>
   <v>       0.00245098 </v>
   <v>       0.00245098 </v>
   <v>       0.00245098 </v>
   <v>       0.00245098 </v>
   <v>       0.00245098 </v>
   <v>       0.00245098 </v>
   <v>       0.00245098 </v>
   <v>       0.00245098 </v>
   <v>       0.00245098 </v>
   <v>       0.00122549 </v>
   <v>       0.00122549 </v>
   <v>       0.00245098 </v>
   <v>       0.00245098 </v>
   <v>       0.00245098 </v>
   <v>       0.00245098 </v>
   <v>       0.00245098 </v>
   <v>       0.00245098 </v>
   <v>       0.00245098 </v>
   <v>       0.00245098 </v>
   <v>       0.00245098 </v>
   <v>       0.00245098 </v>
   <v>       0.00245098 </v>
   <v>       0.00122549 </v>
   <v>       0.00122549 </v>
   <v>       0.00245098 </v>
   <v>       0.00245098 </v>
   <v>       0.00245098 </v>
   <v>       0.00245098 </v>
   <v>       0.00245098 </v>
   <v>       0.00245098 </v>
   <v>       0.00245098 </v>
   <v>       0.00245098 </v>
   <v>       0.00245098 </v>
   <v>       0.00245098 </v>
   <v>       0.00245098 </v>
   <v>       0.00122549 </v>
   <v>       0.00122549 </v>
   <v>       0.00245098 </v>
   <v>       0.00245098 </v>
   <v>       0.00245098 </v>
   <v>       0.00245098 </v>
   <v>       0.00245098 </v>
   <v>       0.00245098 </v>
   <v>       0.00245098 </v>
   <v>       0.00245098 </v>
   <v>       0.00245098 </v>
   <v>       0.00245098 </v>
   <v>       0.00245098 </v>
   <v>       0.00122549 </v>
   <v>       0.00122549 </v>
   <v>       0.00245098 </v>
   <v>       0.00245098 </v>
   <v>       0.00245098 </v>
   <v>       0.00245098 </v>
   <v>       0.00245098 </v>
   <v>       0.00245098 </v>
   <v>       0.00245098 </v>
   <v>       0.00245098 </v>
   <v>       0.00245098 </v>
   <v>       0.00245098 </v>
   <v>       0.00245098 </v>
   <v>       0.00122549 </v>
   <v>       0.00061275 </v>
   <v>       0.00122549 </v>
   <v>       0.00122549 </v>
   <v>       0.00122549 </v>
   <v>       0.00122549 </v>
   <v>       0.00122549 </v>
   <v>       0.00122549 </v>
   <v>       0.00122549 </v>
   <v>       0.00122549 </v>
   <v>       0.00122549 </v>
   <v>       0.00122549 </v>
   <v>       0.00122549 </v>
   <v>       0.00061275 </v>
   <v>       0.00122549 </v>
   <v>       0.00245098 </v>
   <v>       0.00245098 </v>
   <v>       0.00245098 </v>
   <v>       0.00245098 </v>
   <v>       0.00245098 </v>
   <v>       0.00245098 </v>
   <v>       0.00245098 </v>
   <v>       0.00245098 </v>
   <v>       0.00245098 </v>
   <v>       0.00245098 </v>
   <v>       0.00245098 </v>
   <v>       0.00122549 </v>
   <v>       0.00122549 </v>
   <v>       0.00245098 </v>
   <v>       0.00245098 </v>
   <v>       0.00245098 </v>
   <v>       0.00245098 </v>
   <v>       0.00245098 </v>
   <v>       0.00245098 </v>
   <v>       0.00245098 </v>
   <v>       0.00245098 </v>
   <v>       0.00245098 </v>
   <v>       0.00245098 </v>
   <v>       0.00245098 </v>
   <v>       0.00122549 </v>
   <v>       0.00122549 </v>
   <v>       0.00245098 </v>
   <v>       0.00245098 </v>
   <v>       0.00245098 </v>
   <v>       0.00245098 </v>
   <v>       0.00245098 </v>
   <v>       0.00245098 </v>
   <v>       0.00245098 </v>
   <v>       0.00245098 </v>
   <v>       0.00245098 </v>
   <v>       0.00245098 </v>
   <v>       0.00245098 </v>
   <v>       0.00122549 </v>
   <v>       0.00122549 </v>
   <v>       0.00245098 </v>
   <v>       0.00245098 </v>
   <v>       0.00245098 </v>
   <v>       0.00245098 </v>
   <v>       0.00245098 </v>
   <v>       0.00245098 </v>
   <v>       0.00245098 </v>
   <v>       0.00245098 </v>
   <v>       0.00245098 </v>
   <v>       0.00245098 </v>
   <v>       0.00245098 </v>
   <v>       0.00122549 </v>
   <v>       0.00122549 </v>
   <v>       0.00245098 </v>
   <v>       0.00245098 </v>
   <v>       0.00245098 </v>
   <v>       0.00245098 </v>
   <v>       0.00245098 </v>
   <v>       0.00245098 </v>
   <v>       0.00245098 </v>
   <v>       0.00245098 </v>
   <v>       0.00245098 </v>
   <v>       0.00245098 </v>
   <v>       0.00245098 </v>
   <v>       0.00122549 </v>
   <v>       0.00122549 </v>
   <v>       0.00245098 </v>
   <v>       0.00245098 </v>
   <v>       0.00245098 </v>
   <v>       0.00245098 </v>
   <v>       0.00245098 </v>
   <v>       0.00245098 </v>
   <v>       0.00245098 </v>
   <v>       0.00245098 </v>
   <v>       0.00245098 </v>
   <v>       0.00245098 </v>
   <v>       0.00245098 </v>
   <v>       0.00122549 </v>
   <v>       0.00122549 </v>
   <v>       0.00245098 </v>
   <v>       0.00245098 </v>
   <v>       0.00245098 </v>
   <v>       0.00245098 </v>
   <v>       0.00245098 </v>
   <v>       0.00245098 </v>
   <v>       0.00245098 </v>
   <v>       0.00245098 </v>
   <v>       0.00245098 </v>
   <v>       0.00245098 </v>
   <v>       0.00245098 </v>
   <v>       0.00122549 </v>
   <v>       0.00122549 </v>
   <v>       0.00245098 </v>
   <v>       0.00245098 </v>
   <v>       0.00245098 </v>
   <v>       0.00245098 </v>
   <v>       0.00245098 </v>
   <v>       0.00245098 </v>
   <v>       0.00245098 </v>
   <v>       0.00245098 </v>
   <v>       0.00245098 </v>
   <v>       0.00245098 </v>
   <v>       0.00245098 </v>
   <v>       0.00122549 </v>
   <v>       0.00030637 </v>
   <v>       0.00061275 </v>
   <v>       0.00061275 </v>
   <v>       0.00061275 </v>
   <v>       0.00061275 </v>
   <v>       0.00061275 </v>
   <v>       0.00061275 </v>
   <v>       0.00061275 </v>
   <v>       0.00061275 </v>
   <v>       0.00061275 </v>
   <v>       0.00061275 </v>
   <v>       0.00061275 </v>
   <v>       0.00030637 </v>
   <v>       0.00061275 </v>
   <v>       0.00122549 </v>
   <v>       0.00122549 </v>
   <v>       0.00122549 </v>
   <v>       0.00122549 </v>
   <v>       0.00122549 </v>
   <v>       0.00122549 </v>
   <v>       0.00122549 </v>
   <v>       0.00122549 </v>
   <v>       0.00122549 </v>
   <v>       0.00122549 </v>
   <v>       0.00122549 </v>
   <v>       0.00061275 </v>
   <v>       0.00061275 </v>
   <v>       0.00122549 </v>
   <v>       0.00122549 </v>
   <v>       0.00122549 </v>
   <v>       0.00122549 </v>
   <v>       0.00122549 </v>
   <v>       0.00122549 </v>
   <v>       0.00122549 </v>
   <v>       0.00122549 </v>
   <v>       0.00122549 </v>
   <v>       0.00122549 </v>
   <v>       0.00122549 </v>
   <v>       0.00061275 </v>
   <v>       0.00061275 </v>
   <v>       0.00122549 </v>
   <v>       0.00122549 </v>
   <v>       0.00122549 </v>
   <v>       0.00122549 </v>
   <v>       0.00122549 </v>
   <v>       0.00122549 </v>
   <v>       0.00122549 </v>
   <v>       0.00122549 </v>
   <v>       0.00122549 </v>
   <v>       0.00122549 </v>
   <v>       0.00122549 </v>
   <v>       0.00061275 </v>
   <v>       0.00061275 </v>
   <v>       0.00122549 </v>
   <v>       0.00122549 </v>
   <v>       0.00122549 </v>
   <v>       0.00122549 </v>
   <v>       0.00122549 </v>
   <v>       0.00122549 </v>
   <v>       0.00122549 </v>
   <v>       0.00122549 </v>
   <v>       0.00122549 </v>
   <v>       0.00122549 </v>
   <v>       0.00122549 </v>
   <v>       0.00061275 </v>
   <v>       0.00061275 </v>
   <v>       0.00122549 </v>
   <v>       0.00122549 </v>
   <v>       0.00122549 </v>
   <v>       0.00122549 </v>
   <v>       0.00122549 </v>
   <v>       0.00122549 </v>
   <v>       0.00122549 </v>
   <v>       0.00122549 </v>
   <v>       0.00122549 </v>
   <v>       0.00122549 </v>
   <v>       0.00122549 </v>
   <v>       0.00061275 </v>
   <v>       0.00061275 </v>
   <v>       0.00122549 </v>
   <v>       0.00122549 </v>
   <v>       0.00122549 </v>
   <v>       0.00122549 </v>
   <v>       0.00122549 </v>
   <v>       0.00122549 </v>
   <v>       0.00122549 </v>
   <v>       0.00122549 </v>
   <v>       0.00122549 </v>
   <v>       0.00122549 </v>
   <v>       0.00122549 </v>
   <v>       0.00061275 </v>
   <v>       0.00061275 </v>
   <v>       0.00122549 </v>
   <v>       0.00122549 </v>
   <v>       0.00122549 </v>
   <v>       0.00122549 </v>
   <v>       0.00122549 </v>
   <v>       0.00122549 </v>
   <v>       0.00122549 </v>
   <v>       0.00122549 </v>
   <v>       0.00122549 </v>
   <v>       0.00122549 </v>
   <v>       0.00122549 </v>
   <v>       0.00061275 </v>
   <v>       0.00061275 </v>
   <v>       0.00122549 </v>
   <v>       0.00122549 </v>
   <v>       0.00122549 </v>
   <v>       0.00122549 </v>
   <v>       0.00122549 </v>
   <v>       0.00122549 </v>
   <v>       0.00122549 </v>
   <v>       0.00122549 </v>
   <v>       0.00122549 </v>
   <v>       0.00122549 </v>
   <v>       0.00122549 </v>
   <v>       0.00061275 </v>
  </varray>
 </kpoints>
 <parameters>
  <separator name="general" >
   <i type="string" name="SYSTEM">unknown system</i>
   <i type="logical" name="LCOMPAT"> F  </i>
  </separator>
  <separator name="electronic" >
   <i type="string" name="PREC">accura</i>
   <i name="ENMAX">    500.00000000</i>
   <i name="ENAUG">    412.49600000</i>
   <i name="EDIFF">      0.00000100</i>
   <i type="int" name="IALGO">    68</i>
   <i type="int" name="IWAVPR">    11</i>
   <i type="int" name="NBANDS">    40</i>
   <i name="NELECT">     66.00000000</i>
   <i type="int" name="TURBO">     0</i>
   <i type="int" name="IRESTART">     0</i>
   <i type="int" name="NREBOOT">     0</i>
   <i type="int" name="NMIN">     0</i>
   <i name="EREF">      0.00000000</i>
   <separator name="electronic smearing" >
    <i type="int" name="ISMEAR">     1</i>
    <i name="SIGMA">      0.30000000</i>
    <i name="KSPACING">      0.50000000</i>
    <i type="logical" name="KGAMMA"> T  </i>
   </separator>
   <separator name="electronic projectors" >
    <i type="logical" name="LREAL"> F  </i>
    <v name="ROPT">      0.00000000      0.00000000</v>
    <i type="int" name="LMAXPAW">  -100</i>
    <i type="int" name="LMAXMIX">     2</i>
    <i type="logical" name="NLSPLINE"> F  </i>
   </separator>
   <separator name="electronic startup" >
    <i type="int" name="ISTART">     0</i>
    <i type="int" name="ICHARG">     2</i>
    <i type="int" name="INIWAV">     1</i>
   </separator>
   <separator name="electronic spin" >
    <i type="int" name="ISPIN">     1</i>
    <i type="logical" name="LNONCOLLINEAR"> F  </i>
    <v name="MAGMOM">      1.00000000      1.00000000      1.00000000      1.00000000      1.00000000      1.00000000</v>
    <i name="NUPDOWN">     -1.00000000</i>
    <i type="logical" name="LSORBIT"> F  </i>
    <v name="SAXIS">      0.00000000      0.00000000      1.00000000</v>
    <i type="logical" name="LSPIRAL"> F  </i>
    <v name="QSPIRAL">      0.00000000      0.00000000      0.00000000</v>
    <i type="logical" name="LZEROZ"> F  </i>
   </separator>
   <separator name="electronic exchange-correlation" >
    <i type="logical" name="LASPH"> F  </i>
    <i type="logical" name="LMETAGGA"> F  </i>
   </separator>
   <separator name="electronic convergence" >
    <i type="int" name="NELM">   100</i>
    <i type="int" name="NELMDL">     0</i>
    <i type="int" name="NELMIN">     4</i>
    <i name="ENINI">    500.00000000</i>
    <separator name="electronic convergence detail" >
     <i type="logical" name="LDIAG"> T  </i>
     <i type="logical" name="LSUBROT"> F  </i>
     <i name="WEIMIN">      0.00100000</i>
     <i name="EBREAK">      0.00000001</i>
     <i name="DEPER">      0.30000000</i>
     <i type="int" name="NRMM">     4</i>
     <i name="TIME">      0.40000000</i>
    </separator>
   </separator>
   <separator name="electronic mixer" >
    <i name="AMIX">      0.40000000</i>
    <i name="BMIX">      1.00000000</i>
    <i name="AMIN">      0.10000000</i>
    <i name="AMIX_MAG">      1.60000000</i>
    <i name="BMIX_MAG">      1.00000000</i>
    <separator name="electronic mixer details" >
     <i type="int" name="IMIX">     4</i>
     <i type="int" name="MAXMIX">   -45</i>
     <i name="WC">    100.00000000</i>
     <i type="int" name="INIMIX">     1</i>
     <i type="int" name="MIXPRE">     1</i>
     <i type="int" name="MREMOVE">     5</i>
    </separator>
   </separator>
   <separator name="electronic dipolcorrection" >
    <i type="logical" name="LDIPOL"> F  </i>
    <i type="logical" name="LMONO"> F  </i>
    <i type="int" name="IDIPOL">     0</i>
    <i name="EPSILON">      1.00000000</i>
    <v name="DIPOL">   -100.00000000   -100.00000000   -100.00000000</v>
    <i name="EFIELD">      0.00000000</i>
   </separator>
  </separator>
  <separator name="grids" >
   <i type="int" name="NGX">    24</i>
   <i type="int" name="NGY">    30</i>
   <i type="int" name="NGZ">    64</i>
   <i type="int" name="NGXF">    48</i>
   <i type="int" name="NGYF">    60</i>
   <i type="int" name="NGZF">   128</i>
   <i type="logical" name="ADDGRID"> T  </i>
  </separator>
  <separator name="ionic" >
   <i type="int" name="NSW">    30</i>
   <i type="int" name="IBRION">     2</i>
   <i type="int" name="ISIF">     3</i>
   <i name="PSTRESS">      0.00000000</i>
   <i name="EDIFFG">     -0.02000000</i>
   <i type="int" name="NFREE">     1</i>
   <i name="POTIM">      0.50000000</i>
   <i name="SMASS">     -3.00000000</i>
   <i name="SCALEE">      1.00000000</i>
  </separator>
  <separator name="ionic md" >
   <i name="TEBEG">      0.00010000</i>
   <i name="TEEND">      0.00010000</i>
   <i type="int" name="NBLOCK">     1</i>
   <i type="int" name="KBLOCK">    30</i>
   <i type="int" name="NPACO">   256</i>
   <i name="APACO">     16.00000000</i>
  </separator>
  <separator name="symmetry" >
   <i type="int" name="ISYM">     2</i>
   <i name="SYMPREC">      0.00001000</i>
  </separator>
  <separator name="dos" >
   <i type="logical" name="LORBIT"> F  </i>
   <v name="RWIGS">     -1.00000000     -1.00000000</v>
   <i type="int" name="NEDOS">   301</i>
   <i name="EMIN">     10.00000000</i>
   <i name="EMAX">    -10.00000000</i>
   <i name="EFERMI">      0.00000000</i>
  </separator>
  <separator name="writing" >
   <i type="int" name="NWRITE">     2</i>
   <i type="logical" name="LWAVE"> F  </i>
   <i type="logical" name="LCHARG"> F  </i>
   <i type="logical" name="LPARD"> F  </i>
   <i type="logical" name="LVTOT"> F  </i>
   <i type="logical" name="LVHAR"> F  </i>
   <i type="logical" name="LELF"> F  </i>
   <i type="logical" name="LOPTICS"> F  </i>
   <v name="STM">      0.00000000      0.00000000      0.00000000      0.00000000      0.00000000      0.00000000      0.00000000</v>
  </separator>
  <separator name="performance" >
   <i type="int" name="NPAR">     4</i>
   <i type="int" name="NSIM">     4</i>
   <i type="int" name="NBLK">    -1</i>
   <i type="logical" name="LPLANE"> T  </i>
   <i type="logical" name="LSCALAPACK"> T  </i>
   <i type="logical" name="LSCAAWARE"> F  </i>
   <i type="logical" name="LSCALU"> F  </i>
   <i type="logical" name="LASYNC"> F  </i>
   <i type="logical" name="LORBITALREAL"> F  </i>
  </separator>
  <separator name="miscellaneous" >
   <i type="int" name="IDIOT">     3</i>
   <i type="logical" name="LMUSIC"> F  </i>
   <v name="POMASS">    107.86800000    196.96600000</v>
   <v name="DARWINR">      0.00000000      0.00000000</v>
   <v name="DARWINV">      1.00000000      1.00000000</v>
   <i type="logical" name="LCORR"> T  </i>
  </separator>
  <i type="logical" name="GGA_COMPAT"> T  </i>
  <i type="logical" name="LBERRY"> F  </i>
  <i type="int" name="ICORELEVEL">     0</i>
  <i type="logical" name="LDAU"> F  </i>
  <i type="int" name="I_CONSTRAINED_M">     0</i>
  <separator name="electronic exchange-correlation" >
   <i type="string" name="GGA">--</i>
   <i type="int" name="VOSKOWN">     0</i>
   <i type="logical" name="LHFCALC"> F  </i>
   <i type="string" name="PRECFOCK"></i>
   <i type="logical" name="LSYMGRAD"> F  </i>
   <i type="logical" name="LHFONE"> F  </i>
   <i type="logical" name="LRHFCALC"> F  </i>
   <i type="logical" name="LTHOMAS"> F  </i>
   <i type="logical" name="LMODELHF"> F  </i>
   <i name="ENCUT4O">     -1.00000000</i>
   <i type="int" name="EXXOEP">     0</i>
   <i type="int" name="FOURORBIT">     0</i>
   <i name="AEXX">      0.00000000</i>
   <i name="HFALPHA">      0.00000000</i>
   <i name="MCALPHA">      0.00000000</i>
   <i name="ALDAX">      1.00000000</i>
   <i name="AGGAX">      1.00000000</i>
   <i name="ALDAC">      1.00000000</i>
   <i name="AGGAC">      1.00000000</i>
   <i type="int" name="NKREDX">     1</i>
   <i type="int" name="NKREDY">     1</i>
   <i type="int" name="NKREDZ">     1</i>
   <i type="logical" name="SHIFTRED"> F  </i>
   <i type="logical" name="ODDONLY"> F  </i>
   <i type="logical" name="EVENONLY"> F  </i>
   <i type="int" name="LMAXFOCK">     0</i>
   <i type="int" name="NMAXFOCKAE">     0</i>
   <i type="logical" name="LFOCKAEDFT"> F  </i>
   <i name="HFSCREEN">      0.00000000</i>
   <i name="HFSCREENC">      0.00000000</i>
   <i type="int" name="NBANDSGWLOW">     0</i>
  </separator>
  <separator name="vdW DFT" >
   <i type="logical" name="LUSE_VDW"> F  </i>
   <i name="Zab_VDW">     -0.84910000</i>
   <i name="PARAM1">      0.12340000</i>
   <i name="PARAM2">      1.00000000</i>
   <i name="PARAM3">      0.00000000</i>
  </separator>
  <separator name="model GW" >
   <i type="int" name="MODEL_GW">     0</i>
   <i name="MODEL_EPS0">     10.68221334</i>
   <i name="MODEL_ALPHA">      1.00000000</i>
  </separator>
  <separator name="linear response parameters" >
   <i type="logical" name="LEPSILON"> F  </i>
   <i type="logical" name="LRPA"> F  </i>
   <i type="logical" name="LNABLA"> F  </i>
   <i type="logical" name="LVEL"> F  </i>
   <i type="int" name="KINTER">     0</i>
   <i name="CSHIFT">      0.10000000</i>
   <i name="OMEGAMAX">     -1.00000000</i>
   <i name="DEG_THRESHOLD">      0.00200000</i>
  </separator>
  <separator name="orbital magnetization" >
   <i type="logical" name="NUCIND"> F  </i>
   <v name="MAGPOS">      0.00000000      0.00000000      0.00000000</v>
   <i type="logical" name="LNICSALL"> T  </i>
   <i type="logical" name="ORBITALMAG"> F  </i>
   <i type="logical" name="LMAGBLOCH"> F  </i>
   <i type="logical" name="LCHIMAG"> F  </i>
   <i type="logical" name="LGAUGE"> T  </i>
   <i type="int" name="MAGATOM">     0</i>
   <v name="MAGDIPOL">      0.00000000      0.00000000      0.00000000</v>
   <v name="AVECCONST">      0.00000000      0.00000000      0.00000000</v>
  </separator>
  <separator name="response functions" >
   <i type="logical" name="LADDER"> F  </i>
   <i type="logical" name="LFXC"> F  </i>
   <i type="logical" name="LHARTREE"> T  </i>
   <i type="int" name="IBSE">     0</i>
   <i type="logical" name="LTCTE"> F  </i>
   <i type="logical" name="LTETE"> F  </i>
   <i type="logical" name="LTRIPLET"> F  </i>
   <i type="logical" name="LFXCEPS"> F  </i>
   <i type="logical" name="LFXHEG"> F  </i>
   <i type="logical" name="L2ORDER"> F  </i>
   <i type="logical" name="LUSEW"> F  </i>
   <i name="ENCUTGW">     -2.00000000</i>
   <i name="ENCUTGWSOFT">     -2.00000000</i>
   <i name="ENCUTLF">     -1.00000000</i>
   <i type="int" name="LMAXMP2">    -1</i>
   <i name="SCISSOR">      0.00000000</i>
   <i type="int" name="NOMEGA">     0</i>
   <i type="int" name="NOMEGAR">     0</i>
   <i type="int" name="NBANDSGW">    -1</i>
   <i type="int" name="NBANDSO">    -1</i>
   <i type="int" name="NBANDSV">    -1</i>
   <i type="int" name="NELM">   100</i>
   <i type="int" name="DIM">     3</i>
   <i type="int" name="ANTIRES">     0</i>
   <i name="OMEGAMAX">    -30.00000000</i>
   <i name="OMEGAMIN">    -30.00000000</i>
   <i name="OMEGATL">   -200.00000000</i>
   <i type="int" name="OMEGAGRID">     0</i>
   <i name="CSHIFT">     -0.10000000</i>
   <i type="logical" name="SELFENERGY"> F  </i>
   <i type="logical" name="LSPECTRAL"> F  </i>
   <i type="logical" name="ODDONLYGW"> F  </i>
   <i type="logical" name="EVENONLYGW"> F  </i>
   <i type="int" name="NKREDLFX">     1</i>
   <i type="int" name="NKREDLFY">     1</i>
   <i type="int" name="NKREDLFZ">     1</i>
   <i type="int" name="MAXMEM">  1800</i>
   <i type="int" name="TELESCOPE">     0</i>
   <i type="int" name="TAUPAR">     1</i>
  </separator>
  <separator name="External order field" >
   <i name="OFIELD_KAPPA">      0.00000000</i>
   <v name="OFIELD_K">      0.00000000      0.00000000      0.00000000</v>
   <i name="OFIELD_Q6_NEAR">      0.00000000</i>
   <i name="OFIELD_Q6_FAR">      0.00000000</i>
   <i name="OFIELD_A">      0.00000000</i>
  </separator>
 </parameters>
 <atominfo>
  <atoms>       6 </atoms>
  <types>       2 </types>
  <array name="atoms" >
   <dimension dim="1">ion</dimension>
   <field type="string">element</field>
   <field type="int">atomtype</field>
   <set>
    <rc><c>Ag</c><c>   1</c></rc>
    <rc><c>Ag</c><c>   1</c></rc>
    <rc><c>Ag</c><c>   1</c></rc>
    <rc><c>Ag</c><c>   1</c></rc>
    <rc><c>Ag</c><c>   1</c></rc>
    <rc><c>Au</c><c>   2</c></rc>
   </set>
  </array>
  <array name="atomtypes" >
   <dimension dim="1">type</dimension>
   <field type="int">atomspertype</field>
   <field type="string">element</field>
   <field>mass</field>
   <field>valence</field>
   <field type="string">pseudopotential</field>
   <set>
    <rc><c>   5</c><c>Ag</c><c>    107.86800000</c><c>     11.00000000</c><c>  PAW_PBE Ag 02Apr2005                  </c></rc>
    <rc><c>   1</c><c>Au</c><c>    196.96600000</c><c>     11.00000000</c><c>  PAW_PBE Au 04Oct2007                  </c></rc>
   </set>
  </array>
 </atominfo>
 <structure name="initialpos" >
  <crystal>
   <varray name="basis" >
    <v>       0.00000000       2.06833526       2.06833526 </v>
    <v>       4.15433217       0.00000000       0.00000000 </v>
    <v>       0.00000000       6.21597268      -6.21597268 </v>
   </varray>
   <i name="volume">    106.82213338 </i>
   <varray name="rec_basis" >
    <v>       0.00000000       0.24174031       0.24174031 </v>
    <v>       0.24071258       0.00000000       0.00000000 </v>
    <v>       0.00000000       0.08043793      -0.08043793 </v>
   </varray>
  </crystal>
  <varray name="positions" >
   <v>       0.50000000       0.50000000       0.16708770 </v>
   <v>       0.00000000       0.00000000       0.33374683 </v>
   <v>       0.50000000       0.50000000       0.50000000 </v>
   <v>       0.00000000       0.00000000       0.66625317 </v>
   <v>       0.50000000       0.50000000       0.83291230 </v>
   <v>       0.00000000       0.00000000       0.00000000 </v>
  </varray>
 </structure>
 <calculation>
  <scstep>
   <time name="dav">    9.16    9.16</time>
   <time name="total">    9.23    9.25</time>
   <energy>
    <i name="alphaZ">    304.30134037 </i>
    <i name="ewald">  -5781.80213218 </i>
    <i name="hartreedc">  -1175.58951554 </i>
    <i name="XCdc">    -37.13786355 </i>
    <i name="pawpsdc">   5891.40824999 </i>
    <i name="pawaedc">  -5637.75650598 </i>
    <i name="eentropy">      0.00130803 </i>
    <i name="bandstr">    775.26777883 </i>
    <i name="atom">   6112.39400946 </i>
    <i name="e_fr_energy">    451.08666944 </i>
    <i name="e_wo_entrp">    451.08536141 </i>
    <i name="e_0_energy">    451.08623343 </i>
   </energy>
  </scstep>
  <scstep>
   <time name="dav">    9.32    9.32</time>
   <time name="total">    9.36    9.37</time>
   <energy>
    <i name="e_fr_energy">     -7.11321400 </i>
    <i name="e_wo_entrp">     -7.11569585 </i>
    <i name="e_0_energy">     -7.11404128 </i>
   </energy>
  </scstep>
  <scstep>
   <time name="dav">   10.10   10.10</time>
   <time name="total">   10.13   10.15</time>
   <energy>
    <i name="e_fr_energy">    -18.38420055 </i>
    <i name="e_wo_entrp">    -18.38698653 </i>
    <i name="e_0_energy">    -18.38512921 </i>
   </energy>
  </scstep>
  <scstep>
   <time name="dav">    9.55    9.56</time>
   <time name="total">    9.59    9.61</time>
   <energy>
    <i name="e_fr_energy">    -18.45868720 </i>
    <i name="e_wo_entrp">    -18.46148376 </i>
    <i name="e_0_energy">    -18.45961938 </i>
   </energy>
  </scstep>
  <scstep>
   <time name="dav">   10.24   10.24</time>
   <time name="total">   10.86   10.88</time>
   <energy>
    <i name="e_fr_energy">    -18.45929156 </i>
    <i name="e_wo_entrp">    -18.46208825 </i>
    <i name="e_0_energy">    -18.46022379 </i>
   </energy>
  </scstep>
  <scstep>
   <time name="diag">    2.42    2.42</time>
   <time name="diis">    4.32    4.32</time>
   <time name="orth">    0.38    0.38</time>
   <time name="total">    7.81    7.83</time>
   <energy>
    <i name="e_fr_energy">    -17.02985360 </i>
    <i name="e_wo_entrp">    -17.03255938 </i>
    <i name="e_0_energy">    -17.03075553 </i>
   </energy>
  </scstep>
  <scstep>
   <time name="diag">    2.42    2.42</time>
   <time name="diis">    4.30    4.30</time>
   <time name="orth">    0.39    0.39</time>
   <time name="total">    7.77    7.79</time>
   <energy>
    <i name="e_fr_energy">    -16.98137420 </i>
    <i name="e_wo_entrp">    -16.98401898 </i>
    <i name="e_0_energy">    -16.98225579 </i>
   </energy>
  </scstep>
  <scstep>
   <time name="diag">    2.48    2.48</time>
   <time name="diis">    4.30    4.30</time>
   <time name="orth">    0.38    0.38</time>
   <time name="total">    7.81    7.83</time>
   <energy>
    <i name="e_fr_energy">    -16.96761132 </i>
    <i name="e_wo_entrp">    -16.97025697 </i>
    <i name="e_0_energy">    -16.96849321 </i>
   </energy>
  </scstep>
  <scstep>
   <time name="diag">    2.41    2.41</time>
   <time name="diis">    4.31    4.31</time>
   <time name="orth">    0.38    0.38</time>
   <time name="total">    7.75    7.77</time>
   <energy>
    <i name="e_fr_energy">    -16.96732363 </i>
    <i name="e_wo_entrp">    -16.96996365 </i>
    <i name="e_0_energy">    -16.96820363 </i>
   </energy>
  </scstep>
  <scstep>
   <time name="diag">    2.49    2.49</time>
   <time name="diis">    4.29    4.29</time>
   <time name="orth">    0.38    0.38</time>
   <time name="total">    7.81    7.83</time>
   <energy>
    <i name="e_fr_energy">    -16.96734197 </i>
    <i name="e_wo_entrp">    -16.96998074 </i>
    <i name="e_0_energy">    -16.96822156 </i>
   </energy>
  </scstep>
  <scstep>
   <time name="diag">    2.41    2.41</time>
   <time name="diis">    4.34    4.34</time>
   <time name="orth">    0.38    0.38</time>
   <time name="total">    7.79    7.80</time>
   <energy>
    <i name="e_fr_energy">    -16.96735331 </i>
    <i name="e_wo_entrp">    -16.96999280 </i>
    <i name="e_0_energy">    -16.96823314 </i>
   </energy>
  </scstep>
  <scstep>
   <time name="diag">    2.42    2.42</time>
   <time name="diis">    2.69    2.69</time>
   <time name="orth">    0.38    0.38</time>
   <time name="total">    6.15    6.17</time>
   <energy>
    <i name="e_fr_energy">    -16.96735115 </i>
    <i name="e_wo_entrp">    -16.96999075 </i>
    <i name="e_0_energy">    -16.96823102 </i>
   </energy>
  </scstep>
  <scstep>
   <time name="diag">    2.41    2.41</time>
   <time name="diis">    2.65    2.65</time>
   <time name="orth">    0.38    0.38</time>
   <time name="total">    5.52    5.54</time>
   <energy>
    <i name="alphaZ">    304.30134037 </i>
    <i name="ewald">  -5781.80213218 </i>
    <i name="hartreedc">  -1102.98605757 </i>
    <i name="XCdc">    -39.89518780 </i>
    <i name="pawpsdc">   6535.12125300 </i>
    <i name="pawaedc">  -6296.08438205 </i>
    <i name="eentropy">      0.00263954 </i>
    <i name="bandstr">    251.98116658 </i>
    <i name="atom">   6112.39400946 </i>
    <i name="e_fr_energy">    -16.96735064 </i>
    <i name="e_wo_entrp">    -16.96999017 </i>
    <i name="e_0_energy">    -16.96823048 </i>
   </energy>
  </scstep>
  <structure>
   <crystal>
    <varray name="basis" >
     <v>       0.00000000       2.06833526       2.06833526 </v>
     <v>       4.15433217       0.00000000       0.00000000 </v>
     <v>       0.00000000       6.21597268      -6.21597268 </v>
    </varray>
    <i name="volume">    106.82213338 </i>
    <varray name="rec_basis" >
     <v>       0.00000000       0.24174031       0.24174031 </v>
     <v>       0.24071258       0.00000000       0.00000000 </v>
     <v>       0.00000000       0.08043793      -0.08043793 </v>
    </varray>
   </crystal>
   <varray name="positions" >
    <v>       0.50000000       0.50000000       0.16708770 </v>
    <v>       0.00000000       0.00000000       0.33374683 </v>
    <v>       0.50000000       0.50000000       0.50000000 </v>
    <v>       0.00000000       0.00000000       0.66625317 </v>
    <v>       0.50000000       0.50000000       0.83291230 </v>
    <v>       0.00000000       0.00000000       0.00000000 </v>
   </varray>
  </structure>
  <varray name="forces" >
   <v>       0.00000000       0.00126515      -0.00126515 </v>
   <v>       0.00000000       0.00401204      -0.00401204 </v>
   <v>       0.00000000       0.00000000       0.00000000 </v>
   <v>       0.00000000      -0.00401204       0.00401204 </v>
   <v>       0.00000000      -0.00126515       0.00126515 </v>
   <v>       0.00000000       0.00000000       0.00000000 </v>
  </varray>
  <varray name="stress" >
   <v>       1.39420980       0.00000000       0.00000000 </v>
   <v>       0.00000000       0.09726822      -0.01163750 </v>
   <v>       0.00000000      -0.01163750       0.09726822 </v>
  </varray>
  <energy>
   <i name="e_fr_energy">    -16.96735064 </i>
   <i name="e_wo_entrp">    -16.96823048 </i>
   <i name="e_0_energy">      0.00263954 </i>
  </energy>
  <time name="totalsc">  114.03  114.31</time>
  <eigenvalues>
   <array>
    <dimension dim="1">band</dimension>
    <dimension dim="2">kpoint</dimension>
    <dimension dim="3">spin</dimension>
    <field>eigene</field>
    <field>occ</field>
    <set>
     <set comment="spin 1">
      <set comment="kpoint 1">
       <r>    0.0800    1.0000 </r>
       <r>    1.7200    1.0000 </r>
       <r>    1.8818    1.0000 </r>
       <r>    1.9376    1.0000 </r>
       <r>    2.2662    1.0000 </r>
       <r>    2.4039    1.0000 </r>
       <r>    2.4440    1.0000 </r>
       <r>    2.9908    1.0000 </r>
       <r>    2.9981    1.0000 </r>
       <r>    3.0048    1.0000 </r>
       <r>    3.0213    1.0000 </r>
       <r>    3.3489    1.0000 </r>
       <r>    3.3703    1.0000 </r>
       <r>    3.3717    1.0000 </r>
       <r>    3.5539    1.0000 </r>
       <r>    3.5641    1.0000 </r>
       <r>    3.6366    1.0000 </r>
       <r>    3.6571    1.0000 </r>
       <r>    3.8379    1.0000 </r>
       <r>    3.9432    1.0000 </r>
       <r>    3.9750    1.0000 </r>
       <r>    4.0301    1.0000 </r>
       <r>    4.2675    1.0000 </r>
       <r>    4.2961    1.0000 </r>
       <r>    4.3793    1.0000 </r>
       <r>    4.5703    1.0000 </r>
       <r>    4.7824    1.0000 </r>
       <r>    4.9591    1.0000 </r>
       <r>    5.0904    1.0000 </r>
       <r>    5.3039    1.0000 </r>
       <r>    5.3225    1.0000 </r>
       <r>    5.4217    1.0000 </r>
       <r>    5.5807    1.0000 </r>
       <r>    9.5217    0.0000 </r>
       <r>   10.9225    0.0000 </r>
       <r>   10.9587    0.0000 </r>
       <r>   13.5227    0.0000 </r>
       <r>   13.8824    0.0000 </r>
       <r>   14.2958    0.0000 </r>
       <r>   15.0727    0.0000 </r>
      </set>
      <set comment="kpoint 2">
       <r>    0.1168    1.0000 </r>
       <r>    1.7446    1.0000 </r>
       <r>    1.8989    1.0000 </r>
       <r>    1.9602    1.0000 </r>
       <r>    2.2867    1.0000 </r>
       <r>    2.4285    1.0000 </r>
       <r>    2.4673    1.0000 </r>
       <r>    2.9640    1.0000 </r>
       <r>    2.9749    1.0000 </r>
       <r>    2.9908    1.0000 </r>
       <r>    3.0123    1.0000 </r>
       <r>    3.3612    1.0000 </r>
       <r>    3.3623    1.0000 </r>
       <r>    3.3772    1.0000 </r>
       <r>    3.5170    1.0000 </r>
       <r>    3.5387    1.0000 </r>
       <r>    3.6036    1.0000 </r>
       <r>    3.6091    1.0000 </r>
       <r>    3.8708    1.0000 </r>
       <r>    3.9683    1.0000 </r>
       <r>    4.0303    1.0000 </r>
       <r>    4.0734    1.0000 </r>
       <r>    4.2695    1.0000 </r>
       <r>    4.2910    1.0000 </r>
       <r>    4.3848    1.0000 </r>
       <r>    4.5661    1.0000 </r>
       <r>    4.8163    1.0000 </r>
       <r>    4.9615    1.0000 </r>
       <r>    5.0895    1.0000 </r>
       <r>    5.2850    1.0000 </r>
       <r>    5.3204    1.0000 </r>
       <r>    5.4169    1.0000 </r>
       <r>    5.5322    1.0000 </r>
       <r>    9.6251    0.0000 </r>
       <r>   10.9579    0.0000 </r>
       <r>   10.9989    0.0000 </r>
       <r>   13.5630    0.0000 </r>
       <r>   13.9151    0.0000 </r>
       <r>   14.2944    0.0000 </r>
       <r>   15.0776    0.0000 </r>
      </set>
      <set comment="kpoint 3">
       <r>    0.2261    1.0000 </r>
       <r>    1.8107    1.0000 </r>
       <r>    1.9520    1.0000 </r>
       <r>    2.0249    1.0000 </r>
       <r>    2.3384    1.0000 </r>
       <r>    2.4962    1.0000 </r>
       <r>    2.5306    1.0000 </r>
       <r>    2.8917    1.0000 </r>
       <r>    2.8961    1.0000 </r>
       <r>    2.9744    1.0000 </r>
       <r>    2.9914    1.0000 </r>
       <r>    3.3336    1.0000 </r>
[...]
       <r>    4.3148    1.0000 </r>
       <r>    4.3871    1.0000 </r>
       <r>    4.4650    1.0000 </r>
       <r>    4.8745    1.0000 </r>
       <r>    4.9138    1.0000 </r>
       <r>    4.9974    1.0000 </r>
       <r>    5.1648    1.0000 </r>
       <r>    5.1925    1.0000 </r>
       <r>    5.7138    1.0000 </r>
       <r>    7.8618    0.8659 </r>
       <r>    8.2719   -0.0068 </r>
       <r>    8.5690   -0.0121 </r>
       <r>    8.7732   -0.0009 </r>
       <r>   11.5467    0.0000 </r>
       <r>   12.2463    0.0000 </r>
       <r>   12.6688    0.0000 </r>
       <r>   12.6874    0.0000 </r>
       <r>   12.7880    0.0000 </r>
       <r>   12.8007    0.0000 </r>
      </set>
      <set comment="kpoint 584">
       <r>    1.9578    1.0000 </r>
       <r>    2.1130    1.0000 </r>
       <r>    2.1695    1.0000 </r>
       <r>    2.1788    1.0000 </r>
       <r>    2.5026    1.0000 </r>
       <r>    2.5195    1.0000 </r>
       <r>    2.9665    1.0000 </r>
       <r>    2.9715    1.0000 </r>
       <r>    3.1244    1.0000 </r>
       <r>    3.1339    1.0000 </r>
       <r>    3.1517    1.0000 </r>
       <r>    3.1838    1.0000 </r>
       <r>    3.2391    1.0000 </r>
       <r>    3.2418    1.0000 </r>
       <r>    3.5828    1.0000 </r>
       <r>    3.5932    1.0000 </r>
       <r>    3.6368    1.0000 </r>
       <r>    3.7500    1.0000 </r>
       <r>    4.1893    1.0000 </r>
       <r>    4.2083    1.0000 </r>
       <r>    4.3192    1.0000 </r>
       <r>    4.3388    1.0000 </r>
       <r>    4.4638    1.0000 </r>
       <r>    4.4821    1.0000 </r>
       <r>    4.9672    1.0000 </r>
       <r>    4.9807    1.0000 </r>
       <r>    5.0973    1.0000 </r>
       <r>    5.2201    1.0000 </r>
       <r>    5.2583    1.0000 </r>
       <r>    5.8388    1.0000 </r>
       <r>    8.4623   -0.0272 </r>
       <r>    8.7880   -0.0007 </r>
       <r>    8.9201   -0.0001 </r>
       <r>    9.1426    0.0000 </r>
       <r>   10.8823    0.0000 </r>
       <r>   11.6384    0.0000 </r>
       <r>   11.9827    0.0000 </r>
       <r>   12.2109    0.0000 </r>
       <r>   13.1328    0.0000 </r>
       <r>   13.2290    0.0000 </r>
      </set>
      <set comment="kpoint 585">
       <r>    1.9467    1.0000 </r>
       <r>    2.0972    1.0000 </r>
       <r>    2.1598    1.0000 </r>
       <r>    2.1616    1.0000 </r>
       <r>    2.4874    1.0000 </r>
       <r>    2.5058    1.0000 </r>
       <r>    2.9689    1.0000 </r>
       <r>    2.9701    1.0000 </r>
       <r>    3.1210    1.0000 </r>
       <r>    3.1246    1.0000 </r>
       <r>    3.1473    1.0000 </r>
       <r>    3.1776    1.0000 </r>
       <r>    3.2419    1.0000 </r>
       <r>    3.2498    1.0000 </r>
       <r>    3.5803    1.0000 </r>
       <r>    3.5841    1.0000 </r>
       <r>    3.6330    1.0000 </r>
       <r>    3.7469    1.0000 </r>
       <r>    4.2130    1.0000 </r>
       <r>    4.2200    1.0000 </r>
       <r>    4.3245    1.0000 </r>
       <r>    4.3523    1.0000 </r>
       <r>    4.4852    1.0000 </r>
       <r>    4.4890    1.0000 </r>
       <r>    5.0023    1.0000 </r>
       <r>    5.0032    1.0000 </r>
       <r>    5.1330    1.0000 </r>
       <r>    5.2414    1.0000 </r>
       <r>    5.2818    1.0000 </r>
       <r>    5.8817    1.0000 </r>
       <r>    8.9028   -0.0001 </r>
       <r>    8.9524    0.0000 </r>
       <r>    9.1605    0.0000 </r>
       <r>    9.1722    0.0000 </r>
       <r>   10.5276    0.0000 </r>
       <r>   11.5274    0.0000 </r>
       <r>   11.5325    0.0000 </r>
       <r>   11.9629    0.0000 </r>
       <r>   13.4724    0.0000 </r>
       <r>   13.4831    0.0000 </r>
      </set>
     </set>
    </set>
   </array>
  </eigenvalues>
  <separator name="orbital magnetization" >
   <v name="MAGDIPOLOUT">      0.00000000      0.00000000      0.00000000</v>
  </separator>
  <dos>
   <i name="efermi">      8.00947601 </i>
   <total>
    <array>
     <dimension dim="1">gridpoints</dimension>
     <dimension dim="2">spin</dimension>
     <field>energy</field>
     <field>total</field>
     <field>integrated</field>
     <set>
      <set comment="spin 1">
       <r>    -2.9200     0.0000     0.0000 </r>
       <r>    -2.8389     0.0000     0.0000 </r>
       <r>    -2.7579     0.0000     0.0000 </r>
       <r>    -2.6769     0.0000     0.0000 </r>
       <r>    -2.5959     0.0000     0.0000 </r>
       <r>    -2.5148     0.0000     0.0000 </r>
       <r>    -2.4338     0.0000     0.0000 </r>
       <r>    -2.3528     0.0000     0.0000 </r>
       <r>    -2.2718     0.0000     0.0000 </r>
       <r>    -2.1907     0.0000     0.0000 </r>
       <r>    -2.1097     0.0000     0.0000 </r>
       <r>    -2.0287     0.0000     0.0000 </r>
       <r>    -1.9477     0.0000     0.0000 </r>
       <r>    -1.8666     0.0000     0.0000 </r>
       <r>    -1.7856     0.0000     0.0000 </r>
       <r>    -1.7046     0.0000     0.0000 </r>
       <r>    -1.6235     0.0000     0.0000 </r>
       <r>    -1.5425     0.0000     0.0000 </r>
       <r>    -1.4615     0.0000     0.0000 </r>
       <r>    -1.3805     0.0000     0.0000 </r>
       <r>    -1.2994     0.0000     0.0000 </r>
       <r>    -1.2184     0.0000     0.0000 </r>
       <r>    -1.1374     0.0000     0.0000 </r>
       <r>    -1.0564     0.0000     0.0000 </r>
       <r>    -0.9753     0.0000     0.0000 </r>
       <r>    -0.8943     0.0000     0.0000 </r>
       <r>    -0.8133     0.0000     0.0000 </r>
       <r>    -0.7323     0.0000     0.0000 </r>
       <r>    -0.6512    -0.0001     0.0000 </r>
       <r>    -0.5702    -0.0004     0.0000 </r>
       <r>    -0.4892    -0.0013    -0.0002 </r>
       <r>    -0.4082    -0.0030    -0.0004 </r>
       <r>    -0.3271    -0.0061    -0.0009 </r>
       <r>    -0.2461    -0.0098    -0.0017 </r>
       <r>    -0.1651    -0.0110    -0.0026 </r>
       <r>    -0.0840    -0.0038    -0.0029 </r>
       <r>    -0.0030     0.0198    -0.0013 </r>
       <r>     0.0780     0.0661     0.0041 </r>
       <r>     0.1590     0.1356     0.0151 </r>
       <r>     0.2401     0.2206     0.0329 </r>
       <r>     0.3211     0.3078     0.0579 </r>
       <r>     0.4021     0.3836     0.0889 </r>
       <r>     0.4831     0.4393     0.1245 </r>
       <r>     0.5642     0.4737     0.1629 </r>
       <r>     0.6452     0.4917     0.2028 </r>
       <r>     0.7262     0.5008     0.2433 </r>
       <r>     0.8072     0.5093     0.2846 </r>
       <r>     0.8883     0.5254     0.3272 </r>
       <r>     0.9693     0.5568     0.3723 </r>
       <r>     1.0503     0.6097     0.4217 </r>
       <r>     1.1313     0.6845     0.4772 </r>
       <r>     1.2124     0.7705     0.5396 </r>
       <r>     1.2934     0.8473     0.6082 </r>
       <r>     1.3744     0.9002     0.6812 </r>
       <r>     1.4555     0.9525     0.7584 </r>
       <r>     1.5365     1.0948     0.8471 </r>
       <r>     1.6175     1.4816     0.9671 </r>
       <r>     1.6985     2.2762     1.1516 </r>
       <r>     1.7796     3.5726     1.4410 </r>
       <r>     1.8606     5.3571     1.8751 </r>
       <r>     1.9416     7.5448     2.4864 </r>
       <r>     2.0226    10.0386     3.2998 </r>
       <r>     2.1037    12.7172     4.3302 </r>
       <r>     2.1847    15.3422     5.5734 </r>
       <r>     2.2657    17.5088     6.9920 </r>
       <r>     2.3467    18.7676     8.5127 </r>
       <r>     2.4278    18.8683    10.0415 </r>
       <r>     2.5088    17.9349    11.4947 </r>
       <r>     2.5898    16.4321    12.8262 </r>
       <r>     2.6708    14.9602    14.0383 </r>
       <r>     2.7519    14.0103    15.1735 </r>
       <r>     2.8329    13.7894    16.2908 </r>
       <r>     2.9139    14.1781    17.4396 </r>
       <r>     2.9950    14.8448    18.6425 </r>
       <r>     3.0760    15.4752    19.8964 </r>
       <r>     3.1570    15.9887    21.1919 </r>
       <r>     3.2380    16.5954    22.5365 </r>
       <r>     3.3191    17.6287    23.9649 </r>
       <r>     3.4001    19.2349    25.5235 </r>
       <r>     3.4811    21.1233    27.2350 </r>
       <r>     3.5621    22.6046    29.0666 </r>
       <r>     3.6432    22.9711    30.9278 </r>
       <r>     3.7242    21.9861    32.7093 </r>
       <r>     3.8052    20.0927    34.3373 </r>
       <r>     3.8862    18.1517    35.8081 </r>
       <r>     3.9673    16.9154    37.1787 </r>
       <r>     4.0483    16.6440    38.5273 </r>
       <r>     4.1293    17.0919    39.9122 </r>
       <r>     4.2104    17.7698    41.3520 </r>
       <r>     4.2914    18.2406    42.8300 </r>
       <r>     4.3724    18.2849    44.3116 </r>
       <r>     4.4534    17.9118    45.7629 </r>
       <r>     4.5345    17.2791    47.1630 </r>
       <r>     4.6155    16.6042    48.5083 </r>
       <r>     4.6965    16.1046    49.8132 </r>
       <r>     4.7775    15.9463    51.1053 </r>
       <r>     4.8586    16.1648    52.4151 </r>
       <r>     4.9396    16.5997    53.7601 </r>
       <r>     5.0206    16.9301    55.1319 </r>
       <r>     5.1016    16.8298    56.4955 </r>
       <r>     5.1827    16.1249    57.8021 </r>
       <r>     5.2637    14.8216    59.0030 </r>
       <r>     5.3447    13.0166    60.0577 </r>
       <r>     5.4257    10.8281    60.9351 </r>
       <r>     5.5068     8.4257    61.6178 </r>
       <r>     5.5878     6.0741    62.1099 </r>
       <r>     5.6688     4.0757    62.4402 </r>
       <r>     5.7499     2.6341    62.6536 </r>
       <r>     5.8309     1.7706    62.7971 </r>
       <r>     5.9119     1.3639    62.9076 </r>
       <r>     5.9929     1.2499    63.0088 </r>
       <r>     6.0740     1.2887    63.1133 </r>
       <r>     6.1550     1.3775    63.2249 </r>
       <r>     6.2360     1.4458    63.3420 </r>
       <r>     6.3170     1.4571    63.4601 </r>
       <r>     6.3981     1.4148    63.5747 </r>
       <r>     6.4791     1.3545    63.6845 </r>
       <r>     6.5601     1.3217    63.7916 </r>
       <r>     6.6411     1.3442    63.9005 </r>
       <r>     6.7222     1.4141    64.0151 </r>
       <r>     6.8032     1.4940    64.1361 </r>
       <r>     6.8842     1.5433    64.2612 </r>
       <r>     6.9652     1.5427    64.3862 </r>
       <r>     7.0463     1.5004    64.5077 </r>
       <r>     7.1273     1.4425    64.6246 </r>
       <r>     7.2083     1.3988    64.7380 </r>
       <r>     7.2894     1.3932    64.8508 </r>
       <r>     7.3704     1.4359    64.9672 </r>
       <r>     7.4514     1.5182    65.0902 </r>
       <r>     7.5324     1.6138    65.2210 </r>
       <r>     7.6135     1.6885    65.3578 </r>
       <r>     7.6945     1.7141    65.4967 </r>
       <r>     7.7755     1.6838    65.6331 </r>
       <r>     7.8565     1.6180    65.7642 </r>
       <r>     7.9376     1.5548    65.8902 </r>
       <r>     8.0186     1.5273    66.0139 </r>
       <r>     8.0996     1.5460    66.1392 </r>
       <r>     8.1806     1.5975    66.2686 </r>
       <r>     8.2617     1.6569    66.4029 </r>
       <r>     8.3427     1.7022    66.5408 </r>
       <r>     8.4237     1.7220    66.6803 </r>
       <r>     8.5047     1.7152    66.8193 </r>
       <r>     8.5858     1.6848    66.9558 </r>
       <r>     8.6668     1.6340    67.0882 </r>
       <r>     8.7478     1.5699    67.2154 </r>
       <r>     8.8289     1.5110    67.3379 </r>
       <r>     8.9099     1.4845    67.4582 </r>
       <r>     8.9909     1.5095    67.5805 </r>
       <r>     9.0719     1.5782    67.7083 </r>
       <r>     9.1530     1.6553    67.8425 </r>
       <r>     9.2340     1.7006    67.9803 </r>
       <r>     9.3150     1.6964    68.1177 </r>
       <r>     9.3960     1.6577    68.2520 </r>
       <r>     9.4771     1.6153    68.3829 </r>
       <r>     9.5581     1.5877    68.5116 </r>
       <r>     9.6391     1.5682    68.6386 </r>
       <r>     9.7201     1.5402    68.7634 </r>
       <r>     9.8012     1.5039    68.8853 </r>
       <r>     9.8822     1.4832    69.0055 </r>
       <r>     9.9632     1.5019    69.1271 </r>
       <r>    10.0443     1.5534    69.2530 </r>
       <r>    10.1253     1.5979    69.3825 </r>
       <r>    10.2063     1.5941    69.5116 </r>
       <r>    10.2873     1.5345    69.6360 </r>
       <r>    10.3684     1.4494    69.7534 </r>
       <r>    10.4494     1.3784    69.8651 </r>
       <r>    10.5304     1.3406    69.9737 </r>
       <r>    10.6114     1.3287    70.0814 </r>
       <r>    10.6925     1.3250    70.1887 </r>
       <r>    10.7735     1.3201    70.2957 </r>
       <r>    10.8545     1.3176    70.4025 </r>
       <r>    10.9355     1.3269    70.5100 </r>
       <r>    11.0166     1.3531    70.6196 </r>
       <r>    11.0976     1.3946    70.7326 </r>
       <r>    11.1786     1.4482    70.8500 </r>
       <r>    11.2596     1.5139    70.9726 </r>
       <r>    11.3407     1.5928    71.1017 </r>
       <r>    11.4217     1.6794    71.2378 </r>
       <r>    11.5027     1.7613    71.3805 </r>
       <r>    11.5838     1.8282    71.5286 </r>
       <r>    11.6648     1.8823    71.6811 </r>
       <r>    11.7458     1.9357    71.8380 </r>
       <r>    11.8268     1.9951    71.9996 </r>
       <r>    11.9079     2.0520    72.1659 </r>
       <r>    11.9889     2.0878    72.3351 </r>
       <r>    12.0699     2.0894    72.5044 </r>
       <r>    12.1509     2.0575    72.6711 </r>
       <r>    12.2320     2.0046    72.8335 </r>
       <r>    12.3130     1.9471    72.9913 </r>
       <r>    12.3940     1.8973    73.1450 </r>
       <r>    12.4750     1.8600    73.2957 </r>
       <r>    12.5561     1.8331    73.4442 </r>
       <r>    12.6371     1.8116    73.5910 </r>
       <r>    12.7181     1.7930    73.7363 </r>
       <r>    12.7991     1.7777    73.8803 </r>
       <r>    12.8802     1.7665    74.0235 </r>
       <r>    12.9612     1.7585    74.1660 </r>
       <r>    13.0422     1.7517    74.3079 </r>
       <r>    13.1233     1.7438    74.4492 </r>
       <r>    13.2043     1.7316    74.5895 </r>
       <r>    13.2853     1.7103    74.7281 </r>
       <r>    13.3663     1.6781    74.8640 </r>
       <r>    13.4474     1.6408    74.9970 </r>
       <r>    13.5284     1.6100    75.1274 </r>
       <r>    13.6094     1.5968    75.2568 </r>
       <r>    13.6904     1.6049    75.3869 </r>
       <r>    13.7715     1.6299    75.5189 </r>
       <r>    13.8525     1.6602    75.6534 </r>
       <r>    13.9335     1.6827    75.7898 </r>
       <r>    14.0145     1.6903    75.9267 </r>
       <r>    14.0956     1.6875    76.0635 </r>
       <r>    14.1766     1.6872    76.2002 </r>
       <r>    14.2576     1.6993    76.3379 </r>
       <r>    14.3386     1.7232    76.4775 </r>
       <r>    14.4197     1.7477    76.6191 </r>
       <r>    14.5007     1.7586    76.7616 </r>
       <r>    14.5817     1.7492    76.9033 </r>
       <r>    14.6628     1.7242    77.0430 </r>
       <r>    14.7438     1.6973    77.1806 </r>
       <r>    14.8248     1.6821    77.3169 </r>
       <r>    14.9058     1.6863    77.4535 </r>
       <r>    14.9869     1.7137    77.5923 </r>
       <r>    15.0679     1.7650    77.7354 </r>
       <r>    15.1489     1.8319    77.8838 </r>
       <r>    15.2299     1.8881    78.0368 </r>
       <r>    15.3110     1.8942    78.1903 </r>
       <r>    15.3920     1.8207    78.3378 </r>
       <r>    15.4730     1.6717    78.4732 </r>
       <r>    15.5540     1.4849    78.5935 </r>
       <r>    15.6351     1.3087    78.6996 </r>
       <r>    15.7161     1.1740    78.7947 </r>
       <r>    15.7971     1.0829    78.8825 </r>
       <r>    15.8781     1.0173    78.9649 </r>
       <r>    15.9592     0.9586    79.0426 </r>
       <r>    16.0402     0.9043    79.1158 </r>
       <r>    16.1212     0.8664    79.1860 </r>
       <r>    16.2023     0.8526    79.2551 </r>
       <r>    16.2833     0.8484    79.3238 </r>
       <r>    16.3643     0.8218    79.3904 </r>
       <r>    16.4453     0.7480    79.4510 </r>
       <r>    16.5264     0.6327    79.5023 </r>
       <r>    16.6074     0.5104    79.5437 </r>
       <r>    16.6884     0.4203    79.5777 </r>
       <r>    16.7694     0.3806    79.6086 </r>
       <r>    16.8505     0.3806    79.6394 </r>
       <r>    16.9315     0.3928    79.6712 </r>
       <r>    17.0125     0.3917    79.7030 </r>
       <r>    17.0935     0.3669    79.7327 </r>
       <r>    17.1746     0.3252    79.7590 </r>
       <r>    17.2556     0.2842    79.7821 </r>
       <r>    17.3366     0.2609    79.8032 </r>
       <r>    17.4177     0.2614    79.8244 </r>
       <r>    17.4987     0.2757    79.8467 </r>
       <r>    17.5797     0.2833    79.8697 </r>
       <r>    17.6607     0.2677    79.8914 </r>
       <r>    17.7418     0.2288    79.9099 </r>
       <r>    17.8228     0.1830    79.9247 </r>
       <r>    17.9038     0.1498    79.9369 </r>
       <r>    17.9848     0.1379    79.9481 </r>
       <r>    18.0659     0.1400    79.9594 </r>
       <r>    18.1469     0.1415    79.9709 </r>
       <r>    18.2279     0.1312    79.9815 </r>
       <r>    18.3089     0.1069    79.9902 </r>
       <r>    18.3900     0.0743    79.9962 </r>
       <r>    18.4710     0.0421    79.9996 </r>
       <r>    18.5520     0.0172    80.0010 </r>
       <r>    18.6330     0.0023    80.0012 </r>
       <r>    18.7141    -0.0038    80.0009 </r>
       <r>    18.7951    -0.0046    80.0005 </r>
       <r>    18.8761    -0.0033    80.0002 </r>
       <r>    18.9572    -0.0017    80.0001 </r>
       <r>    19.0382    -0.0008    80.0000 </r>
       <r>    19.1192    -0.0003    80.0000 </r>
       <r>    19.2002    -0.0001    80.0000 </r>
       <r>    19.2813     0.0000    80.0000 </r>
       <r>    19.3623     0.0000    80.0000 </r>
       <r>    19.4433     0.0000    80.0000 </r>
       <r>    19.5243     0.0000    80.0000 </r>
       <r>    19.6054     0.0000    80.0000 </r>
       <r>    19.6864     0.0000    80.0000 </r>
       <r>    19.7674     0.0000    80.0000 </r>
       <r>    19.8484     0.0000    80.0000 </r>
       <r>    19.9295     0.0000    80.0000 </r>
       <r>    20.0105     0.0000    80.0000 </r>
       <r>    20.0915     0.0000    80.0000 </r>
       <r>    20.1725     0.0000    80.0000 </r>
       <r>    20.2536     0.0000    80.0000 </r>
       <r>    20.3346     0.0000    80.0000 </r>
       <r>    20.4156     0.0000    80.0000 </r>
       <r>    20.4967     0.0000    80.0000 </r>
       <r>    20.5777     0.0000    80.0000 </r>
       <r>    20.6587     0.0000    80.0000 </r>
       <r>    20.7397     0.0000    80.0000 </r>
       <r>    20.8208     0.0000    80.0000 </r>
       <r>    20.9018     0.0000    80.0000 </r>
       <r>    20.9828     0.0000    80.0000 </r>
       <r>    21.0638     0.0000    80.0000 </r>
       <r>    21.1449     0.0000    80.0000 </r>
       <r>    21.2259     0.0000    80.0000 </r>
       <r>    21.3069     0.0000    80.0000 </r>
       <r>    21.3879     0.0000    80.0000 </r>
      </set>
     </set>
    </array>
   </total>
  </dos>
 </calculation>
 <structure name="finalpos" >
  <crystal>
   <varray name="basis" >
    <v>       0.00000000       2.06833526       2.06833526 </v>
    <v>       4.15433217       0.00000000       0.00000000 </v>
    <v>       0.00000000       6.21597268      -6.21597268 </v>
   </varray>
   <i name="volume">    106.82213338 </i>
   <varray name="rec_basis" >
    <v>       0.00000000       0.24174031       0.24174031 </v>
    <v>       0.24071258       0.00000000       0.00000000 </v>
    <v>       0.00000000       0.08043793      -0.08043793 </v>
   </varray>
  </crystal>
  <varray name="positions" >
   <v>       0.50000000       0.50000000       0.16708770 </v>
   <v>       0.00000000       0.00000000       0.33374683 </v>
   <v>       0.50000000       0.50000000       0.50000000 </v>
   <v>       0.00000000       0.00000000       0.66625317 </v>
   <v>       0.50000000       0.50000000       0.83291230 </v>
   <v>       0.00000000       0.00000000       0.00000000 </v>
  </varray>
 </structure>
</modeling>
