<?xml version="1.0" encoding="ISO-8859-1"?>
<modeling>
 <generator>
  <i name="program" type="string">vasp </i>
  <i name="version" type="string">5.3.5  </i>
  <i name="subversion" type="string">31Mar14 (build Jun 20 2014 13:15:13) complex                          parallel </i>
  <i name="platform" type="string">LinuxIFC </i>
  <i name="date" type="string">2025 11 21 </i>
  <i name="time" type="string">14:11:21 </i>
 </generator>
 <incar>
  <i type="string" name="PREC">accurate</i>
  <i type="int" name="IALGO">    68</i>
  <i type="logical" name="ADDGRID"> T  </i>
  <i type="int" name="NELM">   100</i>
  <i type="int" name="NELMIN">     4</i>
  <i type="int" name="IBRION">     2</i>
  <i name="EDIFF">      0.00000100</i>
  <i name="EDIFFG">     -0.02000000</i>
  <i type="int" name="NSW">    30</i>
  <i type="int" name="ISIF">     3</i>
  <i name="ENCUT">    500.00000000</i>
  <i type="logical" name="LREAL"> F  </i>
  <i type="int" name="ISMEAR">     1</i>
  <i name="SIGMA">      0.30000000</i>
  <i type="logical" name="LWAVE"> F  </i>
  <i type="logical" name="LCHARG"> F  </i>
  <i type="int" name="NELM">   100</i>
 </incar>
 <kpoints>
  <generation param="Auto">
   <i name="subdivisionlength">     70.00000000 </i>
   <v type="int" name="divisions">      24       15       10 </v>
   <v name="usershift">      0.00000000       0.00000000       0.00000000 </v>
   <v name="genvec1">      0.04166667       0.00000000       0.00000000 </v>
   <v name="genvec2">      0.00000000       0.06666667       0.00000000 </v>
   <v name="genvec3">      0.00000000       0.00000000       0.10000000 </v>
   <v name="shift">      0.00000000       0.00000000       0.00000000 </v>
  </generation>
  <varray name="kpointlist" >
   <v>       0.00000000       0.00000000       0.00000000 </v>
   <v>       0.04166667       0.00000000       0.00000000 </v>
   <v>       0.08333333       0.00000000       0.00000000 </v>
   <v>       0.12500000       0.00000000       0.00000000 </v>
   <v>       0.16666667       0.00000000       0.00000000 </v>
   <v>       0.20833333       0.00000000       0.00000000 </v>
   <v>       0.25000000       0.00000000       0.00000000 </v>
   <v>       0.29166667       0.00000000       0.00000000 </v>
   <v>       0.33333333       0.00000000       0.00000000 </v>
   <v>       0.37500000       0.00000000       0.00000000 </v>
   <v>       0.41666667       0.00000000       0.00000000 </v>
   <v>       0.45833333       0.00000000       0.00000000 </v>
   <v>       0.50000000       0.00000000       0.00000000 </v>
   <v>       0.00000000       0.06666667       0.00000000 </v>
   <v>       0.04166667       0.06666667       0.00000000 </v>
   <v>       0.08333333       0.06666667       0.00000000 </v>
   <v>       0.12500000       0.06666667       0.00000000 </v>
   <v>       0.16666667       0.06666667       0.00000000 </v>
   <v>       0.20833333       0.06666667       0.00000000 </v>
   <v>       0.25000000       0.06666667       0.00000000 </v>
   <v>       0.29166667       0.06666667       0.00000000 </v>
   <v>       0.33333333       0.06666667       0.00000000 </v>
   <v>       0.37500000       0.06666667       0.00000000 </v>
   <v>       0.41666667       0.06666667       0.00000000 </v>
   <v>       0.45833333       0.06666667       0.00000000 </v>
   <v>       0.50000000       0.06666667       0.00000000 </v>
   <v>      -0.45833333       0.06666667       0.00000000 </v>
   <v>      -0.41666667       0.06666667       0.00000000 </v>
   <v>      -0.37500000       0.06666667       0.00000000 </v>
   <v>      -0.33333333       0.06666667       0.00000000 </v>
   <v>      -0.29166667       0.06666667       0.00000000 </v>
   <v>      -0.25000000       0.06666667       0.00000000 </v>
   <v>      -0.20833333       0.06666667       0.00000000 </v>
   <v>      -0.16666667       0.06666667       0.00000000 </v>
   <v>      -0.12500000       0.06666667       0.00000000 </v>
   <v>      -0.08333333       0.06666667       0.00000000 </v>
   <v>      -0.04166667       0.06666667       0.00000000 </v>
   <v>       0.00000000       0.13333333       0.00000000 </v>
   <v>       0.04166667       0.13333333       0.00000000 </v>
   <v>       0.08333333       0.13333333       0.00000000 </v>
   <v>       0.12500000       0.13333333       0.00000000 </v>
   <v>       0.16666667       0.13333333       0.00000000 </v>
   <v>       0.20833333       0.13333333       0.00000000 </v>
   <v>       0.25000000       0.13333333       0.00000000 </v>
   <v>       0.29166667       0.13333333       0.00000000 </v>
   <v>       0.33333333       0.13333333       0.00000000 </v>
   <v>       0.37500000       0.13333333       0.00000000 </v>
   <v>       0.41666667       0.13333333       0.00000000 </v>
   <v>       0.45833333       0.13333333       0.00000000 </v>
   <v>       0.50000000       0.13333333       0.00000000 </v>
   <v>      -0.45833333       0.13333333       0.00000000 </v>
   <v>      -0.41666667       0.13333333       0.00000000 </v>
   <v>      -0.37500000       0.13333333       0.00000000 </v>
   <v>      -0.33333333       0.13333333       0.00000000 </v>
   <v>      -0.29166667       0.13333333       0.00000000 </v>
   <v>      -0.25000000       0.13333333       0.00000000 </v>
   <v>      -0.20833333       0.13333333       0.00000000 </v>
   <v>      -0.16666667       0.13333333       0.00000000 </v>
   <v>      -0.12500000       0.13333333       0.00000000 </v>
   <v>      -0.08333333       0.13333333       0.00000000 </v>
   <v>      -0.04166667       0.13333333       0.00000000 </v>
   <v>       0.00000000       0.20000000       0.00000000 </v>
   <v>       0.04166667       0.20000000       0.00000000 </v>
   <v>       0.08333333       0.20000000       0.00000000 </v>
   <v>       0.12500000       0.20000000       0.00000000 </v>
   <v>       0.16666667       0.20000000       0.00000000 </v>
   <v>       0.20833333       0.20000000       0.00000000 </v>
   <v>       0.25000000       0.20000000       0.00000000 </v>
   <v>       0.29166667       0.20000000       0.00000000 </v>
   <v>       0.33333333       0.20000000       0.00000000 </v>
   <v>       0.37500000       0.20000000       0.00000000 </v>
   <v>       0.41666667       0.20000000       0.00000000 </v>
   <v>       0.45833333       0.20000000       0.00000000 </v>
   <v>       0.50000000       0.20000000       0.00000000 </v>
   <v>      -0.45833333       0.20000000       0.00000000 </v>
   <v>      -0.41666667       0.20000000       0.00000000 </v>
   <v>      -0.37500000       0.20000000       0.00000000 </v>
   <v>      -0.33333333       0.20000000       0.00000000 </v>
   <v>      -0.29166667       0.20000000       0.00000000 </v>
   <v>      -0.25000000       0.20000000       0.00000000 </v>
   <v>      -0.20833333       0.20000000       0.00000000 </v>
   <v>      -0.16666667       0.20000000       0.00000000 </v>
   <v>      -0.12500000       0.20000000       0.00000000 </v>
   <v>      -0.08333333       0.20000000       0.00000000 </v>
   <v>      -0.04166667       0.20000000       0.00000000 </v>
   <v>       0.00000000       0.26666667       0.00000000 </v>
   <v>       0.04166667       0.26666667       0.00000000 </v>
   <v>       0.08333333       0.26666667       0.00000000 </v>
   <v>       0.12500000       0.26666667       0.00000000 </v>
   <v>       0.16666667       0.26666667       0.00000000 </v>
   <v>       0.20833333       0.26666667       0.00000000 </v>
   <v>       0.25000000       0.26666667       0.00000000 </v>
   <v>       0.29166667       0.26666667       0.00000000 </v>
   <v>       0.33333333       0.26666667       0.00000000 </v>
   <v>       0.37500000       0.26666667       0.00000000 </v>
   <v>       0.41666667       0.26666667       0.00000000 </v>
   <v>       0.45833333       0.26666667       0.00000000 </v>
   <v>       0.50000000       0.26666667       0.00000000 </v>
   <v>      -0.45833333       0.26666667       0.00000000 </v>
   <v>      -0.41666667       0.26666667       0.00000000 </v>
   <v>      -0.37500000       0.26666667       0.00000000 </v>
   <v>      -0.33333333       0.26666667       0.00000000 </v>
   <v>      -0.29166667       0.26666667       0.00000000 </v>
   <v>      -0.25000000       0.26666667       0.00000000 </v>
   <v>      -0.20833333       0.26666667       0.00000000 </v>
   <v>      -0.16666667       0.26666667       0.00000000 </v>
   <v>      -0.12500000       0.26666667       0.00000000 </v>
   <v>      -0.08333333       0.26666667       0.00000000 </v>
   <v>      -0.04166667       0.26666667       0.00000000 </v>
   <v>       0.00000000       0.33333333       0.00000000 </v>
   <v>       0.04166667       0.33333333       0.00000000 </v>
   <v>       0.08333333       0.33333333       0.00000000 </v>
   <v>       0.12500000       0.33333333       0.00000000 </v>
   <v>       0.16666667       0.33333333       0.00000000 </v>
   <v>       0.20833333       0.33333333       0.00000000 </v>
   <v>       0.25000000       0.33333333       0.00000000 </v>
   <v>       0.29166667       0.33333333       0.00000000 </v>
   <v>       0.33333333       0.33333333       0.00000000 </v>
   <v>       0.37500000       0.33333333       0.00000000 </v>
   <v>       0.41666667       0.33333333       0.00000000 </v>
   <v>       0.45833333       0.33333333       0.00000000 </v>
   <v>       0.50000000       0.33333333       0.00000000 </v>
   <v>      -0.45833333       0.33333333       0.00000000 </v>
   <v>      -0.41666667       0.33333333       0.00000000 </v>
   <v>      -0.37500000       0.33333333       0.00000000 </v>
   <v>      -0.33333333       0.33333333       0.00000000 </v>
   <v>      -0.29166667       0.33333333       0.00000000 </v>
   <v>      -0.25000000       0.33333333       0.00000000 </v>
   <v>      -0.20833333       0.33333333       0.00000000 </v>
   <v>      -0.16666667       0.33333333       0.00000000 </v>
   <v>      -0.12500000       0.33333333       0.00000000 </v>
   <v>      -0.08333333       0.33333333       0.00000000 </v>
   <v>      -0.04166667       0.33333333       0.00000000 </v>
   <v>       0.00000000       0.40000000       0.00000000 </v>
   <v>       0.04166667       0.40000000       0.00000000 </v>
   <v>       0.08333333       0.40000000       0.00000000 </v>
   <v>       0.12500000       0.40000000       0.00000000 </v>
   <v>       0.16666667       0.40000000       0.00000000 </v>
   <v>       0.20833333       0.40000000       0.00000000 </v>
   <v>       0.25000000       0.40000000       0.00000000 </v>
   <v>       0.29166667       0.40000000       0.00000000 </v>
   <v>       0.33333333       0.40000000       0.00000000 </v>
   <v>       0.37500000       0.40000000       0.00000000 </v>
   <v>       0.41666667       0.40000000       0.00000000 </v>
   <v>       0.45833333       0.40000000       0.00000000 </v>
   <v>       0.50000000       0.40000000       0.00000000 </v>
   <v>      -0.45833333       0.40000000       0.00000000 </v>
   <v>      -0.41666667       0.40000000       0.00000000 </v>
   <v>      -0.37500000       0.40000000       0.00000000 </v>
   <v>      -0.33333333       0.40000000       0.00000000 </v>
   <v>      -0.29166667       0.40000000       0.00000000 </v>
   <v>      -0.25000000       0.40000000       0.00000000 </v>
   <v>      -0.20833333       0.40000000       0.00000000 </v>
   <v>      -0.16666667       0.40000000       0.00000000 </v>
   <v>      -0.12500000       0.40000000       0.00000000 </v>
   <v>      -0.08333333       0.40000000       0.00000000 </v>
   <v>      -0.04166667       0.40000000       0.00000000 </v>
   <v>       0.00000000       0.46666667       0.00000000 </v>
   <v>       0.04166667       0.46666667       0.00000000 </v>
   <v>       0.08333333       0.46666667       0.00000000 </v>
   <v>       0.12500000       0.46666667       0.00000000 </v>
   <v>       0.16666667       0.46666667       0.00000000 </v>
   <v>       0.20833333       0.46666667       0.00000000 </v>
   <v>       0.25000000       0.46666667       0.00000000 </v>
   <v>       0.29166667       0.46666667       0.00000000 </v>
   <v>       0.33333333       0.46666667       0.00000000 </v>
   <v>       0.37500000       0.46666667       0.00000000 </v>
   <v>       0.41666667       0.46666667       0.00000000 </v>
   <v>       0.45833333       0.46666667       0.00000000 </v>
   <v>       0.50000000       0.46666667       0.00000000 </v>
   <v>      -0.45833333       0.46666667       0.00000000 </v>
   <v>      -0.41666667       0.46666667       0.00000000 </v>
   <v>      -0.37500000       0.46666667       0.00000000 </v>
   <v>      -0.33333333       0.46666667       0.00000000 </v>
   <v>      -0.29166667       0.46666667       0.00000000 </v>
   <v>      -0.25000000       0.46666667       0.00000000 </v>
   <v>      -0.20833333       0.46666667       0.00000000 </v>
   <v>      -0.16666667       0.46666667       0.00000000 </v>
   <v>      -0.12500000       0.46666667       0.00000000 </v>
   <v>      -0.08333333       0.46666667       0.00000000 </v>
   <v>      -0.04166667       0.46666667       0.00000000 </v>
   <v>       0.00000000       0.00000000       0.10000000 </v>
   <v>       0.04166667       0.00000000       0.10000000 </v>
   <v>       0.08333333       0.00000000       0.10000000 </v>
   <v>       0.12500000       0.00000000       0.10000000 </v>
   <v>       0.16666667       0.00000000       0.10000000 </v>
   <v>       0.20833333       0.00000000       0.10000000 </v>
   <v>       0.25000000       0.00000000       0.10000000 </v>
   <v>       0.29166667       0.00000000       0.10000000 </v>
   <v>       0.33333333       0.00000000       0.10000000 </v>
   <v>       0.37500000       0.00000000       0.10000000 </v>
   <v>       0.41666667       0.00000000       0.10000000 </v>
   <v>       0.45833333       0.00000000       0.10000000 </v>
   <v>       0.50000000       0.00000000       0.10000000 </v>
   <v>      -0.45833333       0.00000000       0.10000000 </v>
   <v>      -0.41666667       0.00000000       0.10000000 </v>
   <v>      -0.37500000       0.00000000       0.10000000 </v>
   <v>      -0.33333333       0.00000000       0.10000000 </v>
   <v>      -0.29166667       0.00000000       0.10000000 </v>
   <v>      -0.25000000       0.00000000       0.10000000 </v>
   <v>      -0.20833333       0.00000000       0.10000000 </v>
   <v>      -0.16666667       0.00000000       0.10000000 </v>
   <v>      -0.12500000       0.00000000       0.10000000 </v>
   <v>      -0.08333333       0.00000000       0.10000000 </v>
   <v>      -0.04166667       0.00000000       0.10000000 </v>
   <v>       0.00000000       0.06666667       0.10000000 </v>
   <v>       0.04166667       0.06666667       0.10000000 </v>
   <v>       0.08333333       0.06666667       0.10000000 </v>
   <v>       0.12500000       0.06666667       0.10000000 </v>
   <v>       0.16666667       0.06666667       0.10000000 </v>
   <v>       0.20833333       0.06666667       0.10000000 </v>
   <v>       0.25000000       0.06666667       0.10000000 </v>
   <v>       0.29166667       0.06666667       0.10000000 </v>
   <v>       0.33333333       0.06666667       0.10000000 </v>
   <v>       0.37500000       0.06666667       0.10000000 </v>
   <v>       0.41666667       0.06666667       0.10000000 </v>
   <v>       0.45833333       0.06666667       0.10000000 </v>
   <v>       0.50000000       0.06666667       0.10000000 </v>
   <v>      -0.45833333       0.06666667       0.10000000 </v>
   <v>      -0.41666667       0.06666667       0.10000000 </v>
   <v>      -0.37500000       0.06666667       0.10000000 </v>
   <v>      -0.33333333       0.06666667       0.10000000 </v>
   <v>      -0.29166667       0.06666667       0.10000000 </v>
   <v>      -0.25000000       0.06666667       0.10000000 </v>
   <v>      -0.20833333       0.06666667       0.10000000 </v>
   <v>      -0.16666667       0.06666667       0.10000000 </v>
   <v>      -0.12500000       0.06666667       0.10000000 </v>
   <v>      -0.08333333       0.06666667       0.10000000 </v>
   <v>      -0.04166667       0.06666667       0.10000000 </v>
   <v>       0.00000000       0.13333333       0.10000000 </v>
   <v>       0.04166667       0.13333333       0.10000000 </v>
   <v>       0.08333333       0.13333333       0.10000000 </v>
   <v>       0.12500000       0.13333333       0.10000000 </v>
   <v>       0.16666667       0.13333333       0.10000000 </v>
   <v>       0.20833333       0.13333333       0.10000000 </v>
   <v>       0.25000000       0.13333333       0.10000000 </v>
   <v>       0.29166667       0.13333333       0.10000000 </v>
   <v>       0.33333333       0.13333333       0.10000000 </v>
   <v>       0.37500000       0.13333333       0.10000000 </v>
   <v>       0.41666667       0.13333333       0.10000000 </v>
   <v>       0.45833333       0.13333333       0.10000000 </v>
   <v>       0.50000000       0.13333333       0.10000000 </v>
   <v>      -0.45833333       0.13333333       0.10000000 </v>
   <v>      -0.41666667       0.13333333       0.10000000 </v>
   <v>      -0.37500000       0.13333333       0.10000000 </v>
   <v>      -0.33333333       0.13333333       0.10000000 </v>
   <v>      -0.29166667       0.13333333       0.10000000 </v>
   <v>      -0.25000000       0.13333333       0.10000000 </v>
   <v>      -0.20833333       0.13333333       0.10000000 </v>
   <v>      -0.16666667       0.13333333       0.10000000 </v>
   <v>      -0.12500000       0.13333333       0.10000000 </v>
   <v>      -0.08333333       0.13333333       0.10000000 </v>
   <v>      -0.04166667       0.13333333       0.10000000 </v>
   <v>       0.00000000       0.20000000       0.10000000 </v>
   <v>       0.04166667       0.20000000       0.10000000 </v>
   <v>       0.08333333       0.20000000       0.10000000 </v>
   <v>       0.12500000       0.20000000       0.10000000 </v>
   <v>       0.16666667       0.20000000       0.10000000 </v>
   <v>       0.20833333       0.20000000       0.10000000 </v>
   <v>       0.25000000       0.20000000       0.10000000 </v>
   <v>       0.29166667       0.20000000       0.10000000 </v>
   <v>       0.33333333       0.20000000       0.10000000 </v>
   <v>       0.37500000       0.20000000       0.10000000 </v>
   <v>       0.41666667       0.20000000       0.10000000 </v>
   <v>       0.45833333       0.20000000       0.10000000 </v>
   <v>       0.50000000       0.20000000       0.10000000 </v>
   <v>      -0.45833333       0.20000000       0.10000000 </v>
   <v>      -0.41666667       0.20000000       0.10000000 </v>
   <v>      -0.37500000       0.20000000       0.10000000 </v>
   <v>      -0.33333333       0.20000000       0.10000000 </v>
   <v>      -0.29166667       0.20000000       0.10000000 </v>
   <v>      -0.25000000       0.20000000       0.10000000 </v>
   <v>      -0.20833333       0.20000000       0.10000000 </v>
   <v>      -0.16666667       0.20000000       0.10000000 </v>
   <v>      -0.12500000       0.20000000       0.10000000 </v>
   <v>      -0.08333333       0.20000000       0.10000000 </v>
   <v>      -0.04166667       0.20000000       0.10000000 </v>
   <v>       0.00000000       0.26666667       0.10000000 </v>
   <v>       0.04166667       0.26666667       0.10000000 </v>
   <v>       0.08333333       0.26666667       0.10000000 </v>
   <v>       0.12500000       0.26666667       0.10000000 </v>
   <v>       0.16666667       0.26666667       0.10000000 </v>
   <v>       0.20833333       0.26666667       0.10000000 </v>
   <v>       0.25000000       0.26666667       0.10000000 </v>
   <v>       0.29166667       0.26666667       0.10000000 </v>
   <v>       0.33333333       0.26666667       0.10000000 </v>
   <v>       0.37500000       0.26666667       0.10000000 </v>
   <v>       0.41666667       0.26666667       0.10000000 </v>
   <v>       0.45833333       0.26666667       0.10000000 </v>
   <v>       0.50000000       0.26666667       0.10000000 </v>
   <v>      -0.45833333       0.26666667       0.10000000 </v>
   <v>      -0.41666667       0.26666667       0.10000000 </v>
   <v>      -0.37500000       0.26666667       0.10000000 </v>
   <v>      -0.33333333       0.26666667       0.10000000 </v>
   <v>      -0.29166667       0.26666667       0.10000000 </v>
   <v>      -0.25000000       0.26666667       0.10000000 </v>
   <v>      -0.20833333       0.26666667       0.10000000 </v>
   <v>      -0.16666667       0.26666667       0.10000000 </v>
   <v>      -0.12500000       0.26666667       0.10000000 </v>
   <v>      -0.08333333       0.26666667       0.10000000 </v>
   <v>      -0.04166667       0.26666667       0.10000000 </v>
   <v>       0.00000000       0.33333333       0.10000000 </v>
   <v>       0.04166667       0.33333333       0.10000000 </v>
   <v>       0.08333333       0.33333333       0.10000000 </v>
   <v>       0.12500000       0.33333333       0.10000000 </v>
   <v>       0.16666667       0.33333333       0.10000000 </v>
   <v>       0.20833333       0.33333333       0.10000000 </v>
   <v>       0.25000000       0.33333333       0.10000000 </v>
   <v>       0.29166667       0.33333333       0.10000000 </v>
   <v>       0.33333333       0.33333333       0.10000000 </v>
   <v>       0.37500000       0.33333333       0.10000000 </v>
   <v>       0.41666667       0.33333333       0.10000000 </v>
   <v>       0.45833333       0.33333333       0.10000000 </v>
   <v>       0.50000000       0.33333333       0.10000000 </v>
   <v>      -0.45833333       0.33333333       0.10000000 </v>
   <v>      -0.41666667       0.33333333       0.10000000 </v>
   <v>      -0.37500000       0.33333333       0.10000000 </v>
   <v>      -0.33333333       0.33333333       0.10000000 </v>
   <v>      -0.29166667       0.33333333       0.10000000 </v>
   <v>      -0.25000000       0.33333333       0.10000000 </v>
   <v>      -0.20833333       0.33333333       0.10000000 </v>
   <v>      -0.16666667       0.33333333       0.10000000 </v>
   <v>      -0.12500000       0.33333333       0.10000000 </v>
   <v>      -0.08333333       0.33333333       0.10000000 </v>
   <v>      -0.04166667       0.33333333       0.10000000 </v>
   <v>       0.00000000       0.40000000       0.10000000 </v>
   <v>       0.04166667       0.40000000       0.10000000 </v>
   <v>       0.08333333       0.40000000       0.10000000 </v>
   <v>       0.12500000       0.40000000       0.10000000 </v>
   <v>       0.16666667       0.40000000       0.10000000 </v>
   <v>       0.20833333       0.40000000       0.10000000 </v>
   <v>       0.25000000       0.40000000       0.10000000 </v>
   <v>       0.29166667       0.40000000       0.10000000 </v>
   <v>       0.33333333       0.40000000       0.10000000 </v>
   <v>       0.37500000       0.40000000       0.10000000 </v>
   <v>       0.41666667       0.40000000       0.10000000 </v>
   <v>       0.45833333       0.40000000       0.10000000 </v>
   <v>       0.50000000       0.40000000       0.10000000 </v>
   <v>      -0.45833333       0.40000000       0.10000000 </v>
   <v>      -0.41666667       0.40000000       0.10000000 </v>
   <v>      -0.37500000       0.40000000       0.10000000 </v>
   <v>      -0.33333333       0.40000000       0.10000000 </v>
   <v>      -0.29166667       0.40000000       0.10000000 </v>
   <v>      -0.25000000       0.40000000       0.10000000 </v>
   <v>      -0.20833333       0.40000000       0.10000000 </v>
   <v>      -0.16666667       0.40000000       0.10000000 </v>
   <v>      -0.12500000       0.40000000       0.10000000 </v>
   <v>      -0.08333333       0.40000000       0.10000000 </v>
   <v>      -0.04166667       0.40000000       0.10000000 </v>
   <v>       0.00000000       0.46666667       0.10000000 </v>
   <v>       0.04166667       0.46666667       0.10000000 </v>
   <v>       0.08333333       0.46666667       0.10000000 </v>
   <v>       0.12500000       0.46666667       0.10000000 </v>
   <v>       0.16666667       0.46666667       0.10000000 </v>
   <v>       0.20833333       0.46666667       0.10000000 </v>
   <v>       0.25000000       0.46666667       0.10000000 </v>
   <v>       0.29166667       0.46666667       0.10000000 </v>
   <v>       0.33333333       0.46666667       0.10000000 </v>
   <v>       0.37500000       0.46666667       0.10000000 </v>
   <v>       0.41666667       0.46666667       0.10000000 </v>
   <v>       0.45833333       0.46666667       0.10000000 </v>
   <v>       0.50000000       0.46666667       0.10000000 </v>
   <v>      -0.45833333       0.46666667       0.10000000 </v>
   <v>      -0.41666667       0.46666667       0.10000000 </v>
   <v>      -0.37500000       0.46666667       0.10000000 </v>
   <v>      -0.33333333       0.46666667       0.10000000 </v>
   <v>      -0.29166667       0.46666667       0.10000000 </v>
   <v>      -0.25000000       0.46666667       0.10000000 </v>
   <v>      -0.20833333       0.46666667       0.10000000 </v>
   <v>      -0.16666667       0.46666667       0.10000000 </v>
   <v>      -0.12500000       0.46666667       0.10000000 </v>
   <v>      -0.08333333       0.46666667       0.10000000 </v>
   <v>      -0.04166667       0.46666667       0.10000000 </v>
   <v>       0.00000000      -0.46666667       0.10000000 </v>
   <v>       0.04166667      -0.46666667       0.10000000 </v>
   <v>       0.08333333      -0.46666667       0.10000000 </v>
   <v>       0.12500000      -0.46666667       0.10000000 </v>
   <v>       0.16666667      -0.46666667       0.10000000 </v>
   <v>       0.20833333      -0.46666667       0.10000000 </v>
   <v>       0.25000000      -0.46666667       0.10000000 </v>
   <v>       0.29166667      -0.46666667       0.10000000 </v>
   <v>       0.33333333      -0.46666667       0.10000000 </v>
   <v>       0.37500000      -0.46666667       0.10000000 </v>
   <v>       0.41666667      -0.46666667       0.10000000 </v>
   <v>       0.45833333      -0.46666667       0.10000000 </v>
   <v>       0.50000000      -0.46666667       0.10000000 </v>
   <v>      -0.45833333      -0.46666667       0.10000000 </v>
   <v>      -0.41666667      -0.46666667       0.10000000 </v>
   <v>      -0.37500000      -0.46666667       0.10000000 </v>
   <v>      -0.33333333      -0.46666667       0.10000000 </v>
   <v>      -0.29166667      -0.46666667       0.10000000 </v>
   <v>      -0.25000000      -0.46666667       0.10000000 </v>
   <v>      -0.20833333      -0.46666667       0.10000000 </v>
   <v>      -0.16666667      -0.46666667       0.10000000 </v>
   <v>      -0.12500000      -0.46666667       0.10000000 </v>
   <v>      -0.08333333      -0.46666667       0.10000000 </v>
   <v>      -0.04166667      -0.46666667       0.10000000 </v>
   <v>       0.00000000      -0.40000000       0.10000000 </v>
   <v>       0.04166667      -0.40000000       0.10000000 </v>
   <v>       0.08333333      -0.40000000       0.10000000 </v>
   <v>       0.12500000      -0.40000000       0.10000000 </v>
   <v>       0.16666667      -0.40000000       0.10000000 </v>
   <v>       0.20833333      -0.40000000       0.10000000 </v>
   <v>       0.25000000      -0.40000000       0.10000000 </v>
   <v>       0.29166667      -0.40000000       0.10000000 </v>
   <v>       0.33333333      -0.40000000       0.10000000 </v>
   <v>       0.37500000      -0.40000000       0.10000000 </v>
   <v>       0.41666667      -0.40000000       0.10000000 </v>
   <v>       0.45833333      -0.40000000       0.10000000 </v>
   <v>       0.50000000      -0.40000000       0.10000000 </v>
   <v>      -0.45833333      -0.40000000       0.10000000 </v>
   <v>      -0.41666667      -0.40000000       0.10000000 </v>
   <v>      -0.37500000      -0.40000000       0.10000000 </v>
   <v>      -0.33333333      -0.40000000       0.10000000 </v>
   <v>      -0.29166667      -0.40000000       0.10000000 </v>
   <v>      -0.25000000      -0.40000000       0.10000000 </v>
   <v>      -0.20833333      -0.40000000       0.10000000 </v>
   <v>      -0.16666667      -0.40000000       0.10000000 </v>
   <v>      -0.12500000      -0.40000000       0.10000000 </v>
   <v>      -0.08333333      -0.40000000       0.10000000 </v>
   <v>      -0.04166667      -0.40000000       0.10000000 </v>
   <v>       0.00000000      -0.33333333       0.10000000 </v>
   <v>       0.04166667      -0.33333333       0.10000000 </v>
   <v>       0.08333333      -0.33333333       0.10000000 </v>
   <v>       0.12500000      -0.33333333       0.10000000 </v>
   <v>       0.16666667      -0.33333333       0.10000000 </v>
   <v>       0.20833333      -0.33333333       0.10000000 </v>
   <v>       0.25000000      -0.33333333       0.10000000 </v>
   <v>       0.29166667      -0.33333333       0.10000000 </v>
   <v>       0.33333333      -0.33333333       0.10000000 </v>
   <v>       0.37500000      -0.33333333       0.10000000 </v>
   <v>       0.41666667      -0.33333333       0.10000000 </v>
   <v>       0.45833333      -0.33333333       0.10000000 </v>
   <v>       0.50000000      -0.33333333       0.10000000 </v>
   <v>      -0.45833333      -0.33333333       0.10000000 </v>
   <v>      -0.41666667      -0.33333333       0.10000000 </v>
   <v>      -0.37500000      -0.33333333       0.10000000 </v>
   <v>      -0.33333333      -0.33333333       0.10000000 </v>
   <v>      -0.29166667      -0.33333333       0.10000000 </v>
   <v>      -0.25000000      -0.33333333       0.10000000 </v>
   <v>      -0.20833333      -0.33333333       0.10000000 </v>
   <v>      -0.16666667      -0.33333333       0.10000000 </v>
   <v>      -0.12500000      -0.33333333       0.10000000 </v>
   <v>      -0.08333333      -0.33333333       0.10000000 </v>
   <v>      -0.04166667      -0.33333333       0.10000000 </v>
   <v>       0.00000000      -0.26666667       0.10000000 </v>
   <v>       0.04166667      -0.26666667       0.10000000 </v>
   <v>       0.08333333      -0.26666667       0.10000000 </v>
   <v>       0.12500000      -0.26666667       0.10000000 </v>
   <v>       0.16666667      -0.26666667       0.10000000 </v>
   <v>       0.20833333      -0.26666667       0.10000000 </v>
   <v>       0.25000000      -0.26666667       0.10000000 </v>
   <v>       0.29166667      -0.26666667       0.10000000 </v>
   <v>       0.33333333      -0.26666667       0.10000000 </v>
   <v>       0.37500000      -0.26666667       0.10000000 </v>
   <v>       0.41666667      -0.26666667       0.10000000 </v>
   <v>       0.45833333      -0.26666667       0.10000000 </v>
   <v>       0.50000000      -0.26666667       0.10000000 </v>
   <v>      -0.45833333      -0.26666667       0.10000000 </v>
   <v>      -0.41666667      -0.26666667       0.10000000 </v>
   <v>      -0.37500000      -0.26666667       0.10000000 </v>
   <v>      -0.33333333      -0.26666667       0.10000000 </v>
   <v>      -0.29166667      -0.26666667       0.10000000 </v>
   <v>      -0.25000000      -0.26666667       0.10000000 </v>
   <v>      -0.20833333      -0.26666667       0.10000000 </v>
   <v>      -0.16666667      -0.26666667       0.10000000 </v>
   <v>      -0.12500000      -0.26666667       0.10000000 </v>
   <v>      -0.08333333      -0.26666667       0.10000000 </v>
   <v>      -0.04166667      -0.26666667       0.10000000 </v>
   <v>       0.00000000      -0.20000000       0.10000000 </v>
   <v>       0.04166667      -0.20000000       0.10000000 </v>
   <v>       0.08333333      -0.20000000       0.10000000 </v>
   <v>       0.12500000      -0.20000000       0.10000000 </v>
   <v>       0.16666667      -0.20000000       0.10000000 </v>
   <v>       0.20833333      -0.20000000       0.10000000 </v>
   <v>       0.25000000      -0.20000000       0.10000000 </v>
   <v>       0.29166667      -0.20000000       0.10000000 </v>
   <v>       0.33333333      -0.20000000       0.10000000 </v>
   <v>       0.37500000      -0.20000000       0.10000000 </v>
   <v>       0.41666667      -0.20000000       0.10000000 </v>
   <v>       0.45833333      -0.20000000       0.10000000 </v>
   <v>       0.50000000      -0.20000000       0.10000000 </v>
   <v>      -0.45833333      -0.20000000       0.10000000 </v>
   <v>      -0.41666667      -0.20000000       0.10000000 </v>
   <v>      -0.37500000      -0.20000000       0.10000000 </v>
   <v>      -0.33333333      -0.20000000       0.10000000 </v>
   <v>      -0.29166667      -0.20000000       0.10000000 </v>
   <v>      -0.25000000      -0.20000000       0.10000000 </v>
   <v>      -0.20833333      -0.20000000       0.10000000 </v>
   <v>      -0.16666667      -0.20000000       0.10000000 </v>
   <v>      -0.12500000      -0.20000000       0.10000000 </v>
   <v>      -0.08333333      -0.20000000       0.10000000 </v>
   <v>      -0.04166667      -0.20000000       0.10000000 </v>
   <v>       0.00000000      -0.13333333       0.10000000 </v>
   <v>       0.04166667      -0.13333333       0.10000000 </v>
   <v>       0.08333333      -0.13333333       0.10000000 </v>
   <v>       0.12500000      -0.13333333       0.10000000 </v>
   <v>       0.16666667      -0.13333333       0.10000000 </v>
   <v>       0.20833333      -0.13333333       0.10000000 </v>
   <v>       0.25000000      -0.13333333       0.10000000 </v>
   <v>       0.29166667      -0.13333333       0.10000000 </v>
   <v>       0.33333333      -0.13333333       0.10000000 </v>
   <v>       0.37500000      -0.13333333       0.10000000 </v>
   <v>       0.41666667      -0.13333333       0.10000000 </v>
   <v>       0.45833333      -0.13333333       0.10000000 </v>
   <v>       0.50000000      -0.13333333       0.10000000 </v>
   <v>      -0.45833333      -0.13333333       0.10000000 </v>
   <v>      -0.41666667      -0.13333333       0.10000000 </v>
   <v>      -0.37500000      -0.13333333       0.10000000 </v>
   <v>      -0.33333333      -0.13333333       0.10000000 </v>
   <v>      -0.29166667      -0.13333333       0.10000000 </v>
   <v>      -0.25000000      -0.13333333       0.10000000 </v>
   <v>      -0.20833333      -0.13333333       0.10000000 </v>
   <v>      -0.16666667      -0.13333333       0.10000000 </v>
   <v>      -0.12500000      -0.13333333       0.10000000 </v>
   <v>      -0.08333333      -0.13333333       0.10000000 </v>
   <v>      -0.04166667      -0.13333333       0.10000000 </v>
   <v>       0.00000000      -0.06666667       0.10000000 </v>
   <v>       0.04166667      -0.06666667       0.10000000 </v>
   <v>       0.08333333      -0.06666667       0.10000000 </v>
   <v>       0.12500000      -0.06666667       0.10000000 </v>
   <v>       0.16666667      -0.06666667       0.10000000 </v>
   <v>       0.20833333      -0.06666667       0.10000000 </v>
   <v>       0.25000000      -0.06666667       0.10000000 </v>
   <v>       0.29166667      -0.06666667       0.10000000 </v>
   <v>       0.33333333      -0.06666667       0.10000000 </v>
   <v>       0.37500000      -0.06666667       0.10000000 </v>
   <v>       0.41666667      -0.06666667       0.10000000 </v>
   <v>       0.45833333      -0.06666667       0.10000000 </v>
   <v>       0.50000000      -0.06666667       0.10000000 </v>
   <v>      -0.45833333      -0.06666667       0.10000000 </v>
   <v>      -0.41666667      -0.06666667       0.10000000 </v>
   <v>      -0.37500000      -0.06666667       0.10000000 </v>
   <v>      -0.33333333      -0.06666667       0.10000000 </v>
   <v>      -0.29166667      -0.06666667       0.10000000 </v>
   <v>      -0.25000000      -0.06666667       0.10000000 </v>
   <v>      -0.20833333      -0.06666667       0.10000000 </v>
   <v>      -0.16666667      -0.06666667       0.10000000 </v>
   <v>      -0.12500000      -0.06666667       0.10000000 </v>
   <v>      -0.08333333      -0.06666667       0.10000000 </v>
   <v>      -0.04166667      -0.06666667       0.10000000 </v>
   <v>       0.00000000       0.00000000       0.20000000 </v>
   <v>       0.04166667       0.00000000       0.20000000 </v>
   <v>       0.08333333       0.00000000       0.20000000 </v>
   <v>       0.12500000       0.00000000       0.20000000 </v>
   <v>       0.16666667       0.00000000       0.20000000 </v>
   <v>       0.20833333       0.00000000       0.20000000 </v>
   <v>       0.25000000       0.00000000       0.20000000 </v>
   <v>       0.29166667       0.00000000       0.20000000 </v>
   <v>       0.33333333       0.00000000       0.20000000 </v>
   <v>       0.37500000       0.00000000       0.20000000 </v>
   <v>       0.41666667       0.00000000       0.20000000 </v>
   <v>       0.45833333       0.00000000       0.20000000 </v>
   <v>       0.50000000       0.00000000       0.20000000 </v>
   <v>      -0.45833333       0.00000000       0.20000000 </v>
   <v>      -0.41666667       0.00000000       0.20000000 </v>
   <v>      -0.37500000       0.00000000       0.20000000 </v>
   <v>      -0.33333333       0.00000000       0.20000000 </v>
   <v>      -0.29166667       0.00000000       0.20000000 </v>
   <v>      -0.25000000       0.00000000       0.20000000 </v>
   <v>      -0.20833333       0.00000000       0.20000000 </v>
   <v>      -0.16666667       0.00000000       0.20000000 </v>
   <v>      -0.12500000       0.00000000       0.20000000 </v>
   <v>      -0.08333333       0.00000000       0.20000000 </v>
   <v>      -0.04166667       0.00000000       0.20000000 </v>
   <v>       0.00000000       0.06666667       0.20000000 </v>
   <v>       0.04166667       0.06666667       0.20000000 </v>
   <v>       0.08333333       0.06666667       0.20000000 </v>
   <v>       0.12500000       0.06666667       0.20000000 </v>
   <v>       0.16666667       0.06666667       0.20000000 </v>
   <v>       0.20833333       0.06666667       0.20000000 </v>
   <v>       0.25000000       0.06666667       0.20000000 </v>
   <v>       0.29166667       0.06666667       0.20000000 </v>
   <v>       0.33333333       0.06666667       0.20000000 </v>
   <v>       0.37500000       0.06666667       0.20000000 </v>
   <v>       0.41666667       0.06666667       0.20000000 </v>
   <v>       0.45833333       0.06666667       0.20000000 </v>
   <v>       0.50000000       0.06666667       0.20000000 </v>
   <v>      -0.45833333       0.06666667       0.20000000 </v>
   <v>      -0.41666667       0.06666667       0.20000000 </v>
   <v>      -0.37500000       0.06666667       0.20000000 </v>
   <v>      -0.33333333       0.06666667       0.20000000 </v>
   <v>      -0.29166667       0.06666667       0.20000000 </v>
   <v>      -0.25000000       0.06666667       0.20000000 </v>
   <v>      -0.20833333       0.06666667       0.20000000 </v>
   <v>      -0.16666667       0.06666667       0.20000000 </v>
   <v>      -0.12500000       0.06666667       0.20000000 </v>
   <v>      -0.08333333       0.06666667       0.20000000 </v>
   <v>      -0.04166667       0.06666667       0.20000000 </v>
   <v>       0.00000000       0.13333333       0.20000000 </v>
   <v>       0.04166667       0.13333333       0.20000000 </v>
   <v>       0.08333333       0.13333333       0.20000000 </v>
   <v>       0.12500000       0.13333333       0.20000000 </v>
   <v>       0.16666667       0.13333333       0.20000000 </v>
   <v>       0.20833333       0.13333333       0.20000000 </v>
   <v>       0.25000000       0.13333333       0.20000000 </v>
   <v>       0.29166667       0.13333333       0.20000000 </v>
   <v>       0.33333333       0.13333333       0.20000000 </v>
   <v>       0.37500000       0.13333333       0.20000000 </v>
   <v>       0.41666667       0.13333333       0.20000000 </v>
   <v>       0.45833333       0.13333333       0.20000000 </v>
   <v>       0.50000000       0.13333333       0.20000000 </v>
   <v>      -0.45833333       0.13333333       0.20000000 </v>
   <v>      -0.41666667       0.13333333       0.20000000 </v>
   <v>      -0.37500000       0.13333333       0.20000000 </v>
   <v>      -0.33333333       0.13333333       0.20000000 </v>
   <v>      -0.29166667       0.13333333       0.20000000 </v>
   <v>      -0.25000000       0.13333333       0.20000000 </v>
   <v>      -0.20833333       0.13333333       0.20000000 </v>
   <v>      -0.16666667       0.13333333       0.20000000 </v>
   <v>      -0.12500000       0.13333333       0.20000000 </v>
   <v>      -0.08333333       0.13333333       0.20000000 </v>
   <v>      -0.04166667       0.13333333       0.20000000 </v>
   <v>       0.00000000       0.20000000       0.20000000 </v>
   <v>       0.04166667       0.20000000       0.20000000 </v>
   <v>       0.08333333       0.20000000       0.20000000 </v>
   <v>       0.12500000       0.20000000       0.20000000 </v>
   <v>       0.16666667       0.20000000       0.20000000 </v>
   <v>       0.20833333       0.20000000       0.20000000 </v>
   <v>       0.25000000       0.20000000       0.20000000 </v>
   <v>       0.29166667       0.20000000       0.20000000 </v>
   <v>       0.33333333       0.20000000       0.20000000 </v>
   <v>       0.37500000       0.20000000       0.20000000 </v>
   <v>       0.41666667       0.20000000       0.20000000 </v>
   <v>       0.45833333       0.20000000       0.20000000 </v>
   <v>       0.50000000       0.20000000       0.20000000 </v>
   <v>      -0.45833333       0.20000000       0.20000000 </v>
   <v>      -0.41666667       0.20000000       0.20000000 </v>
   <v>      -0.37500000       0.20000000       0.20000000 </v>
   <v>      -0.33333333       0.20000000       0.20000000 </v>
   <v>      -0.29166667       0.20000000       0.20000000 </v>
   <v>      -0.25000000       0.20000000       0.20000000 </v>
   <v>      -0.20833333       0.20000000       0.20000000 </v>
   <v>      -0.16666667       0.20000000       0.20000000 </v>
   <v>      -0.12500000       0.20000000       0.20000000 </v>
   <v>      -0.08333333       0.20000000       0.20000000 </v>
   <v>      -0.04166667       0.20000000       0.20000000 </v>
   <v>       0.00000000       0.26666667       0.20000000 </v>
   <v>       0.04166667       0.26666667       0.20000000 </v>
   <v>       0.08333333       0.26666667       0.20000000 </v>
   <v>       0.12500000       0.26666667       0.20000000 </v>
   <v>       0.16666667       0.26666667       0.20000000 </v>
   <v>       0.20833333       0.26666667       0.20000000 </v>
   <v>       0.25000000       0.26666667       0.20000000 </v>
   <v>       0.29166667       0.26666667       0.20000000 </v>
   <v>       0.33333333       0.26666667       0.20000000 </v>
   <v>       0.37500000       0.26666667       0.20000000 </v>
   <v>       0.41666667       0.26666667       0.20000000 </v>
   <v>       0.45833333       0.26666667       0.20000000 </v>
   <v>       0.50000000       0.26666667       0.20000000 </v>
   <v>      -0.45833333       0.26666667       0.20000000 </v>
   <v>      -0.41666667       0.26666667       0.20000000 </v>
   <v>      -0.37500000       0.26666667       0.20000000 </v>
   <v>      -0.33333333       0.26666667       0.20000000 </v>
   <v>      -0.29166667       0.26666667       0.20000000 </v>
   <v>      -0.25000000       0.26666667       0.20000000 </v>
   <v>      -0.20833333       0.26666667       0.20000000 </v>
   <v>      -0.16666667       0.26666667       0.20000000 </v>
   <v>      -0.12500000       0.26666667       0.20000000 </v>
   <v>      -0.08333333       0.26666667       0.20000000 </v>
   <v>      -0.04166667       0.26666667       0.20000000 </v>
   <v>       0.00000000       0.33333333       0.20000000 </v>
   <v>       0.04166667       0.33333333       0.20000000 </v>
   <v>       0.08333333       0.33333333       0.20000000 </v>
   <v>       0.12500000       0.33333333       0.20000000 </v>
   <v>       0.16666667       0.33333333       0.20000000 </v>
   <v>       0.20833333       0.33333333       0.20000000 </v>
   <v>       0.25000000       0.33333333       0.20000000 </v>
   <v>       0.29166667       0.33333333       0.20000000 </v>
   <v>       0.33333333       0.33333333       0.20000000 </v>
   <v>       0.37500000       0.33333333       0.20000000 </v>
   <v>       0.41666667       0.33333333       0.20000000 </v>
   <v>       0.45833333       0.33333333       0.20000000 </v>
   <v>       0.50000000       0.33333333       0.20000000 </v>
   <v>      -0.45833333       0.33333333       0.20000000 </v>
   <v>      -0.41666667       0.33333333       0.20000000 </v>
   <v>      -0.37500000       0.33333333       0.20000000 </v>
   <v>      -0.33333333       0.33333333       0.20000000 </v>
   <v>      -0.29166667       0.33333333       0.20000000 </v>
   <v>      -0.25000000       0.33333333       0.20000000 </v>
   <v>      -0.20833333       0.33333333       0.20000000 </v>
   <v>      -0.16666667       0.33333333       0.20000000 </v>
   <v>      -0.12500000       0.33333333       0.20000000 </v>
   <v>      -0.08333333       0.33333333       0.20000000 </v>
   <v>      -0.04166667       0.33333333       0.20000000 </v>
   <v>       0.00000000       0.40000000       0.20000000 </v>
   <v>       0.04166667       0.40000000       0.20000000 </v>
   <v>       0.08333333       0.40000000       0.20000000 </v>
   <v>       0.12500000       0.40000000       0.20000000 </v>
   <v>       0.16666667       0.40000000       0.20000000 </v>
   <v>       0.20833333       0.40000000       0.20000000 </v>
   <v>       0.25000000       0.40000000       0.20000000 </v>
   <v>       0.29166667       0.40000000       0.20000000 </v>
   <v>       0.33333333       0.40000000       0.20000000 </v>
   <v>       0.37500000       0.40000000       0.20000000 </v>
   <v>       0.41666667       0.40000000       0.20000000 </v>
   <v>       0.45833333       0.40000000       0.20000000 </v>
   <v>       0.50000000       0.40000000       0.20000000 </v>
   <v>      -0.45833333       0.40000000       0.20000000 </v>
   <v>      -0.41666667       0.40000000       0.20000000 </v>
   <v>      -0.37500000       0.40000000       0.20000000 </v>
   <v>      -0.33333333       0.40000000       0.20000000 </v>
   <v>      -0.29166667       0.40000000       0.20000000 </v>
   <v>      -0.25000000       0.40000000       0.20000000 </v>
   <v>      -0.20833333       0.40000000       0.20000000 </v>
   <v>      -0.16666667       0.40000000       0.20000000 </v>
   <v>      -0.12500000       0.40000000       0.20000000 </v>
   <v>      -0.08333333       0.40000000       0.20000000 </v>
   <v>      -0.04166667       0.40000000       0.20000000 </v>
   <v>       0.00000000       0.46666667       0.20000000 </v>
   <v>       0.04166667       0.46666667       0.20000000 </v>
   <v>       0.08333333       0.46666667       0.20000000 </v>
   <v>       0.12500000       0.46666667       0.20000000 </v>
   <v>       0.16666667       0.46666667       0.20000000 </v>
   <v>       0.20833333       0.46666667       0.20000000 </v>
   <v>       0.25000000       0.46666667       0.20000000 </v>
   <v>       0.29166667       0.46666667       0.20000000 </v>
   <v>       0.33333333       0.46666667       0.20000000 </v>
   <v>       0.37500000       0.46666667       0.20000000 </v>
   <v>       0.41666667       0.46666667       0.20000000 </v>
   <v>       0.45833333       0.46666667       0.20000000 </v>
   <v>       0.50000000       0.46666667       0.20000000 </v>
   <v>      -0.45833333       0.46666667       0.20000000 </v>
   <v>      -0.41666667       0.46666667       0.20000000 </v>
   <v>      -0.37500000       0.46666667       0.20000000 </v>
   <v>      -0.33333333       0.46666667       0.20000000 </v>
   <v>      -0.29166667       0.46666667       0.20000000 </v>
   <v>      -0.25000000       0.46666667       0.20000000 </v>
   <v>      -0.20833333       0.46666667       0.20000000 </v>
   <v>      -0.16666667       0.46666667       0.20000000 </v>
   <v>      -0.12500000       0.46666667       0.20000000 </v>
   <v>      -0.08333333       0.46666667       0.20000000 </v>
   <v>      -0.04166667       0.46666667       0.20000000 </v>
   <v>       0.00000000      -0.46666667       0.20000000 </v>
   <v>       0.04166667      -0.46666667       0.20000000 </v>
   <v>       0.08333333      -0.46666667       0.20000000 </v>
   <v>       0.12500000      -0.46666667       0.20000000 </v>
   <v>       0.16666667      -0.46666667       0.20000000 </v>
   <v>       0.20833333      -0.46666667       0.20000000 </v>
   <v>       0.25000000      -0.46666667       0.20000000 </v>
   <v>       0.29166667      -0.46666667       0.20000000 </v>
   <v>       0.33333333      -0.46666667       0.20000000 </v>
   <v>       0.37500000      -0.46666667       0.20000000 </v>
   <v>       0.41666667      -0.46666667       0.20000000 </v>
   <v>       0.45833333      -0.46666667       0.20000000 </v>
   <v>       0.50000000      -0.46666667       0.20000000 </v>
   <v>      -0.45833333      -0.46666667       0.20000000 </v>
   <v>      -0.41666667      -0.46666667       0.20000000 </v>
   <v>      -0.37500000      -0.46666667       0.20000000 </v>
   <v>      -0.33333333      -0.46666667       0.20000000 </v>
   <v>      -0.29166667      -0.46666667       0.20000000 </v>
   <v>      -0.25000000      -0.46666667       0.20000000 </v>
   <v>      -0.20833333      -0.46666667       0.20000000 </v>
   <v>      -0.16666667      -0.46666667       0.20000000 </v>
   <v>      -0.12500000      -0.46666667       0.20000000 </v>
   <v>      -0.08333333      -0.46666667       0.20000000 </v>
   <v>      -0.04166667      -0.46666667       0.20000000 </v>
   <v>       0.00000000      -0.40000000       0.20000000 </v>
   <v>       0.04166667      -0.40000000       0.20000000 </v>
   <v>       0.08333333      -0.40000000       0.20000000 </v>
   <v>       0.12500000      -0.40000000       0.20000000 </v>
   <v>       0.16666667      -0.40000000       0.20000000 </v>
   <v>       0.20833333      -0.40000000       0.20000000 </v>
   <v>       0.25000000      -0.40000000       0.20000000 </v>
   <v>       0.29166667      -0.40000000       0.20000000 </v>
   <v>       0.33333333      -0.40000000       0.20000000 </v>
   <v>       0.37500000      -0.40000000       0.20000000 </v>
   <v>       0.41666667      -0.40000000       0.20000000 </v>
   <v>       0.45833333      -0.40000000       0.20000000 </v>
   <v>       0.50000000      -0.40000000       0.20000000 </v>
   <v>      -0.45833333      -0.40000000       0.20000000 </v>
   <v>      -0.41666667      -0.40000000       0.20000000 </v>
   <v>      -0.37500000      -0.40000000       0.20000000 </v>
   <v>      -0.33333333      -0.40000000       0.20000000 </v>
   <v>      -0.29166667      -0.40000000       0.20000000 </v>
   <v>      -0.25000000      -0.40000000       0.20000000 </v>
   <v>      -0.20833333      -0.40000000       0.20000000 </v>
   <v>      -0.16666667      -0.40000000       0.20000000 </v>
   <v>      -0.12500000      -0.40000000       0.20000000 </v>
   <v>      -0.08333333      -0.40000000       0.20000000 </v>
   <v>      -0.04166667      -0.40000000       0.20000000 </v>
   <v>       0.00000000      -0.33333333       0.20000000 </v>
   <v>       0.04166667      -0.33333333       0.20000000 </v>
   <v>       0.08333333      -0.33333333       0.20000000 </v>
   <v>       0.12500000      -0.33333333       0.20000000 </v>
   <v>       0.16666667      -0.33333333       0.20000000 </v>
   <v>       0.20833333      -0.33333333       0.20000000 </v>
   <v>       0.25000000      -0.33333333       0.20000000 </v>
   <v>       0.29166667      -0.33333333       0.20000000 </v>
   <v>       0.33333333      -0.33333333       0.20000000 </v>
   <v>       0.37500000      -0.33333333       0.20000000 </v>
   <v>       0.41666667      -0.33333333       0.20000000 </v>
   <v>       0.45833333      -0.33333333       0.20000000 </v>
   <v>       0.50000000      -0.33333333       0.20000000 </v>
   <v>      -0.45833333      -0.33333333       0.20000000 </v>
   <v>      -0.41666667      -0.33333333       0.20000000 </v>
   <v>      -0.37500000      -0.33333333       0.20000000 </v>
   <v>      -0.33333333      -0.33333333       0.20000000 </v>
   <v>      -0.29166667      -0.33333333       0.20000000 </v>
   <v>      -0.25000000      -0.33333333       0.20000000 </v>
   <v>      -0.20833333      -0.33333333       0.20000000 </v>
   <v>      -0.16666667      -0.33333333       0.20000000 </v>
   <v>      -0.12500000      -0.33333333       0.20000000 </v>
   <v>      -0.08333333      -0.33333333       0.20000000 </v>
   <v>      -0.04166667      -0.33333333       0.20000000 </v>
   <v>       0.00000000      -0.26666667       0.20000000 </v>
   <v>       0.04166667      -0.26666667       0.20000000 </v>
   <v>       0.08333333      -0.26666667       0.20000000 </v>
   <v>       0.12500000      -0.26666667       0.20000000 </v>
   <v>       0.16666667      -0.26666667       0.20000000 </v>
   <v>       0.20833333      -0.26666667       0.20000000 </v>
   <v>       0.25000000      -0.26666667       0.20000000 </v>
   <v>       0.29166667      -0.26666667       0.20000000 </v>
   <v>       0.33333333      -0.26666667       0.20000000 </v>
   <v>       0.37500000      -0.26666667       0.20000000 </v>
   <v>       0.41666667      -0.26666667       0.20000000 </v>
   <v>       0.45833333      -0.26666667       0.20000000 </v>
   <v>       0.50000000      -0.26666667       0.20000000 </v>
   <v>      -0.45833333      -0.26666667       0.20000000 </v>
   <v>      -0.41666667      -0.26666667       0.20000000 </v>
   <v>      -0.37500000      -0.26666667       0.20000000 </v>
   <v>      -0.33333333      -0.26666667       0.20000000 </v>
   <v>      -0.29166667      -0.26666667       0.20000000 </v>
   <v>      -0.25000000      -0.26666667       0.20000000 </v>
   <v>      -0.20833333      -0.26666667       0.20000000 </v>
   <v>      -0.16666667      -0.26666667       0.20000000 </v>
   <v>      -0.12500000      -0.26666667       0.20000000 </v>
   <v>      -0.08333333      -0.26666667       0.20000000 </v>
   <v>      -0.04166667      -0.26666667       0.20000000 </v>
   <v>       0.00000000      -0.20000000       0.20000000 </v>
   <v>       0.04166667      -0.20000000       0.20000000 </v>
   <v>       0.08333333      -0.20000000       0.20000000 </v>
   <v>       0.12500000      -0.20000000       0.20000000 </v>
   <v>       0.16666667      -0.20000000       0.20000000 </v>
   <v>       0.20833333      -0.20000000       0.20000000 </v>
   <v>       0.25000000      -0.20000000       0.20000000 </v>
   <v>       0.29166667      -0.20000000       0.20000000 </v>
   <v>       0.33333333      -0.20000000       0.20000000 </v>
   <v>       0.37500000      -0.20000000       0.20000000 </v>
   <v>       0.41666667      -0.20000000       0.20000000 </v>
   <v>       0.45833333      -0.20000000       0.20000000 </v>
   <v>       0.50000000      -0.20000000       0.20000000 </v>
   <v>      -0.45833333      -0.20000000       0.20000000 </v>
   <v>      -0.41666667      -0.20000000       0.20000000 </v>
   <v>      -0.37500000      -0.20000000       0.20000000 </v>
   <v>      -0.33333333      -0.20000000       0.20000000 </v>
   <v>      -0.29166667      -0.20000000       0.20000000 </v>
   <v>      -0.25000000      -0.20000000       0.20000000 </v>
   <v>      -0.20833333      -0.20000000       0.20000000 </v>
   <v>      -0.16666667      -0.20000000       0.20000000 </v>
   <v>      -0.12500000      -0.20000000       0.20000000 </v>
   <v>      -0.08333333      -0.20000000       0.20000000 </v>
   <v>      -0.04166667      -0.20000000       0.20000000 </v>
   <v>       0.00000000      -0.13333333       0.20000000 </v>
   <v>       0.04166667      -0.13333333       0.20000000 </v>
   <v>       0.08333333      -0.13333333       0.20000000 </v>
   <v>       0.12500000      -0.13333333       0.20000000 </v>
   <v>       0.16666667      -0.13333333       0.20000000 </v>
   <v>       0.20833333      -0.13333333       0.20000000 </v>
   <v>       0.25000000      -0.13333333       0.20000000 </v>
   <v>       0.29166667      -0.13333333       0.20000000 </v>
   <v>       0.33333333      -0.13333333       0.20000000 </v>
   <v>       0.37500000      -0.13333333       0.20000000 </v>
   <v>       0.41666667      -0.13333333       0.20000000 </v>
   <v>       0.45833333      -0.13333333       0.20000000 </v>
   <v>       0.50000000      -0.13333333       0.20000000 </v>
   <v>      -0.45833333      -0.13333333       0.20000000 </v>
   <v>      -0.41666667      -0.13333333       0.20000000 </v>
   <v>      -0.37500000      -0.13333333       0.20000000 </v>
   <v>      -0.33333333      -0.13333333       0.20000000 </v>
   <v>      -0.29166667      -0.13333333       0.20000000 </v>
   <v>      -0.25000000      -0.13333333       0.20000000 </v>
   <v>      -0.20833333      -0.13333333       0.20000000 </v>
   <v>      -0.16666667      -0.13333333       0.20000000 </v>
   <v>      -0.12500000      -0.13333333       0.20000000 </v>
   <v>      -0.08333333      -0.13333333       0.20000000 </v>
   <v>      -0.04166667      -0.13333333       0.20000000 </v>
   <v>       0.00000000      -0.06666667       0.20000000 </v>
   <v>       0.04166667      -0.06666667       0.20000000 </v>
   <v>       0.08333333      -0.06666667       0.20000000 </v>
   <v>       0.12500000      -0.06666667       0.20000000 </v>
   <v>       0.16666667      -0.06666667       0.20000000 </v>
   <v>       0.20833333      -0.06666667       0.20000000 </v>
   <v>       0.25000000      -0.06666667       0.20000000 </v>
   <v>       0.29166667      -0.06666667       0.20000000 </v>
   <v>       0.33333333      -0.06666667       0.20000000 </v>
   <v>       0.37500000      -0.06666667       0.20000000 </v>
   <v>       0.41666667      -0.06666667       0.20000000 </v>
   <v>       0.45833333      -0.06666667       0.20000000 </v>
   <v>       0.50000000      -0.06666667       0.20000000 </v>
   <v>      -0.45833333      -0.06666667       0.20000000 </v>
   <v>      -0.41666667      -0.06666667       0.20000000 </v>
   <v>      -0.37500000      -0.06666667       0.20000000 </v>
   <v>      -0.33333333      -0.06666667       0.20000000 </v>
   <v>      -0.29166667      -0.06666667       0.20000000 </v>
   <v>      -0.25000000      -0.06666667       0.20000000 </v>
   <v>      -0.20833333      -0.06666667       0.20000000 </v>
   <v>      -0.16666667      -0.06666667       0.20000000 </v>
   <v>      -0.12500000      -0.06666667       0.20000000 </v>
   <v>      -0.08333333      -0.06666667       0.20000000 </v>
   <v>      -0.04166667      -0.06666667       0.20000000 </v>
   <v>       0.00000000       0.00000000       0.30000000 </v>
   <v>       0.04166667       0.00000000       0.30000000 </v>
   <v>       0.08333333       0.00000000       0.30000000 </v>
   <v>       0.12500000       0.00000000       0.30000000 </v>
   <v>       0.16666667       0.00000000       0.30000000 </v>
   <v>       0.20833333       0.00000000       0.30000000 </v>
   <v>       0.25000000       0.00000000       0.30000000 </v>
   <v>       0.29166667       0.00000000       0.30000000 </v>
   <v>       0.33333333       0.00000000       0.30000000 </v>
   <v>       0.37500000       0.00000000       0.30000000 </v>
   <v>       0.41666667       0.00000000       0.30000000 </v>
   <v>       0.45833333       0.00000000       0.30000000 </v>
   <v>      -0.45833333       0.00000000       0.30000000 </v>
   <v>      -0.41666667       0.00000000       0.30000000 </v>
   <v>      -0.37500000       0.00000000       0.30000000 </v>
   <v>      -0.33333333       0.00000000       0.30000000 </v>
   <v>      -0.29166667       0.00000000       0.30000000 </v>
   <v>      -0.25000000       0.00000000       0.30000000 </v>
   <v>      -0.20833333       0.00000000       0.30000000 </v>
   <v>      -0.16666667       0.00000000       0.30000000 </v>
   <v>      -0.12500000       0.00000000       0.30000000 </v>
   <v>      -0.08333333       0.00000000       0.30000000 </v>
   <v>      -0.04166667       0.00000000       0.30000000 </v>
   <v>       0.00000000       0.06666667       0.30000000 </v>
   <v>       0.04166667       0.06666667       0.30000000 </v>
   <v>       0.08333333       0.06666667       0.30000000 </v>
   <v>       0.12500000       0.06666667       0.30000000 </v>
   <v>       0.16666667       0.06666667       0.30000000 </v>
   <v>       0.20833333       0.06666667       0.30000000 </v>
   <v>       0.25000000       0.06666667       0.30000000 </v>
   <v>       0.29166667       0.06666667       0.30000000 </v>
   <v>       0.33333333       0.06666667       0.30000000 </v>
   <v>       0.37500000       0.06666667       0.30000000 </v>
   <v>       0.41666667       0.06666667       0.30000000 </v>
   <v>       0.45833333       0.06666667       0.30000000 </v>
   <v>      -0.45833333       0.06666667       0.30000000 </v>
   <v>      -0.41666667       0.06666667       0.30000000 </v>
   <v>      -0.37500000       0.06666667       0.30000000 </v>
   <v>      -0.33333333       0.06666667       0.30000000 </v>
   <v>      -0.29166667       0.06666667       0.30000000 </v>
   <v>      -0.25000000       0.06666667       0.30000000 </v>
   <v>      -0.20833333       0.06666667       0.30000000 </v>
   <v>      -0.16666667       0.06666667       0.30000000 </v>
   <v>      -0.12500000       0.06666667       0.30000000 </v>
   <v>      -0.08333333       0.06666667       0.30000000 </v>
   <v>      -0.04166667       0.06666667       0.30000000 </v>
   <v>       0.00000000       0.13333333       0.30000000 </v>
   <v>       0.04166667       0.13333333       0.30000000 </v>
   <v>       0.08333333       0.13333333       0.30000000 </v>
   <v>       0.12500000       0.13333333       0.30000000 </v>
   <v>       0.16666667       0.13333333       0.30000000 </v>
   <v>       0.20833333       0.13333333       0.30000000 </v>
   <v>       0.25000000       0.13333333       0.30000000 </v>
   <v>       0.29166667       0.13333333       0.30000000 </v>
   <v>       0.33333333       0.13333333       0.30000000 </v>
   <v>       0.37500000       0.13333333       0.30000000 </v>
   <v>       0.41666667       0.13333333       0.30000000 </v>
   <v>       0.45833333       0.13333333       0.30000000 </v>
   <v>      -0.45833333       0.13333333       0.30000000 </v>
   <v>      -0.41666667       0.13333333       0.30000000 </v>
   <v>      -0.37500000       0.13333333       0.30000000 </v>
   <v>      -0.33333333       0.13333333       0.30000000 </v>
   <v>      -0.29166667       0.13333333       0.30000000 </v>
   <v>      -0.25000000       0.13333333       0.30000000 </v>
   <v>      -0.20833333       0.13333333       0.30000000 </v>
   <v>      -0.16666667       0.13333333       0.30000000 </v>
   <v>      -0.12500000       0.13333333       0.30000000 </v>
   <v>      -0.08333333       0.13333333       0.30000000 </v>
   <v>      -0.04166667       0.13333333       0.30000000 </v>
   <v>       0.00000000       0.20000000       0.30000000 </v>
   <v>       0.04166667       0.20000000       0.30000000 </v>
   <v>       0.08333333       0.20000000       0.30000000 </v>
   <v>       0.12500000       0.20000000       0.30000000 </v>
   <v>       0.16666667       0.20000000       0.30000000 </v>
   <v>       0.20833333       0.20000000       0.30000000 </v>
   <v>       0.25000000       0.20000000       0.30000000 </v>
   <v>       0.29166667       0.20000000       0.30000000 </v>
   <v>       0.33333333       0.20000000       0.30000000 </v>
   <v>       0.37500000       0.20000000       0.30000000 </v>
   <v>       0.41666667       0.20000000       0.30000000 </v>
   <v>       0.45833333       0.20000000       0.30000000 </v>
   <v>      -0.45833333       0.20000000       0.30000000 </v>
   <v>      -0.41666667       0.20000000       0.30000000 </v>
   <v>      -0.37500000       0.20000000       0.30000000 </v>
   <v>      -0.33333333       0.20000000       0.30000000 </v>
   <v>      -0.29166667       0.20000000       0.30000000 </v>
   <v>      -0.25000000       0.20000000       0.30000000 </v>
   <v>      -0.20833333       0.20000000       0.30000000 </v>
   <v>      -0.16666667       0.20000000       0.30000000 </v>
   <v>      -0.12500000       0.20000000       0.30000000 </v>
   <v>      -0.08333333       0.20000000       0.30000000 </v>
   <v>      -0.04166667       0.20000000       0.30000000 </v>
   <v>       0.00000000       0.26666667       0.30000000 </v>
   <v>       0.04166667       0.26666667       0.30000000 </v>
   <v>       0.08333333       0.26666667       0.30000000 </v>
   <v>       0.12500000       0.26666667       0.30000000 </v>
   <v>       0.16666667       0.26666667       0.30000000 </v>
   <v>       0.20833333       0.26666667       0.30000000 </v>
   <v>       0.25000000       0.26666667       0.30000000 </v>
   <v>       0.29166667       0.26666667       0.30000000 </v>
   <v>       0.33333333       0.26666667       0.30000000 </v>
   <v>       0.37500000       0.26666667       0.30000000 </v>
   <v>       0.41666667       0.26666667       0.30000000 </v>
   <v>       0.45833333       0.26666667       0.30000000 </v>
   <v>      -0.45833333       0.26666667       0.30000000 </v>
   <v>      -0.41666667       0.26666667       0.30000000 </v>
   <v>      -0.37500000       0.26666667       0.30000000 </v>
   <v>      -0.33333333       0.26666667       0.30000000 </v>
   <v>      -0.29166667       0.26666667       0.30000000 </v>
   <v>      -0.25000000       0.26666667       0.30000000 </v>
   <v>      -0.20833333       0.26666667       0.30000000 </v>
   <v>      -0.16666667       0.26666667       0.30000000 </v>
   <v>      -0.12500000       0.26666667       0.30000000 </v>
   <v>      -0.08333333       0.26666667       0.30000000 </v>
   <v>      -0.04166667       0.26666667       0.30000000 </v>
   <v>       0.00000000       0.33333333       0.30000000 </v>
   <v>       0.04166667       0.33333333       0.30000000 </v>
   <v>       0.08333333       0.33333333       0.30000000 </v>
   <v>       0.12500000       0.33333333       0.30000000 </v>
   <v>       0.16666667       0.33333333       0.30000000 </v>
   <v>       0.20833333       0.33333333       0.30000000 </v>
   <v>       0.25000000       0.33333333       0.30000000 </v>
   <v>       0.29166667       0.33333333       0.30000000 </v>
   <v>       0.33333333       0.33333333       0.30000000 </v>
   <v>       0.37500000       0.33333333       0.30000000 </v>
   <v>       0.41666667       0.33333333       0.30000000 </v>
   <v>       0.45833333       0.33333333       0.30000000 </v>
   <v>      -0.45833333       0.33333333       0.30000000 </v>
   <v>      -0.41666667       0.33333333       0.30000000 </v>
   <v>      -0.37500000       0.33333333       0.30000000 </v>
   <v>      -0.33333333       0.33333333       0.30000000 </v>
   <v>      -0.29166667       0.33333333       0.30000000 </v>
   <v>      -0.25000000       0.33333333       0.30000000 </v>
   <v>      -0.20833333       0.33333333       0.30000000 </v>
   <v>      -0.16666667       0.33333333       0.30000000 </v>
   <v>      -0.12500000       0.33333333       0.30000000 </v>
   <v>      -0.08333333       0.33333333       0.30000000 </v>
   <v>      -0.04166667       0.33333333       0.30000000 </v>
   <v>       0.00000000       0.40000000       0.30000000 </v>
   <v>       0.04166667       0.40000000       0.30000000 </v>
   <v>       0.08333333       0.40000000       0.30000000 </v>
   <v>       0.12500000       0.40000000       0.30000000 </v>
   <v>       0.16666667       0.40000000       0.30000000 </v>
   <v>       0.20833333       0.40000000       0.30000000 </v>
   <v>       0.25000000       0.40000000       0.30000000 </v>
   <v>       0.29166667       0.40000000       0.30000000 </v>
   <v>       0.33333333       0.40000000       0.30000000 </v>
   <v>       0.37500000       0.40000000       0.30000000 </v>
   <v>       0.41666667       0.40000000       0.30000000 </v>
   <v>       0.45833333       0.40000000       0.30000000 </v>
   <v>      -0.45833333       0.40000000       0.30000000 </v>
   <v>      -0.41666667       0.40000000       0.30000000 </v>
   <v>      -0.37500000       0.40000000       0.30000000 </v>
   <v>      -0.33333333       0.40000000       0.30000000 </v>
   <v>      -0.29166667       0.40000000       0.30000000 </v>
   <v>      -0.25000000       0.40000000       0.30000000 </v>
   <v>      -0.20833333       0.40000000       0.30000000 </v>
   <v>      -0.16666667       0.40000000       0.30000000 </v>
   <v>      -0.12500000       0.40000000       0.30000000 </v>
   <v>      -0.08333333       0.40000000       0.30000000 </v>
   <v>      -0.04166667       0.40000000       0.30000000 </v>
   <v>       0.00000000       0.46666667       0.30000000 </v>
   <v>       0.04166667       0.46666667       0.30000000 </v>
   <v>       0.08333333       0.46666667       0.30000000 </v>
   <v>       0.12500000       0.46666667       0.30000000 </v>
   <v>       0.16666667       0.46666667       0.30000000 </v>
   <v>       0.20833333       0.46666667       0.30000000 </v>
   <v>       0.25000000       0.46666667       0.30000000 </v>
   <v>       0.29166667       0.46666667       0.30000000 </v>
   <v>       0.33333333       0.46666667       0.30000000 </v>
   <v>       0.37500000       0.46666667       0.30000000 </v>
   <v>       0.41666667       0.46666667       0.30000000 </v>
   <v>       0.45833333       0.46666667       0.30000000 </v>
   <v>      -0.45833333       0.46666667       0.30000000 </v>
   <v>      -0.41666667       0.46666667       0.30000000 </v>
   <v>      -0.37500000       0.46666667       0.30000000 </v>
   <v>      -0.33333333       0.46666667       0.30000000 </v>
   <v>      -0.29166667       0.46666667       0.30000000 </v>
   <v>      -0.25000000       0.46666667       0.30000000 </v>
   <v>      -0.20833333       0.46666667       0.30000000 </v>
   <v>      -0.16666667       0.46666667       0.30000000 </v>
   <v>      -0.12500000       0.46666667       0.30000000 </v>
   <v>      -0.08333333       0.46666667       0.30000000 </v>
   <v>      -0.04166667       0.46666667       0.30000000 </v>
   <v>       0.00000000      -0.46666667       0.30000000 </v>
   <v>       0.04166667      -0.46666667       0.30000000 </v>
   <v>       0.08333333      -0.46666667       0.30000000 </v>
   <v>       0.12500000      -0.46666667       0.30000000 </v>
   <v>       0.16666667      -0.46666667       0.30000000 </v>
   <v>       0.20833333      -0.46666667       0.30000000 </v>
   <v>       0.25000000      -0.46666667       0.30000000 </v>
   <v>       0.29166667      -0.46666667       0.30000000 </v>
   <v>       0.33333333      -0.46666667       0.30000000 </v>
   <v>       0.37500000      -0.46666667       0.30000000 </v>
   <v>       0.41666667      -0.46666667       0.30000000 </v>
   <v>       0.45833333      -0.46666667       0.30000000 </v>
   <v>      -0.45833333      -0.46666667       0.30000000 </v>
   <v>      -0.41666667      -0.46666667       0.30000000 </v>
   <v>      -0.37500000      -0.46666667       0.30000000 </v>
   <v>      -0.33333333      -0.46666667       0.30000000 </v>
   <v>      -0.29166667      -0.46666667       0.30000000 </v>
   <v>      -0.25000000      -0.46666667       0.30000000 </v>
   <v>      -0.20833333      -0.46666667       0.30000000 </v>
   <v>      -0.16666667      -0.46666667       0.30000000 </v>
   <v>      -0.12500000      -0.46666667       0.30000000 </v>
   <v>      -0.08333333      -0.46666667       0.30000000 </v>
   <v>      -0.04166667      -0.46666667       0.30000000 </v>
   <v>       0.00000000      -0.40000000       0.30000000 </v>
   <v>       0.04166667      -0.40000000       0.30000000 </v>
   <v>       0.08333333      -0.40000000       0.30000000 </v>
   <v>       0.12500000      -0.40000000       0.30000000 </v>
   <v>       0.16666667      -0.40000000       0.30000000 </v>
   <v>       0.20833333      -0.40000000       0.30000000 </v>
   <v>       0.25000000      -0.40000000       0.30000000 </v>
   <v>       0.29166667      -0.40000000       0.30000000 </v>
   <v>       0.33333333      -0.40000000       0.30000000 </v>
   <v>       0.37500000      -0.40000000       0.30000000 </v>
   <v>       0.41666667      -0.40000000       0.30000000 </v>
   <v>       0.45833333      -0.40000000       0.30000000 </v>
   <v>      -0.45833333      -0.40000000       0.30000000 </v>
   <v>      -0.41666667      -0.40000000       0.30000000 </v>
   <v>      -0.37500000      -0.40000000       0.30000000 </v>
   <v>      -0.33333333      -0.40000000       0.30000000 </v>
   <v>      -0.29166667      -0.40000000       0.30000000 </v>
   <v>      -0.25000000      -0.40000000       0.30000000 </v>
   <v>      -0.20833333      -0.40000000       0.30000000 </v>
   <v>      -0.16666667      -0.40000000       0.30000000 </v>
   <v>      -0.12500000      -0.40000000       0.30000000 </v>
   <v>      -0.08333333      -0.40000000       0.30000000 </v>
   <v>      -0.04166667      -0.40000000       0.30000000 </v>
   <v>       0.00000000      -0.33333333       0.30000000 </v>
   <v>       0.04166667      -0.33333333       0.30000000 </v>
   <v>       0.08333333      -0.33333333       0.30000000 </v>
   <v>       0.12500000      -0.33333333       0.30000000 </v>
   <v>       0.16666667      -0.33333333       0.30000000 </v>
   <v>       0.20833333      -0.33333333       0.30000000 </v>
   <v>       0.25000000      -0.33333333       0.30000000 </v>
   <v>       0.29166667      -0.33333333       0.30000000 </v>
   <v>       0.33333333      -0.33333333       0.30000000 </v>
   <v>       0.37500000      -0.33333333       0.30000000 </v>
   <v>       0.41666667      -0.33333333       0.30000000 </v>
   <v>       0.45833333      -0.33333333       0.30000000 </v>
   <v>      -0.45833333      -0.33333333       0.30000000 </v>
   <v>      -0.41666667      -0.33333333       0.30000000 </v>
   <v>      -0.37500000      -0.33333333       0.30000000 </v>
   <v>      -0.33333333      -0.33333333       0.30000000 </v>
   <v>      -0.29166667      -0.33333333       0.30000000 </v>
   <v>      -0.25000000      -0.33333333       0.30000000 </v>
   <v>      -0.20833333      -0.33333333       0.30000000 </v>
   <v>      -0.16666667      -0.33333333       0.30000000 </v>
   <v>      -0.12500000      -0.33333333       0.30000000 </v>
   <v>      -0.08333333      -0.33333333       0.30000000 </v>
   <v>      -0.04166667      -0.33333333       0.30000000 </v>
   <v>       0.00000000      -0.26666667       0.30000000 </v>
   <v>       0.04166667      -0.26666667       0.30000000 </v>
   <v>       0.08333333      -0.26666667       0.30000000 </v>
   <v>       0.12500000      -0.26666667       0.30000000 </v>
   <v>       0.16666667      -0.26666667       0.30000000 </v>
   <v>       0.20833333      -0.26666667       0.30000000 </v>
   <v>       0.25000000      -0.26666667       0.30000000 </v>
   <v>       0.29166667      -0.26666667       0.30000000 </v>
   <v>       0.33333333      -0.26666667       0.30000000 </v>
   <v>       0.37500000      -0.26666667       0.30000000 </v>
   <v>       0.41666667      -0.26666667       0.30000000 </v>
   <v>       0.45833333      -0.26666667       0.30000000 </v>
   <v>      -0.45833333      -0.26666667       0.30000000 </v>
   <v>      -0.41666667      -0.26666667       0.30000000 </v>
   <v>      -0.37500000      -0.26666667       0.30000000 </v>
   <v>      -0.33333333      -0.26666667       0.30000000 </v>
   <v>      -0.29166667      -0.26666667       0.30000000 </v>
   <v>      -0.25000000      -0.26666667       0.30000000 </v>
   <v>      -0.20833333      -0.26666667       0.30000000 </v>
   <v>      -0.16666667      -0.26666667       0.30000000 </v>
   <v>      -0.12500000      -0.26666667       0.30000000 </v>
   <v>      -0.08333333      -0.26666667       0.30000000 </v>
   <v>      -0.04166667      -0.26666667       0.30000000 </v>
   <v>       0.00000000      -0.20000000       0.30000000 </v>
   <v>       0.04166667      -0.20000000       0.30000000 </v>
   <v>       0.08333333      -0.20000000       0.30000000 </v>
   <v>       0.12500000      -0.20000000       0.30000000 </v>
   <v>       0.16666667      -0.20000000       0.30000000 </v>
   <v>       0.20833333      -0.20000000       0.30000000 </v>
   <v>       0.25000000      -0.20000000       0.30000000 </v>
   <v>       0.29166667      -0.20000000       0.30000000 </v>
   <v>       0.33333333      -0.20000000       0.30000000 </v>
   <v>       0.37500000      -0.20000000       0.30000000 </v>
   <v>       0.41666667      -0.20000000       0.30000000 </v>
   <v>       0.45833333      -0.20000000       0.30000000 </v>
   <v>      -0.45833333      -0.20000000       0.30000000 </v>
   <v>      -0.41666667      -0.20000000       0.30000000 </v>
   <v>      -0.37500000      -0.20000000       0.30000000 </v>
   <v>      -0.33333333      -0.20000000       0.30000000 </v>
   <v>      -0.29166667      -0.20000000       0.30000000 </v>
   <v>      -0.25000000      -0.20000000       0.30000000 </v>
   <v>      -0.20833333      -0.20000000       0.30000000 </v>
   <v>      -0.16666667      -0.20000000       0.30000000 </v>
   <v>      -0.12500000      -0.20000000       0.30000000 </v>
   <v>      -0.08333333      -0.20000000       0.30000000 </v>
   <v>      -0.04166667      -0.20000000       0.30000000 </v>
   <v>       0.00000000      -0.13333333       0.30000000 </v>
   <v>       0.04166667      -0.13333333       0.30000000 </v>
   <v>       0.08333333      -0.13333333       0.30000000 </v>
   <v>       0.12500000      -0.13333333       0.30000000 </v>
   <v>       0.16666667      -0.13333333       0.30000000 </v>
   <v>       0.20833333      -0.13333333       0.30000000 </v>
   <v>       0.25000000      -0.13333333       0.30000000 </v>
   <v>       0.29166667      -0.13333333       0.30000000 </v>
   <v>       0.33333333      -0.13333333       0.30000000 </v>
   <v>       0.37500000      -0.13333333       0.30000000 </v>
   <v>       0.41666667      -0.13333333       0.30000000 </v>
   <v>       0.45833333      -0.13333333       0.30000000 </v>
   <v>      -0.45833333      -0.13333333       0.30000000 </v>
   <v>      -0.41666667      -0.13333333       0.30000000 </v>
   <v>      -0.37500000      -0.13333333       0.30000000 </v>
   <v>      -0.33333333      -0.13333333       0.30000000 </v>
   <v>      -0.29166667      -0.13333333       0.30000000 </v>
   <v>      -0.25000000      -0.13333333       0.30000000 </v>
   <v>      -0.20833333      -0.13333333       0.30000000 </v>
   <v>      -0.16666667      -0.13333333       0.30000000 </v>
   <v>      -0.12500000      -0.13333333       0.30000000 </v>
   <v>      -0.08333333      -0.13333333       0.30000000 </v>
   <v>      -0.04166667      -0.13333333       0.30000000 </v>
   <v>       0.00000000      -0.06666667       0.30000000 </v>
   <v>       0.04166667      -0.06666667       0.30000000 </v>
   <v>       0.08333333      -0.06666667       0.30000000 </v>
   <v>       0.12500000      -0.06666667       0.30000000 </v>
   <v>       0.16666667      -0.06666667       0.30000000 </v>
   <v>       0.20833333      -0.06666667       0.30000000 </v>
   <v>       0.25000000      -0.06666667       0.30000000 </v>
   <v>       0.29166667      -0.06666667       0.30000000 </v>
   <v>       0.33333333      -0.06666667       0.30000000 </v>
   <v>       0.37500000      -0.06666667       0.30000000 </v>
   <v>       0.41666667      -0.06666667       0.30000000 </v>
   <v>       0.45833333      -0.06666667       0.30000000 </v>
   <v>      -0.45833333      -0.06666667       0.30000000 </v>
   <v>      -0.41666667      -0.06666667       0.30000000 </v>
   <v>      -0.37500000      -0.06666667       0.30000000 </v>
   <v>      -0.33333333      -0.06666667       0.30000000 </v>
   <v>      -0.29166667      -0.06666667       0.30000000 </v>
   <v>      -0.25000000      -0.06666667       0.30000000 </v>
   <v>      -0.20833333      -0.06666667       0.30000000 </v>
[...]
       <r>    5.1142    1.0000 </r>
       <r>    5.1671    1.0000 </r>
       <r>    5.2539    1.0000 </r>
       <r>    5.4306    1.0000 </r>
       <r>    5.5463    1.0000 </r>
       <r>    5.6214    1.0000 </r>
       <r>    5.8371    1.0000 </r>
       <r>    5.9164    1.0000 </r>
       <r>    5.9585    1.0000 </r>
       <r>    6.1758    1.0000 </r>
       <r>    6.1992    1.0000 </r>
       <r>    6.4441    1.0000 </r>
       <r>    7.2379    1.0000 </r>
       <r>    9.4749    0.0000 </r>
       <r>   10.2368    0.0000 </r>
       <r>   13.5272    0.0000 </r>
       <r>   15.6041    0.0000 </r>
       <r>   17.2197    0.0000 </r>
       <r>   18.3578    0.0000 </r>
      </set>
      <set comment="kpoint 1763">
       <r>    1.0802    1.0000 </r>
       <r>    1.4416    1.0000 </r>
       <r>    2.1035    1.0000 </r>
       <r>    2.4893    1.0000 </r>
       <r>    2.8744    1.0000 </r>
       <r>    2.9140    1.0000 </r>
       <r>    3.0539    1.0000 </r>
       <r>    3.1788    1.0000 </r>
       <r>    3.4964    1.0000 </r>
       <r>    3.5466    1.0000 </r>
       <r>    3.7535    1.0000 </r>
       <r>    3.7875    1.0000 </r>
       <r>    3.8751    1.0000 </r>
       <r>    4.1600    1.0000 </r>
       <r>    4.2798    1.0000 </r>
       <r>    4.3182    1.0000 </r>
       <r>    4.3557    1.0000 </r>
       <r>    4.3708    1.0000 </r>
       <r>    4.4373    1.0000 </r>
       <r>    4.4911    1.0000 </r>
       <r>    4.8676    1.0000 </r>
       <r>    5.1187    1.0000 </r>
       <r>    5.2691    1.0000 </r>
       <r>    5.2753    1.0000 </r>
       <r>    5.3883    1.0000 </r>
       <r>    5.5092    1.0000 </r>
       <r>    5.6135    1.0000 </r>
       <r>    5.7621    1.0000 </r>
       <r>    5.8110    1.0000 </r>
       <r>    5.8854    1.0000 </r>
       <r>    5.9818    1.0000 </r>
       <r>    6.0947    1.0000 </r>
       <r>    6.3168    1.0000 </r>
       <r>    6.8455    1.0000 </r>
       <r>    9.4700    0.0000 </r>
       <r>    9.8998    0.0000 </r>
       <r>   13.6910    0.0000 </r>
       <r>   15.3830    0.0000 </r>
       <r>   17.1584    0.0000 </r>
       <r>   18.5049    0.0000 </r>
      </set>
      <set comment="kpoint 1764">
       <r>    0.9526    1.0000 </r>
       <r>    1.3406    1.0000 </r>
       <r>    2.0402    1.0000 </r>
       <r>    2.3833    1.0000 </r>
       <r>    2.8191    1.0000 </r>
       <r>    2.8511    1.0000 </r>
       <r>    3.0159    1.0000 </r>
       <r>    3.0667    1.0000 </r>
       <r>    3.5959    1.0000 </r>
       <r>    3.6571    1.0000 </r>
       <r>    3.8739    1.0000 </r>
       <r>    3.9363    1.0000 </r>
       <r>    4.0148    1.0000 </r>
       <r>    4.2349    1.0000 </r>
       <r>    4.2586    1.0000 </r>
       <r>    4.2825    1.0000 </r>
       <r>    4.3486    1.0000 </r>
       <r>    4.3807    1.0000 </r>
       <r>    4.4766    1.0000 </r>
       <r>    4.6717    1.0000 </r>
       <r>    4.7744    1.0000 </r>
       <r>    5.0407    1.0000 </r>
       <r>    5.2224    1.0000 </r>
       <r>    5.3580    1.0000 </r>
       <r>    5.4193    1.0000 </r>
       <r>    5.5303    1.0000 </r>
       <r>    5.6153    1.0000 </r>
       <r>    5.6787    1.0000 </r>
       <r>    5.7402    1.0000 </r>
       <r>    5.8000    1.0000 </r>
       <r>    5.9705    1.0000 </r>
       <r>    6.0235    1.0000 </r>
       <r>    6.2044    1.0000 </r>
       <r>    6.4891    1.0000 </r>
       <r>    9.5091    0.0000 </r>
       <r>    9.6431    0.0000 </r>
       <r>   13.8841    0.0000 </r>
       <r>   15.1505    0.0000 </r>
       <r>   17.1301    0.0000 </r>
       <r>   18.4528    0.0000 </r>
      </set>
     </set>
    </set>
   </array>
  </eigenvalues>
  <separator name="orbital magnetization" >
   <v name="MAGDIPOLOUT">      0.00000000      0.00000000      0.00000000</v>
  </separator>
  <dos>
   <i name="efermi">      8.52632642 </i>
   <total>
    <array>
     <dimension dim="1">gridpoints</dimension>
     <dimension dim="2">spin</dimension>
     <field>energy</field>
     <field>total</field>
     <field>integrated</field>
     <set>
      <set comment="spin 1">
       <r>    -3.5711     0.0000     0.0000 </r>
       <r>    -3.4857     0.0000     0.0000 </r>
       <r>    -3.4004     0.0000     0.0000 </r>
       <r>    -3.3150     0.0000     0.0000 </r>
       <r>    -3.2297     0.0000     0.0000 </r>
       <r>    -3.1443     0.0000     0.0000 </r>
       <r>    -3.0589     0.0000     0.0000 </r>
       <r>    -2.9736     0.0000     0.0000 </r>
       <r>    -2.8882     0.0000     0.0000 </r>
       <r>    -2.8028     0.0000     0.0000 </r>
       <r>    -2.7175     0.0000     0.0000 </r>
       <r>    -2.6321     0.0000     0.0000 </r>
       <r>    -2.5468     0.0000     0.0000 </r>
       <r>    -2.4614     0.0000     0.0000 </r>
       <r>    -2.3760     0.0000     0.0000 </r>
       <r>    -2.2907     0.0000     0.0000 </r>
       <r>    -2.2053     0.0000     0.0000 </r>
       <r>    -2.1199     0.0000     0.0000 </r>
       <r>    -2.0346     0.0000     0.0000 </r>
       <r>    -1.9492     0.0000     0.0000 </r>
       <r>    -1.8639     0.0000     0.0000 </r>
       <r>    -1.7785     0.0000     0.0000 </r>
       <r>    -1.6931     0.0000     0.0000 </r>
       <r>    -1.6078     0.0000     0.0000 </r>
       <r>    -1.5224     0.0000     0.0000 </r>
       <r>    -1.4370     0.0000     0.0000 </r>
       <r>    -1.3517     0.0000     0.0000 </r>
       <r>    -1.2663    -0.0002     0.0000 </r>
       <r>    -1.1810    -0.0006    -0.0001 </r>
       <r>    -1.0956    -0.0016    -0.0002 </r>
       <r>    -1.0102    -0.0036    -0.0005 </r>
       <r>    -0.9249    -0.0064    -0.0011 </r>
       <r>    -0.8395    -0.0082    -0.0018 </r>
       <r>    -0.7541    -0.0044    -0.0021 </r>
       <r>    -0.6688     0.0114    -0.0012 </r>
       <r>    -0.5834     0.0444     0.0026 </r>
       <r>    -0.4981     0.0950     0.0107 </r>
       <r>    -0.4127     0.1575     0.0242 </r>
       <r>    -0.3273     0.2232     0.0432 </r>
       <r>    -0.2420     0.2852     0.0676 </r>
       <r>    -0.1566     0.3410     0.0967 </r>
       <r>    -0.0712     0.3914     0.1301 </r>
       <r>     0.0141     0.4371     0.1674 </r>
       <r>     0.0995     0.4767     0.2081 </r>
       <r>     0.1848     0.5085     0.2515 </r>
       <r>     0.2702     0.5328     0.2970 </r>
       <r>     0.3556     0.5536     0.3442 </r>
       <r>     0.4409     0.5769     0.3935 </r>
       <r>     0.5263     0.6080     0.4454 </r>
       <r>     0.6117     0.6495     0.5008 </r>
       <r>     0.6970     0.7012     0.5607 </r>
       <r>     0.7824     0.7592     0.6255 </r>
       <r>     0.8677     0.8181     0.6953 </r>
       <r>     0.9531     0.8733     0.7699 </r>
       <r>     1.0385     0.9249     0.8488 </r>
       <r>     1.1238     0.9760     0.9321 </r>
       <r>     1.2092     1.0302     1.0201 </r>
       <r>     1.2946     1.0913     1.1132 </r>
       <r>     1.3799     1.1687     1.2130 </r>
       <r>     1.4653     1.2851     1.3227 </r>
       <r>     1.5506     1.4793     1.4490 </r>
       <r>     1.6360     1.7942     1.6021 </r>
       <r>     1.7214     2.2550     1.7946 </r>
       <r>     1.8067     2.8539     2.0382 </r>
       <r>     1.8921     3.5631     2.3424 </r>
       <r>     1.9775     4.3687     2.7153 </r>
       <r>     2.0628     5.2906     3.1669 </r>
       <r>     2.1482     6.3615     3.7100 </r>
       <r>     2.2335     7.5803     4.3571 </r>
       <r>     2.3189     8.8795     5.1150 </r>
       <r>     2.4043    10.1342     5.9801 </r>
       <r>     2.4896    11.1998     6.9362 </r>
       <r>     2.5750    11.9578     7.9569 </r>
       <r>     2.6604    12.3508     9.0112 </r>
       <r>     2.7457    12.3926    10.0691 </r>
       <r>     2.8311    12.1410    11.1055 </r>
       <r>     2.9164    11.6561    12.1005 </r>
       <r>     3.0018    11.0024    13.0396 </r>
       <r>     3.0872    10.3081    13.9196 </r>
       <r>     3.1725     9.8027    14.7564 </r>
       <r>     3.2579     9.7355    15.5874 </r>
       <r>     3.3433    10.2112    16.4591 </r>
       <r>     3.4286    11.0921    17.4059 </r>
       <r>     3.5140    12.0699    18.4362 </r>
       <r>     3.5993    12.8489    19.5331 </r>
       <r>     3.6847    13.3027    20.6686 </r>
       <r>     3.7701    13.5197    21.8227 </r>
       <r>     3.8554    13.7488    22.9963 </r>
       <r>     3.9408    14.2881    24.2160 </r>
       <r>     4.0262    15.3477    25.5261 </r>
       <r>     4.1115    16.8980    26.9686 </r>
       <r>     4.1969    18.5645    28.5533 </r>
       <r>     4.2822    19.6958    30.2346 </r>
       <r>     4.3676    19.6832    31.9148 </r>
       <r>     4.4530    18.3683    33.4827 </r>
       <r>     4.5383    16.2002    34.8656 </r>
       <r>     4.6237    13.9711    36.0582 </r>
       <r>     4.7091    12.3525    37.1127 </r>
       <r>     4.7944    11.6091    38.1037 </r>
       <r>     4.8798    11.6332    39.0967 </r>
       <r>     4.9651    12.1427    40.1332 </r>
       <r>     5.0505    12.8367    41.2290 </r>
       <r>     5.1359    13.4588    42.3779 </r>
       <r>     5.2212    13.8243    43.5580 </r>
       <r>     5.3066    13.8507    44.7403 </r>
       <r>     5.3920    13.5695    45.8986 </r>
       <r>     5.4773    13.0930    47.0163 </r>
       <r>     5.5627    12.5567    48.0881 </r>
       <r>     5.6480    12.0841    49.1197 </r>
       <r>     5.7334    11.7836    50.1255 </r>
       <r>     5.8188    11.7422    51.1279 </r>
       <r>     5.9041    12.0051    52.1527 </r>
       <r>     5.9895    12.5573    53.2246 </r>
       <r>     6.0749    13.3119    54.3609 </r>
       <r>     6.1602    14.1000    55.5646 </r>
       <r>     6.2456    14.6862    56.8182 </r>
       <r>     6.3310    14.8337    58.0844 </r>
       <r>     6.4163    14.3783    59.3118 </r>
       <r>     6.5017    13.2477    60.4427 </r>
       <r>     6.5870    11.4517    61.4202 </r>
       <r>     6.6724     9.1209    62.1988 </r>
       <r>     6.7578     6.5727    62.7599 </r>
       <r>     6.8431     4.2680    63.1242 </r>
       <r>     6.9285     2.6085    63.3469 </r>
       <r>     7.0139     1.7244    63.4941 </r>
       <r>     7.0992     1.4446    63.6174 </r>
       <r>     7.1846     1.4629    63.7422 </r>
       <r>     7.2699     1.5397    63.8737 </r>
       <r>     7.3553     1.5850    64.0090 </r>
       <r>     7.4407     1.6118    64.1466 </r>
       <r>     7.5260     1.6487    64.2873 </r>
       <r>     7.6114     1.6939    64.4319 </r>
       <r>     7.6968     1.7229    64.5790 </r>
       <r>     7.7821     1.7190    64.7257 </r>
       <r>     7.8675     1.6914    64.8701 </r>
       <r>     7.9528     1.6687    65.0125 </r>
       <r>     8.0382     1.6758    65.1556 </r>
       <r>     8.1236     1.7127    65.3018 </r>
       <r>     8.2089     1.7544    65.4515 </r>
       <r>     8.2943     1.7706    65.6027 </r>
       <r>     8.3797     1.7499    65.7521 </r>
       <r>     8.4650     1.7060    65.8977 </r>
       <r>     8.5504     1.6643    66.0398 </r>
       <r>     8.6357     1.6460    66.1803 </r>
       <r>     8.7211     1.6584    66.3218 </r>
       <r>     8.8065     1.6939    66.4664 </r>
       <r>     8.8918     1.7327    66.6143 </r>
       <r>     8.9772     1.7534    66.7640 </r>
       <r>     9.0626     1.7440    66.9129 </r>
       <r>     9.1479     1.7077    67.0587 </r>
       <r>     9.2333     1.6590    67.2003 </r>
       <r>     9.3186     1.6173    67.3383 </r>
       <r>     9.4040     1.6016    67.4751 </r>
       <r>     9.4894     1.6241    67.6137 </r>
       <r>     9.5747     1.6799    67.7571 </r>
       <r>     9.6601     1.7417    67.9058 </r>
       <r>     9.7455     1.7722    68.0571 </r>
       <r>     9.8308     1.7493    68.2064 </r>
       <r>     9.9162     1.6852    68.3502 </r>
       <r>    10.0015     1.6206    68.4886 </r>
       <r>    10.0869     1.5946    68.6247 </r>
       <r>    10.1723     1.6146    68.7625 </r>
       <r>    10.2576     1.6513    68.9035 </r>
       <r>    10.3430     1.6653    69.0456 </r>
       <r>    10.4284     1.6399    69.1856 </r>
       <r>    10.5137     1.5908    69.3214 </r>
       <r>    10.5991     1.5467    69.4534 </r>
       <r>    10.6844     1.5220    69.5834 </r>
       <r>    10.7698     1.5082    69.7121 </r>
       <r>    10.8552     1.4896    69.8393 </r>
       <r>    10.9405     1.4677    69.9646 </r>
       <r>    11.0259     1.4678    70.0898 </r>
       <r>    11.1113     1.5226    70.2198 </r>
       <r>    11.1966     1.6447    70.3602 </r>
       <r>    11.2820     1.8117    70.5149 </r>
       <r>    11.3673     1.9738    70.6834 </r>
       <r>    11.4527     2.0827    70.8611 </r>
       <r>    11.5381     2.1208    71.0422 </r>
       <r>    11.6234     2.1093    71.2222 </r>
       <r>    11.7088     2.0866    71.4003 </r>
       <r>    11.7942     2.0790    71.5778 </r>
       <r>    11.8795     2.0852    71.7558 </r>
       <r>    11.9649     2.0839    71.9337 </r>
       <r>    12.0502     2.0531    72.1090 </r>
       <r>    12.1356     1.9880    72.2787 </r>
       <r>    12.2210     1.9064    72.4414 </r>
       <r>    12.3063     1.8366    72.5982 </r>
       <r>    12.3917     1.7964    72.7515 </r>
       <r>    12.4771     1.7831    72.9037 </r>
       <r>    12.5624     1.7812    73.0558 </r>
       <r>    12.6478     1.7787    73.2076 </r>
       <r>    12.7331     1.7734    73.3590 </r>
       <r>    12.8185     1.7670    73.5098 </r>
       <r>    12.9039     1.7574    73.6598 </r>
       <r>    12.9892     1.7413    73.8085 </r>
       <r>    13.0746     1.7240    73.9556 </r>
       <r>    13.1600     1.7243    74.1028 </r>
       <r>    13.2453     1.7660    74.2536 </r>
       <r>    13.3307     1.8587    74.4123 </r>
       <r>    13.4160     1.9849    74.5817 </r>
       <r>    13.5014     2.1061    74.7615 </r>
       <r>    13.5868     2.1865    74.9481 </r>
       <r>    13.6721     2.2124    75.1370 </r>
       <r>    13.7575     2.1947    75.3243 </r>
       <r>    13.8429     2.1560    75.5084 </r>
       <r>    13.9282     2.1166    75.6890 </r>
       <r>    14.0136     2.0849    75.8670 </r>
       <r>    14.0989     2.0551    76.0424 </r>
       <r>    14.1843     2.0146    76.2144 </r>
       <r>    14.2697     1.9574    76.3815 </r>
       <r>    14.3550     1.8942    76.5432 </r>
       <r>    14.4404     1.8443    76.7006 </r>
       <r>    14.5258     1.8146    76.8555 </r>
       <r>    14.6111     1.7878    77.0081 </r>
       <r>    14.6965     1.7362    77.1564 </r>
       <r>    14.7818     1.6490    77.2971 </r>
       <r>    14.8672     1.5444    77.4290 </r>
       <r>    14.9526     1.4557    77.5532 </r>
       <r>    15.0379     1.4056    77.6732 </r>
       <r>    15.1233     1.3935    77.7922 </r>
       <r>    15.2087     1.4022    77.9119 </r>
       <r>    15.2940     1.4127    78.0325 </r>
       <r>    15.3794     1.4124    78.1530 </r>
       <r>    15.4648     1.3957    78.2722 </r>
       <r>    15.5501     1.3608    78.3883 </r>
       <r>    15.6355     1.3094    78.5001 </r>
       <r>    15.7208     1.2475    78.6066 </r>
       <r>    15.8062     1.1843    78.7077 </r>
       <r>    15.8916     1.1265    78.8038 </r>
       <r>    15.9769     1.0737    78.8955 </r>
       <r>    16.0623     1.0196    78.9825 </r>
       <r>    16.1477     0.9590    79.0644 </r>
       <r>    16.2330     0.8939    79.1407 </r>
       <r>    16.3184     0.8310    79.2116 </r>
       <r>    16.4037     0.7741    79.2777 </r>
       <r>    16.4891     0.7186    79.3390 </r>
       <r>    16.5745     0.6559    79.3950 </r>
       <r>    16.6598     0.5849    79.4450 </r>
       <r>    16.7452     0.5166    79.4891 </r>
       <r>    16.8306     0.4663    79.5289 </r>
       <r>    16.9159     0.4408    79.5665 </r>
       <r>    17.0013     0.4338    79.6035 </r>
       <r>    17.0866     0.4326    79.6405 </r>
       <r>    17.1720     0.4274    79.6769 </r>
       <r>    17.2574     0.4133    79.7122 </r>
       <r>    17.3427     0.3885    79.7454 </r>
       <r>    17.4281     0.3541    79.7756 </r>
       <r>    17.5135     0.3152    79.8025 </r>
       <r>    17.5988     0.2798    79.8264 </r>
       <r>    17.6842     0.2525    79.8480 </r>
       <r>    17.7695     0.2315    79.8677 </r>
       <r>    17.8549     0.2115    79.8858 </r>
       <r>    17.9403     0.1895    79.9019 </r>
       <r>    18.0256     0.1677    79.9163 </r>
       <r>    18.1110     0.1503    79.9291 </r>
       <r>    18.1964     0.1394    79.9410 </r>
       <r>    18.2817     0.1332    79.9524 </r>
       <r>    18.3671     0.1270    79.9632 </r>
       <r>    18.4524     0.1161    79.9731 </r>
       <r>    18.5378     0.0984    79.9815 </r>
       <r>    18.6232     0.0760    79.9880 </r>
       <r>    18.7085     0.0537    79.9926 </r>
       <r>    18.7939     0.0356    79.9956 </r>
       <r>    18.8793     0.0229    79.9976 </r>
       <r>    18.9646     0.0146    79.9988 </r>
       <r>    19.0500     0.0090    79.9996 </r>
       <r>    19.1353     0.0049    80.0000 </r>
       <r>    19.2207     0.0019    80.0002 </r>
       <r>    19.3061     0.0001    80.0002 </r>
       <r>    19.3914    -0.0006    80.0001 </r>
       <r>    19.4768    -0.0007    80.0001 </r>
       <r>    19.5622    -0.0005    80.0000 </r>
       <r>    19.6475    -0.0002    80.0000 </r>
       <r>    19.7329    -0.0001    80.0000 </r>
       <r>    19.8182     0.0000    80.0000 </r>
       <r>    19.9036     0.0000    80.0000 </r>
       <r>    19.9890     0.0000    80.0000 </r>
       <r>    20.0743     0.0000    80.0000 </r>
       <r>    20.1597     0.0000    80.0000 </r>
       <r>    20.2451     0.0000    80.0000 </r>
       <r>    20.3304     0.0000    80.0000 </r>
       <r>    20.4158     0.0000    80.0000 </r>
       <r>    20.5011     0.0000    80.0000 </r>
       <r>    20.5865     0.0000    80.0000 </r>
       <r>    20.6719     0.0000    80.0000 </r>
       <r>    20.7572     0.0000    80.0000 </r>
       <r>    20.8426     0.0000    80.0000 </r>
       <r>    20.9280     0.0000    80.0000 </r>
       <r>    21.0133     0.0000    80.0000 </r>
       <r>    21.0987     0.0000    80.0000 </r>
       <r>    21.1840     0.0000    80.0000 </r>
       <r>    21.2694     0.0000    80.0000 </r>
       <r>    21.3548     0.0000    80.0000 </r>
       <r>    21.4401     0.0000    80.0000 </r>
       <r>    21.5255     0.0000    80.0000 </r>
       <r>    21.6109     0.0000    80.0000 </r>
       <r>    21.6962     0.0000    80.0000 </r>
       <r>    21.7816     0.0000    80.0000 </r>
       <r>    21.8669     0.0000    80.0000 </r>
       <r>    21.9523     0.0000    80.0000 </r>
       <r>    22.0377     0.0000    80.0000 </r>
      </set>
     </set>
    </array>
   </total>
  </dos>
 </calculation>
 <structure name="finalpos" >
  <crystal>
   <varray name="basis" >
    <v>      -2.07198657       2.07198657       0.00000000 </v>
    <v>      -2.07490492      -2.07490492       4.15436848 </v>
    <v>       6.23171051       4.15972394       2.08563944 </v>
   </varray>
   <i name="volume">    107.38040292 </i>
   <varray name="rec_basis" >
    <v>      -0.20123346       0.28139516       0.04003687 </v>
    <v>      -0.04024400      -0.04024400       0.20051063 </v>
    <v>       0.08016170       0.08016170       0.08007374 </v>
   </varray>
  </crystal>
  <varray name="positions" >
   <v>       0.83333333       0.16666667       0.66666667 </v>
   <v>       0.99928281       0.99978077       0.99856562 </v>
   <v>       0.16763979       0.83470840       0.33527958 </v>
   <v>       0.33333333       0.66666667       0.66666667 </v>
   <v>       0.49902688       0.49862493       0.99805376 </v>
   <v>       0.66738385       0.33355256       0.33476771 </v>
  </varray>
 </structure>
</modeling>
