<?xml version="1.0" encoding="ISO-8859-1"?>
<modeling>
 <generator>
  <i name="program" type="string">vasp </i>
  <i name="version" type="string">5.3.5  </i>
  <i name="subversion" type="string">31Mar14 (build Jun 20 2014 13:15:13) complex                          parallel </i>
  <i name="platform" type="string">LinuxIFC </i>
  <i name="date" type="string">2025 11 21 </i>
  <i name="time" type="string">10:12:37 </i>
 </generator>
 <incar>
  <i type="string" name="PREC">accurate</i>
  <i type="int" name="IALGO">    68</i>
  <i type="logical" name="ADDGRID"> T  </i>
  <i type="int" name="NELM">   100</i>
  <i type="int" name="NELMIN">     4</i>
  <i type="int" name="IBRION">     2</i>
  <i name="EDIFF">      0.00000100</i>
  <i name="EDIFFG">     -0.02000000</i>
  <i type="int" name="NSW">    30</i>
  <i type="int" name="ISIF">     3</i>
  <i name="ENCUT">    500.00000000</i>
  <i type="logical" name="LREAL"> F  </i>
  <i type="int" name="ISMEAR">     1</i>
  <i name="SIGMA">      0.30000000</i>
  <i type="logical" name="LWAVE"> F  </i>
  <i type="logical" name="LCHARG"> F  </i>
  <i type="int" name="NELM">   100</i>
 </incar>
 <kpoints>
  <generation param="Auto">
   <i name="subdivisionlength">     70.00000000 </i>
   <v type="int" name="divisions">      24       17       12 </v>
   <v name="usershift">      0.00000000       0.00000000       0.00000000 </v>
   <v name="genvec1">      0.04166667       0.00000000       0.00000000 </v>
   <v name="genvec2">      0.00000000       0.05882353       0.00000000 </v>
   <v name="genvec3">      0.00000000       0.00000000       0.08333333 </v>
   <v name="shift">      0.00000000       0.00000000       0.00000000 </v>
  </generation>
  <varray name="kpointlist" >
   <v>       0.00000000       0.00000000       0.00000000 </v>
   <v>       0.04166667       0.00000000       0.00000000 </v>
   <v>       0.08333333       0.00000000       0.00000000 </v>
   <v>       0.12500000       0.00000000       0.00000000 </v>
   <v>       0.16666667       0.00000000       0.00000000 </v>
   <v>       0.20833333       0.00000000       0.00000000 </v>
   <v>       0.25000000       0.00000000       0.00000000 </v>
   <v>       0.29166667       0.00000000       0.00000000 </v>
   <v>       0.33333333       0.00000000       0.00000000 </v>
   <v>       0.37500000       0.00000000       0.00000000 </v>
   <v>       0.41666667       0.00000000       0.00000000 </v>
   <v>       0.45833333       0.00000000       0.00000000 </v>
   <v>       0.50000000       0.00000000       0.00000000 </v>
   <v>       0.00000000       0.05882353       0.00000000 </v>
   <v>       0.04166667       0.05882353       0.00000000 </v>
   <v>       0.08333333       0.05882353       0.00000000 </v>
   <v>       0.12500000       0.05882353       0.00000000 </v>
   <v>       0.16666667       0.05882353       0.00000000 </v>
   <v>       0.20833333       0.05882353       0.00000000 </v>
   <v>       0.25000000       0.05882353       0.00000000 </v>
   <v>       0.29166667       0.05882353       0.00000000 </v>
   <v>       0.33333333       0.05882353       0.00000000 </v>
   <v>       0.37500000       0.05882353       0.00000000 </v>
   <v>       0.41666667       0.05882353       0.00000000 </v>
   <v>       0.45833333       0.05882353       0.00000000 </v>
   <v>       0.50000000       0.05882353       0.00000000 </v>
   <v>       0.00000000       0.11764706       0.00000000 </v>
   <v>       0.04166667       0.11764706       0.00000000 </v>
   <v>       0.08333333       0.11764706       0.00000000 </v>
   <v>       0.12500000       0.11764706       0.00000000 </v>
   <v>       0.16666667       0.11764706       0.00000000 </v>
   <v>       0.20833333       0.11764706       0.00000000 </v>
   <v>       0.25000000       0.11764706       0.00000000 </v>
   <v>       0.29166667       0.11764706       0.00000000 </v>
   <v>       0.33333333       0.11764706       0.00000000 </v>
   <v>       0.37500000       0.11764706       0.00000000 </v>
   <v>       0.41666667       0.11764706       0.00000000 </v>
   <v>       0.45833333       0.11764706       0.00000000 </v>
   <v>       0.50000000       0.11764706       0.00000000 </v>
   <v>       0.00000000       0.17647059       0.00000000 </v>
   <v>       0.04166667       0.17647059       0.00000000 </v>
   <v>       0.08333333       0.17647059       0.00000000 </v>
   <v>       0.12500000       0.17647059       0.00000000 </v>
   <v>       0.16666667       0.17647059       0.00000000 </v>
   <v>       0.20833333       0.17647059       0.00000000 </v>
   <v>       0.25000000       0.17647059       0.00000000 </v>
   <v>       0.29166667       0.17647059       0.00000000 </v>
   <v>       0.33333333       0.17647059       0.00000000 </v>
   <v>       0.37500000       0.17647059       0.00000000 </v>
   <v>       0.41666667       0.17647059       0.00000000 </v>
   <v>       0.45833333       0.17647059       0.00000000 </v>
   <v>       0.50000000       0.17647059       0.00000000 </v>
   <v>       0.00000000       0.23529412       0.00000000 </v>
   <v>       0.04166667       0.23529412       0.00000000 </v>
   <v>       0.08333333       0.23529412       0.00000000 </v>
   <v>       0.12500000       0.23529412       0.00000000 </v>
   <v>       0.16666667       0.23529412       0.00000000 </v>
   <v>       0.20833333       0.23529412       0.00000000 </v>
   <v>       0.25000000       0.23529412       0.00000000 </v>
   <v>       0.29166667       0.23529412       0.00000000 </v>
   <v>       0.33333333       0.23529412       0.00000000 </v>
   <v>       0.37500000       0.23529412       0.00000000 </v>
   <v>       0.41666667       0.23529412       0.00000000 </v>
   <v>       0.45833333       0.23529412       0.00000000 </v>
   <v>       0.50000000       0.23529412       0.00000000 </v>
   <v>       0.00000000       0.29411765       0.00000000 </v>
   <v>       0.04166667       0.29411765       0.00000000 </v>
   <v>       0.08333333       0.29411765       0.00000000 </v>
   <v>       0.12500000       0.29411765       0.00000000 </v>
   <v>       0.16666667       0.29411765       0.00000000 </v>
   <v>       0.20833333       0.29411765       0.00000000 </v>
   <v>       0.25000000       0.29411765       0.00000000 </v>
   <v>       0.29166667       0.29411765       0.00000000 </v>
   <v>       0.33333333       0.29411765       0.00000000 </v>
   <v>       0.37500000       0.29411765       0.00000000 </v>
   <v>       0.41666667       0.29411765       0.00000000 </v>
   <v>       0.45833333       0.29411765       0.00000000 </v>
   <v>       0.50000000       0.29411765       0.00000000 </v>
   <v>       0.00000000       0.35294118       0.00000000 </v>
   <v>       0.04166667       0.35294118       0.00000000 </v>
   <v>       0.08333333       0.35294118       0.00000000 </v>
   <v>       0.12500000       0.35294118       0.00000000 </v>
   <v>       0.16666667       0.35294118       0.00000000 </v>
   <v>       0.20833333       0.35294118       0.00000000 </v>
   <v>       0.25000000       0.35294118       0.00000000 </v>
   <v>       0.29166667       0.35294118       0.00000000 </v>
   <v>       0.33333333       0.35294118       0.00000000 </v>
   <v>       0.37500000       0.35294118       0.00000000 </v>
   <v>       0.41666667       0.35294118       0.00000000 </v>
   <v>       0.45833333       0.35294118       0.00000000 </v>
   <v>       0.50000000       0.35294118       0.00000000 </v>
   <v>       0.00000000       0.41176471       0.00000000 </v>
   <v>       0.04166667       0.41176471       0.00000000 </v>
   <v>       0.08333333       0.41176471       0.00000000 </v>
   <v>       0.12500000       0.41176471       0.00000000 </v>
   <v>       0.16666667       0.41176471       0.00000000 </v>
   <v>       0.20833333       0.41176471       0.00000000 </v>
   <v>       0.25000000       0.41176471       0.00000000 </v>
   <v>       0.29166667       0.41176471       0.00000000 </v>
   <v>       0.33333333       0.41176471       0.00000000 </v>
   <v>       0.37500000       0.41176471       0.00000000 </v>
   <v>       0.41666667       0.41176471       0.00000000 </v>
   <v>       0.45833333       0.41176471       0.00000000 </v>
   <v>       0.50000000       0.41176471       0.00000000 </v>
   <v>       0.00000000       0.47058824       0.00000000 </v>
   <v>       0.04166667       0.47058824       0.00000000 </v>
   <v>       0.08333333       0.47058824       0.00000000 </v>
   <v>       0.12500000       0.47058824       0.00000000 </v>
   <v>       0.16666667       0.47058824       0.00000000 </v>
   <v>       0.20833333       0.47058824       0.00000000 </v>
   <v>       0.25000000       0.47058824       0.00000000 </v>
   <v>       0.29166667       0.47058824       0.00000000 </v>
   <v>       0.33333333       0.47058824       0.00000000 </v>
   <v>       0.37500000       0.47058824       0.00000000 </v>
   <v>       0.41666667       0.47058824       0.00000000 </v>
   <v>       0.45833333       0.47058824       0.00000000 </v>
   <v>       0.50000000       0.47058824       0.00000000 </v>
   <v>       0.00000000       0.00000000       0.08333333 </v>
   <v>       0.04166667       0.00000000       0.08333333 </v>
   <v>       0.08333333       0.00000000       0.08333333 </v>
   <v>       0.12500000       0.00000000       0.08333333 </v>
   <v>       0.16666667       0.00000000       0.08333333 </v>
   <v>       0.20833333       0.00000000       0.08333333 </v>
   <v>       0.25000000       0.00000000       0.08333333 </v>
   <v>       0.29166667       0.00000000       0.08333333 </v>
   <v>       0.33333333       0.00000000       0.08333333 </v>
   <v>       0.37500000       0.00000000       0.08333333 </v>
   <v>       0.41666667       0.00000000       0.08333333 </v>
   <v>       0.45833333       0.00000000       0.08333333 </v>
   <v>       0.50000000       0.00000000       0.08333333 </v>
   <v>       0.00000000       0.05882353       0.08333333 </v>
   <v>       0.04166667       0.05882353       0.08333333 </v>
   <v>       0.08333333       0.05882353       0.08333333 </v>
   <v>       0.12500000       0.05882353       0.08333333 </v>
   <v>       0.16666667       0.05882353       0.08333333 </v>
   <v>       0.20833333       0.05882353       0.08333333 </v>
   <v>       0.25000000       0.05882353       0.08333333 </v>
   <v>       0.29166667       0.05882353       0.08333333 </v>
   <v>       0.33333333       0.05882353       0.08333333 </v>
   <v>       0.37500000       0.05882353       0.08333333 </v>
   <v>       0.41666667       0.05882353       0.08333333 </v>
   <v>       0.45833333       0.05882353       0.08333333 </v>
   <v>       0.50000000       0.05882353       0.08333333 </v>
   <v>       0.00000000       0.11764706       0.08333333 </v>
   <v>       0.04166667       0.11764706       0.08333333 </v>
   <v>       0.08333333       0.11764706       0.08333333 </v>
   <v>       0.12500000       0.11764706       0.08333333 </v>
   <v>       0.16666667       0.11764706       0.08333333 </v>
   <v>       0.20833333       0.11764706       0.08333333 </v>
   <v>       0.25000000       0.11764706       0.08333333 </v>
   <v>       0.29166667       0.11764706       0.08333333 </v>
   <v>       0.33333333       0.11764706       0.08333333 </v>
   <v>       0.37500000       0.11764706       0.08333333 </v>
   <v>       0.41666667       0.11764706       0.08333333 </v>
   <v>       0.45833333       0.11764706       0.08333333 </v>
   <v>       0.50000000       0.11764706       0.08333333 </v>
   <v>       0.00000000       0.17647059       0.08333333 </v>
   <v>       0.04166667       0.17647059       0.08333333 </v>
   <v>       0.08333333       0.17647059       0.08333333 </v>
   <v>       0.12500000       0.17647059       0.08333333 </v>
   <v>       0.16666667       0.17647059       0.08333333 </v>
   <v>       0.20833333       0.17647059       0.08333333 </v>
   <v>       0.25000000       0.17647059       0.08333333 </v>
   <v>       0.29166667       0.17647059       0.08333333 </v>
   <v>       0.33333333       0.17647059       0.08333333 </v>
   <v>       0.37500000       0.17647059       0.08333333 </v>
   <v>       0.41666667       0.17647059       0.08333333 </v>
   <v>       0.45833333       0.17647059       0.08333333 </v>
   <v>       0.50000000       0.17647059       0.08333333 </v>
   <v>       0.00000000       0.23529412       0.08333333 </v>
   <v>       0.04166667       0.23529412       0.08333333 </v>
   <v>       0.08333333       0.23529412       0.08333333 </v>
   <v>       0.12500000       0.23529412       0.08333333 </v>
   <v>       0.16666667       0.23529412       0.08333333 </v>
   <v>       0.20833333       0.23529412       0.08333333 </v>
   <v>       0.25000000       0.23529412       0.08333333 </v>
   <v>       0.29166667       0.23529412       0.08333333 </v>
   <v>       0.33333333       0.23529412       0.08333333 </v>
   <v>       0.37500000       0.23529412       0.08333333 </v>
   <v>       0.41666667       0.23529412       0.08333333 </v>
   <v>       0.45833333       0.23529412       0.08333333 </v>
   <v>       0.50000000       0.23529412       0.08333333 </v>
   <v>       0.00000000       0.29411765       0.08333333 </v>
   <v>       0.04166667       0.29411765       0.08333333 </v>
   <v>       0.08333333       0.29411765       0.08333333 </v>
   <v>       0.12500000       0.29411765       0.08333333 </v>
   <v>       0.16666667       0.29411765       0.08333333 </v>
   <v>       0.20833333       0.29411765       0.08333333 </v>
   <v>       0.25000000       0.29411765       0.08333333 </v>
   <v>       0.29166667       0.29411765       0.08333333 </v>
   <v>       0.33333333       0.29411765       0.08333333 </v>
   <v>       0.37500000       0.29411765       0.08333333 </v>
   <v>       0.41666667       0.29411765       0.08333333 </v>
   <v>       0.45833333       0.29411765       0.08333333 </v>
   <v>       0.50000000       0.29411765       0.08333333 </v>
   <v>       0.00000000       0.35294118       0.08333333 </v>
   <v>       0.04166667       0.35294118       0.08333333 </v>
   <v>       0.08333333       0.35294118       0.08333333 </v>
   <v>       0.12500000       0.35294118       0.08333333 </v>
   <v>       0.16666667       0.35294118       0.08333333 </v>
   <v>       0.20833333       0.35294118       0.08333333 </v>
   <v>       0.25000000       0.35294118       0.08333333 </v>
   <v>       0.29166667       0.35294118       0.08333333 </v>
   <v>       0.33333333       0.35294118       0.08333333 </v>
   <v>       0.37500000       0.35294118       0.08333333 </v>
   <v>       0.41666667       0.35294118       0.08333333 </v>
   <v>       0.45833333       0.35294118       0.08333333 </v>
   <v>       0.50000000       0.35294118       0.08333333 </v>
   <v>       0.00000000       0.41176471       0.08333333 </v>
   <v>       0.04166667       0.41176471       0.08333333 </v>
   <v>       0.08333333       0.41176471       0.08333333 </v>
   <v>       0.12500000       0.41176471       0.08333333 </v>
   <v>       0.16666667       0.41176471       0.08333333 </v>
   <v>       0.20833333       0.41176471       0.08333333 </v>
   <v>       0.25000000       0.41176471       0.08333333 </v>
   <v>       0.29166667       0.41176471       0.08333333 </v>
   <v>       0.33333333       0.41176471       0.08333333 </v>
   <v>       0.37500000       0.41176471       0.08333333 </v>
   <v>       0.41666667       0.41176471       0.08333333 </v>
   <v>       0.45833333       0.41176471       0.08333333 </v>
   <v>       0.50000000       0.41176471       0.08333333 </v>
   <v>       0.00000000       0.47058824       0.08333333 </v>
   <v>       0.04166667       0.47058824       0.08333333 </v>
   <v>       0.08333333       0.47058824       0.08333333 </v>
   <v>       0.12500000       0.47058824       0.08333333 </v>
   <v>       0.16666667       0.47058824       0.08333333 </v>
   <v>       0.20833333       0.47058824       0.08333333 </v>
   <v>       0.25000000       0.47058824       0.08333333 </v>
   <v>       0.29166667       0.47058824       0.08333333 </v>
   <v>       0.33333333       0.47058824       0.08333333 </v>
   <v>       0.37500000       0.47058824       0.08333333 </v>
   <v>       0.41666667       0.47058824       0.08333333 </v>
   <v>       0.45833333       0.47058824       0.08333333 </v>
   <v>       0.50000000       0.47058824       0.08333333 </v>
   <v>       0.00000000       0.00000000       0.16666667 </v>
   <v>       0.04166667       0.00000000       0.16666667 </v>
   <v>       0.08333333       0.00000000       0.16666667 </v>
   <v>       0.12500000       0.00000000       0.16666667 </v>
   <v>       0.16666667       0.00000000       0.16666667 </v>
   <v>       0.20833333       0.00000000       0.16666667 </v>
   <v>       0.25000000       0.00000000       0.16666667 </v>
   <v>       0.29166667       0.00000000       0.16666667 </v>
   <v>       0.33333333       0.00000000       0.16666667 </v>
   <v>       0.37500000       0.00000000       0.16666667 </v>
   <v>       0.41666667       0.00000000       0.16666667 </v>
   <v>       0.45833333       0.00000000       0.16666667 </v>
   <v>       0.50000000       0.00000000       0.16666667 </v>
   <v>       0.00000000       0.05882353       0.16666667 </v>
   <v>       0.04166667       0.05882353       0.16666667 </v>
   <v>       0.08333333       0.05882353       0.16666667 </v>
   <v>       0.12500000       0.05882353       0.16666667 </v>
   <v>       0.16666667       0.05882353       0.16666667 </v>
   <v>       0.20833333       0.05882353       0.16666667 </v>
   <v>       0.25000000       0.05882353       0.16666667 </v>
   <v>       0.29166667       0.05882353       0.16666667 </v>
   <v>       0.33333333       0.05882353       0.16666667 </v>
   <v>       0.37500000       0.05882353       0.16666667 </v>
   <v>       0.41666667       0.05882353       0.16666667 </v>
   <v>       0.45833333       0.05882353       0.16666667 </v>
   <v>       0.50000000       0.05882353       0.16666667 </v>
   <v>       0.00000000       0.11764706       0.16666667 </v>
   <v>       0.04166667       0.11764706       0.16666667 </v>
   <v>       0.08333333       0.11764706       0.16666667 </v>
   <v>       0.12500000       0.11764706       0.16666667 </v>
   <v>       0.16666667       0.11764706       0.16666667 </v>
   <v>       0.20833333       0.11764706       0.16666667 </v>
   <v>       0.25000000       0.11764706       0.16666667 </v>
   <v>       0.29166667       0.11764706       0.16666667 </v>
   <v>       0.33333333       0.11764706       0.16666667 </v>
   <v>       0.37500000       0.11764706       0.16666667 </v>
   <v>       0.41666667       0.11764706       0.16666667 </v>
   <v>       0.45833333       0.11764706       0.16666667 </v>
   <v>       0.50000000       0.11764706       0.16666667 </v>
   <v>       0.00000000       0.17647059       0.16666667 </v>
   <v>       0.04166667       0.17647059       0.16666667 </v>
   <v>       0.08333333       0.17647059       0.16666667 </v>
   <v>       0.12500000       0.17647059       0.16666667 </v>
   <v>       0.16666667       0.17647059       0.16666667 </v>
   <v>       0.20833333       0.17647059       0.16666667 </v>
   <v>       0.25000000       0.17647059       0.16666667 </v>
   <v>       0.29166667       0.17647059       0.16666667 </v>
   <v>       0.33333333       0.17647059       0.16666667 </v>
   <v>       0.37500000       0.17647059       0.16666667 </v>
   <v>       0.41666667       0.17647059       0.16666667 </v>
   <v>       0.45833333       0.17647059       0.16666667 </v>
   <v>       0.50000000       0.17647059       0.16666667 </v>
   <v>       0.00000000       0.23529412       0.16666667 </v>
   <v>       0.04166667       0.23529412       0.16666667 </v>
   <v>       0.08333333       0.23529412       0.16666667 </v>
   <v>       0.12500000       0.23529412       0.16666667 </v>
   <v>       0.16666667       0.23529412       0.16666667 </v>
   <v>       0.20833333       0.23529412       0.16666667 </v>
   <v>       0.25000000       0.23529412       0.16666667 </v>
   <v>       0.29166667       0.23529412       0.16666667 </v>
   <v>       0.33333333       0.23529412       0.16666667 </v>
   <v>       0.37500000       0.23529412       0.16666667 </v>
   <v>       0.41666667       0.23529412       0.16666667 </v>
   <v>       0.45833333       0.23529412       0.16666667 </v>
   <v>       0.50000000       0.23529412       0.16666667 </v>
   <v>       0.00000000       0.29411765       0.16666667 </v>
   <v>       0.04166667       0.29411765       0.16666667 </v>
   <v>       0.08333333       0.29411765       0.16666667 </v>
   <v>       0.12500000       0.29411765       0.16666667 </v>
   <v>       0.16666667       0.29411765       0.16666667 </v>
   <v>       0.20833333       0.29411765       0.16666667 </v>
   <v>       0.25000000       0.29411765       0.16666667 </v>
   <v>       0.29166667       0.29411765       0.16666667 </v>
   <v>       0.33333333       0.29411765       0.16666667 </v>
   <v>       0.37500000       0.29411765       0.16666667 </v>
   <v>       0.41666667       0.29411765       0.16666667 </v>
   <v>       0.45833333       0.29411765       0.16666667 </v>
   <v>       0.50000000       0.29411765       0.16666667 </v>
   <v>       0.00000000       0.35294118       0.16666667 </v>
   <v>       0.04166667       0.35294118       0.16666667 </v>
   <v>       0.08333333       0.35294118       0.16666667 </v>
   <v>       0.12500000       0.35294118       0.16666667 </v>
   <v>       0.16666667       0.35294118       0.16666667 </v>
   <v>       0.20833333       0.35294118       0.16666667 </v>
   <v>       0.25000000       0.35294118       0.16666667 </v>
   <v>       0.29166667       0.35294118       0.16666667 </v>
   <v>       0.33333333       0.35294118       0.16666667 </v>
   <v>       0.37500000       0.35294118       0.16666667 </v>
   <v>       0.41666667       0.35294118       0.16666667 </v>
   <v>       0.45833333       0.35294118       0.16666667 </v>
   <v>       0.50000000       0.35294118       0.16666667 </v>
   <v>       0.00000000       0.41176471       0.16666667 </v>
   <v>       0.04166667       0.41176471       0.16666667 </v>
   <v>       0.08333333       0.41176471       0.16666667 </v>
   <v>       0.12500000       0.41176471       0.16666667 </v>
   <v>       0.16666667       0.41176471       0.16666667 </v>
   <v>       0.20833333       0.41176471       0.16666667 </v>
   <v>       0.25000000       0.41176471       0.16666667 </v>
   <v>       0.29166667       0.41176471       0.16666667 </v>
   <v>       0.33333333       0.41176471       0.16666667 </v>
   <v>       0.37500000       0.41176471       0.16666667 </v>
   <v>       0.41666667       0.41176471       0.16666667 </v>
   <v>       0.45833333       0.41176471       0.16666667 </v>
   <v>       0.50000000       0.41176471       0.16666667 </v>
   <v>       0.00000000       0.47058824       0.16666667 </v>
   <v>       0.04166667       0.47058824       0.16666667 </v>
   <v>       0.08333333       0.47058824       0.16666667 </v>
   <v>       0.12500000       0.47058824       0.16666667 </v>
   <v>       0.16666667       0.47058824       0.16666667 </v>
   <v>       0.20833333       0.47058824       0.16666667 </v>
   <v>       0.25000000       0.47058824       0.16666667 </v>
   <v>       0.29166667       0.47058824       0.16666667 </v>
   <v>       0.33333333       0.47058824       0.16666667 </v>
   <v>       0.37500000       0.47058824       0.16666667 </v>
   <v>       0.41666667       0.47058824       0.16666667 </v>
   <v>       0.45833333       0.47058824       0.16666667 </v>
   <v>       0.50000000       0.47058824       0.16666667 </v>
   <v>       0.00000000       0.00000000       0.25000000 </v>
   <v>       0.04166667       0.00000000       0.25000000 </v>
   <v>       0.08333333       0.00000000       0.25000000 </v>
   <v>       0.12500000       0.00000000       0.25000000 </v>
   <v>       0.16666667       0.00000000       0.25000000 </v>
   <v>       0.20833333       0.00000000       0.25000000 </v>
   <v>       0.25000000       0.00000000       0.25000000 </v>
   <v>       0.29166667       0.00000000       0.25000000 </v>
   <v>       0.33333333       0.00000000       0.25000000 </v>
   <v>       0.37500000       0.00000000       0.25000000 </v>
   <v>       0.41666667       0.00000000       0.25000000 </v>
   <v>       0.45833333       0.00000000       0.25000000 </v>
   <v>       0.50000000       0.00000000       0.25000000 </v>
   <v>       0.00000000       0.05882353       0.25000000 </v>
   <v>       0.04166667       0.05882353       0.25000000 </v>
   <v>       0.08333333       0.05882353       0.25000000 </v>
   <v>       0.12500000       0.05882353       0.25000000 </v>
   <v>       0.16666667       0.05882353       0.25000000 </v>
   <v>       0.20833333       0.05882353       0.25000000 </v>
   <v>       0.25000000       0.05882353       0.25000000 </v>
   <v>       0.29166667       0.05882353       0.25000000 </v>
   <v>       0.33333333       0.05882353       0.25000000 </v>
   <v>       0.37500000       0.05882353       0.25000000 </v>
   <v>       0.41666667       0.05882353       0.25000000 </v>
   <v>       0.45833333       0.05882353       0.25000000 </v>
   <v>       0.50000000       0.05882353       0.25000000 </v>
   <v>       0.00000000       0.11764706       0.25000000 </v>
   <v>       0.04166667       0.11764706       0.25000000 </v>
   <v>       0.08333333       0.11764706       0.25000000 </v>
   <v>       0.12500000       0.11764706       0.25000000 </v>
   <v>       0.16666667       0.11764706       0.25000000 </v>
   <v>       0.20833333       0.11764706       0.25000000 </v>
   <v>       0.25000000       0.11764706       0.25000000 </v>
   <v>       0.29166667       0.11764706       0.25000000 </v>
   <v>       0.33333333       0.11764706       0.25000000 </v>
   <v>       0.37500000       0.11764706       0.25000000 </v>
   <v>       0.41666667       0.11764706       0.25000000 </v>
   <v>       0.45833333       0.11764706       0.25000000 </v>
   <v>       0.50000000       0.11764706       0.25000000 </v>
   <v>       0.00000000       0.17647059       0.25000000 </v>
   <v>       0.04166667       0.17647059       0.25000000 </v>
   <v>       0.08333333       0.17647059       0.25000000 </v>
   <v>       0.12500000       0.17647059       0.25000000 </v>
   <v>       0.16666667       0.17647059       0.25000000 </v>
   <v>       0.20833333       0.17647059       0.25000000 </v>
   <v>       0.25000000       0.17647059       0.25000000 </v>
   <v>       0.29166667       0.17647059       0.25000000 </v>
   <v>       0.33333333       0.17647059       0.25000000 </v>
   <v>       0.37500000       0.17647059       0.25000000 </v>
   <v>       0.41666667       0.17647059       0.25000000 </v>
   <v>       0.45833333       0.17647059       0.25000000 </v>
   <v>       0.50000000       0.17647059       0.25000000 </v>
   <v>       0.00000000       0.23529412       0.25000000 </v>
   <v>       0.04166667       0.23529412       0.25000000 </v>
   <v>       0.08333333       0.23529412       0.25000000 </v>
   <v>       0.12500000       0.23529412       0.25000000 </v>
   <v>       0.16666667       0.23529412       0.25000000 </v>
   <v>       0.20833333       0.23529412       0.25000000 </v>
   <v>       0.25000000       0.23529412       0.25000000 </v>
   <v>       0.29166667       0.23529412       0.25000000 </v>
   <v>       0.33333333       0.23529412       0.25000000 </v>
   <v>       0.37500000       0.23529412       0.25000000 </v>
   <v>       0.41666667       0.23529412       0.25000000 </v>
   <v>       0.45833333       0.23529412       0.25000000 </v>
   <v>       0.50000000       0.23529412       0.25000000 </v>
   <v>       0.00000000       0.29411765       0.25000000 </v>
   <v>       0.04166667       0.29411765       0.25000000 </v>
   <v>       0.08333333       0.29411765       0.25000000 </v>
   <v>       0.12500000       0.29411765       0.25000000 </v>
   <v>       0.16666667       0.29411765       0.25000000 </v>
   <v>       0.20833333       0.29411765       0.25000000 </v>
   <v>       0.25000000       0.29411765       0.25000000 </v>
   <v>       0.29166667       0.29411765       0.25000000 </v>
   <v>       0.33333333       0.29411765       0.25000000 </v>
   <v>       0.37500000       0.29411765       0.25000000 </v>
   <v>       0.41666667       0.29411765       0.25000000 </v>
   <v>       0.45833333       0.29411765       0.25000000 </v>
   <v>       0.50000000       0.29411765       0.25000000 </v>
   <v>       0.00000000       0.35294118       0.25000000 </v>
   <v>       0.04166667       0.35294118       0.25000000 </v>
   <v>       0.08333333       0.35294118       0.25000000 </v>
   <v>       0.12500000       0.35294118       0.25000000 </v>
   <v>       0.16666667       0.35294118       0.25000000 </v>
   <v>       0.20833333       0.35294118       0.25000000 </v>
   <v>       0.25000000       0.35294118       0.25000000 </v>
   <v>       0.29166667       0.35294118       0.25000000 </v>
   <v>       0.33333333       0.35294118       0.25000000 </v>
   <v>       0.37500000       0.35294118       0.25000000 </v>
   <v>       0.41666667       0.35294118       0.25000000 </v>
   <v>       0.45833333       0.35294118       0.25000000 </v>
   <v>       0.50000000       0.35294118       0.25000000 </v>
   <v>       0.00000000       0.41176471       0.25000000 </v>
   <v>       0.04166667       0.41176471       0.25000000 </v>
   <v>       0.08333333       0.41176471       0.25000000 </v>
   <v>       0.12500000       0.41176471       0.25000000 </v>
   <v>       0.16666667       0.41176471       0.25000000 </v>
   <v>       0.20833333       0.41176471       0.25000000 </v>
   <v>       0.25000000       0.41176471       0.25000000 </v>
   <v>       0.29166667       0.41176471       0.25000000 </v>
   <v>       0.33333333       0.41176471       0.25000000 </v>
   <v>       0.37500000       0.41176471       0.25000000 </v>
   <v>       0.41666667       0.41176471       0.25000000 </v>
   <v>       0.45833333       0.41176471       0.25000000 </v>
   <v>       0.50000000       0.41176471       0.25000000 </v>
   <v>       0.00000000       0.47058824       0.25000000 </v>
   <v>       0.04166667       0.47058824       0.25000000 </v>
   <v>       0.08333333       0.47058824       0.25000000 </v>
   <v>       0.12500000       0.47058824       0.25000000 </v>
   <v>       0.16666667       0.47058824       0.25000000 </v>
   <v>       0.20833333       0.47058824       0.25000000 </v>
   <v>       0.25000000       0.47058824       0.25000000 </v>
   <v>       0.29166667       0.47058824       0.25000000 </v>
   <v>       0.33333333       0.47058824       0.25000000 </v>
   <v>       0.37500000       0.47058824       0.25000000 </v>
   <v>       0.41666667       0.47058824       0.25000000 </v>
   <v>       0.45833333       0.47058824       0.25000000 </v>
   <v>       0.50000000       0.47058824       0.25000000 </v>
   <v>       0.00000000       0.00000000       0.33333333 </v>
   <v>       0.04166667       0.00000000       0.33333333 </v>
   <v>       0.08333333       0.00000000       0.33333333 </v>
   <v>       0.12500000       0.00000000       0.33333333 </v>
   <v>       0.16666667       0.00000000       0.33333333 </v>
   <v>       0.20833333       0.00000000       0.33333333 </v>
   <v>       0.25000000       0.00000000       0.33333333 </v>
   <v>       0.29166667       0.00000000       0.33333333 </v>
   <v>       0.33333333       0.00000000       0.33333333 </v>
   <v>       0.37500000       0.00000000       0.33333333 </v>
   <v>       0.41666667       0.00000000       0.33333333 </v>
   <v>       0.45833333       0.00000000       0.33333333 </v>
   <v>       0.50000000       0.00000000       0.33333333 </v>
   <v>       0.00000000       0.05882353       0.33333333 </v>
   <v>       0.04166667       0.05882353       0.33333333 </v>
   <v>       0.08333333       0.05882353       0.33333333 </v>
   <v>       0.12500000       0.05882353       0.33333333 </v>
   <v>       0.16666667       0.05882353       0.33333333 </v>
   <v>       0.20833333       0.05882353       0.33333333 </v>
   <v>       0.25000000       0.05882353       0.33333333 </v>
   <v>       0.29166667       0.05882353       0.33333333 </v>
   <v>       0.33333333       0.05882353       0.33333333 </v>
   <v>       0.37500000       0.05882353       0.33333333 </v>
   <v>       0.41666667       0.05882353       0.33333333 </v>
   <v>       0.45833333       0.05882353       0.33333333 </v>
   <v>       0.50000000       0.05882353       0.33333333 </v>
   <v>       0.00000000       0.11764706       0.33333333 </v>
   <v>       0.04166667       0.11764706       0.33333333 </v>
   <v>       0.08333333       0.11764706       0.33333333 </v>
   <v>       0.12500000       0.11764706       0.33333333 </v>
   <v>       0.16666667       0.11764706       0.33333333 </v>
   <v>       0.20833333       0.11764706       0.33333333 </v>
   <v>       0.25000000       0.11764706       0.33333333 </v>
   <v>       0.29166667       0.11764706       0.33333333 </v>
   <v>       0.33333333       0.11764706       0.33333333 </v>
   <v>       0.37500000       0.11764706       0.33333333 </v>
   <v>       0.41666667       0.11764706       0.33333333 </v>
   <v>       0.45833333       0.11764706       0.33333333 </v>
   <v>       0.50000000       0.11764706       0.33333333 </v>
   <v>       0.00000000       0.17647059       0.33333333 </v>
   <v>       0.04166667       0.17647059       0.33333333 </v>
   <v>       0.08333333       0.17647059       0.33333333 </v>
   <v>       0.12500000       0.17647059       0.33333333 </v>
   <v>       0.16666667       0.17647059       0.33333333 </v>
   <v>       0.20833333       0.17647059       0.33333333 </v>
   <v>       0.25000000       0.17647059       0.33333333 </v>
   <v>       0.29166667       0.17647059       0.33333333 </v>
   <v>       0.33333333       0.17647059       0.33333333 </v>
   <v>       0.37500000       0.17647059       0.33333333 </v>
   <v>       0.41666667       0.17647059       0.33333333 </v>
   <v>       0.45833333       0.17647059       0.33333333 </v>
   <v>       0.50000000       0.17647059       0.33333333 </v>
   <v>       0.00000000       0.23529412       0.33333333 </v>
   <v>       0.04166667       0.23529412       0.33333333 </v>
   <v>       0.08333333       0.23529412       0.33333333 </v>
   <v>       0.12500000       0.23529412       0.33333333 </v>
   <v>       0.16666667       0.23529412       0.33333333 </v>
   <v>       0.20833333       0.23529412       0.33333333 </v>
   <v>       0.25000000       0.23529412       0.33333333 </v>
   <v>       0.29166667       0.23529412       0.33333333 </v>
   <v>       0.33333333       0.23529412       0.33333333 </v>
   <v>       0.37500000       0.23529412       0.33333333 </v>
   <v>       0.41666667       0.23529412       0.33333333 </v>
   <v>       0.45833333       0.23529412       0.33333333 </v>
   <v>       0.50000000       0.23529412       0.33333333 </v>
   <v>       0.00000000       0.29411765       0.33333333 </v>
   <v>       0.04166667       0.29411765       0.33333333 </v>
   <v>       0.08333333       0.29411765       0.33333333 </v>
   <v>       0.12500000       0.29411765       0.33333333 </v>
   <v>       0.16666667       0.29411765       0.33333333 </v>
   <v>       0.20833333       0.29411765       0.33333333 </v>
   <v>       0.25000000       0.29411765       0.33333333 </v>
   <v>       0.29166667       0.29411765       0.33333333 </v>
   <v>       0.33333333       0.29411765       0.33333333 </v>
   <v>       0.37500000       0.29411765       0.33333333 </v>
   <v>       0.41666667       0.29411765       0.33333333 </v>
   <v>       0.45833333       0.29411765       0.33333333 </v>
   <v>       0.50000000       0.29411765       0.33333333 </v>
   <v>       0.00000000       0.35294118       0.33333333 </v>
   <v>       0.04166667       0.35294118       0.33333333 </v>
   <v>       0.08333333       0.35294118       0.33333333 </v>
   <v>       0.12500000       0.35294118       0.33333333 </v>
   <v>       0.16666667       0.35294118       0.33333333 </v>
   <v>       0.20833333       0.35294118       0.33333333 </v>
   <v>       0.25000000       0.35294118       0.33333333 </v>
   <v>       0.29166667       0.35294118       0.33333333 </v>
   <v>       0.33333333       0.35294118       0.33333333 </v>
   <v>       0.37500000       0.35294118       0.33333333 </v>
   <v>       0.41666667       0.35294118       0.33333333 </v>
   <v>       0.45833333       0.35294118       0.33333333 </v>
   <v>       0.50000000       0.35294118       0.33333333 </v>
   <v>       0.00000000       0.41176471       0.33333333 </v>
   <v>       0.04166667       0.41176471       0.33333333 </v>
   <v>       0.08333333       0.41176471       0.33333333 </v>
   <v>       0.12500000       0.41176471       0.33333333 </v>
   <v>       0.16666667       0.41176471       0.33333333 </v>
   <v>       0.20833333       0.41176471       0.33333333 </v>
   <v>       0.25000000       0.41176471       0.33333333 </v>
   <v>       0.29166667       0.41176471       0.33333333 </v>
   <v>       0.33333333       0.41176471       0.33333333 </v>
   <v>       0.37500000       0.41176471       0.33333333 </v>
   <v>       0.41666667       0.41176471       0.33333333 </v>
   <v>       0.45833333       0.41176471       0.33333333 </v>
   <v>       0.50000000       0.41176471       0.33333333 </v>
   <v>       0.00000000       0.47058824       0.33333333 </v>
   <v>       0.04166667       0.47058824       0.33333333 </v>
   <v>       0.08333333       0.47058824       0.33333333 </v>
   <v>       0.12500000       0.47058824       0.33333333 </v>
   <v>       0.16666667       0.47058824       0.33333333 </v>
   <v>       0.20833333       0.47058824       0.33333333 </v>
   <v>       0.25000000       0.47058824       0.33333333 </v>
   <v>       0.29166667       0.47058824       0.33333333 </v>
   <v>       0.33333333       0.47058824       0.33333333 </v>
   <v>       0.37500000       0.47058824       0.33333333 </v>
   <v>       0.41666667       0.47058824       0.33333333 </v>
   <v>       0.45833333       0.47058824       0.33333333 </v>
   <v>       0.50000000       0.47058824       0.33333333 </v>
   <v>       0.00000000       0.00000000       0.41666667 </v>
   <v>       0.04166667       0.00000000       0.41666667 </v>
   <v>       0.08333333       0.00000000       0.41666667 </v>
   <v>       0.12500000       0.00000000       0.41666667 </v>
   <v>       0.16666667       0.00000000       0.41666667 </v>
   <v>       0.20833333       0.00000000       0.41666667 </v>
   <v>       0.25000000       0.00000000       0.41666667 </v>
   <v>       0.29166667       0.00000000       0.41666667 </v>
   <v>       0.33333333       0.00000000       0.41666667 </v>
   <v>       0.37500000       0.00000000       0.41666667 </v>
   <v>       0.41666667       0.00000000       0.41666667 </v>
   <v>       0.45833333       0.00000000       0.41666667 </v>
   <v>       0.50000000       0.00000000       0.41666667 </v>
   <v>       0.00000000       0.05882353       0.41666667 </v>
   <v>       0.04166667       0.05882353       0.41666667 </v>
   <v>       0.08333333       0.05882353       0.41666667 </v>
   <v>       0.12500000       0.05882353       0.41666667 </v>
   <v>       0.16666667       0.05882353       0.41666667 </v>
   <v>       0.20833333       0.05882353       0.41666667 </v>
   <v>       0.25000000       0.05882353       0.41666667 </v>
   <v>       0.29166667       0.05882353       0.41666667 </v>
   <v>       0.33333333       0.05882353       0.41666667 </v>
   <v>       0.37500000       0.05882353       0.41666667 </v>
   <v>       0.41666667       0.05882353       0.41666667 </v>
   <v>       0.45833333       0.05882353       0.41666667 </v>
   <v>       0.50000000       0.05882353       0.41666667 </v>
   <v>       0.00000000       0.11764706       0.41666667 </v>
   <v>       0.04166667       0.11764706       0.41666667 </v>
   <v>       0.08333333       0.11764706       0.41666667 </v>
   <v>       0.12500000       0.11764706       0.41666667 </v>
   <v>       0.16666667       0.11764706       0.41666667 </v>
   <v>       0.20833333       0.11764706       0.41666667 </v>
   <v>       0.25000000       0.11764706       0.41666667 </v>
   <v>       0.29166667       0.11764706       0.41666667 </v>
   <v>       0.33333333       0.11764706       0.41666667 </v>
   <v>       0.37500000       0.11764706       0.41666667 </v>
   <v>       0.41666667       0.11764706       0.41666667 </v>
   <v>       0.45833333       0.11764706       0.41666667 </v>
   <v>       0.50000000       0.11764706       0.41666667 </v>
   <v>       0.00000000       0.17647059       0.41666667 </v>
   <v>       0.04166667       0.17647059       0.41666667 </v>
   <v>       0.08333333       0.17647059       0.41666667 </v>
   <v>       0.12500000       0.17647059       0.41666667 </v>
   <v>       0.16666667       0.17647059       0.41666667 </v>
   <v>       0.20833333       0.17647059       0.41666667 </v>
   <v>       0.25000000       0.17647059       0.41666667 </v>
   <v>       0.29166667       0.17647059       0.41666667 </v>
   <v>       0.33333333       0.17647059       0.41666667 </v>
   <v>       0.37500000       0.17647059       0.41666667 </v>
   <v>       0.41666667       0.17647059       0.41666667 </v>
   <v>       0.45833333       0.17647059       0.41666667 </v>
   <v>       0.50000000       0.17647059       0.41666667 </v>
   <v>       0.00000000       0.23529412       0.41666667 </v>
   <v>       0.04166667       0.23529412       0.41666667 </v>
   <v>       0.08333333       0.23529412       0.41666667 </v>
   <v>       0.12500000       0.23529412       0.41666667 </v>
   <v>       0.16666667       0.23529412       0.41666667 </v>
   <v>       0.20833333       0.23529412       0.41666667 </v>
   <v>       0.25000000       0.23529412       0.41666667 </v>
   <v>       0.29166667       0.23529412       0.41666667 </v>
   <v>       0.33333333       0.23529412       0.41666667 </v>
   <v>       0.37500000       0.23529412       0.41666667 </v>
   <v>       0.41666667       0.23529412       0.41666667 </v>
   <v>       0.45833333       0.23529412       0.41666667 </v>
   <v>       0.50000000       0.23529412       0.41666667 </v>
   <v>       0.00000000       0.29411765       0.41666667 </v>
   <v>       0.04166667       0.29411765       0.41666667 </v>
   <v>       0.08333333       0.29411765       0.41666667 </v>
   <v>       0.12500000       0.29411765       0.41666667 </v>
   <v>       0.16666667       0.29411765       0.41666667 </v>
   <v>       0.20833333       0.29411765       0.41666667 </v>
   <v>       0.25000000       0.29411765       0.41666667 </v>
   <v>       0.29166667       0.29411765       0.41666667 </v>
   <v>       0.33333333       0.29411765       0.41666667 </v>
   <v>       0.37500000       0.29411765       0.41666667 </v>
   <v>       0.41666667       0.29411765       0.41666667 </v>
   <v>       0.45833333       0.29411765       0.41666667 </v>
   <v>       0.50000000       0.29411765       0.41666667 </v>
   <v>       0.00000000       0.35294118       0.41666667 </v>
   <v>       0.04166667       0.35294118       0.41666667 </v>
   <v>       0.08333333       0.35294118       0.41666667 </v>
   <v>       0.12500000       0.35294118       0.41666667 </v>
   <v>       0.16666667       0.35294118       0.41666667 </v>
   <v>       0.20833333       0.35294118       0.41666667 </v>
   <v>       0.25000000       0.35294118       0.41666667 </v>
   <v>       0.29166667       0.35294118       0.41666667 </v>
   <v>       0.33333333       0.35294118       0.41666667 </v>
   <v>       0.37500000       0.35294118       0.41666667 </v>
   <v>       0.41666667       0.35294118       0.41666667 </v>
   <v>       0.45833333       0.35294118       0.41666667 </v>
   <v>       0.50000000       0.35294118       0.41666667 </v>
   <v>       0.00000000       0.41176471       0.41666667 </v>
   <v>       0.04166667       0.41176471       0.41666667 </v>
   <v>       0.08333333       0.41176471       0.41666667 </v>
   <v>       0.12500000       0.41176471       0.41666667 </v>
   <v>       0.16666667       0.41176471       0.41666667 </v>
   <v>       0.20833333       0.41176471       0.41666667 </v>
   <v>       0.25000000       0.41176471       0.41666667 </v>
   <v>       0.29166667       0.41176471       0.41666667 </v>
   <v>       0.33333333       0.41176471       0.41666667 </v>
   <v>       0.37500000       0.41176471       0.41666667 </v>
   <v>       0.41666667       0.41176471       0.41666667 </v>
   <v>       0.45833333       0.41176471       0.41666667 </v>
   <v>       0.50000000       0.41176471       0.41666667 </v>
   <v>       0.00000000       0.47058824       0.41666667 </v>
   <v>       0.04166667       0.47058824       0.41666667 </v>
   <v>       0.08333333       0.47058824       0.41666667 </v>
   <v>       0.12500000       0.47058824       0.41666667 </v>
   <v>       0.16666667       0.47058824       0.41666667 </v>
   <v>       0.20833333       0.47058824       0.41666667 </v>
   <v>       0.25000000       0.47058824       0.41666667 </v>
   <v>       0.29166667       0.47058824       0.41666667 </v>
   <v>       0.33333333       0.47058824       0.41666667 </v>
   <v>       0.37500000       0.47058824       0.41666667 </v>
   <v>       0.41666667       0.47058824       0.41666667 </v>
   <v>       0.45833333       0.47058824       0.41666667 </v>
   <v>       0.50000000       0.47058824       0.41666667 </v>
   <v>       0.00000000       0.00000000       0.50000000 </v>
   <v>       0.04166667       0.00000000       0.50000000 </v>
   <v>       0.08333333       0.00000000       0.50000000 </v>
   <v>       0.12500000       0.00000000       0.50000000 </v>
   <v>       0.16666667       0.00000000       0.50000000 </v>
   <v>       0.20833333       0.00000000       0.50000000 </v>
   <v>       0.25000000       0.00000000       0.50000000 </v>
   <v>       0.29166667       0.00000000       0.50000000 </v>
   <v>       0.33333333       0.00000000       0.50000000 </v>
   <v>       0.37500000       0.00000000       0.50000000 </v>
   <v>       0.41666667       0.00000000       0.50000000 </v>
   <v>       0.45833333       0.00000000       0.50000000 </v>
   <v>       0.50000000       0.00000000       0.50000000 </v>
   <v>       0.00000000       0.05882353       0.50000000 </v>
   <v>       0.04166667       0.05882353       0.50000000 </v>
   <v>       0.08333333       0.05882353       0.50000000 </v>
   <v>       0.12500000       0.05882353       0.50000000 </v>
   <v>       0.16666667       0.05882353       0.50000000 </v>
   <v>       0.20833333       0.05882353       0.50000000 </v>
   <v>       0.25000000       0.05882353       0.50000000 </v>
   <v>       0.29166667       0.05882353       0.50000000 </v>
   <v>       0.33333333       0.05882353       0.50000000 </v>
   <v>       0.37500000       0.05882353       0.50000000 </v>
   <v>       0.41666667       0.05882353       0.50000000 </v>
   <v>       0.45833333       0.05882353       0.50000000 </v>
   <v>       0.50000000       0.05882353       0.50000000 </v>
   <v>       0.00000000       0.11764706       0.50000000 </v>
   <v>       0.04166667       0.11764706       0.50000000 </v>
   <v>       0.08333333       0.11764706       0.50000000 </v>
   <v>       0.12500000       0.11764706       0.50000000 </v>
   <v>       0.16666667       0.11764706       0.50000000 </v>
   <v>       0.20833333       0.11764706       0.50000000 </v>
   <v>       0.25000000       0.11764706       0.50000000 </v>
   <v>       0.29166667       0.11764706       0.50000000 </v>
   <v>       0.33333333       0.11764706       0.50000000 </v>
   <v>       0.37500000       0.11764706       0.50000000 </v>
   <v>       0.41666667       0.11764706       0.50000000 </v>
   <v>       0.45833333       0.11764706       0.50000000 </v>
   <v>       0.50000000       0.11764706       0.50000000 </v>
   <v>       0.00000000       0.17647059       0.50000000 </v>
   <v>       0.04166667       0.17647059       0.50000000 </v>
   <v>       0.08333333       0.17647059       0.50000000 </v>
   <v>       0.12500000       0.17647059       0.50000000 </v>
   <v>       0.16666667       0.17647059       0.50000000 </v>
   <v>       0.20833333       0.17647059       0.50000000 </v>
   <v>       0.25000000       0.17647059       0.50000000 </v>
   <v>       0.29166667       0.17647059       0.50000000 </v>
   <v>       0.33333333       0.17647059       0.50000000 </v>
   <v>       0.37500000       0.17647059       0.50000000 </v>
   <v>       0.41666667       0.17647059       0.50000000 </v>
   <v>       0.45833333       0.17647059       0.50000000 </v>
   <v>       0.50000000       0.17647059       0.50000000 </v>
   <v>       0.00000000       0.23529412       0.50000000 </v>
   <v>       0.04166667       0.23529412       0.50000000 </v>
   <v>       0.08333333       0.23529412       0.50000000 </v>
   <v>       0.12500000       0.23529412       0.50000000 </v>
   <v>       0.16666667       0.23529412       0.50000000 </v>
   <v>       0.20833333       0.23529412       0.50000000 </v>
   <v>       0.25000000       0.23529412       0.50000000 </v>
   <v>       0.29166667       0.23529412       0.50000000 </v>
   <v>       0.33333333       0.23529412       0.50000000 </v>
   <v>       0.37500000       0.23529412       0.50000000 </v>
   <v>       0.41666667       0.23529412       0.50000000 </v>
   <v>       0.45833333       0.23529412       0.50000000 </v>
   <v>       0.50000000       0.23529412       0.50000000 </v>
   <v>       0.00000000       0.29411765       0.50000000 </v>
   <v>       0.04166667       0.29411765       0.50000000 </v>
   <v>       0.08333333       0.29411765       0.50000000 </v>
   <v>       0.12500000       0.29411765       0.50000000 </v>
   <v>       0.16666667       0.29411765       0.50000000 </v>
   <v>       0.20833333       0.29411765       0.50000000 </v>
   <v>       0.25000000       0.29411765       0.50000000 </v>
   <v>       0.29166667       0.29411765       0.50000000 </v>
   <v>       0.33333333       0.29411765       0.50000000 </v>
   <v>       0.37500000       0.29411765       0.50000000 </v>
   <v>       0.41666667       0.29411765       0.50000000 </v>
   <v>       0.45833333       0.29411765       0.50000000 </v>
   <v>       0.50000000       0.29411765       0.50000000 </v>
   <v>       0.00000000       0.35294118       0.50000000 </v>
   <v>       0.04166667       0.35294118       0.50000000 </v>
   <v>       0.08333333       0.35294118       0.50000000 </v>
   <v>       0.12500000       0.35294118       0.50000000 </v>
   <v>       0.16666667       0.35294118       0.50000000 </v>
   <v>       0.20833333       0.35294118       0.50000000 </v>
   <v>       0.25000000       0.35294118       0.50000000 </v>
   <v>       0.29166667       0.35294118       0.50000000 </v>
   <v>       0.33333333       0.35294118       0.50000000 </v>
   <v>       0.37500000       0.35294118       0.50000000 </v>
   <v>       0.41666667       0.35294118       0.50000000 </v>
   <v>       0.45833333       0.35294118       0.50000000 </v>
   <v>       0.50000000       0.35294118       0.50000000 </v>
   <v>       0.00000000       0.41176471       0.50000000 </v>
   <v>       0.04166667       0.41176471       0.50000000 </v>
   <v>       0.08333333       0.41176471       0.50000000 </v>
   <v>       0.12500000       0.41176471       0.50000000 </v>
   <v>       0.16666667       0.41176471       0.50000000 </v>
   <v>       0.20833333       0.41176471       0.50000000 </v>
   <v>       0.25000000       0.41176471       0.50000000 </v>
   <v>       0.29166667       0.41176471       0.50000000 </v>
   <v>       0.33333333       0.41176471       0.50000000 </v>
   <v>       0.37500000       0.41176471       0.50000000 </v>
   <v>       0.41666667       0.41176471       0.50000000 </v>
   <v>       0.45833333       0.41176471       0.50000000 </v>
   <v>       0.50000000       0.41176471       0.50000000 </v>
   <v>       0.00000000       0.47058824       0.50000000 </v>
   <v>       0.04166667       0.47058824       0.50000000 </v>
   <v>       0.08333333       0.47058824       0.50000000 </v>
   <v>       0.12500000       0.47058824       0.50000000 </v>
   <v>       0.16666667       0.47058824       0.50000000 </v>
   <v>       0.20833333       0.47058824       0.50000000 </v>
   <v>       0.25000000       0.47058824       0.50000000 </v>
   <v>       0.29166667       0.47058824       0.50000000 </v>
   <v>       0.33333333       0.47058824       0.50000000 </v>
   <v>       0.37500000       0.47058824       0.50000000 </v>
   <v>       0.41666667       0.47058824       0.50000000 </v>
   <v>       0.45833333       0.47058824       0.50000000 </v>
   <v>       0.50000000       0.47058824       0.50000000 </v>
  </varray>
  <varray name="weights" >
   <v>       0.00020425 </v>
   <v>       0.00040850 </v>
   <v>       0.00040850 </v>
   <v>       0.00040850 </v>
   <v>       0.00040850 </v>
   <v>       0.00040850 </v>
   <v>       0.00040850 </v>
   <v>       0.00040850 </v>
   <v>       0.00040850 </v>
   <v>       0.00040850 </v>
   <v>       0.00040850 </v>
   <v>       0.00040850 </v>
   <v>       0.00020425 </v>
   <v>       0.00040850 </v>
   <v>       0.00081699 </v>
   <v>       0.00081699 </v>
   <v>       0.00081699 </v>
   <v>       0.00081699 </v>
   <v>       0.00081699 </v>
   <v>       0.00081699 </v>
   <v>       0.00081699 </v>
   <v>       0.00081699 </v>
   <v>       0.00081699 </v>
   <v>       0.00081699 </v>
   <v>       0.00081699 </v>
   <v>       0.00040850 </v>
   <v>       0.00040850 </v>
   <v>       0.00081699 </v>
   <v>       0.00081699 </v>
   <v>       0.00081699 </v>
   <v>       0.00081699 </v>
   <v>       0.00081699 </v>
   <v>       0.00081699 </v>
   <v>       0.00081699 </v>
   <v>       0.00081699 </v>
   <v>       0.00081699 </v>
   <v>       0.00081699 </v>
   <v>       0.00081699 </v>
   <v>       0.00040850 </v>
   <v>       0.00040850 </v>
   <v>       0.00081699 </v>
   <v>       0.00081699 </v>
   <v>       0.00081699 </v>
   <v>       0.00081699 </v>
   <v>       0.00081699 </v>
   <v>       0.00081699 </v>
   <v>       0.00081699 </v>
   <v>       0.00081699 </v>
   <v>       0.00081699 </v>
   <v>       0.00081699 </v>
   <v>       0.00081699 </v>
   <v>       0.00040850 </v>
   <v>       0.00040850 </v>
   <v>       0.00081699 </v>
   <v>       0.00081699 </v>
   <v>       0.00081699 </v>
   <v>       0.00081699 </v>
   <v>       0.00081699 </v>
   <v>       0.00081699 </v>
   <v>       0.00081699 </v>
   <v>       0.00081699 </v>
   <v>       0.00081699 </v>
   <v>       0.00081699 </v>
   <v>       0.00081699 </v>
   <v>       0.00040850 </v>
   <v>       0.00040850 </v>
   <v>       0.00081699 </v>
   <v>       0.00081699 </v>
   <v>       0.00081699 </v>
   <v>       0.00081699 </v>
   <v>       0.00081699 </v>
   <v>       0.00081699 </v>
   <v>       0.00081699 </v>
   <v>       0.00081699 </v>
   <v>       0.00081699 </v>
   <v>       0.00081699 </v>
   <v>       0.00081699 </v>
   <v>       0.00040850 </v>
   <v>       0.00040850 </v>
   <v>       0.00081699 </v>
   <v>       0.00081699 </v>
   <v>       0.00081699 </v>
   <v>       0.00081699 </v>
   <v>       0.00081699 </v>
   <v>       0.00081699 </v>
   <v>       0.00081699 </v>
   <v>       0.00081699 </v>
   <v>       0.00081699 </v>
   <v>       0.00081699 </v>
   <v>       0.00081699 </v>
   <v>       0.00040850 </v>
   <v>       0.00040850 </v>
   <v>       0.00081699 </v>
   <v>       0.00081699 </v>
   <v>       0.00081699 </v>
   <v>       0.00081699 </v>
   <v>       0.00081699 </v>
   <v>       0.00081699 </v>
   <v>       0.00081699 </v>
   <v>       0.00081699 </v>
   <v>       0.00081699 </v>
   <v>       0.00081699 </v>
   <v>       0.00081699 </v>
   <v>       0.00040850 </v>
   <v>       0.00040850 </v>
   <v>       0.00081699 </v>
   <v>       0.00081699 </v>
   <v>       0.00081699 </v>
   <v>       0.00081699 </v>
   <v>       0.00081699 </v>
   <v>       0.00081699 </v>
   <v>       0.00081699 </v>
   <v>       0.00081699 </v>
   <v>       0.00081699 </v>
   <v>       0.00081699 </v>
   <v>       0.00081699 </v>
   <v>       0.00040850 </v>
   <v>       0.00040850 </v>
   <v>       0.00081699 </v>
   <v>       0.00081699 </v>
   <v>       0.00081699 </v>
   <v>       0.00081699 </v>
   <v>       0.00081699 </v>
   <v>       0.00081699 </v>
   <v>       0.00081699 </v>
   <v>       0.00081699 </v>
   <v>       0.00081699 </v>
   <v>       0.00081699 </v>
   <v>       0.00081699 </v>
   <v>       0.00040850 </v>
   <v>       0.00081699 </v>
   <v>       0.00163399 </v>
   <v>       0.00163399 </v>
   <v>       0.00163399 </v>
   <v>       0.00163399 </v>
   <v>       0.00163399 </v>
   <v>       0.00163399 </v>
   <v>       0.00163399 </v>
   <v>       0.00163399 </v>
   <v>       0.00163399 </v>
   <v>       0.00163399 </v>
   <v>       0.00163399 </v>
   <v>       0.00081699 </v>
   <v>       0.00081699 </v>
   <v>       0.00163399 </v>
   <v>       0.00163399 </v>
   <v>       0.00163399 </v>
   <v>       0.00163399 </v>
   <v>       0.00163399 </v>
   <v>       0.00163399 </v>
   <v>       0.00163399 </v>
   <v>       0.00163399 </v>
   <v>       0.00163399 </v>
   <v>       0.00163399 </v>
   <v>       0.00163399 </v>
   <v>       0.00081699 </v>
   <v>       0.00081699 </v>
   <v>       0.00163399 </v>
   <v>       0.00163399 </v>
   <v>       0.00163399 </v>
   <v>       0.00163399 </v>
   <v>       0.00163399 </v>
   <v>       0.00163399 </v>
   <v>       0.00163399 </v>
   <v>       0.00163399 </v>
   <v>       0.00163399 </v>
   <v>       0.00163399 </v>
   <v>       0.00163399 </v>
   <v>       0.00081699 </v>
   <v>       0.00081699 </v>
   <v>       0.00163399 </v>
   <v>       0.00163399 </v>
   <v>       0.00163399 </v>
   <v>       0.00163399 </v>
   <v>       0.00163399 </v>
   <v>       0.00163399 </v>
   <v>       0.00163399 </v>
   <v>       0.00163399 </v>
   <v>       0.00163399 </v>
   <v>       0.00163399 </v>
   <v>       0.00163399 </v>
   <v>       0.00081699 </v>
   <v>       0.00081699 </v>
   <v>       0.00163399 </v>
   <v>       0.00163399 </v>
   <v>       0.00163399 </v>
   <v>       0.00163399 </v>
   <v>       0.00163399 </v>
   <v>       0.00163399 </v>
   <v>       0.00163399 </v>
   <v>       0.00163399 </v>
   <v>       0.00163399 </v>
   <v>       0.00163399 </v>
   <v>       0.00163399 </v>
   <v>       0.00081699 </v>
   <v>       0.00081699 </v>
   <v>       0.00163399 </v>
   <v>       0.00163399 </v>
   <v>       0.00163399 </v>
   <v>       0.00163399 </v>
   <v>       0.00163399 </v>
   <v>       0.00163399 </v>
   <v>       0.00163399 </v>
   <v>       0.00163399 </v>
   <v>       0.00163399 </v>
   <v>       0.00163399 </v>
   <v>       0.00163399 </v>
   <v>       0.00081699 </v>
   <v>       0.00081699 </v>
   <v>       0.00163399 </v>
   <v>       0.00163399 </v>
   <v>       0.00163399 </v>
   <v>       0.00163399 </v>
   <v>       0.00163399 </v>
   <v>       0.00163399 </v>
   <v>       0.00163399 </v>
   <v>       0.00163399 </v>
   <v>       0.00163399 </v>
   <v>       0.00163399 </v>
   <v>       0.00163399 </v>
   <v>       0.00081699 </v>
   <v>       0.00081699 </v>
   <v>       0.00163399 </v>
   <v>       0.00163399 </v>
   <v>       0.00163399 </v>
   <v>       0.00163399 </v>
   <v>       0.00163399 </v>
   <v>       0.00163399 </v>
   <v>       0.00163399 </v>
   <v>       0.00163399 </v>
   <v>       0.00163399 </v>
   <v>       0.00163399 </v>
   <v>       0.00163399 </v>
   <v>       0.00081699 </v>
   <v>       0.00040850 </v>
   <v>       0.00081699 </v>
   <v>       0.00081699 </v>
   <v>       0.00081699 </v>
   <v>       0.00081699 </v>
   <v>       0.00081699 </v>
   <v>       0.00081699 </v>
   <v>       0.00081699 </v>
   <v>       0.00081699 </v>
   <v>       0.00081699 </v>
   <v>       0.00081699 </v>
   <v>       0.00081699 </v>
   <v>       0.00040850 </v>
   <v>       0.00081699 </v>
   <v>       0.00163399 </v>
   <v>       0.00163399 </v>
   <v>       0.00163399 </v>
   <v>       0.00163399 </v>
   <v>       0.00163399 </v>
   <v>       0.00163399 </v>
   <v>       0.00163399 </v>
   <v>       0.00163399 </v>
   <v>       0.00163399 </v>
   <v>       0.00163399 </v>
   <v>       0.00163399 </v>
   <v>       0.00081699 </v>
   <v>       0.00081699 </v>
   <v>       0.00163399 </v>
   <v>       0.00163399 </v>
   <v>       0.00163399 </v>
   <v>       0.00163399 </v>
   <v>       0.00163399 </v>
   <v>       0.00163399 </v>
   <v>       0.00163399 </v>
   <v>       0.00163399 </v>
   <v>       0.00163399 </v>
   <v>       0.00163399 </v>
   <v>       0.00163399 </v>
   <v>       0.00081699 </v>
   <v>       0.00081699 </v>
   <v>       0.00163399 </v>
   <v>       0.00163399 </v>
   <v>       0.00163399 </v>
   <v>       0.00163399 </v>
   <v>       0.00163399 </v>
   <v>       0.00163399 </v>
   <v>       0.00163399 </v>
   <v>       0.00163399 </v>
   <v>       0.00163399 </v>
   <v>       0.00163399 </v>
   <v>       0.00163399 </v>
   <v>       0.00081699 </v>
   <v>       0.00081699 </v>
   <v>       0.00163399 </v>
   <v>       0.00163399 </v>
   <v>       0.00163399 </v>
   <v>       0.00163399 </v>
   <v>       0.00163399 </v>
   <v>       0.00163399 </v>
   <v>       0.00163399 </v>
   <v>       0.00163399 </v>
   <v>       0.00163399 </v>
   <v>       0.00163399 </v>
   <v>       0.00163399 </v>
   <v>       0.00081699 </v>
   <v>       0.00081699 </v>
   <v>       0.00163399 </v>
   <v>       0.00163399 </v>
   <v>       0.00163399 </v>
   <v>       0.00163399 </v>
   <v>       0.00163399 </v>
   <v>       0.00163399 </v>
   <v>       0.00163399 </v>
   <v>       0.00163399 </v>
   <v>       0.00163399 </v>
   <v>       0.00163399 </v>
   <v>       0.00163399 </v>
   <v>       0.00081699 </v>
   <v>       0.00081699 </v>
   <v>       0.00163399 </v>
   <v>       0.00163399 </v>
   <v>       0.00163399 </v>
   <v>       0.00163399 </v>
   <v>       0.00163399 </v>
   <v>       0.00163399 </v>
   <v>       0.00163399 </v>
   <v>       0.00163399 </v>
   <v>       0.00163399 </v>
   <v>       0.00163399 </v>
   <v>       0.00163399 </v>
   <v>       0.00081699 </v>
   <v>       0.00081699 </v>
   <v>       0.00163399 </v>
   <v>       0.00163399 </v>
   <v>       0.00163399 </v>
   <v>       0.00163399 </v>
   <v>       0.00163399 </v>
   <v>       0.00163399 </v>
   <v>       0.00163399 </v>
   <v>       0.00163399 </v>
   <v>       0.00163399 </v>
   <v>       0.00163399 </v>
   <v>       0.00163399 </v>
   <v>       0.00081699 </v>
   <v>       0.00081699 </v>
   <v>       0.00163399 </v>
   <v>       0.00163399 </v>
   <v>       0.00163399 </v>
   <v>       0.00163399 </v>
   <v>       0.00163399 </v>
   <v>       0.00163399 </v>
   <v>       0.00163399 </v>
   <v>       0.00163399 </v>
   <v>       0.00163399 </v>
   <v>       0.00163399 </v>
   <v>       0.00163399 </v>
   <v>       0.00081699 </v>
   <v>       0.00040850 </v>
   <v>       0.00081699 </v>
   <v>       0.00081699 </v>
   <v>       0.00081699 </v>
   <v>       0.00081699 </v>
   <v>       0.00081699 </v>
   <v>       0.00081699 </v>
   <v>       0.00081699 </v>
   <v>       0.00081699 </v>
   <v>       0.00081699 </v>
   <v>       0.00081699 </v>
   <v>       0.00081699 </v>
   <v>       0.00040850 </v>
   <v>       0.00081699 </v>
   <v>       0.00163399 </v>
   <v>       0.00163399 </v>
   <v>       0.00163399 </v>
   <v>       0.00163399 </v>
   <v>       0.00163399 </v>
   <v>       0.00163399 </v>
   <v>       0.00163399 </v>
   <v>       0.00163399 </v>
   <v>       0.00163399 </v>
   <v>       0.00163399 </v>
   <v>       0.00163399 </v>
   <v>       0.00081699 </v>
   <v>       0.00081699 </v>
   <v>       0.00163399 </v>
   <v>       0.00163399 </v>
   <v>       0.00163399 </v>
   <v>       0.00163399 </v>
   <v>       0.00163399 </v>
   <v>       0.00163399 </v>
   <v>       0.00163399 </v>
   <v>       0.00163399 </v>
   <v>       0.00163399 </v>
   <v>       0.00163399 </v>
   <v>       0.00163399 </v>
   <v>       0.00081699 </v>
   <v>       0.00081699 </v>
   <v>       0.00163399 </v>
   <v>       0.00163399 </v>
   <v>       0.00163399 </v>
   <v>       0.00163399 </v>
   <v>       0.00163399 </v>
   <v>       0.00163399 </v>
   <v>       0.00163399 </v>
   <v>       0.00163399 </v>
   <v>       0.00163399 </v>
   <v>       0.00163399 </v>
   <v>       0.00163399 </v>
   <v>       0.00081699 </v>
   <v>       0.00081699 </v>
   <v>       0.00163399 </v>
   <v>       0.00163399 </v>
   <v>       0.00163399 </v>
   <v>       0.00163399 </v>
   <v>       0.00163399 </v>
   <v>       0.00163399 </v>
   <v>       0.00163399 </v>
   <v>       0.00163399 </v>
   <v>       0.00163399 </v>
   <v>       0.00163399 </v>
   <v>       0.00163399 </v>
   <v>       0.00081699 </v>
   <v>       0.00081699 </v>
   <v>       0.00163399 </v>
   <v>       0.00163399 </v>
   <v>       0.00163399 </v>
   <v>       0.00163399 </v>
   <v>       0.00163399 </v>
   <v>       0.00163399 </v>
   <v>       0.00163399 </v>
   <v>       0.00163399 </v>
   <v>       0.00163399 </v>
   <v>       0.00163399 </v>
   <v>       0.00163399 </v>
   <v>       0.00081699 </v>
   <v>       0.00081699 </v>
   <v>       0.00163399 </v>
   <v>       0.00163399 </v>
   <v>       0.00163399 </v>
   <v>       0.00163399 </v>
   <v>       0.00163399 </v>
   <v>       0.00163399 </v>
   <v>       0.00163399 </v>
   <v>       0.00163399 </v>
   <v>       0.00163399 </v>
   <v>       0.00163399 </v>
   <v>       0.00163399 </v>
   <v>       0.00081699 </v>
   <v>       0.00081699 </v>
   <v>       0.00163399 </v>
   <v>       0.00163399 </v>
   <v>       0.00163399 </v>
   <v>       0.00163399 </v>
   <v>       0.00163399 </v>
   <v>       0.00163399 </v>
   <v>       0.00163399 </v>
   <v>       0.00163399 </v>
   <v>       0.00163399 </v>
   <v>       0.00163399 </v>
   <v>       0.00163399 </v>
   <v>       0.00081699 </v>
   <v>       0.00081699 </v>
   <v>       0.00163399 </v>
   <v>       0.00163399 </v>
   <v>       0.00163399 </v>
   <v>       0.00163399 </v>
   <v>       0.00163399 </v>
   <v>       0.00163399 </v>
   <v>       0.00163399 </v>
   <v>       0.00163399 </v>
   <v>       0.00163399 </v>
   <v>       0.00163399 </v>
   <v>       0.00163399 </v>
   <v>       0.00081699 </v>
   <v>       0.00040850 </v>
   <v>       0.00081699 </v>
   <v>       0.00081699 </v>
   <v>       0.00081699 </v>
   <v>       0.00081699 </v>
   <v>       0.00081699 </v>
   <v>       0.00081699 </v>
   <v>       0.00081699 </v>
   <v>       0.00081699 </v>
   <v>       0.00081699 </v>
   <v>       0.00081699 </v>
   <v>       0.00081699 </v>
   <v>       0.00040850 </v>
   <v>       0.00081699 </v>
   <v>       0.00163399 </v>
   <v>       0.00163399 </v>
   <v>       0.00163399 </v>
   <v>       0.00163399 </v>
   <v>       0.00163399 </v>
   <v>       0.00163399 </v>
   <v>       0.00163399 </v>
   <v>       0.00163399 </v>
   <v>       0.00163399 </v>
   <v>       0.00163399 </v>
   <v>       0.00163399 </v>
   <v>       0.00081699 </v>
   <v>       0.00081699 </v>
   <v>       0.00163399 </v>
   <v>       0.00163399 </v>
   <v>       0.00163399 </v>
   <v>       0.00163399 </v>
   <v>       0.00163399 </v>
   <v>       0.00163399 </v>
   <v>       0.00163399 </v>
   <v>       0.00163399 </v>
   <v>       0.00163399 </v>
   <v>       0.00163399 </v>
   <v>       0.00163399 </v>
   <v>       0.00081699 </v>
   <v>       0.00081699 </v>
   <v>       0.00163399 </v>
   <v>       0.00163399 </v>
   <v>       0.00163399 </v>
   <v>       0.00163399 </v>
   <v>       0.00163399 </v>
   <v>       0.00163399 </v>
   <v>       0.00163399 </v>
   <v>       0.00163399 </v>
   <v>       0.00163399 </v>
   <v>       0.00163399 </v>
   <v>       0.00163399 </v>
   <v>       0.00081699 </v>
   <v>       0.00081699 </v>
   <v>       0.00163399 </v>
   <v>       0.00163399 </v>
   <v>       0.00163399 </v>
   <v>       0.00163399 </v>
   <v>       0.00163399 </v>
   <v>       0.00163399 </v>
   <v>       0.00163399 </v>
   <v>       0.00163399 </v>
   <v>       0.00163399 </v>
   <v>       0.00163399 </v>
   <v>       0.00163399 </v>
   <v>       0.00081699 </v>
   <v>       0.00081699 </v>
   <v>       0.00163399 </v>
   <v>       0.00163399 </v>
   <v>       0.00163399 </v>
   <v>       0.00163399 </v>
   <v>       0.00163399 </v>
   <v>       0.00163399 </v>
   <v>       0.00163399 </v>
   <v>       0.00163399 </v>
   <v>       0.00163399 </v>
   <v>       0.00163399 </v>
   <v>       0.00163399 </v>
   <v>       0.00081699 </v>
   <v>       0.00081699 </v>
   <v>       0.00163399 </v>
   <v>       0.00163399 </v>
   <v>       0.00163399 </v>
   <v>       0.00163399 </v>
   <v>       0.00163399 </v>
   <v>       0.00163399 </v>
   <v>       0.00163399 </v>
   <v>       0.00163399 </v>
   <v>       0.00163399 </v>
   <v>       0.00163399 </v>
   <v>       0.00163399 </v>
   <v>       0.00081699 </v>
   <v>       0.00081699 </v>
   <v>       0.00163399 </v>
   <v>       0.00163399 </v>
   <v>       0.00163399 </v>
   <v>       0.00163399 </v>
   <v>       0.00163399 </v>
   <v>       0.00163399 </v>
   <v>       0.00163399 </v>
   <v>       0.00163399 </v>
   <v>       0.00163399 </v>
   <v>       0.00163399 </v>
   <v>       0.00163399 </v>
   <v>       0.00081699 </v>
   <v>       0.00081699 </v>
   <v>       0.00163399 </v>
   <v>       0.00163399 </v>
   <v>       0.00163399 </v>
   <v>       0.00163399 </v>
   <v>       0.00163399 </v>
   <v>       0.00163399 </v>
   <v>       0.00163399 </v>
   <v>       0.00163399 </v>
   <v>       0.00163399 </v>
   <v>       0.00163399 </v>
   <v>       0.00163399 </v>
   <v>       0.00081699 </v>
   <v>       0.00040850 </v>
   <v>       0.00081699 </v>
   <v>       0.00081699 </v>
   <v>       0.00081699 </v>
   <v>       0.00081699 </v>
   <v>       0.00081699 </v>
   <v>       0.00081699 </v>
   <v>       0.00081699 </v>
   <v>       0.00081699 </v>
   <v>       0.00081699 </v>
   <v>       0.00081699 </v>
   <v>       0.00081699 </v>
   <v>       0.00040850 </v>
   <v>       0.00081699 </v>
   <v>       0.00163399 </v>
   <v>       0.00163399 </v>
   <v>       0.00163399 </v>
   <v>       0.00163399 </v>
   <v>       0.00163399 </v>
   <v>       0.00163399 </v>
   <v>       0.00163399 </v>
   <v>       0.00163399 </v>
   <v>       0.00163399 </v>
   <v>       0.00163399 </v>
   <v>       0.00163399 </v>
   <v>       0.00081699 </v>
   <v>       0.00081699 </v>
   <v>       0.00163399 </v>
   <v>       0.00163399 </v>
   <v>       0.00163399 </v>
   <v>       0.00163399 </v>
   <v>       0.00163399 </v>
   <v>       0.00163399 </v>
   <v>       0.00163399 </v>
   <v>       0.00163399 </v>
   <v>       0.00163399 </v>
   <v>       0.00163399 </v>
   <v>       0.00163399 </v>
   <v>       0.00081699 </v>
   <v>       0.00081699 </v>
   <v>       0.00163399 </v>
   <v>       0.00163399 </v>
   <v>       0.00163399 </v>
   <v>       0.00163399 </v>
   <v>       0.00163399 </v>
   <v>       0.00163399 </v>
   <v>       0.00163399 </v>
   <v>       0.00163399 </v>
   <v>       0.00163399 </v>
   <v>       0.00163399 </v>
   <v>       0.00163399 </v>
   <v>       0.00081699 </v>
   <v>       0.00081699 </v>
   <v>       0.00163399 </v>
   <v>       0.00163399 </v>
   <v>       0.00163399 </v>
   <v>       0.00163399 </v>
   <v>       0.00163399 </v>
   <v>       0.00163399 </v>
   <v>       0.00163399 </v>
   <v>       0.00163399 </v>
   <v>       0.00163399 </v>
   <v>       0.00163399 </v>
   <v>       0.00163399 </v>
   <v>       0.00081699 </v>
   <v>       0.00081699 </v>
   <v>       0.00163399 </v>
   <v>       0.00163399 </v>
   <v>       0.00163399 </v>
   <v>       0.00163399 </v>
   <v>       0.00163399 </v>
   <v>       0.00163399 </v>
   <v>       0.00163399 </v>
   <v>       0.00163399 </v>
   <v>       0.00163399 </v>
   <v>       0.00163399 </v>
   <v>       0.00163399 </v>
   <v>       0.00081699 </v>
   <v>       0.00081699 </v>
   <v>       0.00163399 </v>
   <v>       0.00163399 </v>
   <v>       0.00163399 </v>
   <v>       0.00163399 </v>
   <v>       0.00163399 </v>
   <v>       0.00163399 </v>
   <v>       0.00163399 </v>
   <v>       0.00163399 </v>
   <v>       0.00163399 </v>
   <v>       0.00163399 </v>
   <v>       0.00163399 </v>
   <v>       0.00081699 </v>
   <v>       0.00081699 </v>
   <v>       0.00163399 </v>
   <v>       0.00163399 </v>
   <v>       0.00163399 </v>
   <v>       0.00163399 </v>
   <v>       0.00163399 </v>
   <v>       0.00163399 </v>
   <v>       0.00163399 </v>
   <v>       0.00163399 </v>
   <v>       0.00163399 </v>
   <v>       0.00163399 </v>
   <v>       0.00163399 </v>
   <v>       0.00081699 </v>
   <v>       0.00081699 </v>
   <v>       0.00163399 </v>
   <v>       0.00163399 </v>
   <v>       0.00163399 </v>
   <v>       0.00163399 </v>
   <v>       0.00163399 </v>
   <v>       0.00163399 </v>
   <v>       0.00163399 </v>
   <v>       0.00163399 </v>
   <v>       0.00163399 </v>
   <v>       0.00163399 </v>
   <v>       0.00163399 </v>
   <v>       0.00081699 </v>
   <v>       0.00020425 </v>
   <v>       0.00040850 </v>
   <v>       0.00040850 </v>
   <v>       0.00040850 </v>
   <v>       0.00040850 </v>
   <v>       0.00040850 </v>
   <v>       0.00040850 </v>
   <v>       0.00040850 </v>
   <v>       0.00040850 </v>
   <v>       0.00040850 </v>
   <v>       0.00040850 </v>
   <v>       0.00040850 </v>
   <v>       0.00020425 </v>
   <v>       0.00040850 </v>
   <v>       0.00081699 </v>
   <v>       0.00081699 </v>
   <v>       0.00081699 </v>
   <v>       0.00081699 </v>
   <v>       0.00081699 </v>
   <v>       0.00081699 </v>
   <v>       0.00081699 </v>
   <v>       0.00081699 </v>
   <v>       0.00081699 </v>
   <v>       0.00081699 </v>
   <v>       0.00081699 </v>
   <v>       0.00040850 </v>
   <v>       0.00040850 </v>
   <v>       0.00081699 </v>
   <v>       0.00081699 </v>
   <v>       0.00081699 </v>
   <v>       0.00081699 </v>
   <v>       0.00081699 </v>
   <v>       0.00081699 </v>
   <v>       0.00081699 </v>
   <v>       0.00081699 </v>
   <v>       0.00081699 </v>
   <v>       0.00081699 </v>
   <v>       0.00081699 </v>
   <v>       0.00040850 </v>
   <v>       0.00040850 </v>
   <v>       0.00081699 </v>
   <v>       0.00081699 </v>
   <v>       0.00081699 </v>
   <v>       0.00081699 </v>
   <v>       0.00081699 </v>
   <v>       0.00081699 </v>
   <v>       0.00081699 </v>
   <v>       0.00081699 </v>
   <v>       0.00081699 </v>
   <v>       0.00081699 </v>
   <v>       0.00081699 </v>
   <v>       0.00040850 </v>
   <v>       0.00040850 </v>
   <v>       0.00081699 </v>
   <v>       0.00081699 </v>
   <v>       0.00081699 </v>
   <v>       0.00081699 </v>
   <v>       0.00081699 </v>
   <v>       0.00081699 </v>
   <v>       0.00081699 </v>
   <v>       0.00081699 </v>
   <v>       0.00081699 </v>
   <v>       0.00081699 </v>
   <v>       0.00081699 </v>
   <v>       0.00040850 </v>
   <v>       0.00040850 </v>
   <v>       0.00081699 </v>
   <v>       0.00081699 </v>
   <v>       0.00081699 </v>
   <v>       0.00081699 </v>
   <v>       0.00081699 </v>
   <v>       0.00081699 </v>
   <v>       0.00081699 </v>
   <v>       0.00081699 </v>
   <v>       0.00081699 </v>
   <v>       0.00081699 </v>
   <v>       0.00081699 </v>
   <v>       0.00040850 </v>
   <v>       0.00040850 </v>
   <v>       0.00081699 </v>
   <v>       0.00081699 </v>
   <v>       0.00081699 </v>
   <v>       0.00081699 </v>
   <v>       0.00081699 </v>
   <v>       0.00081699 </v>
   <v>       0.00081699 </v>
   <v>       0.00081699 </v>
   <v>       0.00081699 </v>
   <v>       0.00081699 </v>
   <v>       0.00081699 </v>
   <v>       0.00040850 </v>
   <v>       0.00040850 </v>
   <v>       0.00081699 </v>
   <v>       0.00081699 </v>
   <v>       0.00081699 </v>
   <v>       0.00081699 </v>
   <v>       0.00081699 </v>
   <v>       0.00081699 </v>
   <v>       0.00081699 </v>
   <v>       0.00081699 </v>
   <v>       0.00081699 </v>
   <v>       0.00081699 </v>
   <v>       0.00081699 </v>
   <v>       0.00040850 </v>
   <v>       0.00040850 </v>
   <v>       0.00081699 </v>
   <v>       0.00081699 </v>
   <v>       0.00081699 </v>
   <v>       0.00081699 </v>
   <v>       0.00081699 </v>
   <v>       0.00081699 </v>
   <v>       0.00081699 </v>
   <v>       0.00081699 </v>
   <v>       0.00081699 </v>
   <v>       0.00081699 </v>
   <v>       0.00081699 </v>
   <v>       0.00040850 </v>
  </varray>
 </kpoints>
 <parameters>
  <separator name="general" >
   <i type="string" name="SYSTEM">unknown system</i>
   <i type="logical" name="LCOMPAT"> F  </i>
  </separator>
  <separator name="electronic" >
   <i type="string" name="PREC">accura</i>
   <i name="ENMAX">    500.00000000</i>
   <i name="ENAUG">    412.49600000</i>
   <i name="EDIFF">      0.00000100</i>
   <i type="int" name="IALGO">    68</i>
   <i type="int" name="IWAVPR">    11</i>
   <i type="int" name="NBANDS">    28</i>
   <i name="NELECT">     44.00000000</i>
   <i type="int" name="TURBO">     0</i>
   <i type="int" name="IRESTART">     0</i>
   <i type="int" name="NREBOOT">     0</i>
   <i type="int" name="NMIN">     0</i>
   <i name="EREF">      0.00000000</i>
   <separator name="electronic smearing" >
    <i type="int" name="ISMEAR">     1</i>
    <i name="SIGMA">      0.30000000</i>
    <i name="KSPACING">      0.50000000</i>
    <i type="logical" name="KGAMMA"> T  </i>
   </separator>
   <separator name="electronic projectors" >
    <i type="logical" name="LREAL"> F  </i>
    <v name="ROPT">      0.00000000      0.00000000</v>
    <i type="int" name="LMAXPAW">  -100</i>
    <i type="int" name="LMAXMIX">     2</i>
    <i type="logical" name="NLSPLINE"> F  </i>
   </separator>
   <separator name="electronic startup" >
    <i type="int" name="ISTART">     0</i>
    <i type="int" name="ICHARG">     2</i>
    <i type="int" name="INIWAV">     1</i>
   </separator>
   <separator name="electronic spin" >
    <i type="int" name="ISPIN">     1</i>
    <i type="logical" name="LNONCOLLINEAR"> F  </i>
    <v name="MAGMOM">      1.00000000      1.00000000      1.00000000      1.00000000</v>
    <i name="NUPDOWN">     -1.00000000</i>
    <i type="logical" name="LSORBIT"> F  </i>
    <v name="SAXIS">      0.00000000      0.00000000      1.00000000</v>
    <i type="logical" name="LSPIRAL"> F  </i>
    <v name="QSPIRAL">      0.00000000      0.00000000      0.00000000</v>
    <i type="logical" name="LZEROZ"> F  </i>
   </separator>
   <separator name="electronic exchange-correlation" >
    <i type="logical" name="LASPH"> F  </i>
    <i type="logical" name="LMETAGGA"> F  </i>
   </separator>
   <separator name="electronic convergence" >
    <i type="int" name="NELM">   100</i>
    <i type="int" name="NELMDL">     0</i>
    <i type="int" name="NELMIN">     4</i>
    <i name="ENINI">    500.00000000</i>
    <separator name="electronic convergence detail" >
     <i type="logical" name="LDIAG"> T  </i>
     <i type="logical" name="LSUBROT"> F  </i>
     <i name="WEIMIN">      0.00100000</i>
     <i name="EBREAK">      0.00000001</i>
     <i name="DEPER">      0.30000000</i>
     <i type="int" name="NRMM">     4</i>
     <i name="TIME">      0.40000000</i>
    </separator>
   </separator>
   <separator name="electronic mixer" >
    <i name="AMIX">      0.40000000</i>
[...]
       <r>    4.0729    1.0000 </r>
       <r>    4.2817    1.0000 </r>
       <r>    4.3047    1.0000 </r>
       <r>    4.6543    1.0000 </r>
       <r>    4.6885    1.0000 </r>
       <r>    5.0915    1.0000 </r>
       <r>    5.1303    1.0000 </r>
       <r>    5.7260    1.0000 </r>
       <r>    5.7503    1.0000 </r>
       <r>    8.3156    0.3572 </r>
       <r>    8.6584   -0.0344 </r>
       <r>    9.3792    0.0000 </r>
       <r>    9.7132    0.0000 </r>
       <r>   13.5875    0.0000 </r>
       <r>   13.7952    0.0000 </r>
       <r>   14.4846    0.0000 </r>
       <r>   14.6839    0.0000 </r>
      </set>
      <set comment="kpoint 817">
       <r>    2.5070    1.0000 </r>
       <r>    2.5162    1.0000 </r>
       <r>    2.7418    1.0000 </r>
       <r>    2.7502    1.0000 </r>
       <r>    3.2687    1.0000 </r>
       <r>    3.2698    1.0000 </r>
       <r>    3.2922    1.0000 </r>
       <r>    3.2929    1.0000 </r>
       <r>    3.9049    1.0000 </r>
       <r>    3.9818    1.0000 </r>
       <r>    4.0877    1.0000 </r>
       <r>    4.1648    1.0000 </r>
       <r>    4.2820    1.0000 </r>
       <r>    4.3088    1.0000 </r>
       <r>    4.6453    1.0000 </r>
       <r>    4.6720    1.0000 </r>
       <r>    5.2309    1.0000 </r>
       <r>    5.2504    1.0000 </r>
       <r>    5.9450    1.0000 </r>
       <r>    5.9723    1.0000 </r>
       <r>    8.8983   -0.0054 </r>
       <r>    9.2502    0.0000 </r>
       <r>    9.9203    0.0000 </r>
       <r>   10.2588    0.0000 </r>
       <r>   12.5476    0.0000 </r>
       <r>   12.7593    0.0000 </r>
       <r>   13.5436    0.0000 </r>
       <r>   13.7459    0.0000 </r>
      </set>
      <set comment="kpoint 818">
       <r>    2.4706    1.0000 </r>
       <r>    2.4748    1.0000 </r>
       <r>    2.7000    1.0000 </r>
       <r>    2.7043    1.0000 </r>
       <r>    3.2334    1.0000 </r>
       <r>    3.2338    1.0000 </r>
       <r>    3.2570    1.0000 </r>
       <r>    3.2573    1.0000 </r>
       <r>    3.9879    1.0000 </r>
       <r>    4.0283    1.0000 </r>
       <r>    4.1585    1.0000 </r>
       <r>    4.1976    1.0000 </r>
       <r>    4.3056    1.0000 </r>
       <r>    4.3201    1.0000 </r>
       <r>    4.6353    1.0000 </r>
       <r>    4.6509    1.0000 </r>
       <r>    5.3252    1.0000 </r>
       <r>    5.3326    1.0000 </r>
       <r>    6.0889    1.0000 </r>
       <r>    6.1058    1.0000 </r>
       <r>    9.6049    0.0000 </r>
       <r>    9.9612    0.0000 </r>
       <r>   10.4525    0.0000 </r>
       <r>   10.8079    0.0000 </r>
       <r>   11.6010    0.0000 </r>
       <r>   11.7722    0.0000 </r>
       <r>   12.7548    0.0000 </r>
       <r>   12.9283    0.0000 </r>
      </set>
      <set comment="kpoint 819">
       <r>    2.4592    1.0000 </r>
       <r>    2.4592    1.0000 </r>
       <r>    2.6873    1.0000 </r>
       <r>    2.6873    1.0000 </r>
       <r>    3.2212    1.0000 </r>
       <r>    3.2212    1.0000 </r>
       <r>    3.2448    1.0000 </r>
       <r>    3.2448    1.0000 </r>
       <r>    4.0316    1.0000 </r>
       <r>    4.0316    1.0000 </r>
       <r>    4.1892    1.0000 </r>
       <r>    4.1892    1.0000 </r>
       <r>    4.3254    1.0000 </r>
       <r>    4.3254    1.0000 </r>
       <r>    4.6357    1.0000 </r>
       <r>    4.6357    1.0000 </r>
       <r>    5.3601    1.0000 </r>
       <r>    5.3601    1.0000 </r>
       <r>    6.1440    1.0000 </r>
       <r>    6.1440    1.0000 </r>
       <r>   10.3231    0.0000 </r>
       <r>   10.3231    0.0000 </r>
       <r>   10.8524    0.0000 </r>
       <r>   10.8524    0.0000 </r>
       <r>   11.1490    0.0000 </r>
       <r>   11.1490    0.0000 </r>
       <r>   12.4422    0.0000 </r>
       <r>   12.4422    0.0000 </r>
      </set>
     </set>
    </set>
   </array>
  </eigenvalues>
  <separator name="orbital magnetization" >
   <v name="MAGDIPOLOUT">      0.00000000      0.00000000      0.00000000</v>
  </separator>
  <dos>
   <i name="efermi">      8.26413036 </i>
   <total>
    <array>
     <dimension dim="1">gridpoints</dimension>
     <dimension dim="2">spin</dimension>
     <field>energy</field>
     <field>total</field>
     <field>integrated</field>
     <set>
      <set comment="spin 1">
       <r>    -3.2682     0.0000     0.0000 </r>
       <r>    -3.1725     0.0000     0.0000 </r>
       <r>    -3.0769     0.0000     0.0000 </r>
       <r>    -2.9812     0.0000     0.0000 </r>
       <r>    -2.8856     0.0000     0.0000 </r>
       <r>    -2.7899     0.0000     0.0000 </r>
       <r>    -2.6942     0.0000     0.0000 </r>
       <r>    -2.5986     0.0000     0.0000 </r>
       <r>    -2.5029     0.0000     0.0000 </r>
       <r>    -2.4072     0.0000     0.0000 </r>
       <r>    -2.3116     0.0000     0.0000 </r>
       <r>    -2.2159     0.0000     0.0000 </r>
       <r>    -2.1203     0.0000     0.0000 </r>
       <r>    -2.0246     0.0000     0.0000 </r>
       <r>    -1.9289     0.0000     0.0000 </r>
       <r>    -1.8333     0.0000     0.0000 </r>
       <r>    -1.7376     0.0000     0.0000 </r>
       <r>    -1.6420     0.0000     0.0000 </r>
       <r>    -1.5463     0.0000     0.0000 </r>
       <r>    -1.4506     0.0000     0.0000 </r>
       <r>    -1.3550     0.0000     0.0000 </r>
       <r>    -1.2593     0.0000     0.0000 </r>
       <r>    -1.1637     0.0000     0.0000 </r>
       <r>    -1.0680     0.0000     0.0000 </r>
       <r>    -0.9723    -0.0001     0.0000 </r>
       <r>    -0.8767    -0.0004    -0.0001 </r>
       <r>    -0.7810    -0.0013    -0.0002 </r>
       <r>    -0.6854    -0.0030    -0.0005 </r>
       <r>    -0.5897    -0.0053    -0.0010 </r>
       <r>    -0.4940    -0.0056    -0.0015 </r>
       <r>    -0.3984     0.0018    -0.0013 </r>
       <r>    -0.3027     0.0231     0.0009 </r>
       <r>    -0.2071     0.0610     0.0067 </r>
       <r>    -0.1114     0.1114     0.0174 </r>
       <r>    -0.0157     0.1655     0.0332 </r>
       <r>     0.0799     0.2166     0.0539 </r>
       <r>     0.1756     0.2633     0.0791 </r>
       <r>     0.2713     0.3087     0.1086 </r>
       <r>     0.3669     0.3555     0.1426 </r>
       <r>     0.4626     0.4031     0.1812 </r>
       <r>     0.5582     0.4471     0.2240 </r>
       <r>     0.6539     0.4823     0.2701 </r>
       <r>     0.7496     0.5071     0.3186 </r>
       <r>     0.8452     0.5246     0.3688 </r>
       <r>     0.9409     0.5400     0.4205 </r>
       <r>     1.0365     0.5568     0.4737 </r>
       <r>     1.1322     0.5747     0.5287 </r>
       <r>     1.2279     0.5935     0.5855 </r>
       <r>     1.3235     0.6181     0.6446 </r>
       <r>     1.4192     0.6655     0.7083 </r>
       <r>     1.5148     0.7748     0.7824 </r>
       <r>     1.6105     1.0080     0.8788 </r>
       <r>     1.7062     1.4194     1.0146 </r>
       <r>     1.8018     2.0075     1.2066 </r>
       <r>     1.8975     2.7123     1.4661 </r>
       <r>     1.9931     3.4982     1.8007 </r>
       <r>     2.0888     4.4386     2.2254 </r>
       <r>     2.1845     5.6611     2.7669 </r>
       <r>     2.2801     7.1595     3.4518 </r>
       <r>     2.3758     8.6768     4.2818 </r>
       <r>     2.4714     9.8188     5.2211 </r>
       <r>     2.5671    10.3030     6.2067 </r>
       <r>     2.6628    10.1103     7.1738 </r>
       <r>     2.7584     9.4483     8.0777 </r>
       <r>     2.8541     8.6334     8.9035 </r>
       <r>     2.9497     7.9979     9.6686 </r>
       <r>     3.0454     7.7997    10.4148 </r>
       <r>     3.1411     8.1021    11.1898 </r>
       <r>     3.2367     8.7187    12.0238 </r>
       <r>     3.3324     9.3350    12.9168 </r>
       <r>     3.4281     9.7466    13.8492 </r>
       <r>     3.5237    10.0269    14.8084 </r>
       <r>     3.6194    10.4755    15.8105 </r>
       <r>     3.7150    11.3533    16.8965 </r>
       <r>     3.8107    12.5712    18.0991 </r>
       <r>     3.9064    13.6135    19.4014 </r>
       <r>     4.0020    13.8655    20.7278 </r>
       <r>     4.0977    13.1181    21.9826 </r>
       <r>     4.1933    11.7578    23.1074 </r>
       <r>     4.2890    10.4544    24.1075 </r>
       <r>     4.3847     9.6888    25.0343 </r>
       <r>     4.4803     9.5505    25.9479 </r>
       <r>     4.5760     9.8364    26.8889 </r>
       <r>     4.6716    10.2287    27.8673 </r>
       <r>     4.7673    10.4428    28.8663 </r>
       <r>     4.8630    10.3508    29.8565 </r>
       <r>     4.9586    10.0276    30.8157 </r>
       <r>     5.0543     9.6472    31.7386 </r>
       <r>     5.1499     9.3091    32.6291 </r>
       <r>     5.2456     8.9824    33.4884 </r>
       <r>     5.3413     8.6301    34.3139 </r>
       <r>     5.4369     8.3521    35.1129 </r>
       <r>     5.5326     8.3548    35.9121 </r>
       <r>     5.6282     8.7596    36.7501 </r>
       <r>     5.7239     9.4413    37.6532 </r>
       <r>     5.8196    10.0265    38.6124 </r>
       <r>     5.9152    10.0378    39.5726 </r>
       <r>     6.0109     9.1247    40.4455 </r>
       <r>     6.1065     7.3047    41.1442 </r>
       <r>     6.2022     5.0344    41.6258 </r>
       <r>     6.2979     2.9736    41.9103 </r>
       <r>     6.3935     1.5929    42.0627 </r>
       <r>     6.4892     0.9607    42.1546 </r>
       <r>     6.5849     0.8388    42.2348 </r>
       <r>     6.6805     0.9211    42.3229 </r>
       <r>     6.7762     1.0050    42.4191 </r>
       <r>     6.8718     1.0285    42.5174 </r>
       <r>     6.9675     1.0154    42.6146 </r>
       <r>     7.0632     1.0051    42.7107 </r>
       <r>     7.1588     1.0177    42.8081 </r>
       <r>     7.2545     1.0501    42.9085 </r>
       <r>     7.3501     1.0801    43.0119 </r>
       <r>     7.4458     1.0809    43.1153 </r>
       <r>     7.5415     1.0492    43.2156 </r>
       <r>     7.6371     1.0145    43.3127 </r>
       <r>     7.7328     1.0121    43.4095 </r>
       <r>     7.8284     1.0499    43.5099 </r>
       <r>     7.9241     1.1046    43.6156 </r>
       <r>     8.0198     1.1435    43.7250 </r>
       <r>     8.1154     1.1480    43.8348 </r>
       <r>     8.2111     1.1217    43.9421 </r>
       <r>     8.3067     1.0825    44.0457 </r>
       <r>     8.4024     1.0494    44.1461 </r>
       <r>     8.4981     1.0356    44.2451 </r>
       <r>     8.5937     1.0484    44.3454 </r>
       <r>     8.6894     1.0856    44.4493 </r>
       <r>     8.7850     1.1287    44.5572 </r>
       <r>     8.8807     1.1468    44.6669 </r>
       <r>     8.9764     1.1224    44.7743 </r>
       <r>     9.0720     1.0703    44.8767 </r>
       <r>     9.1677     1.0259    44.9748 </r>
       <r>     9.2633     1.0127    45.0717 </r>
       <r>     9.3590     1.0274    45.1700 </r>
       <r>     9.4547     1.0540    45.2708 </r>
       <r>     9.5503     1.0788    45.3740 </r>
       <r>     9.6460     1.0940    45.4787 </r>
       <r>     9.7417     1.0984    45.5837 </r>
       <r>     9.8373     1.0955    45.6885 </r>
       <r>     9.9330     1.0850    45.7923 </r>
       <r>    10.0286     1.0612    45.8938 </r>
       <r>    10.1243     1.0293    45.9923 </r>
       <r>    10.2200     1.0099    46.0889 </r>
       <r>    10.3156     1.0162    46.1861 </r>
       <r>    10.4113     1.0324    46.2849 </r>
       <r>    10.5069     1.0313    46.3835 </r>
       <r>    10.6026     1.0088    46.4801 </r>
       <r>    10.6983     0.9864    46.5744 </r>
       <r>    10.7939     0.9784    46.6680 </r>
       <r>    10.8896     0.9733    46.7611 </r>
       <r>    10.9852     0.9564    46.8526 </r>
       <r>    11.0809     0.9385    46.9424 </r>
       <r>    11.1766     0.9522    47.0335 </r>
       <r>    11.2722     1.0236    47.1314 </r>
       <r>    11.3679     1.1466    47.2411 </r>
       <r>    11.4635     1.2797    47.3635 </r>
       <r>    11.5592     1.3699    47.4945 </r>
       <r>    11.6549     1.3900    47.6275 </r>
       <r>    11.7505     1.3556    47.7572 </r>
       <r>    11.8462     1.3078    47.8823 </r>
       <r>    11.9418     1.2789    48.0046 </r>
       <r>    12.0375     1.2709    48.1262 </r>
       <r>    12.1332     1.2616    48.2469 </r>
       <r>    12.2288     1.2329    48.3648 </r>
       <r>    12.3245     1.1954    48.4792 </r>
       <r>    12.4201     1.1783    48.5919 </r>
       <r>    12.5158     1.1962    48.7063 </r>
       <r>    12.6115     1.2343    48.8244 </r>
       <r>    12.7071     1.2674    48.9456 </r>
       <r>    12.8028     1.2791    49.0680 </r>
       <r>    12.8985     1.2652    49.1890 </r>
       <r>    12.9941     1.2285    49.3065 </r>
       <r>    13.0898     1.1807    49.4195 </r>
       <r>    13.1854     1.1454    49.5291 </r>
       <r>    13.2811     1.1474    49.6388 </r>
       <r>    13.3768     1.1909    49.7527 </r>
       <r>    13.4724     1.2498    49.8723 </r>
       <r>    13.5681     1.2941    49.9961 </r>
       <r>    13.6637     1.3190    50.1223 </r>
       <r>    13.7594     1.3376    50.2502 </r>
       <r>    13.8551     1.3539    50.3797 </r>
       <r>    13.9507     1.3596    50.5098 </r>
       <r>    14.0464     1.3574    50.6396 </r>
       <r>    14.1420     1.3665    50.7704 </r>
       <r>    14.2377     1.3951    50.9038 </r>
       <r>    14.3334     1.4175    51.0394 </r>
       <r>    14.4290     1.3932    51.1727 </r>
       <r>    14.5247     1.3142    51.2984 </r>
       <r>    14.6203     1.2202    51.4151 </r>
       <r>    14.7160     1.1610    51.5262 </r>
       <r>    14.8117     1.1561    51.6368 </r>
       <r>    14.9073     1.1923    51.7508 </r>
       <r>    15.0030     1.2456    51.8700 </r>
       <r>    15.0986     1.2961    51.9940 </r>
       <r>    15.1943     1.3350    52.1217 </r>
       <r>    15.2900     1.3660    52.2524 </r>
       <r>    15.3856     1.3976    52.3861 </r>
       <r>    15.4813     1.4312    52.5230 </r>
       <r>    15.5770     1.4564    52.6623 </r>
       <r>    15.6726     1.4594    52.8019 </r>
       <r>    15.7683     1.4345    52.9391 </r>
       <r>    15.8639     1.3881    53.0719 </r>
       <r>    15.9596     1.3340    53.1995 </r>
       <r>    16.0553     1.2894    53.3229 </r>
       <r>    16.1509     1.2719    53.4445 </r>
       <r>    16.2466     1.2862    53.5676 </r>
       <r>    16.3422     1.3091    53.6928 </r>
       <r>    16.4379     1.3028    53.8174 </r>
       <r>    16.5336     1.2537    53.9374 </r>
       <r>    16.6292     1.1897    54.0512 </r>
       <r>    16.7249     1.1486    54.1611 </r>
       <r>    16.8205     1.1388    54.2700 </r>
       <r>    16.9162     1.1388    54.3789 </r>
       <r>    17.0119     1.1267    54.4867 </r>
       <r>    17.1075     1.0992    54.5919 </r>
       <r>    17.2032     1.0685    54.6941 </r>
       <r>    17.2988     1.0450    54.7940 </r>
       <r>    17.3945     1.0173    54.8914 </r>
       <r>    17.4902     0.9548    54.9827 </r>
       <r>    17.5858     0.8409    55.0631 </r>
       <r>    17.6815     0.6984    55.1299 </r>
       <r>    17.7771     0.5705    55.1845 </r>
       <r>    17.8728     0.4808    55.2305 </r>
       <r>    17.9685     0.4232    55.2710 </r>
       <r>    18.0641     0.3841    55.3077 </r>
       <r>    18.1598     0.3639    55.3425 </r>
       <r>    18.2554     0.3718    55.3781 </r>
       <r>    18.3511     0.4039    55.4167 </r>
       <r>    18.4468     0.4338    55.4582 </r>
       <r>    18.5424     0.4307    55.4994 </r>
       <r>    18.6381     0.3890    55.5367 </r>
       <r>    18.7338     0.3326    55.5685 </r>
       <r>    18.8294     0.2895    55.5962 </r>
       <r>    18.9251     0.2665    55.6216 </r>
       <r>    19.0207     0.2507    55.6456 </r>
       <r>    19.1164     0.2307    55.6677 </r>
       <r>    19.2121     0.2102    55.6878 </r>
       <r>    19.3077     0.2047    55.7074 </r>
       <r>    19.4034     0.2219    55.7286 </r>
       <r>    19.4990     0.2464    55.7522 </r>
       <r>    19.5947     0.2497    55.7761 </r>
       <r>    19.6904     0.2195    55.7971 </r>
       <r>    19.7860     0.1746    55.8138 </r>
       <r>    19.8817     0.1443    55.8276 </r>
       <r>    19.9773     0.1379    55.8408 </r>
       <r>    20.0730     0.1397    55.8541 </r>
       <r>    20.1687     0.1313    55.8667 </r>
       <r>    20.2643     0.1120    55.8774 </r>
       <r>    20.3600     0.0976    55.8867 </r>
       <r>    20.4556     0.1015    55.8965 </r>
       <r>    20.5513     0.1196    55.9079 </r>
       <r>    20.6470     0.1334    55.9207 </r>
       <r>    20.7426     0.1271    55.9328 </r>
       <r>    20.8383     0.1014    55.9425 </r>
       <r>    20.9339     0.0707    55.9493 </r>
       <r>    21.0296     0.0497    55.9540 </r>
       <r>    21.1253     0.0436    55.9582 </r>
       <r>    21.2209     0.0477    55.9628 </r>
       <r>    21.3166     0.0538    55.9679 </r>
       <r>    21.4122     0.0560    55.9733 </r>
       <r>    21.5079     0.0531    55.9784 </r>
       <r>    21.6036     0.0463    55.9828 </r>
       <r>    21.6992     0.0372    55.9864 </r>
       <r>    21.7949     0.0271    55.9890 </r>
       <r>    21.8906     0.0179    55.9907 </r>
       <r>    21.9862     0.0123    55.9918 </r>
       <r>    22.0819     0.0121    55.9930 </r>
       <r>    22.1775     0.0157    55.9945 </r>
       <r>    22.2732     0.0188    55.9963 </r>
       <r>    22.3689     0.0180    55.9980 </r>
       <r>    22.4645     0.0132    55.9993 </r>
       <r>    22.5602     0.0071    55.9999 </r>
       <r>    22.6558     0.0023    56.0002 </r>
       <r>    22.7515    -0.0001    56.0002 </r>
       <r>    22.8472    -0.0007    56.0001 </r>
       <r>    22.9428    -0.0006    56.0000 </r>
       <r>    23.0385    -0.0003    56.0000 </r>
       <r>    23.1341    -0.0001    56.0000 </r>
       <r>    23.2298     0.0000    56.0000 </r>
       <r>    23.3255     0.0000    56.0000 </r>
       <r>    23.4211     0.0000    56.0000 </r>
       <r>    23.5168     0.0000    56.0000 </r>
       <r>    23.6124     0.0000    56.0000 </r>
       <r>    23.7081     0.0000    56.0000 </r>
       <r>    23.8038     0.0000    56.0000 </r>
       <r>    23.8994     0.0000    56.0000 </r>
       <r>    23.9951     0.0000    56.0000 </r>
       <r>    24.0907     0.0000    56.0000 </r>
       <r>    24.1864     0.0000    56.0000 </r>
       <r>    24.2821     0.0000    56.0000 </r>
       <r>    24.3777     0.0000    56.0000 </r>
       <r>    24.4734     0.0000    56.0000 </r>
       <r>    24.5690     0.0000    56.0000 </r>
       <r>    24.6647     0.0000    56.0000 </r>
       <r>    24.7604     0.0000    56.0000 </r>
       <r>    24.8560     0.0000    56.0000 </r>
       <r>    24.9517     0.0000    56.0000 </r>
       <r>    25.0474     0.0000    56.0000 </r>
       <r>    25.1430     0.0000    56.0000 </r>
       <r>    25.2387     0.0000    56.0000 </r>
       <r>    25.3343     0.0000    56.0000 </r>
       <r>    25.4300     0.0000    56.0000 </r>
      </set>
     </set>
    </array>
   </total>
  </dos>
 </calculation>
 <structure name="finalpos" >
  <crystal>
   <varray name="basis" >
    <v>       0.00000000      -2.05643024      -2.05643024 </v>
    <v>      -4.18445792       0.00000000       0.00000000 </v>
    <v>       0.00000000       4.14170683      -4.14170683 </v>
   </varray>
   <i name="volume">     71.27915396 </i>
   <varray name="rec_basis" >
    <v>       0.00000000      -0.24313978      -0.24313978 </v>
    <v>      -0.23897958       0.00000000       0.00000000 </v>
    <v>       0.00000000       0.12072318      -0.12072318 </v>
   </varray>
  </crystal>
  <varray name="positions" >
   <v>       0.00000000       0.00000000       0.49976803 </v>
   <v>       0.50000000       0.50000000       0.75023197 </v>
   <v>       0.00000000       0.00000000       0.99677242 </v>
   <v>       0.50000000       0.50000000       0.25322758 </v>
  </varray>
 </structure>
</modeling>
