<?xml version="1.0" encoding="ISO-8859-1"?>
<modeling>
 <generator>
  <i name="program" type="string">vasp </i>
  <i name="version" type="string">5.3.5  </i>
  <i name="subversion" type="string">31Mar14 (build Jun 20 2014 13:15:13) complex                          parallel </i>
  <i name="platform" type="string">LinuxIFC </i>
  <i name="date" type="string">2025 12 12 </i>
  <i name="time" type="string">12:21:37 </i>
 </generator>
 <incar>
  <i type="string" name="PREC">accurate</i>
  <i type="int" name="IALGO">    38</i>
  <i type="logical" name="ADDGRID"> T  </i>
  <i type="int" name="ISPIN">     2</i>
  <i type="int" name="NELM">   100</i>
  <i type="int" name="NELMIN">     4</i>
  <i name="EDIFF">      0.00000100</i>
  <i name="ENCUT">    500.00000000</i>
  <i type="logical" name="LREAL"> F  </i>
  <i type="int" name="ISMEAR">     0</i>
  <i name="SIGMA">      0.05000000</i>
  <i type="logical" name="LWAVE"> F  </i>
  <i type="logical" name="LCHARG"> F  </i>
  <i type="int" name="NELM">   100</i>
  <i type="logical" name="LDAU"> T  </i>
  <v name="LDAUU">      0.00000000      4.00000000      0.00000000</v>
  <v name="LDAUJ">      0.00000000      0.00000000      0.00000000</v>
 </incar>
 <kpoints>
  <generation param="Auto">
   <i name="subdivisionlength">     20.00000000 </i>
   <v type="int" name="divisions">       2        4        2 </v>
   <v name="usershift">      0.00000000       0.00000000       0.00000000 </v>
   <v name="genvec1">      0.50000000       0.00000000       0.00000000 </v>
   <v name="genvec2">      0.00000000       0.25000000       0.00000000 </v>
   <v name="genvec3">      0.00000000       0.00000000       0.50000000 </v>
   <v name="shift">      0.00000000       0.00000000       0.00000000 </v>
  </generation>
  <varray name="kpointlist" >
   <v>       0.00000000       0.00000000       0.00000000 </v>
   <v>       0.50000000       0.00000000       0.00000000 </v>
   <v>       0.00000000       0.25000000       0.00000000 </v>
   <v>       0.50000000       0.25000000       0.00000000 </v>
   <v>       0.00000000       0.50000000       0.00000000 </v>
   <v>       0.50000000       0.50000000       0.00000000 </v>
   <v>       0.00000000       0.00000000       0.50000000 </v>
   <v>       0.50000000       0.00000000       0.50000000 </v>
   <v>       0.00000000       0.25000000       0.50000000 </v>
   <v>       0.50000000       0.25000000       0.50000000 </v>
   <v>       0.00000000       0.50000000       0.50000000 </v>
   <v>       0.50000000       0.50000000       0.50000000 </v>
  </varray>
  <varray name="weights" >
   <v>       0.06250000 </v>
   <v>       0.06250000 </v>
   <v>       0.12500000 </v>
   <v>       0.12500000 </v>
   <v>       0.06250000 </v>
   <v>       0.06250000 </v>
   <v>       0.06250000 </v>
   <v>       0.06250000 </v>
   <v>       0.12500000 </v>
   <v>       0.12500000 </v>
   <v>       0.06250000 </v>
   <v>       0.06250000 </v>
  </varray>
 </kpoints>
 <parameters>
  <separator name="general" >
   <i type="string" name="SYSTEM">unknown system</i>
   <i type="logical" name="LCOMPAT"> F  </i>
  </separator>
  <separator name="electronic" >
   <i type="string" name="PREC">accura</i>
   <i name="ENMAX">    500.00000000</i>
   <i name="ENAUG">    586.98000000</i>
   <i name="EDIFF">      0.00000100</i>
   <i type="int" name="IALGO">    38</i>
   <i type="int" name="IWAVPR">    10</i>
   <i type="int" name="NBANDS">   192</i>
   <i name="NELECT">    288.00000000</i>
   <i type="int" name="TURBO">     0</i>
   <i type="int" name="IRESTART">     0</i>
   <i type="int" name="NREBOOT">     0</i>
   <i type="int" name="NMIN">     0</i>
   <i name="EREF">      0.00000000</i>
   <separator name="electronic smearing" >
    <i type="int" name="ISMEAR">     0</i>
    <i name="SIGMA">      0.05000000</i>
    <i name="KSPACING">      0.50000000</i>
    <i type="logical" name="KGAMMA"> T  </i>
   </separator>
   <separator name="electronic projectors" >
    <i type="logical" name="LREAL"> F  </i>
    <v name="ROPT">      0.00000000      0.00000000      0.00000000</v>
    <i type="int" name="LMAXPAW">  -100</i>
    <i type="int" name="LMAXMIX">     2</i>
    <i type="logical" name="NLSPLINE"> F  </i>
   </separator>
   <separator name="electronic startup" >
    <i type="int" name="ISTART">     0</i>
    <i type="int" name="ICHARG">     2</i>
    <i type="int" name="INIWAV">     1</i>
   </separator>
   <separator name="electronic spin" >
    <i type="int" name="ISPIN">     2</i>
    <i type="logical" name="LNONCOLLINEAR"> F  </i>
    <v name="MAGMOM">      1.00000000      1.00000000      1.00000000      1.00000000      1.00000000      1.00000000      1.00000000      1.00000000      1.00000000      1.00000000      1.00000000      1.00000000      1.00000000      1.00000000      1.00000000      1.00000000      1.00000000      1.00000000      1.00000000      1.00000000
      1.00000000      1.00000000      1.00000000      1.00000000      1.00000000      1.00000000      1.00000000      1.00000000      1.00000000      1.00000000      1.00000000      1.00000000      1.00000000      1.00000000      1.00000000      1.00000000</v>
    <i name="NUPDOWN">     -1.00000000</i>
    <i type="logical" name="LSORBIT"> F  </i>
    <v name="SAXIS">      0.00000000      0.00000000      1.00000000</v>
    <i type="logical" name="LSPIRAL"> F  </i>
    <v name="QSPIRAL">      0.00000000      0.00000000      0.00000000</v>
    <i type="logical" name="LZEROZ"> F  </i>
   </separator>
   <separator name="electronic exchange-correlation" >
    <i type="logical" name="LASPH"> F  </i>
    <i type="logical" name="LMETAGGA"> F  </i>
   </separator>
   <separator name="electronic convergence" >
    <i type="int" name="NELM">   100</i>
    <i type="int" name="NELMDL">    -5</i>
    <i type="int" name="NELMIN">     4</i>
    <i name="ENINI">    500.00000000</i>
    <separator name="electronic convergence detail" >
     <i type="logical" name="LDIAG"> T  </i>
     <i type="logical" name="LSUBROT"> F  </i>
     <i name="WEIMIN">      0.00000000</i>
     <i name="EBREAK">      0.00000000</i>
     <i name="DEPER">      0.30000000</i>
     <i type="int" name="NRMM">     4</i>
     <i name="TIME">      0.40000000</i>
    </separator>
   </separator>
   <separator name="electronic mixer" >
    <i name="AMIX">      0.40000000</i>
    <i name="BMIX">      1.00000000</i>
    <i name="AMIN">      0.10000000</i>
    <i name="AMIX_MAG">      1.60000000</i>
    <i name="BMIX_MAG">      1.00000000</i>
    <separator name="electronic mixer details" >
     <i type="int" name="IMIX">     4</i>
     <i type="int" name="MAXMIX">   -45</i>
     <i name="WC">    100.00000000</i>
     <i type="int" name="INIMIX">     1</i>
     <i type="int" name="MIXPRE">     1</i>
     <i type="int" name="MREMOVE">     5</i>
    </separator>
   </separator>
   <separator name="electronic dipolcorrection" >
    <i type="logical" name="LDIPOL"> F  </i>
    <i type="logical" name="LMONO"> F  </i>
    <i type="int" name="IDIPOL">     0</i>
    <i name="EPSILON">      1.00000000</i>
    <v name="DIPOL">   -100.00000000   -100.00000000   -100.00000000</v>
    <i name="EFIELD">      0.00000000</i>
   </separator>
  </separator>
  <separator name="grids" >
   <i type="int" name="NGX">    72</i>
   <i type="int" name="NGY">    42</i>
   <i type="int" name="NGZ">    72</i>
   <i type="int" name="NGXF">   144</i>
   <i type="int" name="NGYF">    84</i>
   <i type="int" name="NGZF">   144</i>
   <i type="logical" name="ADDGRID"> T  </i>
  </separator>
  <separator name="ionic" >
   <i type="int" name="NSW">     0</i>
   <i type="int" name="IBRION">    -1</i>
   <i type="int" name="ISIF">     2</i>
   <i name="PSTRESS">      0.00000000</i>
   <i name="EDIFFG">      0.00001000</i>
   <i type="int" name="NFREE">     0</i>
   <i name="POTIM">      0.50000000</i>
   <i name="SMASS">     -3.00000000</i>
   <i name="SCALEE">      1.00000000</i>
  </separator>
  <separator name="ionic md" >
   <i name="TEBEG">      0.00010000</i>
   <i name="TEEND">      0.00010000</i>
   <i type="int" name="NBLOCK">     1</i>
   <i type="int" name="KBLOCK">     1</i>
   <i type="int" name="NPACO">   256</i>
   <i name="APACO">     16.00000000</i>
  </separator>
  <separator name="symmetry" >
   <i type="int" name="ISYM">     2</i>
   <i name="SYMPREC">      0.00001000</i>
  </separator>
  <separator name="dos" >
   <i type="logical" name="LORBIT"> F  </i>
   <v name="RWIGS">     -1.00000000     -1.00000000     -1.00000000</v>
   <i type="int" name="NEDOS">   301</i>
   <i name="EMIN">     10.00000000</i>
   <i name="EMAX">    -10.00000000</i>
   <i name="EFERMI">      0.00000000</i>
  </separator>
  <separator name="writing" >
   <i type="int" name="NWRITE">     2</i>
   <i type="logical" name="LWAVE"> F  </i>
   <i type="logical" name="LCHARG"> F  </i>
   <i type="logical" name="LPARD"> F  </i>
   <i type="logical" name="LVTOT"> F  </i>
   <i type="logical" name="LVHAR"> F  </i>
   <i type="logical" name="LELF"> F  </i>
   <i type="logical" name="LOPTICS"> F  </i>
   <v name="STM">      0.00000000      0.00000000      0.00000000      0.00000000      0.00000000      0.00000000      0.00000000</v>
  </separator>
  <separator name="performance" >
   <i type="int" name="NPAR">     4</i>
   <i type="int" name="NSIM">     4</i>
   <i type="int" name="NBLK">    -1</i>
   <i type="logical" name="LPLANE"> T  </i>
   <i type="logical" name="LSCALAPACK"> T  </i>
   <i type="logical" name="LSCAAWARE"> F  </i>
   <i type="logical" name="LSCALU"> F  </i>
   <i type="logical" name="LASYNC"> F  </i>
   <i type="logical" name="LORBITALREAL"> F  </i>
  </separator>
  <separator name="miscellaneous" >
   <i type="int" name="IDIOT">     3</i>
   <i type="logical" name="LMUSIC"> F  </i>
   <v name="POMASS">     87.62000000     63.54600000     16.00000000</v>
   <v name="DARWINR">      0.00000000      0.00000000      0.00000000</v>
   <v name="DARWINV">      1.00000000      1.00000000      1.00000000</v>
   <i type="logical" name="LCORR"> T  </i>
  </separator>
  <i type="logical" name="GGA_COMPAT"> T  </i>
  <i type="logical" name="LBERRY"> F  </i>
  <i type="int" name="ICORELEVEL">     0</i>
  <i type="logical" name="LDAU"> T  </i>
  <v type="int" name="LDAUTYPE">     2</v>
  <v type="int" name="LDAUL">     2</v>
  <v name="LDAUU">      0.00000000</v>
  <v name="LDAUJ">      0.00000000</v>
  <i type="int" name="LDAUPRINT">     0</i>
  <i type="int" name="I_CONSTRAINED_M">     0</i>
  <separator name="electronic exchange-correlation" >
   <i type="string" name="GGA">--</i>
   <i type="int" name="VOSKOWN">     0</i>
   <i type="logical" name="LHFCALC"> F  </i>
   <i type="string" name="PRECFOCK"></i>
   <i type="logical" name="LSYMGRAD"> F  </i>
   <i type="logical" name="LHFONE"> F  </i>
   <i type="logical" name="LRHFCALC"> F  </i>
   <i type="logical" name="LTHOMAS"> F  </i>
   <i type="logical" name="LMODELHF"> F  </i>
   <i name="ENCUT4O">     -1.00000000</i>
   <i type="int" name="EXXOEP">     0</i>
   <i type="int" name="FOURORBIT">     0</i>
   <i name="AEXX">      0.00000000</i>
   <i name="HFALPHA">      0.00000000</i>
   <i name="MCALPHA">      0.00000000</i>
   <i name="ALDAX">      1.00000000</i>
   <i name="AGGAX">      1.00000000</i>
   <i name="ALDAC">      1.00000000</i>
   <i name="AGGAC">      1.00000000</i>
   <i type="int" name="NKREDX">     1</i>
   <i type="int" name="NKREDY">     1</i>
   <i type="int" name="NKREDZ">     1</i>
   <i type="logical" name="SHIFTRED"> F  </i>
   <i type="logical" name="ODDONLY"> F  </i>
   <i type="logical" name="EVENONLY"> F  </i>
   <i type="int" name="LMAXFOCK">     0</i>
   <i type="int" name="NMAXFOCKAE">     0</i>
   <i type="logical" name="LFOCKAEDFT"> F  </i>
   <i name="HFSCREEN">      0.00000000</i>
   <i name="HFSCREENC">      0.00000000</i>
   <i type="int" name="NBANDSGWLOW">     0</i>
  </separator>
  <separator name="vdW DFT" >
   <i type="logical" name="LUSE_VDW"> F  </i>
   <i name="Zab_VDW">     -0.84910000</i>
   <i name="PARAM1">      0.12340000</i>
   <i name="PARAM2">      1.00000000</i>
   <i name="PARAM3">      0.00000000</i>
  </separator>
  <separator name="model GW" >
   <i type="int" name="MODEL_GW">     0</i>
   <i name="MODEL_EPS0">      8.53333333</i>
   <i name="MODEL_ALPHA">      1.00000000</i>
  </separator>
  <separator name="linear response parameters" >
   <i type="logical" name="LEPSILON"> F  </i>
   <i type="logical" name="LRPA"> F  </i>
   <i type="logical" name="LNABLA"> F  </i>
   <i type="logical" name="LVEL"> F  </i>
   <i type="int" name="KINTER">     0</i>
   <i name="CSHIFT">      0.10000000</i>
   <i name="OMEGAMAX">     -1.00000000</i>
   <i name="DEG_THRESHOLD">      0.00200000</i>
  </separator>
  <separator name="orbital magnetization" >
   <i type="logical" name="NUCIND"> F  </i>
   <v name="MAGPOS">      0.00000000      0.00000000      0.00000000</v>
   <i type="logical" name="LNICSALL"> T  </i>
   <i type="logical" name="ORBITALMAG"> F  </i>
   <i type="logical" name="LMAGBLOCH"> F  </i>
   <i type="logical" name="LCHIMAG"> F  </i>
   <i type="logical" name="LGAUGE"> T  </i>
   <i type="int" name="MAGATOM">     0</i>
   <v name="MAGDIPOL">      0.00000000      0.00000000      0.00000000</v>
   <v name="AVECCONST">      0.00000000      0.00000000      0.00000000</v>
  </separator>
  <separator name="response functions" >
   <i type="logical" name="LADDER"> F  </i>
   <i type="logical" name="LFXC"> F  </i>
   <i type="logical" name="LHARTREE"> T  </i>
   <i type="int" name="IBSE">     0</i>
   <i type="logical" name="LTCTE"> F  </i>
   <i type="logical" name="LTETE"> F  </i>
   <i type="logical" name="LTRIPLET"> F  </i>
   <i type="logical" name="LFXCEPS"> F  </i>
   <i type="logical" name="LFXHEG"> F  </i>
   <i type="logical" name="L2ORDER"> F  </i>
   <i type="logical" name="LUSEW"> F  </i>
   <i name="ENCUTGW">     -2.00000000</i>
   <i name="ENCUTGWSOFT">     -2.00000000</i>
   <i name="ENCUTLF">     -1.00000000</i>
   <i type="int" name="LMAXMP2">    -1</i>
   <i name="SCISSOR">      0.00000000</i>
   <i type="int" name="NOMEGA">     0</i>
   <i type="int" name="NOMEGAR">     0</i>
   <i type="int" name="NBANDSGW">    -1</i>
   <i type="int" name="NBANDSO">    -1</i>
   <i type="int" name="NBANDSV">    -1</i>
   <i type="int" name="NELM">   100</i>
   <i type="int" name="DIM">     3</i>
   <i type="int" name="ANTIRES">     0</i>
   <i name="OMEGAMAX">    -30.00000000</i>
   <i name="OMEGAMIN">    -30.00000000</i>
   <i name="OMEGATL">   -200.00000000</i>
   <i type="int" name="OMEGAGRID">     0</i>
   <i name="CSHIFT">     -0.10000000</i>
   <i type="logical" name="SELFENERGY"> F  </i>
   <i type="logical" name="LSPECTRAL"> F  </i>
   <i type="logical" name="ODDONLYGW"> F  </i>
   <i type="logical" name="EVENONLYGW"> F  </i>
   <i type="int" name="NKREDLFX">     1</i>
   <i type="int" name="NKREDLFY">     1</i>
   <i type="int" name="NKREDLFZ">     1</i>
   <i type="int" name="MAXMEM">  1800</i>
   <i type="int" name="TELESCOPE">     0</i>
   <i type="int" name="TAUPAR">     1</i>
  </separator>
  <separator name="External order field" >
   <i name="OFIELD_KAPPA">      0.00000000</i>
   <v name="OFIELD_K">      0.00000000      0.00000000      0.00000000</v>
   <i name="OFIELD_Q6_NEAR">      0.00000000</i>
   <i name="OFIELD_Q6_FAR">      0.00000000</i>
   <i name="OFIELD_A">      0.00000000</i>
  </separator>
 </parameters>
 <atominfo>
  <atoms>      36 </atoms>
  <types>       3 </types>
  <array name="atoms" >
   <dimension dim="1">ion</dimension>
   <field type="string">element</field>
   <field type="int">atomtype</field>
   <set>
    <rc><c>Sr</c><c>   1</c></rc>
    <rc><c>Sr</c><c>   1</c></rc>
    <rc><c>Sr</c><c>   1</c></rc>
    <rc><c>Sr</c><c>   1</c></rc>
    <rc><c>Sr</c><c>   1</c></rc>
    <rc><c>Sr</c><c>   1</c></rc>
    <rc><c>Sr</c><c>   1</c></rc>
    <rc><c>Sr</c><c>   1</c></rc>
    <rc><c>Cu</c><c>   2</c></rc>
    <rc><c>Cu</c><c>   2</c></rc>
    <rc><c>Cu</c><c>   2</c></rc>
    <rc><c>Cu</c><c>   2</c></rc>
    <rc><c>Cu</c><c>   2</c></rc>
    <rc><c>Cu</c><c>   2</c></rc>
    <rc><c>Cu</c><c>   2</c></rc>
    <rc><c>Cu</c><c>   2</c></rc>
    <rc><c>O </c><c>   3</c></rc>
    <rc><c>O </c><c>   3</c></rc>
    <rc><c>O </c><c>   3</c></rc>
    <rc><c>O </c><c>   3</c></rc>
    <rc><c>O </c><c>   3</c></rc>
    <rc><c>O </c><c>   3</c></rc>
    <rc><c>O </c><c>   3</c></rc>
    <rc><c>O </c><c>   3</c></rc>
    <rc><c>O </c><c>   3</c></rc>
    <rc><c>O </c><c>   3</c></rc>
    <rc><c>O </c><c>   3</c></rc>
    <rc><c>O </c><c>   3</c></rc>
    <rc><c>O </c><c>   3</c></rc>
    <rc><c>O </c><c>   3</c></rc>
    <rc><c>O </c><c>   3</c></rc>
    <rc><c>O </c><c>   3</c></rc>
    <rc><c>O </c><c>   3</c></rc>
    <rc><c>O </c><c>   3</c></rc>
    <rc><c>O </c><c>   3</c></rc>
    <rc><c>O </c><c>   3</c></rc>
   </set>
  </array>
  <array name="atomtypes" >
   <dimension dim="1">type</dimension>
   <field type="int">atomspertype</field>
   <field type="string">element</field>
   <field>mass</field>
   <field>valence</field>
   <field type="string">pseudopotential</field>
   <set>
    <rc><c>   8</c><c>Sr</c><c>     87.62000000</c><c>     10.00000000</c><c>  PAW_PBE Sr_sv 07Sep2000               </c></rc>
    <rc><c>   8</c><c>Cu</c><c>     63.54600000</c><c>     11.00000000</c><c>  PAW_PBE Cu 22Jun2005                  </c></rc>
    <rc><c>  20</c><c>O </c><c>     16.00000000</c><c>      6.00000000</c><c>  PAW_PBE O_s 07Sep2000                 </c></rc>
   </set>
  </array>
 </atominfo>
 <structure name="initialpos" >
  <crystal>
   <varray name="basis" >
    <v>       9.79795897       0.00000000       0.00000000 </v>
    <v>       0.00000000       5.65685425       0.00000000 </v>
    <v>      -3.26598632       0.00000000       9.23760431 </v>
   </varray>
   <i name="volume">    512.00000000 </i>
   <varray name="rec_basis" >
    <v>       0.10206207       0.00000000       0.03608439 </v>
    <v>       0.00000000       0.17677670       0.00000000 </v>
    <v>       0.00000000       0.00000000       0.10825318 </v>
   </varray>
  </crystal>
  <varray name="positions" >
   <v>       0.37500000       0.62500000       0.62500000 </v>
   <v>       0.12500000       0.62500000       0.87500000 </v>
   <v>       0.87500000       0.62500000       0.12500000 </v>
   <v>       0.12500000       0.12500000       0.37500000 </v>
   <v>       0.87500000       0.12500000       0.62500000 </v>
   <v>       0.62500000       0.12500000       0.87500000 </v>
   <v>       0.37500000       0.12500000       0.12500000 </v>
   <v>       0.62500000       0.62500000       0.37500000 </v>
   <v>       0.50000000       0.12500000       0.50000000 </v>
   <v>       0.75000000       0.62500000       0.75000000 </v>
   <v>       0.00000000       0.12500000       0.00000000 </v>
   <v>       0.25000000       0.62500000       0.25000000 </v>
   <v>       0.00000000       0.62500000       0.50000000 </v>
   <v>       0.25000000       0.12500000       0.75000000 </v>
   <v>       0.50000000       0.62500000       0.00000000 </v>
   <v>       0.75000000       0.12500000       0.25000000 </v>
   <v>       0.62500000       0.87500000       0.62500000 </v>
   <v>       0.87500000       0.37500000       0.87500000 </v>
   <v>       0.12500000       0.87500000       0.12500000 </v>
   <v>       0.87500000       0.87500000       0.87500000 </v>
   <v>       0.12500000       0.37500000       0.12500000 </v>
   <v>       0.37500000       0.87500000       0.37500000 </v>
   <v>       0.37500000       0.12500000       0.62500000 </v>
   <v>       0.62500000       0.62500000       0.87500000 </v>
   <v>       0.37500000       0.62500000       0.12500000 </v>
   <v>       0.12500000       0.62500000       0.37500000 </v>
   <v>       0.12500000       0.37500000       0.62500000 </v>
   <v>       0.37500000       0.87500000       0.87500000 </v>
   <v>       0.62500000       0.37500000       0.12500000 </v>
   <v>       0.37500000       0.37500000       0.87500000 </v>
   <v>       0.62500000       0.87500000       0.12500000 </v>
   <v>       0.87500000       0.37500000       0.37500000 </v>
   <v>       0.87500000       0.62500000       0.62500000 </v>
   <v>       0.12500000       0.12500000       0.87500000 </v>
   <v>       0.87500000       0.12500000       0.12500000 </v>
   <v>       0.62500000       0.12500000       0.37500000 </v>
  </varray>
 </structure>
 <calculation>
  <scstep>
   <time name="dav">   15.41   15.42</time>
   <time name="total">   15.85   15.87</time>
   <energy>
    <i name="alphaZ">   1346.99094900 </i>
    <i name="ewald"> -19139.74683937 </i>
    <i name="hartreedc">  -7725.95722751 </i>
    <i name="XCdc">   1198.58864470 </i>
    <i name="pawpsdc">  21754.01322252 </i>
    <i name="pawaedc"> -22428.26520107 </i>
    <i name="eentropy">     -0.00429930 </i>
    <i name="bandstr">   2344.21929593 </i>
    <i name="atom">  26519.50368762 </i>
    <i name="e_fr_energy">   3869.34223251 </i>
    <i name="e_wo_entrp">   3869.34653181 </i>
    <i name="e_0_energy">   3869.34438216 </i>
   </energy>
  </scstep>
  <scstep>
   <time name="dav">   15.36   15.60</time>
   <time name="total">   15.37   15.61</time>
   <energy>
    <i name="e_fr_energy">    438.58643662 </i>
    <i name="e_wo_entrp">    438.60086180 </i>
    <i name="e_0_energy">    438.59364921 </i>
   </energy>
  </scstep>
  <scstep>
   <time name="dav">   15.11   15.11</time>
   <time name="total">   15.11   15.13</time>
   <energy>
    <i name="e_fr_energy">   -172.90645567 </i>
    <i name="e_wo_entrp">   -172.86587928 </i>
    <i name="e_0_energy">   -172.88616747 </i>
   </energy>
  </scstep>
  <scstep>
   <time name="dav">   19.96   19.96</time>
   <time name="total">   19.96   19.98</time>
   <energy>
    <i name="e_fr_energy">   -228.76949555 </i>
    <i name="e_wo_entrp">   -228.70863120 </i>
    <i name="e_0_energy">   -228.73906338 </i>
   </energy>
  </scstep>
  <scstep>
   <time name="dav">   24.09   24.09</time>
   <time name="total">   24.99   25.02</time>
   <energy>
    <i name="e_fr_energy">   -232.16648529 </i>
    <i name="e_wo_entrp">   -232.10257848 </i>
    <i name="e_0_energy">   -232.13453188 </i>
   </energy>
  </scstep>
  <scstep>
   <time name="dav">   22.29   22.30</time>
   <time name="total">   23.63   23.65</time>
   <energy>
    <i name="e_fr_energy">   -225.04196063 </i>
    <i name="e_wo_entrp">   -225.00153219 </i>
    <i name="e_0_energy">   -225.02174641 </i>
   </energy>
  </scstep>
  <scstep>
   <time name="dav">   20.48   20.48</time>
   <time name="total">   21.81   21.83</time>
   <energy>
    <i name="e_fr_energy">   -185.38418030 </i>
    <i name="e_wo_entrp">   -185.34234248 </i>
    <i name="e_0_energy">   -185.36326139 </i>
   </energy>
  </scstep>
  <scstep>
   <time name="dav">   22.84   22.84</time>
   <time name="total">   24.17   24.19</time>
   <energy>
    <i name="e_fr_energy">   -187.62189038 </i>
    <i name="e_wo_entrp">   -187.59418495 </i>
    <i name="e_0_energy">   -187.60803767 </i>
   </energy>
  </scstep>
  <scstep>
   <time name="dav">   20.98   20.99</time>
   <time name="total">   22.31   22.33</time>
   <energy>
    <i name="e_fr_energy">   -195.34820774 </i>
    <i name="e_wo_entrp">   -195.32401518 </i>
    <i name="e_0_energy">   -195.33611146 </i>
   </energy>
  </scstep>
  <scstep>
   <time name="dav">   20.79   20.80</time>
   <time name="total">   22.30   22.32</time>
   <energy>
    <i name="e_fr_energy">   -187.44794207 </i>
    <i name="e_wo_entrp">   -187.41662449 </i>
    <i name="e_0_energy">   -187.43228328 </i>
   </energy>
  </scstep>
  <scstep>
   <time name="dav">   21.99   22.00</time>
   <time name="total">   23.31   23.33</time>
   <energy>
    <i name="e_fr_energy">   -178.96344686 </i>
    <i name="e_wo_entrp">   -178.93684142 </i>
    <i name="e_0_energy">   -178.95014414 </i>
   </energy>
  </scstep>
  <scstep>
   <time name="dav">   21.79   21.79</time>
   <time name="total">   23.11   23.37</time>
   <energy>
    <i name="e_fr_energy">   -180.00730490 </i>
    <i name="e_wo_entrp">   -179.97986060 </i>
    <i name="e_0_energy">   -179.99358275 </i>
   </energy>
  </scstep>
  <scstep>
   <time name="dav">   20.97   21.19</time>
   <time name="total">   22.53   22.76</time>
   <energy>
    <i name="e_fr_energy">   -179.54130082 </i>
    <i name="e_wo_entrp">   -179.50550803 </i>
    <i name="e_0_energy">   -179.52340443 </i>
   </energy>
  </scstep>
  <scstep>
   <time name="dav">   20.11   20.34</time>
   <time name="total">   21.43   21.68</time>
   <energy>
    <i name="e_fr_energy">   -179.77225914 </i>
    <i name="e_wo_entrp">   -179.73851066 </i>
    <i name="e_0_energy">   -179.75538490 </i>
   </energy>
  </scstep>
  <scstep>
   <time name="dav">   21.38   21.38</time>
   <time name="total">   22.70   22.72</time>
   <energy>
    <i name="e_fr_energy">   -179.74126881 </i>
    <i name="e_wo_entrp">   -179.70840724 </i>
    <i name="e_0_energy">   -179.72483803 </i>
   </energy>
  </scstep>
  <scstep>
   <time name="dav">   21.83   22.07</time>
   <time name="total">   23.15   23.60</time>
   <energy>
    <i name="e_fr_energy">   -179.67711766 </i>
    <i name="e_wo_entrp">   -179.64534245 </i>
    <i name="e_0_energy">   -179.66123006 </i>
   </energy>
  </scstep>
  <scstep>
   <time name="dav">   21.34   21.35</time>
   <time name="total">   22.67   22.69</time>
   <energy>
    <i name="e_fr_energy">   -179.66526741 </i>
    <i name="e_wo_entrp">   -179.63414023 </i>
    <i name="e_0_energy">   -179.64970382 </i>
   </energy>
  </scstep>
  <scstep>
   <time name="dav">   21.12   21.12</time>
   <time name="total">   22.45   22.46</time>
   <energy>
    <i name="e_fr_energy">   -179.67105209 </i>
    <i name="e_wo_entrp">   -179.64053255 </i>
    <i name="e_0_energy">   -179.65579232 </i>
   </energy>
  </scstep>
  <scstep>
   <time name="dav">   20.33   20.34</time>
   <time name="total">   21.89   21.91</time>
   <energy>
    <i name="e_fr_energy">   -179.67516511 </i>
    <i name="e_wo_entrp">   -179.64628407 </i>
    <i name="e_0_energy">   -179.66072459 </i>
   </energy>
  </scstep>
  <scstep>
   <time name="dav">   20.50   20.51</time>
   <time name="total">   21.83   21.85</time>
   <energy>
    <i name="e_fr_energy">   -179.67418668 </i>
    <i name="e_wo_entrp">   -179.64546437 </i>
    <i name="e_0_energy">   -179.65982553 </i>
   </energy>
  </scstep>
  <scstep>
   <time name="dav">   21.50   21.50</time>
   <time name="total">   23.06   23.08</time>
   <energy>
    <i name="e_fr_energy">   -179.67467876 </i>
    <i name="e_wo_entrp">   -179.64597659 </i>
    <i name="e_0_energy">   -179.66032768 </i>
   </energy>
  </scstep>
  <scstep>
   <time name="dav">   21.75   21.75</time>
   <time name="total">   23.07   23.09</time>
   <energy>
    <i name="e_fr_energy">   -179.67460508 </i>
    <i name="e_wo_entrp">   -179.64586771 </i>
    <i name="e_0_energy">   -179.66023640 </i>
   </energy>
  </scstep>
  <scstep>
   <time name="dav">   20.72   20.73</time>
   <time name="total">   22.20   22.22</time>
   <energy>
    <i name="e_fr_energy">   -179.67468248 </i>
    <i name="e_wo_entrp">   -179.64593042 </i>
    <i name="e_0_energy">   -179.66030645 </i>
   </energy>
  </scstep>
  <scstep>
   <time name="dav">   19.58   19.59</time>
   <time name="total">   20.91   20.92</time>
   <energy>
    <i name="e_fr_energy">   -179.67469748 </i>
    <i name="e_wo_entrp">   -179.64591214 </i>
    <i name="e_0_energy">   -179.66030481 </i>
   </energy>
  </scstep>
  <scstep>
   <time name="dav">   20.64   20.65</time>
   <time name="total">   21.97   21.99</time>
   <energy>
    <i name="e_fr_energy">   -179.67470483 </i>
    <i name="e_wo_entrp">   -179.64590044 </i>
    <i name="e_0_energy">   -179.66030263 </i>
   </energy>
  </scstep>
  <scstep>
   <time name="dav">   17.35   17.36</time>
   <time name="total">   18.68   18.70</time>
   <energy>
    <i name="e_fr_energy">   -179.67470905 </i>
    <i name="e_wo_entrp">   -179.64589979 </i>
    <i name="e_0_energy">   -179.66030442 </i>
   </energy>
  </scstep>
  <scstep>
   <time name="dav">   15.62   15.62</time>
   <time name="total">   16.95   16.96</time>
   <energy>
    <i name="e_fr_energy">   -179.67471412 </i>
    <i name="e_wo_entrp">   -179.64590902 </i>
    <i name="e_0_energy">   -179.66031157 </i>
   </energy>
  </scstep>
  <scstep>
   <time name="dav">   15.16   15.17</time>
   <time name="total">   16.49   16.51</time>
   <energy>
    <i name="e_fr_energy">   -179.67471832 </i>
    <i name="e_wo_entrp">   -179.64590727 </i>
    <i name="e_0_energy">   -179.66031279 </i>
   </energy>
  </scstep>
  <scstep>
   <time name="dav">   13.25   13.25</time>
   <time name="total">   14.76   14.77</time>
   <energy>
    <i name="e_fr_energy">   -179.67472109 </i>
    <i name="e_wo_entrp">   -179.64591066 </i>
    <i name="e_0_energy">   -179.66031587 </i>
   </energy>
  </scstep>
  <scstep>
   <time name="dav">   13.20   13.20</time>
   <time name="total">   13.64   13.66</time>
   <energy>
    <i name="alphaZ">   1346.99094900 </i>
    <i name="ewald"> -19139.74683937 </i>
    <i name="hartreedc">  -7668.60751904 </i>
    <i name="XCdc">   1198.16480840 </i>
    <i name="pawpsdc">  34077.47679370 </i>
    <i name="pawaedc"> -34830.95386059 </i>
    <i name="eentropy">     -0.02880966 </i>
    <i name="bandstr">  -1682.47393038 </i>
    <i name="atom">  26519.50368762 </i>
    <i name="e_fr_energy">   -179.67472030 </i>
    <i name="e_wo_entrp">   -179.64591064 </i>
    <i name="e_0_energy">   -179.66031547 </i>
   </energy>
  </scstep>
  <structure>
   <crystal>
    <varray name="basis" >
     <v>       9.79795897       0.00000000       0.00000000 </v>
     <v>       0.00000000       5.65685425       0.00000000 </v>
     <v>      -3.26598632       0.00000000       9.23760431 </v>
    </varray>
    <i name="volume">    512.00000000 </i>
    <varray name="rec_basis" >
     <v>       0.10206207       0.00000000       0.03608439 </v>
     <v>       0.00000000       0.17677670       0.00000000 </v>
     <v>       0.00000000       0.00000000       0.10825318 </v>
    </varray>
   </crystal>
   <varray name="positions" >
    <v>       0.37500000       0.62500000       0.62500000 </v>
    <v>       0.12500000       0.62500000       0.87500000 </v>
    <v>       0.87500000       0.62500000       0.12500000 </v>
    <v>       0.12500000       0.12500000       0.37500000 </v>
    <v>       0.87500000       0.12500000       0.62500000 </v>
    <v>       0.62500000       0.12500000       0.87500000 </v>
    <v>       0.37500000       0.12500000       0.12500000 </v>
    <v>       0.62500000       0.62500000       0.37500000 </v>
    <v>       0.50000000       0.12500000       0.50000000 </v>
    <v>       0.75000000       0.62500000       0.75000000 </v>
    <v>       0.00000000       0.12500000       0.00000000 </v>
    <v>       0.25000000       0.62500000       0.25000000 </v>
    <v>       0.00000000       0.62500000       0.50000000 </v>
    <v>       0.25000000       0.12500000       0.75000000 </v>
    <v>       0.50000000       0.62500000       0.00000000 </v>
    <v>       0.75000000       0.12500000       0.25000000 </v>
    <v>       0.62500000       0.87500000       0.62500000 </v>
    <v>       0.87500000       0.37500000       0.87500000 </v>
    <v>       0.12500000       0.87500000       0.12500000 </v>
    <v>       0.87500000       0.87500000       0.87500000 </v>
    <v>       0.12500000       0.37500000       0.12500000 </v>
    <v>       0.37500000       0.87500000       0.37500000 </v>
    <v>       0.37500000       0.12500000       0.62500000 </v>
    <v>       0.62500000       0.62500000       0.87500000 </v>
    <v>       0.37500000       0.62500000       0.12500000 </v>
    <v>       0.12500000       0.62500000       0.37500000 </v>
    <v>       0.12500000       0.37500000       0.62500000 </v>
    <v>       0.37500000       0.87500000       0.87500000 </v>
    <v>       0.62500000       0.37500000       0.12500000 </v>
    <v>       0.37500000       0.37500000       0.87500000 </v>
    <v>       0.62500000       0.87500000       0.12500000 </v>
    <v>       0.87500000       0.37500000       0.37500000 </v>
    <v>       0.87500000       0.62500000       0.62500000 </v>
    <v>       0.12500000       0.12500000       0.87500000 </v>
    <v>       0.87500000       0.12500000       0.12500000 </v>
    <v>       0.62500000       0.12500000       0.37500000 </v>
   </varray>
  </structure>
  <varray name="forces" >
   <v>      -0.27888647       0.46640984       0.79738274 </v>
   <v>      -0.23561867      -0.40498911       0.70869891 </v>
   <v>       0.23561867      -0.40498911      -0.70869891 </v>
   <v>       0.27888647       0.46640984      -0.79738274 </v>
   <v>      -0.27888647       0.46640984       0.79738274 </v>
   <v>      -0.23561867      -0.40498911       0.70869891 </v>
   <v>       0.23561867      -0.40498911      -0.70869891 </v>
   <v>       0.27888647       0.46640984      -0.79738274 </v>
   <v>       0.00000000      -1.55808232       0.00000000 </v>
   <v>       0.23929597       0.83405850       0.64948373 </v>
   <v>       0.00000000      -0.59766208       0.00000000 </v>
   <v>      -0.23929597       0.83405850      -0.64948373 </v>
   <v>       0.00000000      -1.55808232       0.00000000 </v>
   <v>       0.23929597       0.83405850       0.64948373 </v>
   <v>       0.00000000      -0.59766208       0.00000000 </v>
   <v>      -0.23929597       0.83405850      -0.64948373 </v>
   <v>       0.34324880      -0.65538732       0.39081881 </v>
   <v>      -0.47126741       0.06739756      -0.78561361 </v>
   <v>      -0.37556675       0.69922300      -0.43770981 </v>
   <v>       0.37556675       0.69922300       0.43770981 </v>
   <v>       0.47126741       0.06739756       0.78561361 </v>
   <v>      -0.34324880      -0.65538732      -0.39081881 </v>
   <v>       0.35422269       0.38204595      -0.78186039 </v>
   <v>       0.39101425      -0.31088621      -0.73162162 </v>
   <v>      -0.39101425      -0.31088621       0.73162162 </v>
   <v>      -0.35422269       0.38204595       0.78186039 </v>
   <v>       0.34324880      -0.65538732       0.39081881 </v>
   <v>      -0.47126741       0.06739756      -0.78561361 </v>
   <v>      -0.37556675       0.69922300      -0.43770981 </v>
   <v>       0.37556675       0.69922300       0.43770981 </v>
   <v>       0.47126741       0.06739756       0.78561361 </v>
   <v>      -0.34324880      -0.65538732      -0.39081881 </v>
   <v>       0.35422269       0.38204595      -0.78186039 </v>
   <v>       0.39101425      -0.31088621      -0.73162162 </v>
   <v>      -0.39101425      -0.31088621       0.73162162 </v>
   <v>      -0.35422269       0.38204595       0.78186039 </v>
  </varray>
  <varray name="stress" >
   <v>     -89.04416096       0.00000000       5.71000530 </v>
   <v>       0.00000000     -98.08568818       0.00000000 </v>
   <v>       5.71000567       0.00000000     -89.70986945 </v>
  </varray>
  <energy>
   <i name="e_fr_energy">   -179.67472030 </i>
   <i name="e_wo_entrp">   -179.66031547 </i>
   <i name="e_0_energy">     -0.02880966 </i>
  </energy>
  <time name="totalsc">  645.24  647.19</time>
  <eigenvalues>
   <array>
    <dimension dim="1">band</dimension>
    <dimension dim="2">kpoint</dimension>
    <dimension dim="3">spin</dimension>
    <field>eigene</field>
    <field>occ</field>
    <set>
     <set comment="spin 1">
      <set comment="kpoint 1">
       <r>  -31.1069    1.0000 </r>
       <r>  -31.0997    1.0000 </r>
       <r>  -31.0932    1.0000 </r>
       <r>  -31.0870    1.0000 </r>
       <r>  -30.3492    1.0000 </r>
       <r>  -30.3418    1.0000 </r>
       <r>  -30.3350    1.0000 </r>
       <r>  -30.3288    1.0000 </r>
       <r>  -14.8750    1.0000 </r>
       <r>  -14.8625    1.0000 </r>
       <r>  -14.6394    1.0000 </r>
       <r>  -14.6340    1.0000 </r>
       <r>  -14.6328    1.0000 </r>
       <r>  -14.5963    1.0000 </r>
       <r>  -14.2134    1.0000 </r>
       <r>  -14.1676    1.0000 </r>
       <r>  -14.0622    1.0000 </r>
       <r>  -13.9818    1.0000 </r>
       <r>  -13.9672    1.0000 </r>
       <r>  -13.9619    1.0000 </r>
       <r>  -13.9459    1.0000 </r>
       <r>  -13.9450    1.0000 </r>
       <r>  -13.9359    1.0000 </r>
       <r>  -13.8915    1.0000 </r>
       <r>  -13.8711    1.0000 </r>
       <r>  -13.7359    1.0000 </r>
       <r>  -13.7229    1.0000 </r>
       <r>  -13.7104    1.0000 </r>
       <r>  -13.2592    1.0000 </r>
       <r>  -13.2244    1.0000 </r>
       <r>  -13.1811    1.0000 </r>
       <r>  -13.1333    1.0000 </r>
       <r>  -13.0029    1.0000 </r>
       <r>  -12.9583    1.0000 </r>
       <r>  -12.9205    1.0000 </r>
       <r>  -12.8741    1.0000 </r>
       <r>  -12.8638    1.0000 </r>
       <r>  -12.8625    1.0000 </r>
       <r>  -12.7341    1.0000 </r>
       <r>  -12.6777    1.0000 </r>
       <r>  -12.3921    1.0000 </r>
       <r>  -12.3821    1.0000 </r>
       <r>  -12.3590    1.0000 </r>
       <r>  -12.3018    1.0000 </r>
       <r>  -12.2629    1.0000 </r>
       <r>  -12.2477    1.0000 </r>
       <r>  -12.2169    1.0000 </r>
       <r>  -12.2017    1.0000 </r>
       <r>  -12.1736    1.0000 </r>
       <r>  -12.1091    1.0000 </r>
       <r>  -12.0264    1.0000 </r>
       <r>  -11.9781    1.0000 </r>
       <r>   -3.2055    1.0000 </r>
       <r>   -2.7645    1.0000 </r>
       <r>   -2.7331    1.0000 </r>
       <r>   -2.4661    1.0000 </r>
       <r>   -2.4331    1.0000 </r>
       <r>   -2.4321    1.0000 </r>
       <r>   -2.2698    1.0000 </r>
       <r>   -2.2329    1.0000 </r>
       <r>   -2.1962    1.0000 </r>
       <r>   -2.1937    1.0000 </r>
       <r>   -2.1320    1.0000 </r>
       <r>   -2.0079    1.0000 </r>
       <r>   -2.0067    1.0000 </r>
       <r>   -1.9830    1.0000 </r>
       <r>   -1.9529    1.0000 </r>
       <r>   -1.9242    1.0000 </r>
       <r>   -1.8984    1.0000 </r>
       <r>   -1.8827    1.0000 </r>
       <r>   -1.6565    1.0000 </r>
       <r>   -1.6476    1.0000 </r>
       <r>   -1.6128    1.0000 </r>
       <r>   -1.6088    1.0000 </r>
       <r>   -1.5824    1.0000 </r>
       <r>   -1.5718    1.0000 </r>
       <r>   -1.5024    1.0000 </r>
       <r>   -1.4786    1.0000 </r>
       <r>   -1.4080    1.0000 </r>
       <r>   -1.3713    1.0000 </r>
       <r>   -1.3639    1.0000 </r>
       <r>   -1.3554    1.0000 </r>
       <r>   -1.3329    1.0000 </r>
       <r>   -1.2958    1.0000 </r>
       <r>   -1.2888    1.0000 </r>
       <r>   -1.2374    1.0000 </r>
       <r>   -1.2330    1.0000 </r>
       <r>   -1.2065    1.0000 </r>
       <r>   -1.0683    1.0000 </r>
       <r>   -1.0423    1.0000 </r>
       <r>   -0.9164    1.0000 </r>
       <r>   -0.8667    1.0000 </r>
       <r>   -0.8218    1.0000 </r>
       <r>   -0.7756    1.0000 </r>
       <r>   -0.7754    1.0000 </r>
       <r>   -0.3009    1.0000 </r>
       <r>   -0.2174    1.0000 </r>
       <r>   -0.2008    1.0000 </r>
       <r>    0.0162    1.0000 </r>
       <r>    0.2525    1.0000 </r>
       <r>    0.4052    1.0000 </r>
       <r>    0.4508    1.0000 </r>
       <r>    0.5006    1.0000 </r>
       <r>    0.5762    1.0000 </r>
       <r>    0.5800    1.0000 </r>
       <r>    0.7716    1.0000 </r>
       <r>    0.8573    1.0000 </r>
       <r>    0.8707    1.0000 </r>
       <r>    0.8925    1.0000 </r>
       <r>    0.9707    1.0000 </r>
       <r>    0.9721    1.0000 </r>
       <r>    1.0346    1.0000 </r>
       <r>    1.0515    1.0000 </r>
       <r>    1.0908    1.0000 </r>
       <r>    1.1187    1.0000 </r>
       <r>    1.1241    1.0000 </r>
       <r>    1.1775    1.0000 </r>
       <r>    1.1946    1.0000 </r>
       <r>    1.2094    1.0000 </r>
       <r>    1.2258    1.0000 </r>
       <r>    1.2444    1.0000 </r>
       <r>    1.2734    1.0000 </r>
       <r>    1.2826    1.0000 </r>
       <r>    1.3220    1.0000 </r>
       <r>    1.3412    1.0000 </r>
       <r>    1.3503    1.0000 </r>
       <r>    1.3648    1.0000 </r>
       <r>    1.3802    1.0000 </r>
       <r>    1.4726    1.0000 </r>
       <r>    1.5281    1.0000 </r>
       <r>    1.5472    1.0000 </r>
       <r>    1.6907    1.0000 </r>
       <r>    1.7771    1.0000 </r>
       <r>    1.7963    1.0000 </r>
       <r>    1.8003    1.0000 </r>
       <r>    1.8126    1.0000 </r>
       <r>    1.8539    1.0000 </r>
       <r>    1.9232    1.0000 </r>
       <r>    2.0863    1.0000 </r>
       <r>    2.1877    1.0000 </r>
       <r>    2.2150    1.0000 </r>
       <r>    2.2827    0.9998 </r>
       <r>    2.3121    0.9972 </r>
       <r>    2.3474    0.9620 </r>
       <r>    2.3557    0.9383 </r>
       <r>    2.6092    0.0000 </r>
       <r>    2.7973    0.0000 </r>
       <r>    2.8060    0.0000 </r>
       <r>    2.8127    0.0000 </r>
       <r>    3.6412    0.0000 </r>
       <r>    3.6604    0.0000 </r>
       <r>    3.6728    0.0000 </r>
       <r>    4.1856    0.0000 </r>
       <r>    5.2584    0.0000 </r>
       <r>    5.3435    0.0000 </r>
       <r>    6.3025    0.0000 </r>
       <r>    7.5272    0.0000 </r>
       <r>    7.7046    0.0000 </r>
       <r>    7.8810    0.0000 </r>
       <r>    8.0590    0.0000 </r>
       <r>    8.2180    0.0000 </r>
       <r>    8.2892    0.0000 </r>
       <r>    8.6846    0.0000 </r>
       <r>    8.9266    0.0000 </r>
       <r>    8.9667    0.0000 </r>
       <r>    9.1581    0.0000 </r>
       <r>    9.2371    0.0000 </r>
       <r>    9.2709    0.0000 </r>
       <r>    9.3499    0.0000 </r>
       <r>    9.4778    0.0000 </r>
       <r>    9.5504    0.0000 </r>
       <r>    9.6552    0.0000 </r>
       <r>    9.6578    0.0000 </r>
       <r>    9.7115    0.0000 </r>
       <r>    9.7984    0.0000 </r>
       <r>    9.8368    0.0000 </r>
       <r>    9.9266    0.0000 </r>
       <r>   10.0944    0.0000 </r>
       <r>   10.1948    0.0000 </r>
       <r>   10.2217    0.0000 </r>
       <r>   10.2606    0.0000 </r>
       <r>   10.2846    0.0000 </r>
       <r>   10.3117    0.0000 </r>
       <r>   10.4420    0.0000 </r>
       <r>   10.7578    0.0000 </r>
       <r>   10.8707    0.0000 </r>
       <r>   10.9262    0.0000 </r>
       <r>   10.9301    0.0000 </r>
       <r>   10.9803    0.0000 </r>
       <r>   11.0517    0.0000 </r>
       <r>   11.1409    0.0000 </r>
       <r>   11.2137    0.0000 </r>
      </set>
      <set comment="kpoint 2">
       <r>  -31.1041    1.0000 </r>
       <r>  -31.1041    1.0000 </r>
       <r>  -31.0893    1.0000 </r>
       <r>  -31.0893    1.0000 </r>
       <r>  -30.3463    1.0000 </r>
       <r>  -30.3463    1.0000 </r>
       <r>  -30.3311    1.0000 </r>
       <r>  -30.3311    1.0000 </r>
       <r>  -14.8610    1.0000 </r>
       <r>  -14.8610    1.0000 </r>
       <r>  -14.6976    1.0000 </r>
       <r>  -14.6976    1.0000 </r>
       <r>  -14.5099    1.0000 </r>
       <r>  -14.5099    1.0000 </r>
       <r>  -14.2492    1.0000 </r>
       <r>  -14.2492    1.0000 </r>
       <r>  -14.0553    1.0000 </r>
       <r>  -14.0553    1.0000 </r>
       <r>  -14.0036    1.0000 </r>
       <r>  -14.0036    1.0000 </r>
       <r>  -13.9301    1.0000 </r>
       <r>  -13.9301    1.0000 </r>
       <r>  -13.8529    1.0000 </r>
       <r>  -13.8529    1.0000 </r>
       <r>  -13.8394    1.0000 </r>
       <r>  -13.8394    1.0000 </r>
       <r>  -13.7155    1.0000 </r>
       <r>  -13.7155    1.0000 </r>
       <r>  -13.2407    1.0000 </r>
       <r>  -13.2407    1.0000 </r>
       <r>  -13.1567    1.0000 </r>
       <r>  -13.1567    1.0000 </r>
       <r>  -12.9209    1.0000 </r>
       <r>  -12.9209    1.0000 </r>
       <r>  -12.8830    1.0000 </r>
       <r>  -12.8830    1.0000 </r>
       <r>  -12.8212    1.0000 </r>
       <r>  -12.8212    1.0000 </r>
       <r>  -12.7727    1.0000 </r>
       <r>  -12.7727    1.0000 </r>
       <r>  -12.3897    1.0000 </r>
       <r>  -12.3897    1.0000 </r>
       <r>  -12.2940    1.0000 </r>
       <r>  -12.2940    1.0000 </r>
       <r>  -12.2484    1.0000 </r>
       <r>  -12.2484    1.0000 </r>
       <r>  -12.1688    1.0000 </r>
       <r>  -12.1688    1.0000 </r>
       <r>  -12.1414    1.0000 </r>
       <r>  -12.1414    1.0000 </r>
       <r>  -12.0996    1.0000 </r>
       <r>  -12.0996    1.0000 </r>
       <r>   -2.9441    1.0000 </r>
       <r>   -2.9441    1.0000 </r>
       <r>   -2.5811    1.0000 </r>
       <r>   -2.5811    1.0000 </r>
       <r>   -2.5628    1.0000 </r>
       <r>   -2.5628    1.0000 </r>
       <r>   -2.3494    1.0000 </r>
       <r>   -2.3494    1.0000 </r>
       <r>   -2.1063    1.0000 </r>
       <r>   -2.1063    1.0000 </r>
       <r>   -2.0824    1.0000 </r>
       <r>   -2.0824    1.0000 </r>
       <r>   -2.0070    1.0000 </r>
       <r>   -2.0070    1.0000 </r>
       <r>   -1.9072    1.0000 </r>
       <r>   -1.9072    1.0000 </r>
       <r>   -1.8445    1.0000 </r>
       <r>   -1.8445    1.0000 </r>
       <r>   -1.6551    1.0000 </r>
       <r>   -1.6551    1.0000 </r>
       <r>   -1.5761    1.0000 </r>
       <r>   -1.5761    1.0000 </r>
       <r>   -1.5667    1.0000 </r>
       <r>   -1.5667    1.0000 </r>
       <r>   -1.4501    1.0000 </r>
       <r>   -1.4501    1.0000 </r>
       <r>   -1.3815    1.0000 </r>
       <r>   -1.3815    1.0000 </r>
       <r>   -1.3416    1.0000 </r>
       <r>   -1.3416    1.0000 </r>
       <r>   -1.2757    1.0000 </r>
       <r>   -1.2757    1.0000 </r>
       <r>   -1.2349    1.0000 </r>
       <r>   -1.2349    1.0000 </r>
       <r>   -1.1238    1.0000 </r>
       <r>   -1.1238    1.0000 </r>
       <r>   -1.0433    1.0000 </r>
       <r>   -1.0433    1.0000 </r>
       <r>   -0.9595    1.0000 </r>
       <r>   -0.9595    1.0000 </r>
       <r>   -0.8977    1.0000 </r>
       <r>   -0.8977    1.0000 </r>
       <r>   -0.8079    1.0000 </r>
       <r>   -0.8079    1.0000 </r>
       <r>   -0.0180    1.0000 </r>
       <r>   -0.0180    1.0000 </r>
       <r>    0.1616    1.0000 </r>
       <r>    0.1616    1.0000 </r>
       <r>    0.3659    1.0000 </r>
       <r>    0.3659    1.0000 </r>
       <r>    0.4885    1.0000 </r>
       <r>    0.4885    1.0000 </r>
       <r>    0.7482    1.0000 </r>
       <r>    0.7482    1.0000 </r>
       <r>    0.8268    1.0000 </r>
       <r>    0.8268    1.0000 </r>
       <r>    0.8599    1.0000 </r>
       <r>    0.8599    1.0000 </r>
       <r>    0.9523    1.0000 </r>
       <r>    0.9523    1.0000 </r>
       <r>    1.0595    1.0000 </r>
       <r>    1.0595    1.0000 </r>
       <r>    1.1445    1.0000 </r>
       <r>    1.1445    1.0000 </r>
       <r>    1.1752    1.0000 </r>
       <r>    1.1752    1.0000 </r>
       <r>    1.1824    1.0000 </r>
       <r>    1.1824    1.0000 </r>
       <r>    1.2803    1.0000 </r>
       <r>    1.2803    1.0000 </r>
       <r>    1.3578    1.0000 </r>
       <r>    1.3578    1.0000 </r>
       <r>    1.3967    1.0000 </r>
       <r>    1.3967    1.0000 </r>
       <r>    1.5501    1.0000 </r>
       <r>    1.5501    1.0000 </r>
       <r>    1.5975    1.0000 </r>
       <r>    1.5975    1.0000 </r>
       <r>    1.6962    1.0000 </r>
       <r>    1.6962    1.0000 </r>
       <r>    1.7098    1.0000 </r>
       <r>    1.7098    1.0000 </r>
       <r>    1.9206    1.0000 </r>
       <r>    1.9206    1.0000 </r>
       <r>    1.9668    1.0000 </r>
       <r>    1.9668    1.0000 </r>
       <r>    2.0642    1.0000 </r>
       <r>    2.0642    1.0000 </r>
       <r>    2.0852    1.0000 </r>
       <r>    2.0852    1.0000 </r>
       <r>    2.1974    1.0000 </r>
       <r>    2.1974    1.0000 </r>
       <r>    2.3042    0.9986 </r>
       <r>    2.3042    0.9986 </r>
       <r>    2.8398    0.0000 </r>
       <r>    2.8398    0.0000 </r>
       <r>    3.3362    0.0000 </r>
       <r>    3.3362    0.0000 </r>
       <r>    3.6199    0.0000 </r>
       <r>    3.6199    0.0000 </r>
       <r>    4.4775    0.0000 </r>
       <r>    4.4775    0.0000 </r>
       <r>    5.7890    0.0000 </r>
       <r>    5.7890    0.0000 </r>
       <r>    8.0094    0.0000 </r>
       <r>    8.0094    0.0000 </r>
       <r>    8.3279    0.0000 </r>
       <r>    8.3279    0.0000 </r>
       <r>    8.4687    0.0000 </r>
       <r>    8.4687    0.0000 </r>
       <r>    8.7019    0.0000 </r>
       <r>    8.7019    0.0000 </r>
       <r>    8.8815    0.0000 </r>
       <r>    8.8815    0.0000 </r>
       <r>    9.1809    0.0000 </r>
       <r>    9.1809    0.0000 </r>
       <r>    9.3782    0.0000 </r>
       <r>    9.3782    0.0000 </r>
       <r>    9.7216    0.0000 </r>
       <r>    9.7216    0.0000 </r>
       <r>    9.7691    0.0000 </r>
       <r>    9.7691    0.0000 </r>
       <r>    9.9453    0.0000 </r>
       <r>    9.9453    0.0000 </r>
       <r>   10.0799    0.0000 </r>
       <r>   10.0799    0.0000 </r>
       <r>   10.3092    0.0000 </r>
       <r>   10.3092    0.0000 </r>
       <r>   10.4063    0.0000 </r>
       <r>   10.4063    0.0000 </r>
       <r>   10.4543    0.0000 </r>
       <r>   10.4543    0.0000 </r>
       <r>   10.7051    0.0000 </r>
       <r>   10.7052    0.0000 </r>
       <r>   10.7507    0.0000 </r>
       <r>   10.7509    0.0000 </r>
       <r>   10.9091    0.0000 </r>
       <r>   10.9093    0.0000 </r>
       <r>   10.9424    0.0000 </r>
       <r>   10.9434    0.0000 </r>
      </set>
      <set comment="kpoint 3">
       <r>  -31.1047    1.0000 </r>
       <r>  -31.0976    1.0000 </r>
       <r>  -31.0950    1.0000 </r>
       <r>  -31.0887    1.0000 </r>
       <r>  -30.3470    1.0000 </r>
       <r>  -30.3398    1.0000 </r>
       <r>  -30.3369    1.0000 </r>
       <r>  -30.3306    1.0000 </r>
       <r>  -14.8636    1.0000 </r>
       <r>  -14.8270    1.0000 </r>
       <r>  -14.7016    1.0000 </r>
       <r>  -14.6866    1.0000 </r>
       <r>  -14.6820    1.0000 </r>
       <r>  -14.6759    1.0000 </r>
       <r>  -14.3892    1.0000 </r>
       <r>  -14.1784    1.0000 </r>
       <r>  -14.0944    1.0000 </r>
       <r>  -14.0930    1.0000 </r>
       <r>  -14.0873    1.0000 </r>
       <r>  -14.0221    1.0000 </r>
       <r>  -14.0073    1.0000 </r>
       <r>  -13.9838    1.0000 </r>
       <r>  -13.9317    1.0000 </r>
       <r>  -13.8622    1.0000 </r>
       <r>  -13.7941    1.0000 </r>
       <r>  -13.7351    1.0000 </r>
       <r>  -13.6994    1.0000 </r>
       <r>  -13.6857    1.0000 </r>
       <r>  -13.1603    1.0000 </r>
       <r>  -13.1569    1.0000 </r>
       <r>  -13.1213    1.0000 </r>
       <r>  -13.0860    1.0000 </r>
       <r>  -12.9931    1.0000 </r>
       <r>  -12.9067    1.0000 </r>
       <r>  -12.8932    1.0000 </r>
       <r>  -12.8584    1.0000 </r>
       <r>  -12.8081    1.0000 </r>
       <r>  -12.8009    1.0000 </r>
       <r>  -12.6978    1.0000 </r>
       <r>  -12.6639    1.0000 </r>
       <r>  -12.3304    1.0000 </r>
       <r>  -12.3301    1.0000 </r>
       <r>  -12.3214    1.0000 </r>
       <r>  -12.2632    1.0000 </r>
       <r>  -12.2584    1.0000 </r>
       <r>  -12.2328    1.0000 </r>
       <r>  -12.1542    1.0000 </r>
       <r>  -12.1300    1.0000 </r>
       <r>  -12.1207    1.0000 </r>
       <r>  -12.0725    1.0000 </r>
       <r>  -12.0358    1.0000 </r>
       <r>  -12.0168    1.0000 </r>
       <r>   -3.1021    1.0000 </r>
       <r>   -2.7898    1.0000 </r>
       <r>   -2.6959    1.0000 </r>
       <r>   -2.5146    1.0000 </r>
       <r>   -2.5086    1.0000 </r>
       <r>   -2.5049    1.0000 </r>
       <r>   -2.2129    1.0000 </r>
       <r>   -2.1891    1.0000 </r>
       <r>   -2.1256    1.0000 </r>
       <r>   -2.1237    1.0000 </r>
       <r>   -2.0173    1.0000 </r>
       <r>   -2.0121    1.0000 </r>
       <r>   -2.0056    1.0000 </r>
       <r>   -1.9856    1.0000 </r>
       <r>   -1.9804    1.0000 </r>
       <r>   -1.9603    1.0000 </r>
       <r>   -1.9142    1.0000 </r>
       <r>   -1.8195    1.0000 </r>
       <r>   -1.8145    1.0000 </r>
       <r>   -1.8079    1.0000 </r>
       <r>   -1.7007    1.0000 </r>
       <r>   -1.6461    1.0000 </r>
       <r>   -1.6308    1.0000 </r>
       <r>   -1.5581    1.0000 </r>
       <r>   -1.4932    1.0000 </r>
       <r>   -1.4870    1.0000 </r>
       <r>   -1.4454    1.0000 </r>
       <r>   -1.4404    1.0000 </r>
       <r>   -1.3843    1.0000 </r>
       <r>   -1.3473    1.0000 </r>
       <r>   -1.3417    1.0000 </r>
       <r>   -1.3150    1.0000 </r>
       <r>   -1.2596    1.0000 </r>
       <r>   -1.2428    1.0000 </r>
       <r>   -1.1923    1.0000 </r>
       <r>   -1.1779    1.0000 </r>
       <r>   -1.0482    1.0000 </r>
       <r>   -1.0119    1.0000 </r>
       <r>   -0.9961    1.0000 </r>
       <r>   -0.9104    1.0000 </r>
       <r>   -0.8129    1.0000 </r>
       <r>   -0.8079    1.0000 </r>
       <r>   -0.7432    1.0000 </r>
       <r>   -0.3970    1.0000 </r>
       <r>   -0.0155    1.0000 </r>
       <r>    0.1098    1.0000 </r>
       <r>    0.1303    1.0000 </r>
       <r>    0.1536    1.0000 </r>
       <r>    0.2373    1.0000 </r>
       <r>    0.2694    1.0000 </r>
       <r>    0.2908    1.0000 </r>
       <r>    0.5221    1.0000 </r>
       <r>    0.6868    1.0000 </r>
       <r>    0.7655    1.0000 </r>
       <r>    0.7711    1.0000 </r>
       <r>    0.7983    1.0000 </r>
       <r>    0.8304    1.0000 </r>
       <r>    0.8930    1.0000 </r>
       <r>    0.9172    1.0000 </r>
       <r>    0.9560    1.0000 </r>
       <r>    0.9755    1.0000 </r>
       <r>    0.9767    1.0000 </r>
       <r>    1.0612    1.0000 </r>
       <r>    1.0757    1.0000 </r>
       <r>    1.1102    1.0000 </r>
       <r>    1.1202    1.0000 </r>
       <r>    1.1563    1.0000 </r>
       <r>    1.1828    1.0000 </r>
       <r>    1.1974    1.0000 </r>
       <r>    1.2168    1.0000 </r>
       <r>    1.2435    1.0000 </r>
       <r>    1.2685    1.0000 </r>
       <r>    1.3408    1.0000 </r>
       <r>    1.3508    1.0000 </r>
       <r>    1.3950    1.0000 </r>
       <r>    1.4171    1.0000 </r>
       <r>    1.4780    1.0000 </r>
       <r>    1.5312    1.0000 </r>
       <r>    1.6827    1.0000 </r>
       <r>    1.6875    1.0000 </r>
       <r>    1.7605    1.0000 </r>
       <r>    1.7668    1.0000 </r>
       <r>    1.7802    1.0000 </r>
       <r>    1.8404    1.0000 </r>
       <r>    1.9033    1.0000 </r>
       <r>    1.9147    1.0000 </r>
       <r>    1.9329    1.0000 </r>
       <r>    1.9903    1.0000 </r>
       <r>    2.0859    1.0000 </r>
       <r>    2.1447    1.0000 </r>
       <r>    2.1722    1.0000 </r>
       <r>    2.2494    1.0000 </r>
       <r>    2.2504    1.0000 </r>
       <r>    2.7529    0.0000 </r>
       <r>    2.7555    0.0000 </r>
       <r>    2.8418    0.0000 </r>
       <r>    3.0573    0.0000 </r>
       <r>    3.4190    0.0000 </r>
       <r>    3.4792    0.0000 </r>
       <r>    3.6633    0.0000 </r>
       <r>    4.3466    0.0000 </r>
       <r>    5.3587    0.0000 </r>
       <r>    5.7714    0.0000 </r>
       <r>    6.5889    0.0000 </r>
       <r>    7.7345    0.0000 </r>
       <r>    7.8269    0.0000 </r>
       <r>    8.2357    0.0000 </r>
       <r>    8.2391    0.0000 </r>
       <r>    8.4695    0.0000 </r>
       <r>    8.5659    0.0000 </r>
       <r>    8.5793    0.0000 </r>
       <r>    8.9387    0.0000 </r>
       <r>    9.0369    0.0000 </r>
       <r>    9.0681    0.0000 </r>
       <r>    9.2691    0.0000 </r>
       <r>    9.3274    0.0000 </r>
       <r>    9.5531    0.0000 </r>
       <r>    9.6832    0.0000 </r>
       <r>    9.7648    0.0000 </r>
       <r>    9.7977    0.0000 </r>
       <r>    9.8913    0.0000 </r>
       <r>    9.9113    0.0000 </r>
       <r>   10.0319    0.0000 </r>
       <r>   10.0797    0.0000 </r>
       <r>   10.0889    0.0000 </r>
       <r>   10.2768    0.0000 </r>
       <r>   10.3116    0.0000 </r>
       <r>   10.3633    0.0000 </r>
       <r>   10.4084    0.0000 </r>
       <r>   10.4095    0.0000 </r>
       <r>   10.4776    0.0000 </r>
       <r>   10.6402    0.0000 </r>
       <r>   10.8492    0.0000 </r>
       <r>   10.8774    0.0000 </r>
       <r>   10.9676    0.0000 </r>
       <r>   11.0388    0.0000 </r>
       <r>   11.0407    0.0000 </r>
       <r>   11.0518    0.0000 </r>
       <r>   11.1062    0.0000 </r>
       <r>   11.1643    0.0000 </r>
      </set>
      <set comment="kpoint 4">
       <r>  -31.1022    1.0000 </r>
       <r>  -31.1022    1.0000 </r>
       <r>  -31.0908    1.0000 </r>
       <r>  -31.0908    1.0000 </r>
       <r>  -30.3444    1.0000 </r>
       <r>  -30.3444    1.0000 </r>
       <r>  -30.3327    1.0000 </r>
       <r>  -30.3327    1.0000 </r>
       <r>  -14.8619    1.0000 </r>
       <r>  -14.8619    1.0000 </r>
       <r>  -14.7619    1.0000 </r>
       <r>  -14.7619    1.0000 </r>
       <r>  -14.5447    1.0000 </r>
       <r>  -14.5447    1.0000 </r>
       <r>  -14.3203    1.0000 </r>
       <r>  -14.3203    1.0000 </r>
       <r>  -14.1403    1.0000 </r>
       <r>  -14.1403    1.0000 </r>
       <r>  -14.0386    1.0000 </r>
       <r>  -14.0386    1.0000 </r>
       <r>  -13.9816    1.0000 </r>
       <r>  -13.9816    1.0000 </r>
       <r>  -13.9259    1.0000 </r>
       <r>  -13.9259    1.0000 </r>
       <r>  -13.7612    1.0000 </r>
       <r>  -13.7612    1.0000 </r>
       <r>  -13.6799    1.0000 </r>
       <r>  -13.6799    1.0000 </r>
       <r>  -13.1553    1.0000 </r>
       <r>  -13.1553    1.0000 </r>
       <r>  -13.1194    1.0000 </r>
       <r>  -13.1194    1.0000 </r>
       <r>  -12.9430    1.0000 </r>
       <r>  -12.9430    1.0000 </r>
       <r>  -12.8587    1.0000 </r>
       <r>  -12.8587    1.0000 </r>
       <r>  -12.7719    1.0000 </r>
       <r>  -12.7719    1.0000 </r>
       <r>  -12.6944    1.0000 </r>
       <r>  -12.6944    1.0000 </r>
       <r>  -12.3509    1.0000 </r>
       <r>  -12.3509    1.0000 </r>
       <r>  -12.2686    1.0000 </r>
       <r>  -12.2686    1.0000 </r>
       <r>  -12.2241    1.0000 </r>
       <r>  -12.2241    1.0000 </r>
       <r>  -12.1550    1.0000 </r>
       <r>  -12.1550    1.0000 </r>
       <r>  -12.1003    1.0000 </r>
       <r>  -12.1003    1.0000 </r>
       <r>  -12.0501    1.0000 </r>
       <r>  -12.0501    1.0000 </r>
       <r>   -2.8921    1.0000 </r>
       <r>   -2.8921    1.0000 </r>
       <r>   -2.6302    1.0000 </r>
       <r>   -2.6302    1.0000 </r>
       <r>   -2.5554    1.0000 </r>
       <r>   -2.5554    1.0000 </r>
       <r>   -2.3635    1.0000 </r>
       <r>   -2.3635    1.0000 </r>
       <r>   -2.1111    1.0000 </r>
       <r>   -2.1111    1.0000 </r>
       <r>   -2.0904    1.0000 </r>
       <r>   -2.0904    1.0000 </r>
       <r>   -2.0503    1.0000 </r>
       <r>   -2.0503    1.0000 </r>
       <r>   -1.8970    1.0000 </r>
       <r>   -1.8970    1.0000 </r>
       <r>   -1.7463    1.0000 </r>
       <r>   -1.7463    1.0000 </r>
       <r>   -1.7314    1.0000 </r>
       <r>   -1.7314    1.0000 </r>
       <r>   -1.6062    1.0000 </r>
       <r>   -1.6062    1.0000 </r>
       <r>   -1.5521    1.0000 </r>
       <r>   -1.5521    1.0000 </r>
       <r>   -1.4400    1.0000 </r>
       <r>   -1.4400    1.0000 </r>
       <r>   -1.3850    1.0000 </r>
       <r>   -1.3850    1.0000 </r>
       <r>   -1.3619    1.0000 </r>
       <r>   -1.3619    1.0000 </r>
       <r>   -1.2516    1.0000 </r>
       <r>   -1.2516    1.0000 </r>
       <r>   -1.2356    1.0000 </r>
       <r>   -1.2356    1.0000 </r>
       <r>   -1.1413    1.0000 </r>
       <r>   -1.1413    1.0000 </r>
       <r>   -1.0783    1.0000 </r>
       <r>   -1.0783    1.0000 </r>
       <r>   -1.0070    1.0000 </r>
       <r>   -1.0070    1.0000 </r>
       <r>   -0.8685    1.0000 </r>
       <r>   -0.8685    1.0000 </r>
       <r>   -0.8191    1.0000 </r>
       <r>   -0.8191    1.0000 </r>
       <r>   -0.0987    1.0000 </r>
       <r>   -0.0987    1.0000 </r>
       <r>    0.0349    1.0000 </r>
       <r>    0.0349    1.0000 </r>
       <r>    0.3990    1.0000 </r>
       <r>    0.3990    1.0000 </r>
       <r>    0.5881    1.0000 </r>
       <r>    0.5881    1.0000 </r>
       <r>    0.7387    1.0000 </r>
       <r>    0.7387    1.0000 </r>
       <r>    0.7662    1.0000 </r>
       <r>    0.7662    1.0000 </r>
       <r>    0.8159    1.0000 </r>
       <r>    0.8159    1.0000 </r>
       <r>    0.9214    1.0000 </r>
       <r>    0.9214    1.0000 </r>
       <r>    1.0287    1.0000 </r>
       <r>    1.0287    1.0000 </r>
       <r>    1.0686    1.0000 </r>
       <r>    1.0686    1.0000 </r>
       <r>    1.1227    1.0000 </r>
       <r>    1.1227    1.0000 </r>
       <r>    1.1811    1.0000 </r>
       <r>    1.1811    1.0000 </r>
       <r>    1.2060    1.0000 </r>
       <r>    1.2060    1.0000 </r>
       <r>    1.3207    1.0000 </r>
       <r>    1.3207    1.0000 </r>
       <r>    1.4005    1.0000 </r>
       <r>    1.4005    1.0000 </r>
       <r>    1.4632    1.0000 </r>
       <r>    1.4632    1.0000 </r>
       <r>    1.5778    1.0000 </r>
       <r>    1.5778    1.0000 </r>
       <r>    1.6315    1.0000 </r>
       <r>    1.6315    1.0000 </r>
       <r>    1.7301    1.0000 </r>
       <r>    1.7301    1.0000 </r>
       <r>    1.7754    1.0000 </r>
       <r>    1.7754    1.0000 </r>
       <r>    1.9030    1.0000 </r>
       <r>    1.9030    1.0000 </r>
       <r>    1.9768    1.0000 </r>
       <r>    1.9768    1.0000 </r>
       <r>    2.0576    1.0000 </r>
       <r>    2.0576    1.0000 </r>
       <r>    2.1944    1.0000 </r>
       <r>    2.1944    1.0000 </r>
       <r>    2.4747    0.0340 </r>
       <r>    2.4747    0.0340 </r>
       <r>    2.7461    0.0000 </r>
       <r>    2.7461    0.0000 </r>
       <r>    3.0206    0.0000 </r>
       <r>    3.0206    0.0000 </r>
       <r>    3.7728    0.0000 </r>
       <r>    3.7728    0.0000 </r>
       <r>    4.7530    0.0000 </r>
       <r>    4.7530    0.0000 </r>
       <r>    6.1078    0.0000 </r>
       <r>    6.1078    0.0000 </r>
       <r>    7.9200    0.0000 </r>
       <r>    7.9200    0.0000 </r>
       <r>    8.4405    0.0000 </r>
       <r>    8.4405    0.0000 </r>
       <r>    8.6738    0.0000 </r>
       <r>    8.6738    0.0000 </r>
       <r>    8.8087    0.0000 </r>
       <r>    8.8087    0.0000 </r>
       <r>    9.0404    0.0000 </r>
       <r>    9.0404    0.0000 </r>
       <r>    9.3330    0.0000 </r>
       <r>    9.3330    0.0000 </r>
       <r>    9.4848    0.0000 </r>
       <r>    9.4848    0.0000 </r>
       <r>    9.8427    0.0000 </r>
       <r>    9.8427    0.0000 </r>
       <r>    9.9265    0.0000 </r>
       <r>    9.9265    0.0000 </r>
       <r>   10.1290    0.0000 </r>
       <r>   10.1290    0.0000 </r>
       <r>   10.1902    0.0000 </r>
       <r>   10.1902    0.0000 </r>
       <r>   10.2651    0.0000 </r>
       <r>   10.2651    0.0000 </r>
       <r>   10.4586    0.0000 </r>
       <r>   10.4586    0.0000 </r>
       <r>   10.5541    0.0000 </r>
       <r>   10.5541    0.0000 </r>
       <r>   10.6118    0.0000 </r>
       <r>   10.6118    0.0000 </r>
       <r>   10.7901    0.0000 </r>
       <r>   10.7901    0.0000 </r>
       <r>   10.8815    0.0000 </r>
       <r>   10.8815    0.0000 </r>
       <r>   11.1107    0.0000 </r>
       <r>   11.1316    0.0000 </r>
      </set>
      <set comment="kpoint 5">
       <r>  -31.0996    1.0000 </r>
       <r>  -31.0996    1.0000 </r>
       <r>  -31.0930    1.0000 </r>
       <r>  -31.0930    1.0000 </r>
       <r>  -30.3418    1.0000 </r>
       <r>  -30.3418    1.0000 </r>
       <r>  -30.3350    1.0000 </r>
       <r>  -30.3350    1.0000 </r>
       <r>  -14.8432    1.0000 </r>
       <r>  -14.8432    1.0000 </r>
       <r>  -14.7453    1.0000 </r>
       <r>  -14.7453    1.0000 </r>
       <r>  -14.7363    1.0000 </r>
       <r>  -14.7363    1.0000 </r>
       <r>  -14.3414    1.0000 </r>
       <r>  -14.3414    1.0000 </r>
       <r>  -14.1755    1.0000 </r>
       <r>  -14.1755    1.0000 </r>
       <r>  -14.0747    1.0000 </r>
       <r>  -14.0747    1.0000 </r>
       <r>  -13.9939    1.0000 </r>
       <r>  -13.9939    1.0000 </r>
       <r>  -13.9645    1.0000 </r>
       <r>  -13.9645    1.0000 </r>
       <r>  -13.7208    1.0000 </r>
       <r>  -13.7208    1.0000 </r>
       <r>  -13.7061    1.0000 </r>
       <r>  -13.7061    1.0000 </r>
       <r>  -13.0917    1.0000 </r>
       <r>  -13.0917    1.0000 </r>
       <r>  -13.0670    1.0000 </r>
       <r>  -13.0670    1.0000 </r>
       <r>  -12.9509    1.0000 </r>
       <r>  -12.9509    1.0000 </r>
       <r>  -12.8571    1.0000 </r>
       <r>  -12.8571    1.0000 </r>
       <r>  -12.6767    1.0000 </r>
       <r>  -12.6767    1.0000 </r>
       <r>  -12.6759    1.0000 </r>
       <r>  -12.6759    1.0000 </r>
       <r>  -12.2980    1.0000 </r>
       <r>  -12.2980    1.0000 </r>
       <r>  -12.2767    1.0000 </r>
       <r>  -12.2767    1.0000 </r>
       <r>  -12.1598    1.0000 </r>
       <r>  -12.1598    1.0000 </r>
       <r>  -12.1437    1.0000 </r>
       <r>  -12.1437    1.0000 </r>
       <r>  -12.0322    1.0000 </r>
       <r>  -12.0322    1.0000 </r>
       <r>  -12.0314    1.0000 </r>
       <r>  -12.0314    1.0000 </r>
       <r>   -2.8996    1.0000 </r>
       <r>   -2.8996    1.0000 </r>
       <r>   -2.6146    1.0000 </r>
       <r>   -2.6146    1.0000 </r>
       <r>   -2.5576    1.0000 </r>
       <r>   -2.5576    1.0000 </r>
       <r>   -2.2195    1.0000 </r>
       <r>   -2.2195    1.0000 </r>
       <r>   -2.0760    1.0000 </r>
       <r>   -2.0760    1.0000 </r>
       <r>   -2.0313    1.0000 </r>
       <r>   -2.0313    1.0000 </r>
       <r>   -1.9961    1.0000 </r>
       <r>   -1.9961    1.0000 </r>
       <r>   -1.9760    1.0000 </r>
       <r>   -1.9760    1.0000 </r>
       <r>   -1.9389    1.0000 </r>
       <r>   -1.9389    1.0000 </r>
       <r>   -1.7727    1.0000 </r>
       <r>   -1.7727    1.0000 </r>
       <r>   -1.6965    1.0000 </r>
       <r>   -1.6965    1.0000 </r>
       <r>   -1.6377    1.0000 </r>
       <r>   -1.6377    1.0000 </r>
       <r>   -1.5051    1.0000 </r>
       <r>   -1.5051    1.0000 </r>
       <r>   -1.4517    1.0000 </r>
       <r>   -1.4517    1.0000 </r>
       <r>   -1.3912    1.0000 </r>
       <r>   -1.3912    1.0000 </r>
       <r>   -1.3329    1.0000 </r>
       <r>   -1.3329    1.0000 </r>
       <r>   -1.2064    1.0000 </r>
       <r>   -1.2064    1.0000 </r>
       <r>   -1.1259    1.0000 </r>
       <r>   -1.1259    1.0000 </r>
       <r>   -1.0448    1.0000 </r>
       <r>   -1.0448    1.0000 </r>
       <r>   -0.9671    1.0000 </r>
       <r>   -0.9671    1.0000 </r>
       <r>   -0.8450    1.0000 </r>
       <r>   -0.8450    1.0000 </r>
       <r>   -0.5855    1.0000 </r>
       <r>   -0.5855    1.0000 </r>
       <r>   -0.1184    1.0000 </r>
       <r>   -0.1184    1.0000 </r>
       <r>    0.0417    1.0000 </r>
       <r>    0.0417    1.0000 </r>
       <r>    0.4250    1.0000 </r>
       <r>    0.4250    1.0000 </r>
       <r>    0.5786    1.0000 </r>
       <r>    0.5786    1.0000 </r>
       <r>    0.6440    1.0000 </r>
       <r>    0.6440    1.0000 </r>
       <r>    0.6869    1.0000 </r>
       <r>    0.6869    1.0000 </r>
       <r>    0.7948    1.0000 </r>
       <r>    0.7948    1.0000 </r>
       <r>    0.8435    1.0000 </r>
       <r>    0.8435    1.0000 </r>
       <r>    0.9780    1.0000 </r>
       <r>    0.9780    1.0000 </r>
       <r>    1.0091    1.0000 </r>
       <r>    1.0091    1.0000 </r>
       <r>    1.0737    1.0000 </r>
       <r>    1.0737    1.0000 </r>
       <r>    1.0746    1.0000 </r>
       <r>    1.0746    1.0000 </r>
       <r>    1.1813    1.0000 </r>
       <r>    1.1813    1.0000 </r>
       <r>    1.3535    1.0000 </r>
       <r>    1.3535    1.0000 </r>
       <r>    1.3868    1.0000 </r>
       <r>    1.3868    1.0000 </r>
       <r>    1.4235    1.0000 </r>
       <r>    1.4235    1.0000 </r>
       <r>    1.4580    1.0000 </r>
       <r>    1.4580    1.0000 </r>
       <r>    1.4795    1.0000 </r>
       <r>    1.4795    1.0000 </r>
       <r>    1.6920    1.0000 </r>
       <r>    1.6920    1.0000 </r>
       <r>    1.8022    1.0000 </r>
       <r>    1.8022    1.0000 </r>
       <r>    1.8193    1.0000 </r>
       <r>    1.8193    1.0000 </r>
       <r>    1.8342    1.0000 </r>
       <r>    1.8342    1.0000 </r>
       <r>    2.0047    1.0000 </r>
       <r>    2.0047    1.0000 </r>
       <r>    2.1253    1.0000 </r>
       <r>    2.1253    1.0000 </r>
       <r>    2.6994    0.0000 </r>
       <r>    2.6994    0.0000 </r>
       <r>    2.7611    0.0000 </r>
       <r>    2.7611    0.0000 </r>
       <r>    3.3114    0.0000 </r>
       <r>    3.3114    0.0000 </r>
       <r>    3.3732    0.0000 </r>
       <r>    3.3732    0.0000 </r>
       <r>    5.0606    0.0000 </r>
       <r>    5.0606    0.0000 </r>
       <r>    6.6056    0.0000 </r>
       <r>    6.6056    0.0000 </r>
       <r>    7.7591    0.0000 </r>
       <r>    7.7591    0.0000 </r>
       <r>    8.5341    0.0000 </r>
       <r>    8.5341    0.0000 </r>
       <r>    8.7241    0.0000 </r>
       <r>    8.7241    0.0000 </r>
       <r>    8.8362    0.0000 </r>
       <r>    8.8362    0.0000 </r>
       <r>    8.8689    0.0000 </r>
       <r>    8.8689    0.0000 </r>
       <r>    9.4979    0.0000 </r>
       <r>    9.4979    0.0000 </r>
       <r>    9.5613    0.0000 </r>
       <r>    9.5613    0.0000 </r>
       <r>    9.9712    0.0000 </r>
       <r>    9.9712    0.0000 </r>
       <r>   10.0904    0.0000 </r>
       <r>   10.0904    0.0000 </r>
       <r>   10.2265    0.0000 </r>
       <r>   10.2265    0.0000 </r>
       <r>   10.3035    0.0000 </r>
       <r>   10.3035    0.0000 </r>
       <r>   10.4100    0.0000 </r>
       <r>   10.4100    0.0000 </r>
       <r>   10.5139    0.0000 </r>
       <r>   10.5139    0.0000 </r>
       <r>   10.7444    0.0000 </r>
       <r>   10.7444    0.0000 </r>
       <r>   10.7852    0.0000 </r>
       <r>   10.7852    0.0000 </r>
       <r>   10.9752    0.0000 </r>
       <r>   10.9752    0.0000 </r>
       <r>   11.0477    0.0000 </r>
       <r>   11.0478    0.0000 </r>
       <r>   11.1986    0.0000 </r>
       <r>   11.2000    0.0000 </r>
      </set>
      <set comment="kpoint 6">
       <r>  -31.0996    1.0000 </r>
       <r>  -31.0996    1.0000 </r>
       <r>  -31.0930    1.0000 </r>
       <r>  -31.0930    1.0000 </r>
       <r>  -30.3418    1.0000 </r>
       <r>  -30.3418    1.0000 </r>
       <r>  -30.3351    1.0000 </r>
       <r>  -30.3351    1.0000 </r>
       <r>  -14.8941    1.0000 </r>
       <r>  -14.8941    1.0000 </r>
       <r>  -14.8032    1.0000 </r>
       <r>  -14.8032    1.0000 </r>
       <r>  -14.5552    1.0000 </r>
       <r>  -14.5552    1.0000 </r>
       <r>  -14.4004    1.0000 </r>
       <r>  -14.4004    1.0000 </r>
       <r>  -14.1963    1.0000 </r>
       <r>  -14.1963    1.0000 </r>
       <r>  -14.0360    1.0000 </r>
       <r>  -14.0360    1.0000 </r>
       <r>  -14.0205    1.0000 </r>
       <r>  -14.0205    1.0000 </r>
       <r>  -13.9301    1.0000 </r>
       <r>  -13.9301    1.0000 </r>
       <r>  -13.8013    1.0000 </r>
       <r>  -13.8013    1.0000 </r>
       <r>  -13.6667    1.0000 </r>
       <r>  -13.6667    1.0000 </r>
       <r>  -13.1436    1.0000 </r>
       <r>  -13.1436    1.0000 </r>
       <r>  -13.0440    1.0000 </r>
       <r>  -13.0440    1.0000 </r>
       <r>  -12.9352    1.0000 </r>
       <r>  -12.9352    1.0000 </r>
       <r>  -12.8531    1.0000 </r>
       <r>  -12.8531    1.0000 </r>
       <r>  -12.6993    1.0000 </r>
       <r>  -12.6993    1.0000 </r>
       <r>  -12.6261    1.0000 </r>
       <r>  -12.6261    1.0000 </r>
       <r>  -12.3211    1.0000 </r>
       <r>  -12.3211    1.0000 </r>
       <r>  -12.2604    1.0000 </r>
       <r>  -12.2604    1.0000 </r>
       <r>  -12.2156    1.0000 </r>
       <r>  -12.2156    1.0000 </r>
       <r>  -12.1159    1.0000 </r>
       <r>  -12.1159    1.0000 </r>
       <r>  -12.0596    1.0000 </r>
       <r>  -12.0596    1.0000 </r>
       <r>  -11.9843    1.0000 </r>
       <r>  -11.9843    1.0000 </r>
       <r>   -2.8819    1.0000 </r>
       <r>   -2.8819    1.0000 </r>
       <r>   -2.6352    1.0000 </r>
       <r>   -2.6352    1.0000 </r>
       <r>   -2.5544    1.0000 </r>
       <r>   -2.5544    1.0000 </r>
       <r>   -2.3733    1.0000 </r>
       <r>   -2.3733    1.0000 </r>
       <r>   -2.1443    1.0000 </r>
       <r>   -2.1443    1.0000 </r>
       <r>   -2.1135    1.0000 </r>
       <r>   -2.1135    1.0000 </r>
       <r>   -2.0683    1.0000 </r>
       <r>   -2.0683    1.0000 </r>
       <r>   -1.8704    1.0000 </r>
       <r>   -1.8704    1.0000 </r>
       <r>   -1.7337    1.0000 </r>
       <r>   -1.7337    1.0000 </r>
       <r>   -1.6411    1.0000 </r>
       <r>   -1.6411    1.0000 </r>
       <r>   -1.6124    1.0000 </r>
       <r>   -1.6124    1.0000 </r>
       <r>   -1.5194    1.0000 </r>
       <r>   -1.5194    1.0000 </r>
       <r>   -1.4645    1.0000 </r>
       <r>   -1.4645    1.0000 </r>
       <r>   -1.4264    1.0000 </r>
       <r>   -1.4264    1.0000 </r>
       <r>   -1.3740    1.0000 </r>
       <r>   -1.3740    1.0000 </r>
       <r>   -1.3405    1.0000 </r>
       <r>   -1.3405    1.0000 </r>
       <r>   -1.2404    1.0000 </r>
       <r>   -1.2404    1.0000 </r>
       <r>   -1.1630    1.0000 </r>
       <r>   -1.1630    1.0000 </r>
       <r>   -1.1189    1.0000 </r>
       <r>   -1.1189    1.0000 </r>
       <r>   -1.0551    1.0000 </r>
       <r>   -1.0551    1.0000 </r>
       <r>   -0.8623    1.0000 </r>
       <r>   -0.8623    1.0000 </r>
       <r>   -0.8313    1.0000 </r>
       <r>   -0.8313    1.0000 </r>
       <r>   -0.0461    1.0000 </r>
       <r>   -0.0461    1.0000 </r>
       <r>    0.1282    1.0000 </r>
       <r>    0.1282    1.0000 </r>
       <r>    0.2297    1.0000 </r>
       <r>    0.2297    1.0000 </r>
       <r>    0.6120    1.0000 </r>
       <r>    0.6120    1.0000 </r>
       <r>    0.6750    1.0000 </r>
       <r>    0.6750    1.0000 </r>
       <r>    0.7162    1.0000 </r>
       <r>    0.7162    1.0000 </r>
       <r>    0.8087    1.0000 </r>
       <r>    0.8087    1.0000 </r>
       <r>    0.9544    1.0000 </r>
       <r>    0.9544    1.0000 </r>
       <r>    0.9846    1.0000 </r>
       <r>    0.9846    1.0000 </r>
       <r>    1.0205    1.0000 </r>
       <r>    1.0205    1.0000 </r>
       <r>    1.1111    1.0000 </r>
       <r>    1.1111    1.0000 </r>
       <r>    1.1382    1.0000 </r>
       <r>    1.1382    1.0000 </r>
       <r>    1.1961    1.0000 </r>
       <r>    1.1961    1.0000 </r>
       <r>    1.2364    1.0000 </r>
       <r>    1.2364    1.0000 </r>
       <r>    1.3189    1.0000 </r>
       <r>    1.3189    1.0000 </r>
       <r>    1.3964    1.0000 </r>
       <r>    1.3964    1.0000 </r>
       <r>    1.5174    1.0000 </r>
       <r>    1.5174    1.0000 </r>
       <r>    1.5750    1.0000 </r>
       <r>    1.5750    1.0000 </r>
       <r>    1.6637    1.0000 </r>
       <r>    1.6637    1.0000 </r>
       <r>    1.7842    1.0000 </r>
       <r>    1.7842    1.0000 </r>
       <r>    1.8544    1.0000 </r>
       <r>    1.8544    1.0000 </r>
       <r>    1.9328    1.0000 </r>
       <r>    1.9328    1.0000 </r>
       <r>    2.0479    1.0000 </r>
       <r>    2.0479    1.0000 </r>
       <r>    2.1882    1.0000 </r>
       <r>    2.1882    1.0000 </r>
       <r>    2.3935    0.6805 </r>
       <r>    2.3935    0.6805 </r>
       <r>    2.5751    0.0000 </r>
       <r>    2.5751    0.0000 </r>
       <r>    3.1330    0.0000 </r>
       <r>    3.1330    0.0000 </r>
       <r>    3.7575    0.0000 </r>
       <r>    3.7575    0.0000 </r>
       <r>    5.1476    0.0000 </r>
       <r>    5.1476    0.0000 </r>
       <r>    6.4964    0.0000 </r>
       <r>    6.4964    0.0000 </r>
       <r>    7.6452    0.0000 </r>
       <r>    7.6452    0.0000 </r>
       <r>    8.3781    0.0000 </r>
       <r>    8.3781    0.0000 </r>
       <r>    8.4846    0.0000 </r>
       <r>    8.4846    0.0000 </r>
       <r>    8.8979    0.0000 </r>
       <r>    8.8979    0.0000 </r>
       <r>    9.2980    0.0000 </r>
       <r>    9.2980    0.0000 </r>
       <r>    9.4503    0.0000 </r>
       <r>    9.4503    0.0000 </r>
       <r>    9.8242    0.0000 </r>
       <r>    9.8242    0.0000 </r>
       <r>    9.9792    0.0000 </r>
       <r>    9.9792    0.0000 </r>
       <r>   10.0881    0.0000 </r>
       <r>   10.0881    0.0000 </r>
       <r>   10.2355    0.0000 </r>
       <r>   10.2355    0.0000 </r>
       <r>   10.2882    0.0000 </r>
       <r>   10.2882    0.0000 </r>
       <r>   10.4330    0.0000 </r>
       <r>   10.4330    0.0000 </r>
       <r>   10.5195    0.0000 </r>
       <r>   10.5195    0.0000 </r>
       <r>   10.7090    0.0000 </r>
       <r>   10.7090    0.0000 </r>
       <r>   10.7895    0.0000 </r>
       <r>   10.7895    0.0000 </r>
       <r>   10.9398    0.0000 </r>
       <r>   10.9399    0.0000 </r>
       <r>   11.0256    0.0000 </r>
       <r>   11.0267    0.0000 </r>
       <r>   11.1156    0.0000 </r>
       <r>   11.1808    0.0000 </r>
      </set>
      <set comment="kpoint 7">
       <r>  -31.1069    1.0000 </r>
       <r>  -31.0997    1.0000 </r>
       <r>  -31.0932    1.0000 </r>
       <r>  -31.0871    1.0000 </r>
       <r>  -30.3492    1.0000 </r>
       <r>  -30.3418    1.0000 </r>
       <r>  -30.3350    1.0000 </r>
       <r>  -30.3288    1.0000 </r>
       <r>  -14.8965    1.0000 </r>
       <r>  -14.8039    1.0000 </r>
       <r>  -14.7135    1.0000 </r>
       <r>  -14.7080    1.0000 </r>
       <r>  -14.5289    1.0000 </r>
       <r>  -14.4858    1.0000 </r>
       <r>  -14.2921    1.0000 </r>
       <r>  -14.1911    1.0000 </r>
       <r>  -14.0767    1.0000 </r>
       <r>  -14.0753    1.0000 </r>
       <r>  -14.0236    1.0000 </r>
       <r>  -13.9773    1.0000 </r>
       <r>  -13.9509    1.0000 </r>
       <r>  -13.8866    1.0000 </r>
       <r>  -13.8794    1.0000 </r>
       <r>  -13.8367    1.0000 </r>
       <r>  -13.8337    1.0000 </r>
       <r>  -13.7849    1.0000 </r>
       <r>  -13.7448    1.0000 </r>
       <r>  -13.7408    1.0000 </r>
       <r>  -13.2209    1.0000 </r>
       <r>  -13.2170    1.0000 </r>
       <r>  -13.1869    1.0000 </r>
       <r>  -13.1585    1.0000 </r>
       <r>  -12.9423    1.0000 </r>
       <r>  -12.9352    1.0000 </r>
       <r>  -12.9154    1.0000 </r>
       <r>  -12.8502    1.0000 </r>
       <r>  -12.8435    1.0000 </r>
       <r>  -12.8152    1.0000 </r>
       <r>  -12.7684    1.0000 </r>
       <r>  -12.6581    1.0000 </r>
       <r>  -12.3937    1.0000 </r>
       <r>  -12.3921    1.0000 </r>
       <r>  -12.3631    1.0000 </r>
       <r>  -12.3201    1.0000 </r>
       <r>  -12.2655    1.0000 </r>
       <r>  -12.2439    1.0000 </r>
       <r>  -12.2240    1.0000 </r>
       <r>  -12.2155    1.0000 </r>
       <r>  -12.2051    1.0000 </r>
       <r>  -12.1144    1.0000 </r>
       <r>  -12.0314    1.0000 </r>
       <r>  -11.9908    1.0000 </r>
       <r>   -3.0344    1.0000 </r>
       <r>   -2.7561    1.0000 </r>
       <r>   -2.7496    1.0000 </r>
       <r>   -2.5842    1.0000 </r>
       <r>   -2.5783    1.0000 </r>
       <r>   -2.4500    1.0000 </r>
       <r>   -2.3845    1.0000 </r>
       <r>   -2.3353    1.0000 </r>
       <r>   -2.1332    1.0000 </r>
       <r>   -2.1122    1.0000 </r>
       <r>   -2.0876    1.0000 </r>
       <r>   -2.0816    1.0000 </r>
       <r>   -2.0425    1.0000 </r>
       <r>   -2.0022    1.0000 </r>
       <r>   -1.9157    1.0000 </r>
       <r>   -1.8812    1.0000 </r>
       <r>   -1.7342    1.0000 </r>
       <r>   -1.7164    1.0000 </r>
       <r>   -1.7048    1.0000 </r>
       <r>   -1.6968    1.0000 </r>
       <r>   -1.6210    1.0000 </r>
       <r>   -1.6135    1.0000 </r>
[...]
       <r>     6.5451     2.0369   155.5095 </r>
       <r>     6.7004     3.1142   155.9933 </r>
       <r>     6.8558     0.0431   156.0000 </r>
       <r>     7.0111     0.0000   156.0000 </r>
       <r>     7.1665     0.0000   156.0000 </r>
       <r>     7.3219     0.0000   156.0000 </r>
       <r>     7.4772     0.0426   156.0066 </r>
       <r>     7.6326     1.3016   156.2088 </r>
       <r>     7.7879     4.3387   156.8829 </r>
       <r>     7.9433     5.2952   157.7056 </r>
       <r>     8.0987     3.0244   158.1754 </r>
       <r>     8.2540     5.6974   159.0606 </r>
       <r>     8.4094     5.0535   159.8457 </r>
       <r>     8.5647     8.9749   161.2400 </r>
       <r>     8.7201     9.5997   162.7314 </r>
       <r>     8.8755     5.9108   163.6497 </r>
       <r>     9.0308     7.5236   164.8186 </r>
       <r>     9.1862     6.8789   165.8873 </r>
       <r>     9.3415     7.2799   167.0183 </r>
       <r>     9.4969     8.9319   168.4060 </r>
       <r>     9.6523     8.5810   169.7391 </r>
       <r>     9.8076    10.7568   171.4103 </r>
       <r>     9.9630    13.3511   173.4845 </r>
       <r>    10.1183    13.9421   175.6505 </r>
       <r>    10.2737    16.0837   178.1493 </r>
       <r>    10.4291    18.4266   181.0120 </r>
       <r>    10.5844    12.5336   182.9593 </r>
       <r>    10.7398    14.1976   185.1650 </r>
       <r>    10.8951    15.7569   187.6130 </r>
       <r>    11.0505    15.0490   189.9510 </r>
       <r>    11.2059    10.5438   191.5891 </r>
       <r>    11.3612     2.6436   191.9998 </r>
       <r>    11.5166     0.0014   192.0000 </r>
       <r>    11.6719     0.0000   192.0000 </r>
       <r>    11.8273     0.0000   192.0000 </r>
       <r>    11.9827     0.0000   192.0000 </r>
       <r>    12.1380     0.0000   192.0000 </r>
       <r>    12.2934     0.0000   192.0000 </r>
       <r>    12.4487     0.0000   192.0000 </r>
       <r>    12.6041     0.0000   192.0000 </r>
       <r>    12.7595     0.0000   192.0000 </r>
       <r>    12.9148     0.0000   192.0000 </r>
       <r>    13.0702     0.0000   192.0000 </r>
       <r>    13.2255     0.0000   192.0000 </r>
       <r>    13.3809     0.0000   192.0000 </r>
      </set>
      <set comment="spin 2">
       <r>   -33.2270     0.0000     0.0000 </r>
       <r>   -33.0717     0.0000     0.0000 </r>
       <r>   -32.9163     0.0000     0.0000 </r>
       <r>   -32.7609     0.0000     0.0000 </r>
       <r>   -32.6056     0.0000     0.0000 </r>
       <r>   -32.4502     0.0000     0.0000 </r>
       <r>   -32.2949     0.0000     0.0000 </r>
       <r>   -32.1395     0.0000     0.0000 </r>
       <r>   -31.9841     0.0000     0.0000 </r>
       <r>   -31.8288     0.0000     0.0000 </r>
       <r>   -31.6734     0.0000     0.0000 </r>
       <r>   -31.5181     0.0000     0.0000 </r>
       <r>   -31.3627     0.0000     0.0000 </r>
       <r>   -31.2074     0.0295     0.0046 </r>
       <r>   -31.0520    23.1724     3.6046 </r>
       <r>   -30.8966     2.5449     4.0000 </r>
       <r>   -30.7413     0.0000     4.0000 </r>
       <r>   -30.5859     0.0000     4.0000 </r>
       <r>   -30.4306     0.1609     4.0250 </r>
       <r>   -30.2752    24.7347     7.8678 </r>
       <r>   -30.1198     0.8511     8.0000 </r>
       <r>   -29.9645     0.0000     8.0000 </r>
       <r>   -29.8091     0.0000     8.0000 </r>
       <r>   -29.6538     0.0000     8.0000 </r>
       <r>   -29.4984     0.0000     8.0000 </r>
       <r>   -29.3430     0.0000     8.0000 </r>
       <r>   -29.1877     0.0000     8.0000 </r>
       <r>   -29.0323     0.0000     8.0000 </r>
       <r>   -28.8770     0.0000     8.0000 </r>
       <r>   -28.7216     0.0000     8.0000 </r>
       <r>   -28.5662     0.0000     8.0000 </r>
       <r>   -28.4109     0.0000     8.0000 </r>
       <r>   -28.2555     0.0000     8.0000 </r>
       <r>   -28.1002     0.0000     8.0000 </r>
       <r>   -27.9448     0.0000     8.0000 </r>
       <r>   -27.7894     0.0000     8.0000 </r>
       <r>   -27.6341     0.0000     8.0000 </r>
       <r>   -27.4787     0.0000     8.0000 </r>
       <r>   -27.3234     0.0000     8.0000 </r>
       <r>   -27.1680     0.0000     8.0000 </r>
       <r>   -27.0126     0.0000     8.0000 </r>
       <r>   -26.8573     0.0000     8.0000 </r>
       <r>   -26.7019     0.0000     8.0000 </r>
       <r>   -26.5466     0.0000     8.0000 </r>
       <r>   -26.3912     0.0000     8.0000 </r>
       <r>   -26.2358     0.0000     8.0000 </r>
       <r>   -26.0805     0.0000     8.0000 </r>
       <r>   -25.9251     0.0000     8.0000 </r>
       <r>   -25.7698     0.0000     8.0000 </r>
       <r>   -25.6144     0.0000     8.0000 </r>
       <r>   -25.4590     0.0000     8.0000 </r>
       <r>   -25.3037     0.0000     8.0000 </r>
       <r>   -25.1483     0.0000     8.0000 </r>
       <r>   -24.9930     0.0000     8.0000 </r>
       <r>   -24.8376     0.0000     8.0000 </r>
       <r>   -24.6822     0.0000     8.0000 </r>
       <r>   -24.5269     0.0000     8.0000 </r>
       <r>   -24.3715     0.0000     8.0000 </r>
       <r>   -24.2162     0.0000     8.0000 </r>
       <r>   -24.0608     0.0000     8.0000 </r>
       <r>   -23.9054     0.0000     8.0000 </r>
       <r>   -23.7501     0.0000     8.0000 </r>
       <r>   -23.5947     0.0000     8.0000 </r>
       <r>   -23.4394     0.0000     8.0000 </r>
       <r>   -23.2840     0.0000     8.0000 </r>
       <r>   -23.1286     0.0000     8.0000 </r>
       <r>   -22.9733     0.0000     8.0000 </r>
       <r>   -22.8179     0.0000     8.0000 </r>
       <r>   -22.6626     0.0000     8.0000 </r>
       <r>   -22.5072     0.0000     8.0000 </r>
       <r>   -22.3518     0.0000     8.0000 </r>
       <r>   -22.1965     0.0000     8.0000 </r>
       <r>   -22.0411     0.0000     8.0000 </r>
       <r>   -21.8858     0.0000     8.0000 </r>
       <r>   -21.7304     0.0000     8.0000 </r>
       <r>   -21.5750     0.0000     8.0000 </r>
       <r>   -21.4197     0.0000     8.0000 </r>
       <r>   -21.2643     0.0000     8.0000 </r>
       <r>   -21.1090     0.0000     8.0000 </r>
       <r>   -20.9536     0.0000     8.0000 </r>
       <r>   -20.7982     0.0000     8.0000 </r>
       <r>   -20.6429     0.0000     8.0000 </r>
       <r>   -20.4875     0.0000     8.0000 </r>
       <r>   -20.3322     0.0000     8.0000 </r>
       <r>   -20.1768     0.0000     8.0000 </r>
       <r>   -20.0214     0.0000     8.0000 </r>
       <r>   -19.8661     0.0000     8.0000 </r>
       <r>   -19.7107     0.0000     8.0000 </r>
       <r>   -19.5554     0.0000     8.0000 </r>
       <r>   -19.4000     0.0000     8.0000 </r>
       <r>   -19.2447     0.0000     8.0000 </r>
       <r>   -19.0893     0.0000     8.0000 </r>
       <r>   -18.9339     0.0000     8.0000 </r>
       <r>   -18.7786     0.0000     8.0000 </r>
       <r>   -18.6232     0.0000     8.0000 </r>
       <r>   -18.4679     0.0000     8.0000 </r>
       <r>   -18.3125     0.0000     8.0000 </r>
       <r>   -18.1571     0.0000     8.0000 </r>
       <r>   -18.0018     0.0000     8.0000 </r>
       <r>   -17.8464     0.0000     8.0000 </r>
       <r>   -17.6911     0.0000     8.0000 </r>
       <r>   -17.5357     0.0000     8.0000 </r>
       <r>   -17.3803     0.0000     8.0000 </r>
       <r>   -17.2250     0.0000     8.0000 </r>
       <r>   -17.0696     0.0000     8.0000 </r>
       <r>   -16.9143     0.0000     8.0000 </r>
       <r>   -16.7589     0.0000     8.0000 </r>
       <r>   -16.6035     0.0000     8.0000 </r>
       <r>   -16.4482     0.0000     8.0000 </r>
       <r>   -16.2928     0.0000     8.0000 </r>
       <r>   -16.1375     0.0000     8.0000 </r>
       <r>   -15.9821     0.0000     8.0000 </r>
       <r>   -15.8267     0.0000     8.0000 </r>
       <r>   -15.6714     0.0000     8.0000 </r>
       <r>   -15.5160     0.0000     8.0000 </r>
       <r>   -15.3607     0.0000     8.0000 </r>
       <r>   -15.2053     0.0000     8.0000 </r>
       <r>   -15.0499     0.0000     8.0000 </r>
       <r>   -14.8946     0.1811     8.0281 </r>
       <r>   -14.7392     6.3521     9.0150 </r>
       <r>   -14.5839    16.3430    11.5541 </r>
       <r>   -14.4285     9.1649    12.9779 </r>
       <r>   -14.2731     7.7230    14.1778 </r>
       <r>   -14.1178     9.6431    15.6759 </r>
       <r>   -13.9624    14.0097    17.8525 </r>
       <r>   -13.8071    21.3723    21.1729 </r>
       <r>   -13.6517    18.9084    24.1105 </r>
       <r>   -13.4963    17.8352    26.8813 </r>
       <r>   -13.3410     7.2012    28.0001 </r>
       <r>   -13.1856     2.7548    28.4281 </r>
       <r>   -13.0303    20.9003    31.6752 </r>
       <r>   -12.8749    17.5409    34.4003 </r>
       <r>   -12.7195    22.0076    37.8194 </r>
       <r>   -12.5642    13.9126    39.9809 </r>
       <r>   -12.4088     1.1942    40.1664 </r>
       <r>   -12.2535    23.2624    43.7804 </r>
       <r>   -12.0981    28.5761    48.2200 </r>
       <r>   -11.9427    22.7027    51.7471 </r>
       <r>   -11.7874     1.6279    52.0000 </r>
       <r>   -11.6320     0.0000    52.0000 </r>
       <r>   -11.4767     0.0000    52.0000 </r>
       <r>   -11.3213     0.0000    52.0000 </r>
       <r>   -11.1659     0.0000    52.0000 </r>
       <r>   -11.0106     0.0000    52.0000 </r>
       <r>   -10.8552     0.0000    52.0000 </r>
       <r>   -10.6999     0.0000    52.0000 </r>
       <r>   -10.5445     0.0000    52.0000 </r>
       <r>   -10.3891     0.0000    52.0000 </r>
       <r>   -10.2338     0.0000    52.0000 </r>
       <r>   -10.0784     0.0000    52.0000 </r>
       <r>    -9.9231     0.0000    52.0000 </r>
       <r>    -9.7677     0.0000    52.0000 </r>
       <r>    -9.6123     0.0000    52.0000 </r>
       <r>    -9.4570     0.0000    52.0000 </r>
       <r>    -9.3016     0.0000    52.0000 </r>
       <r>    -9.1463     0.0000    52.0000 </r>
       <r>    -8.9909     0.0000    52.0000 </r>
       <r>    -8.8355     0.0000    52.0000 </r>
       <r>    -8.6802     0.0000    52.0000 </r>
       <r>    -8.5248     0.0000    52.0000 </r>
       <r>    -8.3695     0.0000    52.0000 </r>
       <r>    -8.2141     0.0000    52.0000 </r>
       <r>    -8.0587     0.0000    52.0000 </r>
       <r>    -7.9034     0.0000    52.0000 </r>
       <r>    -7.7480     0.0000    52.0000 </r>
       <r>    -7.5927     0.0000    52.0000 </r>
       <r>    -7.4373     0.0000    52.0000 </r>
       <r>    -7.2820     0.0000    52.0000 </r>
       <r>    -7.1266     0.0000    52.0000 </r>
       <r>    -6.9712     0.0000    52.0000 </r>
       <r>    -6.8159     0.0000    52.0000 </r>
       <r>    -6.6605     0.0000    52.0000 </r>
       <r>    -6.5052     0.0000    52.0000 </r>
       <r>    -6.3498     0.0000    52.0000 </r>
       <r>    -6.1944     0.0000    52.0000 </r>
       <r>    -6.0391     0.0000    52.0000 </r>
       <r>    -5.8837     0.0000    52.0000 </r>
       <r>    -5.7284     0.0000    52.0000 </r>
       <r>    -5.5730     0.0000    52.0000 </r>
       <r>    -5.4176     0.0000    52.0000 </r>
       <r>    -5.2623     0.0000    52.0000 </r>
       <r>    -5.1069     0.0000    52.0000 </r>
       <r>    -4.9516     0.0000    52.0000 </r>
       <r>    -4.7962     0.0000    52.0000 </r>
       <r>    -4.6408     0.0000    52.0000 </r>
       <r>    -4.4855     0.0000    52.0000 </r>
       <r>    -4.3301     0.0000    52.0000 </r>
       <r>    -4.1748     0.0000    52.0000 </r>
       <r>    -4.0194     0.0000    52.0000 </r>
       <r>    -3.8640     0.0000    52.0000 </r>
       <r>    -3.7087     0.0000    52.0000 </r>
       <r>    -3.5533     0.0000    52.0000 </r>
       <r>    -3.3980     0.0000    52.0000 </r>
       <r>    -3.2426     0.0001    52.0000 </r>
       <r>    -3.0872     0.3336    52.0518 </r>
       <r>    -2.9319     1.4144    52.2716 </r>
       <r>    -2.7765     8.4239    53.5803 </r>
       <r>    -2.6212     6.5184    54.5930 </r>
       <r>    -2.4658    12.7505    56.5739 </r>
       <r>    -2.3104    14.2311    58.7849 </r>
       <r>    -2.1551     4.7247    59.5189 </r>
       <r>    -1.9997    20.9774    62.7779 </r>
       <r>    -1.8444    33.6912    68.0122 </r>
       <r>    -1.6890    16.6746    70.6027 </r>
       <r>    -1.5336    24.5872    74.4226 </r>
       <r>    -1.3783    24.2524    78.1905 </r>
       <r>    -1.2229    35.2861    83.6725 </r>
       <r>    -1.0676    27.7608    87.9854 </r>
       <r>    -0.9122    20.3787    91.1514 </r>
       <r>    -0.7568    22.4890    94.6453 </r>
       <r>    -0.6015     4.8133    95.3931 </r>
       <r>    -0.4461     2.6574    95.8060 </r>
       <r>    -0.2908     0.6938    95.9138 </r>
       <r>    -0.1354     2.6582    96.3267 </r>
       <r>     0.0200     5.6741    97.2083 </r>
       <r>     0.1753    12.2063    99.1046 </r>
       <r>     0.3307    10.3471   100.7121 </r>
       <r>     0.4860     6.6792   101.7498 </r>
       <r>     0.6414     8.4581   103.0639 </r>
       <r>     0.7968    14.7310   105.3525 </r>
       <r>     0.9521    21.3613   108.6712 </r>
       <r>     1.1075    25.3206   112.6050 </r>
       <r>     1.2628    25.3234   116.5392 </r>
       <r>     1.4182    38.3052   122.4903 </r>
       <r>     1.5736    27.3304   126.7364 </r>
       <r>     1.7289    21.1807   130.0270 </r>
       <r>     1.8843    21.8038   133.4144 </r>
       <r>     2.0396    19.9409   136.5124 </r>
       <r>     2.1950    19.7766   139.5849 </r>
       <r>     2.3504    14.4304   141.8268 </r>
       <r>     2.5057    16.2015   144.3439 </r>
       <r>     2.6611     8.4416   145.6554 </r>
       <r>     2.8164     3.6285   146.2191 </r>
       <r>     2.9718     7.2999   147.3532 </r>
       <r>     3.1272     6.0011   148.2855 </r>
       <r>     3.2825     5.3624   149.1186 </r>
       <r>     3.4379     2.8318   149.5586 </r>
       <r>     3.5932     4.1652   150.2057 </r>
       <r>     3.7486     4.2369   150.8639 </r>
       <r>     3.9039     6.0751   151.8078 </r>
       <r>     4.0593     1.2367   151.9999 </r>
       <r>     4.2147     0.0411   152.0063 </r>
       <r>     4.3700     0.5607   152.0934 </r>
       <r>     4.5254     1.5563   152.3352 </r>
       <r>     4.6807     1.3452   152.5442 </r>
       <r>     4.8361     2.3141   152.9037 </r>
       <r>     4.9915     1.4273   153.1254 </r>
       <r>     5.1468     2.3482   153.4903 </r>
       <r>     5.3022     1.5306   153.7280 </r>
       <r>     5.4575     2.4045   154.1016 </r>
       <r>     5.6129     0.1896   154.1311 </r>
       <r>     5.7683     1.0256   154.2904 </r>
       <r>     5.9236     2.0688   154.6118 </r>
       <r>     6.0790     0.1998   154.6428 </r>
       <r>     6.2343     2.8903   155.0919 </r>
       <r>     6.3897     0.5999   155.1851 </r>
       <r>     6.5451     1.7155   155.4516 </r>
       <r>     6.7004     3.3307   155.9690 </r>
       <r>     6.8558     0.1993   156.0000 </r>
       <r>     7.0111     0.0000   156.0000 </r>
       <r>     7.1665     0.0000   156.0000 </r>
       <r>     7.3219     0.0000   156.0000 </r>
       <r>     7.4772     0.0326   156.0051 </r>
       <r>     7.6326     1.2129   156.1935 </r>
       <r>     7.7879     4.0812   156.8276 </r>
       <r>     7.9433     5.2704   157.6464 </r>
       <r>     8.0987     3.2169   158.1461 </r>
       <r>     8.2540     5.4059   158.9860 </r>
       <r>     8.4094     5.0412   159.7692 </r>
       <r>     8.5647     8.2984   161.0584 </r>
       <r>     8.7201    10.1459   162.6347 </r>
       <r>     8.8755     6.0162   163.5694 </r>
       <r>     9.0308     7.2665   164.6983 </r>
       <r>     9.1862     7.3373   165.8382 </r>
       <r>     9.3415     6.4753   166.8442 </r>
       <r>     9.4969     9.0042   168.2431 </r>
       <r>     9.6523     8.8921   169.6246 </r>
       <r>     9.8076     9.4539   171.0934 </r>
       <r>     9.9630    13.8779   173.2494 </r>
       <r>    10.1183    12.9930   175.2680 </r>
       <r>    10.2737    15.7815   177.7198 </r>
       <r>    10.4291    19.1062   180.6882 </r>
       <r>    10.5844    13.1870   182.7369 </r>
       <r>    10.7398    13.6742   184.8613 </r>
       <r>    10.8951    16.3668   187.4041 </r>
       <r>    11.0505    14.6138   189.6745 </r>
       <r>    11.2059    11.7779   191.5043 </r>
       <r>    11.3612     3.1875   191.9995 </r>
       <r>    11.5166     0.0034   192.0000 </r>
       <r>    11.6719     0.0000   192.0000 </r>
       <r>    11.8273     0.0000   192.0000 </r>
       <r>    11.9827     0.0000   192.0000 </r>
       <r>    12.1380     0.0000   192.0000 </r>
       <r>    12.2934     0.0000   192.0000 </r>
       <r>    12.4487     0.0000   192.0000 </r>
       <r>    12.6041     0.0000   192.0000 </r>
       <r>    12.7595     0.0000   192.0000 </r>
       <r>    12.9148     0.0000   192.0000 </r>
       <r>    13.0702     0.0000   192.0000 </r>
       <r>    13.2255     0.0000   192.0000 </r>
       <r>    13.3809     0.0000   192.0000 </r>
      </set>
     </set>
    </array>
   </total>
  </dos>
 </calculation>
 <structure name="finalpos" >
  <crystal>
   <varray name="basis" >
    <v>       9.79795897       0.00000000       0.00000000 </v>
    <v>       0.00000000       5.65685425       0.00000000 </v>
    <v>      -3.26598632       0.00000000       9.23760431 </v>
   </varray>
   <i name="volume">    512.00000000 </i>
   <varray name="rec_basis" >
    <v>       0.10206207       0.00000000       0.03608439 </v>
    <v>       0.00000000       0.17677670       0.00000000 </v>
    <v>       0.00000000       0.00000000       0.10825318 </v>
   </varray>
  </crystal>
  <varray name="positions" >
   <v>       0.37500000       0.62500000       0.62500000 </v>
   <v>       0.12500000       0.62500000       0.87500000 </v>
   <v>       0.87500000       0.62500000       0.12500000 </v>
   <v>       0.12500000       0.12500000       0.37500000 </v>
   <v>       0.87500000       0.12500000       0.62500000 </v>
   <v>       0.62500000       0.12500000       0.87500000 </v>
   <v>       0.37500000       0.12500000       0.12500000 </v>
   <v>       0.62500000       0.62500000       0.37500000 </v>
   <v>       0.50000000       0.12500000       0.50000000 </v>
   <v>       0.75000000       0.62500000       0.75000000 </v>
   <v>       0.00000000       0.12500000       0.00000000 </v>
   <v>       0.25000000       0.62500000       0.25000000 </v>
   <v>       0.00000000       0.62500000       0.50000000 </v>
   <v>       0.25000000       0.12500000       0.75000000 </v>
   <v>       0.50000000       0.62500000       0.00000000 </v>
   <v>       0.75000000       0.12500000       0.25000000 </v>
   <v>       0.62500000       0.87500000       0.62500000 </v>
   <v>       0.87500000       0.37500000       0.87500000 </v>
   <v>       0.12500000       0.87500000       0.12500000 </v>
   <v>       0.87500000       0.87500000       0.87500000 </v>
   <v>       0.12500000       0.37500000       0.12500000 </v>
   <v>       0.37500000       0.87500000       0.37500000 </v>
   <v>       0.37500000       0.12500000       0.62500000 </v>
   <v>       0.62500000       0.62500000       0.87500000 </v>
   <v>       0.37500000       0.62500000       0.12500000 </v>
   <v>       0.12500000       0.62500000       0.37500000 </v>
   <v>       0.12500000       0.37500000       0.62500000 </v>
   <v>       0.37500000       0.87500000       0.87500000 </v>
   <v>       0.62500000       0.37500000       0.12500000 </v>
   <v>       0.37500000       0.37500000       0.87500000 </v>
   <v>       0.62500000       0.87500000       0.12500000 </v>
   <v>       0.87500000       0.37500000       0.37500000 </v>
   <v>       0.87500000       0.62500000       0.62500000 </v>
   <v>       0.12500000       0.12500000       0.87500000 </v>
   <v>       0.87500000       0.12500000       0.12500000 </v>
   <v>       0.62500000       0.12500000       0.37500000 </v>
  </varray>
 </structure>
</modeling>
