<?xml version="1.0" encoding="ISO-8859-1"?>
<modeling>
 <generator>
  <i name="program" type="string">vasp </i>
  <i name="version" type="string">5.3.5  </i>
  <i name="subversion" type="string">31Mar14 (build Jun 20 2014 13:15:13) complex                          parallel </i>
  <i name="platform" type="string">LinuxIFC </i>
  <i name="date" type="string">2025 11 21 </i>
  <i name="time" type="string">14:05:53 </i>
 </generator>
 <incar>
  <i type="string" name="PREC">accurate</i>
  <i type="int" name="IALGO">    68</i>
  <i type="logical" name="ADDGRID"> T  </i>
  <i type="int" name="NELM">   100</i>
  <i type="int" name="NELMIN">     4</i>
  <i type="int" name="IBRION">     2</i>
  <i name="EDIFF">      0.00000100</i>
  <i name="EDIFFG">     -0.02000000</i>
  <i type="int" name="NSW">    30</i>
  <i type="int" name="ISIF">     3</i>
  <i name="ENCUT">    500.00000000</i>
  <i type="logical" name="LREAL"> F  </i>
  <i type="int" name="ISMEAR">     1</i>
  <i name="SIGMA">      0.30000000</i>
  <i type="logical" name="LWAVE"> F  </i>
  <i type="logical" name="LCHARG"> F  </i>
  <i type="int" name="NELM">   100</i>
 </incar>
 <kpoints>
  <generation param="Auto">
   <i name="subdivisionlength">     70.00000000 </i>
   <v type="int" name="divisions">      15       17       17 </v>
   <v name="usershift">      0.00000000       0.00000000       0.00000000 </v>
   <v name="genvec1">      0.06666667       0.00000000       0.00000000 </v>
   <v name="genvec2">      0.00000000       0.05882353       0.00000000 </v>
   <v name="genvec3">      0.00000000       0.00000000       0.05882353 </v>
   <v name="shift">      0.00000000       0.00000000       0.00000000 </v>
  </generation>
  <varray name="kpointlist" >
   <v>       0.00000000       0.00000000       0.00000000 </v>
   <v>       0.06666667       0.00000000       0.00000000 </v>
   <v>       0.13333333       0.00000000       0.00000000 </v>
   <v>       0.20000000       0.00000000       0.00000000 </v>
   <v>       0.26666667       0.00000000       0.00000000 </v>
   <v>       0.33333333       0.00000000       0.00000000 </v>
   <v>       0.40000000       0.00000000       0.00000000 </v>
   <v>       0.46666667       0.00000000       0.00000000 </v>
   <v>       0.00000000       0.05882353       0.00000000 </v>
   <v>       0.06666667       0.05882353       0.00000000 </v>
   <v>       0.13333333       0.05882353       0.00000000 </v>
   <v>       0.20000000       0.05882353       0.00000000 </v>
   <v>       0.26666667       0.05882353       0.00000000 </v>
   <v>       0.33333333       0.05882353       0.00000000 </v>
   <v>       0.40000000       0.05882353       0.00000000 </v>
   <v>       0.46666667       0.05882353       0.00000000 </v>
   <v>      -0.46666667       0.05882353       0.00000000 </v>
   <v>      -0.40000000       0.05882353       0.00000000 </v>
   <v>      -0.33333333       0.05882353       0.00000000 </v>
   <v>      -0.26666667       0.05882353       0.00000000 </v>
   <v>      -0.20000000       0.05882353       0.00000000 </v>
   <v>      -0.13333333       0.05882353       0.00000000 </v>
   <v>      -0.06666667       0.05882353       0.00000000 </v>
   <v>       0.00000000       0.11764706       0.00000000 </v>
   <v>       0.06666667       0.11764706       0.00000000 </v>
   <v>       0.13333333       0.11764706       0.00000000 </v>
   <v>       0.20000000       0.11764706       0.00000000 </v>
   <v>       0.26666667       0.11764706       0.00000000 </v>
   <v>       0.33333333       0.11764706       0.00000000 </v>
   <v>       0.40000000       0.11764706       0.00000000 </v>
   <v>       0.46666667       0.11764706       0.00000000 </v>
   <v>      -0.46666667       0.11764706       0.00000000 </v>
   <v>      -0.40000000       0.11764706       0.00000000 </v>
   <v>      -0.33333333       0.11764706       0.00000000 </v>
   <v>      -0.26666667       0.11764706       0.00000000 </v>
   <v>      -0.20000000       0.11764706       0.00000000 </v>
   <v>      -0.13333333       0.11764706       0.00000000 </v>
   <v>      -0.06666667       0.11764706       0.00000000 </v>
   <v>       0.00000000       0.17647059       0.00000000 </v>
   <v>       0.06666667       0.17647059       0.00000000 </v>
   <v>       0.13333333       0.17647059       0.00000000 </v>
   <v>       0.20000000       0.17647059       0.00000000 </v>
   <v>       0.26666667       0.17647059       0.00000000 </v>
   <v>       0.33333333       0.17647059       0.00000000 </v>
   <v>       0.40000000       0.17647059       0.00000000 </v>
   <v>       0.46666667       0.17647059       0.00000000 </v>
   <v>      -0.46666667       0.17647059       0.00000000 </v>
   <v>      -0.40000000       0.17647059       0.00000000 </v>
   <v>      -0.33333333       0.17647059       0.00000000 </v>
   <v>      -0.26666667       0.17647059       0.00000000 </v>
   <v>      -0.20000000       0.17647059       0.00000000 </v>
   <v>      -0.13333333       0.17647059       0.00000000 </v>
   <v>      -0.06666667       0.17647059       0.00000000 </v>
   <v>       0.00000000       0.23529412       0.00000000 </v>
   <v>       0.06666667       0.23529412       0.00000000 </v>
   <v>       0.13333333       0.23529412       0.00000000 </v>
   <v>       0.20000000       0.23529412       0.00000000 </v>
   <v>       0.26666667       0.23529412       0.00000000 </v>
   <v>       0.33333333       0.23529412       0.00000000 </v>
   <v>       0.40000000       0.23529412       0.00000000 </v>
   <v>       0.46666667       0.23529412       0.00000000 </v>
   <v>      -0.46666667       0.23529412       0.00000000 </v>
   <v>      -0.40000000       0.23529412       0.00000000 </v>
   <v>      -0.33333333       0.23529412       0.00000000 </v>
   <v>      -0.26666667       0.23529412       0.00000000 </v>
   <v>      -0.20000000       0.23529412       0.00000000 </v>
   <v>      -0.13333333       0.23529412       0.00000000 </v>
   <v>      -0.06666667       0.23529412       0.00000000 </v>
   <v>       0.00000000       0.29411765       0.00000000 </v>
   <v>       0.06666667       0.29411765       0.00000000 </v>
   <v>       0.13333333       0.29411765       0.00000000 </v>
   <v>       0.20000000       0.29411765       0.00000000 </v>
   <v>       0.26666667       0.29411765       0.00000000 </v>
   <v>       0.33333333       0.29411765       0.00000000 </v>
   <v>       0.40000000       0.29411765       0.00000000 </v>
   <v>       0.46666667       0.29411765       0.00000000 </v>
   <v>      -0.46666667       0.29411765       0.00000000 </v>
   <v>      -0.40000000       0.29411765       0.00000000 </v>
   <v>      -0.33333333       0.29411765       0.00000000 </v>
   <v>      -0.26666667       0.29411765       0.00000000 </v>
   <v>      -0.20000000       0.29411765       0.00000000 </v>
   <v>      -0.13333333       0.29411765       0.00000000 </v>
   <v>      -0.06666667       0.29411765       0.00000000 </v>
   <v>       0.00000000       0.35294118       0.00000000 </v>
   <v>       0.06666667       0.35294118       0.00000000 </v>
   <v>       0.13333333       0.35294118       0.00000000 </v>
   <v>       0.20000000       0.35294118       0.00000000 </v>
   <v>       0.26666667       0.35294118       0.00000000 </v>
   <v>       0.33333333       0.35294118       0.00000000 </v>
   <v>       0.40000000       0.35294118       0.00000000 </v>
   <v>       0.46666667       0.35294118       0.00000000 </v>
   <v>      -0.46666667       0.35294118       0.00000000 </v>
   <v>      -0.40000000       0.35294118       0.00000000 </v>
   <v>      -0.33333333       0.35294118       0.00000000 </v>
   <v>      -0.26666667       0.35294118       0.00000000 </v>
   <v>      -0.20000000       0.35294118       0.00000000 </v>
   <v>      -0.13333333       0.35294118       0.00000000 </v>
   <v>      -0.06666667       0.35294118       0.00000000 </v>
   <v>       0.00000000       0.41176471       0.00000000 </v>
   <v>       0.06666667       0.41176471       0.00000000 </v>
   <v>       0.13333333       0.41176471       0.00000000 </v>
   <v>       0.20000000       0.41176471       0.00000000 </v>
   <v>       0.26666667       0.41176471       0.00000000 </v>
   <v>       0.33333333       0.41176471       0.00000000 </v>
   <v>       0.40000000       0.41176471       0.00000000 </v>
   <v>       0.46666667       0.41176471       0.00000000 </v>
   <v>      -0.46666667       0.41176471       0.00000000 </v>
   <v>      -0.40000000       0.41176471       0.00000000 </v>
   <v>      -0.33333333       0.41176471       0.00000000 </v>
   <v>      -0.26666667       0.41176471       0.00000000 </v>
   <v>      -0.20000000       0.41176471       0.00000000 </v>
   <v>      -0.13333333       0.41176471       0.00000000 </v>
   <v>      -0.06666667       0.41176471       0.00000000 </v>
   <v>       0.00000000       0.47058824       0.00000000 </v>
   <v>       0.06666667       0.47058824       0.00000000 </v>
   <v>       0.13333333       0.47058824       0.00000000 </v>
   <v>       0.20000000       0.47058824       0.00000000 </v>
   <v>       0.26666667       0.47058824       0.00000000 </v>
   <v>       0.33333333       0.47058824       0.00000000 </v>
   <v>       0.40000000       0.47058824       0.00000000 </v>
   <v>       0.46666667       0.47058824       0.00000000 </v>
   <v>      -0.46666667       0.47058824       0.00000000 </v>
   <v>      -0.40000000       0.47058824       0.00000000 </v>
   <v>      -0.33333333       0.47058824       0.00000000 </v>
   <v>      -0.26666667       0.47058824       0.00000000 </v>
   <v>      -0.20000000       0.47058824       0.00000000 </v>
   <v>      -0.13333333       0.47058824       0.00000000 </v>
   <v>      -0.06666667       0.47058824       0.00000000 </v>
   <v>       0.00000000       0.05882353       0.05882353 </v>
   <v>       0.06666667       0.05882353       0.05882353 </v>
   <v>       0.13333333       0.05882353       0.05882353 </v>
   <v>       0.20000000       0.05882353       0.05882353 </v>
   <v>       0.26666667       0.05882353       0.05882353 </v>
   <v>       0.33333333       0.05882353       0.05882353 </v>
   <v>       0.40000000       0.05882353       0.05882353 </v>
   <v>       0.46666667       0.05882353       0.05882353 </v>
   <v>      -0.46666667       0.05882353       0.05882353 </v>
   <v>      -0.40000000       0.05882353       0.05882353 </v>
   <v>      -0.33333333       0.05882353       0.05882353 </v>
   <v>      -0.26666667       0.05882353       0.05882353 </v>
   <v>      -0.20000000       0.05882353       0.05882353 </v>
   <v>      -0.13333333       0.05882353       0.05882353 </v>
   <v>      -0.06666667       0.05882353       0.05882353 </v>
   <v>       0.00000000       0.11764706       0.05882353 </v>
   <v>       0.06666667       0.11764706       0.05882353 </v>
   <v>       0.13333333       0.11764706       0.05882353 </v>
   <v>       0.20000000       0.11764706       0.05882353 </v>
   <v>       0.26666667       0.11764706       0.05882353 </v>
   <v>       0.33333333       0.11764706       0.05882353 </v>
   <v>       0.40000000       0.11764706       0.05882353 </v>
   <v>       0.46666667       0.11764706       0.05882353 </v>
   <v>      -0.46666667       0.11764706       0.05882353 </v>
   <v>      -0.40000000       0.11764706       0.05882353 </v>
   <v>      -0.33333333       0.11764706       0.05882353 </v>
   <v>      -0.26666667       0.11764706       0.05882353 </v>
   <v>      -0.20000000       0.11764706       0.05882353 </v>
   <v>      -0.13333333       0.11764706       0.05882353 </v>
   <v>      -0.06666667       0.11764706       0.05882353 </v>
   <v>       0.00000000       0.17647059       0.05882353 </v>
   <v>       0.06666667       0.17647059       0.05882353 </v>
   <v>       0.13333333       0.17647059       0.05882353 </v>
   <v>       0.20000000       0.17647059       0.05882353 </v>
   <v>       0.26666667       0.17647059       0.05882353 </v>
   <v>       0.33333333       0.17647059       0.05882353 </v>
   <v>       0.40000000       0.17647059       0.05882353 </v>
   <v>       0.46666667       0.17647059       0.05882353 </v>
   <v>      -0.46666667       0.17647059       0.05882353 </v>
   <v>      -0.40000000       0.17647059       0.05882353 </v>
   <v>      -0.33333333       0.17647059       0.05882353 </v>
   <v>      -0.26666667       0.17647059       0.05882353 </v>
   <v>      -0.20000000       0.17647059       0.05882353 </v>
   <v>      -0.13333333       0.17647059       0.05882353 </v>
   <v>      -0.06666667       0.17647059       0.05882353 </v>
   <v>       0.00000000       0.23529412       0.05882353 </v>
   <v>       0.06666667       0.23529412       0.05882353 </v>
   <v>       0.13333333       0.23529412       0.05882353 </v>
   <v>       0.20000000       0.23529412       0.05882353 </v>
   <v>       0.26666667       0.23529412       0.05882353 </v>
   <v>       0.33333333       0.23529412       0.05882353 </v>
   <v>       0.40000000       0.23529412       0.05882353 </v>
   <v>       0.46666667       0.23529412       0.05882353 </v>
   <v>      -0.46666667       0.23529412       0.05882353 </v>
   <v>      -0.40000000       0.23529412       0.05882353 </v>
   <v>      -0.33333333       0.23529412       0.05882353 </v>
   <v>      -0.26666667       0.23529412       0.05882353 </v>
   <v>      -0.20000000       0.23529412       0.05882353 </v>
   <v>      -0.13333333       0.23529412       0.05882353 </v>
   <v>      -0.06666667       0.23529412       0.05882353 </v>
   <v>       0.00000000       0.29411765       0.05882353 </v>
   <v>       0.06666667       0.29411765       0.05882353 </v>
   <v>       0.13333333       0.29411765       0.05882353 </v>
   <v>       0.20000000       0.29411765       0.05882353 </v>
   <v>       0.26666667       0.29411765       0.05882353 </v>
   <v>       0.33333333       0.29411765       0.05882353 </v>
   <v>       0.40000000       0.29411765       0.05882353 </v>
   <v>       0.46666667       0.29411765       0.05882353 </v>
   <v>      -0.46666667       0.29411765       0.05882353 </v>
   <v>      -0.40000000       0.29411765       0.05882353 </v>
   <v>      -0.33333333       0.29411765       0.05882353 </v>
   <v>      -0.26666667       0.29411765       0.05882353 </v>
   <v>      -0.20000000       0.29411765       0.05882353 </v>
   <v>      -0.13333333       0.29411765       0.05882353 </v>
   <v>      -0.06666667       0.29411765       0.05882353 </v>
   <v>       0.00000000       0.35294118       0.05882353 </v>
   <v>       0.06666667       0.35294118       0.05882353 </v>
   <v>       0.13333333       0.35294118       0.05882353 </v>
   <v>       0.20000000       0.35294118       0.05882353 </v>
   <v>       0.26666667       0.35294118       0.05882353 </v>
   <v>       0.33333333       0.35294118       0.05882353 </v>
   <v>       0.40000000       0.35294118       0.05882353 </v>
   <v>       0.46666667       0.35294118       0.05882353 </v>
   <v>      -0.46666667       0.35294118       0.05882353 </v>
   <v>      -0.40000000       0.35294118       0.05882353 </v>
   <v>      -0.33333333       0.35294118       0.05882353 </v>
   <v>      -0.26666667       0.35294118       0.05882353 </v>
   <v>      -0.20000000       0.35294118       0.05882353 </v>
   <v>      -0.13333333       0.35294118       0.05882353 </v>
   <v>      -0.06666667       0.35294118       0.05882353 </v>
   <v>       0.00000000       0.41176471       0.05882353 </v>
   <v>       0.06666667       0.41176471       0.05882353 </v>
   <v>       0.13333333       0.41176471       0.05882353 </v>
   <v>       0.20000000       0.41176471       0.05882353 </v>
   <v>       0.26666667       0.41176471       0.05882353 </v>
   <v>       0.33333333       0.41176471       0.05882353 </v>
   <v>       0.40000000       0.41176471       0.05882353 </v>
   <v>       0.46666667       0.41176471       0.05882353 </v>
   <v>      -0.46666667       0.41176471       0.05882353 </v>
   <v>      -0.40000000       0.41176471       0.05882353 </v>
   <v>      -0.33333333       0.41176471       0.05882353 </v>
   <v>      -0.26666667       0.41176471       0.05882353 </v>
   <v>      -0.20000000       0.41176471       0.05882353 </v>
   <v>      -0.13333333       0.41176471       0.05882353 </v>
   <v>      -0.06666667       0.41176471       0.05882353 </v>
   <v>       0.00000000       0.47058824       0.05882353 </v>
   <v>       0.06666667       0.47058824       0.05882353 </v>
   <v>       0.13333333       0.47058824       0.05882353 </v>
   <v>       0.20000000       0.47058824       0.05882353 </v>
   <v>       0.26666667       0.47058824       0.05882353 </v>
   <v>       0.33333333       0.47058824       0.05882353 </v>
   <v>       0.40000000       0.47058824       0.05882353 </v>
   <v>       0.46666667       0.47058824       0.05882353 </v>
   <v>      -0.46666667       0.47058824       0.05882353 </v>
   <v>      -0.40000000       0.47058824       0.05882353 </v>
   <v>      -0.33333333       0.47058824       0.05882353 </v>
   <v>      -0.26666667       0.47058824       0.05882353 </v>
   <v>      -0.20000000       0.47058824       0.05882353 </v>
   <v>      -0.13333333       0.47058824       0.05882353 </v>
   <v>      -0.06666667       0.47058824       0.05882353 </v>
   <v>       0.00000000      -0.47058824       0.05882353 </v>
   <v>       0.06666667      -0.47058824       0.05882353 </v>
   <v>       0.13333333      -0.47058824       0.05882353 </v>
   <v>       0.20000000      -0.47058824       0.05882353 </v>
   <v>       0.26666667      -0.47058824       0.05882353 </v>
   <v>       0.33333333      -0.47058824       0.05882353 </v>
   <v>       0.40000000      -0.47058824       0.05882353 </v>
   <v>       0.46666667      -0.47058824       0.05882353 </v>
   <v>      -0.46666667      -0.47058824       0.05882353 </v>
   <v>      -0.40000000      -0.47058824       0.05882353 </v>
   <v>      -0.33333333      -0.47058824       0.05882353 </v>
   <v>      -0.26666667      -0.47058824       0.05882353 </v>
   <v>      -0.20000000      -0.47058824       0.05882353 </v>
   <v>      -0.13333333      -0.47058824       0.05882353 </v>
   <v>      -0.06666667      -0.47058824       0.05882353 </v>
   <v>       0.00000000      -0.41176471       0.05882353 </v>
   <v>       0.06666667      -0.41176471       0.05882353 </v>
   <v>       0.13333333      -0.41176471       0.05882353 </v>
   <v>       0.20000000      -0.41176471       0.05882353 </v>
   <v>       0.26666667      -0.41176471       0.05882353 </v>
   <v>       0.33333333      -0.41176471       0.05882353 </v>
   <v>       0.40000000      -0.41176471       0.05882353 </v>
   <v>       0.46666667      -0.41176471       0.05882353 </v>
   <v>      -0.46666667      -0.41176471       0.05882353 </v>
   <v>      -0.40000000      -0.41176471       0.05882353 </v>
   <v>      -0.33333333      -0.41176471       0.05882353 </v>
   <v>      -0.26666667      -0.41176471       0.05882353 </v>
   <v>      -0.20000000      -0.41176471       0.05882353 </v>
   <v>      -0.13333333      -0.41176471       0.05882353 </v>
   <v>      -0.06666667      -0.41176471       0.05882353 </v>
   <v>       0.00000000      -0.35294118       0.05882353 </v>
   <v>       0.06666667      -0.35294118       0.05882353 </v>
   <v>       0.13333333      -0.35294118       0.05882353 </v>
   <v>       0.20000000      -0.35294118       0.05882353 </v>
   <v>       0.26666667      -0.35294118       0.05882353 </v>
   <v>       0.33333333      -0.35294118       0.05882353 </v>
   <v>       0.40000000      -0.35294118       0.05882353 </v>
   <v>       0.46666667      -0.35294118       0.05882353 </v>
   <v>      -0.46666667      -0.35294118       0.05882353 </v>
   <v>      -0.40000000      -0.35294118       0.05882353 </v>
   <v>      -0.33333333      -0.35294118       0.05882353 </v>
   <v>      -0.26666667      -0.35294118       0.05882353 </v>
   <v>      -0.20000000      -0.35294118       0.05882353 </v>
   <v>      -0.13333333      -0.35294118       0.05882353 </v>
   <v>      -0.06666667      -0.35294118       0.05882353 </v>
   <v>       0.00000000      -0.29411765       0.05882353 </v>
   <v>       0.06666667      -0.29411765       0.05882353 </v>
   <v>       0.13333333      -0.29411765       0.05882353 </v>
   <v>       0.20000000      -0.29411765       0.05882353 </v>
   <v>       0.26666667      -0.29411765       0.05882353 </v>
   <v>       0.33333333      -0.29411765       0.05882353 </v>
   <v>       0.40000000      -0.29411765       0.05882353 </v>
   <v>       0.46666667      -0.29411765       0.05882353 </v>
   <v>      -0.46666667      -0.29411765       0.05882353 </v>
   <v>      -0.40000000      -0.29411765       0.05882353 </v>
   <v>      -0.33333333      -0.29411765       0.05882353 </v>
   <v>      -0.26666667      -0.29411765       0.05882353 </v>
   <v>      -0.20000000      -0.29411765       0.05882353 </v>
   <v>      -0.13333333      -0.29411765       0.05882353 </v>
   <v>      -0.06666667      -0.29411765       0.05882353 </v>
   <v>       0.00000000      -0.23529412       0.05882353 </v>
   <v>       0.06666667      -0.23529412       0.05882353 </v>
   <v>       0.13333333      -0.23529412       0.05882353 </v>
   <v>       0.20000000      -0.23529412       0.05882353 </v>
   <v>       0.26666667      -0.23529412       0.05882353 </v>
   <v>       0.33333333      -0.23529412       0.05882353 </v>
   <v>       0.40000000      -0.23529412       0.05882353 </v>
   <v>       0.46666667      -0.23529412       0.05882353 </v>
   <v>      -0.46666667      -0.23529412       0.05882353 </v>
   <v>      -0.40000000      -0.23529412       0.05882353 </v>
   <v>      -0.33333333      -0.23529412       0.05882353 </v>
   <v>      -0.26666667      -0.23529412       0.05882353 </v>
   <v>      -0.20000000      -0.23529412       0.05882353 </v>
   <v>      -0.13333333      -0.23529412       0.05882353 </v>
   <v>      -0.06666667      -0.23529412       0.05882353 </v>
   <v>       0.00000000      -0.17647059       0.05882353 </v>
   <v>       0.06666667      -0.17647059       0.05882353 </v>
   <v>       0.13333333      -0.17647059       0.05882353 </v>
   <v>       0.20000000      -0.17647059       0.05882353 </v>
   <v>       0.26666667      -0.17647059       0.05882353 </v>
   <v>       0.33333333      -0.17647059       0.05882353 </v>
   <v>       0.40000000      -0.17647059       0.05882353 </v>
   <v>       0.46666667      -0.17647059       0.05882353 </v>
   <v>      -0.46666667      -0.17647059       0.05882353 </v>
   <v>      -0.40000000      -0.17647059       0.05882353 </v>
   <v>      -0.33333333      -0.17647059       0.05882353 </v>
   <v>      -0.26666667      -0.17647059       0.05882353 </v>
   <v>      -0.20000000      -0.17647059       0.05882353 </v>
   <v>      -0.13333333      -0.17647059       0.05882353 </v>
   <v>      -0.06666667      -0.17647059       0.05882353 </v>
   <v>       0.00000000      -0.11764706       0.05882353 </v>
   <v>       0.06666667      -0.11764706       0.05882353 </v>
   <v>       0.13333333      -0.11764706       0.05882353 </v>
   <v>       0.20000000      -0.11764706       0.05882353 </v>
   <v>       0.26666667      -0.11764706       0.05882353 </v>
   <v>       0.33333333      -0.11764706       0.05882353 </v>
   <v>       0.40000000      -0.11764706       0.05882353 </v>
   <v>       0.46666667      -0.11764706       0.05882353 </v>
   <v>      -0.46666667      -0.11764706       0.05882353 </v>
   <v>      -0.40000000      -0.11764706       0.05882353 </v>
   <v>      -0.33333333      -0.11764706       0.05882353 </v>
   <v>      -0.26666667      -0.11764706       0.05882353 </v>
   <v>      -0.20000000      -0.11764706       0.05882353 </v>
   <v>      -0.13333333      -0.11764706       0.05882353 </v>
   <v>      -0.06666667      -0.11764706       0.05882353 </v>
   <v>       0.00000000      -0.05882353       0.05882353 </v>
   <v>       0.06666667      -0.05882353       0.05882353 </v>
   <v>       0.13333333      -0.05882353       0.05882353 </v>
   <v>       0.20000000      -0.05882353       0.05882353 </v>
   <v>       0.26666667      -0.05882353       0.05882353 </v>
   <v>       0.33333333      -0.05882353       0.05882353 </v>
   <v>       0.40000000      -0.05882353       0.05882353 </v>
   <v>       0.46666667      -0.05882353       0.05882353 </v>
   <v>       0.00000000       0.11764706       0.11764706 </v>
   <v>       0.06666667       0.11764706       0.11764706 </v>
   <v>       0.13333333       0.11764706       0.11764706 </v>
   <v>       0.20000000       0.11764706       0.11764706 </v>
   <v>       0.26666667       0.11764706       0.11764706 </v>
   <v>       0.33333333       0.11764706       0.11764706 </v>
   <v>       0.40000000       0.11764706       0.11764706 </v>
   <v>       0.46666667       0.11764706       0.11764706 </v>
   <v>      -0.46666667       0.11764706       0.11764706 </v>
   <v>      -0.40000000       0.11764706       0.11764706 </v>
   <v>      -0.33333333       0.11764706       0.11764706 </v>
   <v>      -0.26666667       0.11764706       0.11764706 </v>
   <v>      -0.20000000       0.11764706       0.11764706 </v>
   <v>      -0.13333333       0.11764706       0.11764706 </v>
   <v>      -0.06666667       0.11764706       0.11764706 </v>
   <v>       0.00000000       0.17647059       0.11764706 </v>
   <v>       0.06666667       0.17647059       0.11764706 </v>
   <v>       0.13333333       0.17647059       0.11764706 </v>
   <v>       0.20000000       0.17647059       0.11764706 </v>
   <v>       0.26666667       0.17647059       0.11764706 </v>
   <v>       0.33333333       0.17647059       0.11764706 </v>
   <v>       0.40000000       0.17647059       0.11764706 </v>
   <v>       0.46666667       0.17647059       0.11764706 </v>
   <v>      -0.46666667       0.17647059       0.11764706 </v>
   <v>      -0.40000000       0.17647059       0.11764706 </v>
   <v>      -0.33333333       0.17647059       0.11764706 </v>
   <v>      -0.26666667       0.17647059       0.11764706 </v>
   <v>      -0.20000000       0.17647059       0.11764706 </v>
   <v>      -0.13333333       0.17647059       0.11764706 </v>
   <v>      -0.06666667       0.17647059       0.11764706 </v>
   <v>       0.00000000       0.23529412       0.11764706 </v>
   <v>       0.06666667       0.23529412       0.11764706 </v>
   <v>       0.13333333       0.23529412       0.11764706 </v>
   <v>       0.20000000       0.23529412       0.11764706 </v>
   <v>       0.26666667       0.23529412       0.11764706 </v>
   <v>       0.33333333       0.23529412       0.11764706 </v>
   <v>       0.40000000       0.23529412       0.11764706 </v>
   <v>       0.46666667       0.23529412       0.11764706 </v>
   <v>      -0.46666667       0.23529412       0.11764706 </v>
   <v>      -0.40000000       0.23529412       0.11764706 </v>
   <v>      -0.33333333       0.23529412       0.11764706 </v>
   <v>      -0.26666667       0.23529412       0.11764706 </v>
   <v>      -0.20000000       0.23529412       0.11764706 </v>
   <v>      -0.13333333       0.23529412       0.11764706 </v>
   <v>      -0.06666667       0.23529412       0.11764706 </v>
   <v>       0.00000000       0.29411765       0.11764706 </v>
   <v>       0.06666667       0.29411765       0.11764706 </v>
   <v>       0.13333333       0.29411765       0.11764706 </v>
   <v>       0.20000000       0.29411765       0.11764706 </v>
   <v>       0.26666667       0.29411765       0.11764706 </v>
   <v>       0.33333333       0.29411765       0.11764706 </v>
   <v>       0.40000000       0.29411765       0.11764706 </v>
   <v>       0.46666667       0.29411765       0.11764706 </v>
   <v>      -0.46666667       0.29411765       0.11764706 </v>
   <v>      -0.40000000       0.29411765       0.11764706 </v>
   <v>      -0.33333333       0.29411765       0.11764706 </v>
   <v>      -0.26666667       0.29411765       0.11764706 </v>
   <v>      -0.20000000       0.29411765       0.11764706 </v>
   <v>      -0.13333333       0.29411765       0.11764706 </v>
   <v>      -0.06666667       0.29411765       0.11764706 </v>
   <v>       0.00000000       0.35294118       0.11764706 </v>
   <v>       0.06666667       0.35294118       0.11764706 </v>
   <v>       0.13333333       0.35294118       0.11764706 </v>
   <v>       0.20000000       0.35294118       0.11764706 </v>
   <v>       0.26666667       0.35294118       0.11764706 </v>
   <v>       0.33333333       0.35294118       0.11764706 </v>
   <v>       0.40000000       0.35294118       0.11764706 </v>
   <v>       0.46666667       0.35294118       0.11764706 </v>
   <v>      -0.46666667       0.35294118       0.11764706 </v>
   <v>      -0.40000000       0.35294118       0.11764706 </v>
   <v>      -0.33333333       0.35294118       0.11764706 </v>
   <v>      -0.26666667       0.35294118       0.11764706 </v>
   <v>      -0.20000000       0.35294118       0.11764706 </v>
   <v>      -0.13333333       0.35294118       0.11764706 </v>
   <v>      -0.06666667       0.35294118       0.11764706 </v>
   <v>       0.00000000       0.41176471       0.11764706 </v>
   <v>       0.06666667       0.41176471       0.11764706 </v>
   <v>       0.13333333       0.41176471       0.11764706 </v>
   <v>       0.20000000       0.41176471       0.11764706 </v>
   <v>       0.26666667       0.41176471       0.11764706 </v>
   <v>       0.33333333       0.41176471       0.11764706 </v>
   <v>       0.40000000       0.41176471       0.11764706 </v>
   <v>       0.46666667       0.41176471       0.11764706 </v>
   <v>      -0.46666667       0.41176471       0.11764706 </v>
   <v>      -0.40000000       0.41176471       0.11764706 </v>
   <v>      -0.33333333       0.41176471       0.11764706 </v>
   <v>      -0.26666667       0.41176471       0.11764706 </v>
   <v>      -0.20000000       0.41176471       0.11764706 </v>
   <v>      -0.13333333       0.41176471       0.11764706 </v>
   <v>      -0.06666667       0.41176471       0.11764706 </v>
   <v>       0.00000000       0.47058824       0.11764706 </v>
   <v>       0.06666667       0.47058824       0.11764706 </v>
   <v>       0.13333333       0.47058824       0.11764706 </v>
   <v>       0.20000000       0.47058824       0.11764706 </v>
   <v>       0.26666667       0.47058824       0.11764706 </v>
   <v>       0.33333333       0.47058824       0.11764706 </v>
   <v>       0.40000000       0.47058824       0.11764706 </v>
   <v>       0.46666667       0.47058824       0.11764706 </v>
   <v>      -0.46666667       0.47058824       0.11764706 </v>
   <v>      -0.40000000       0.47058824       0.11764706 </v>
   <v>      -0.33333333       0.47058824       0.11764706 </v>
   <v>      -0.26666667       0.47058824       0.11764706 </v>
   <v>      -0.20000000       0.47058824       0.11764706 </v>
   <v>      -0.13333333       0.47058824       0.11764706 </v>
   <v>      -0.06666667       0.47058824       0.11764706 </v>
   <v>       0.00000000      -0.47058824       0.11764706 </v>
   <v>       0.06666667      -0.47058824       0.11764706 </v>
   <v>       0.13333333      -0.47058824       0.11764706 </v>
   <v>       0.20000000      -0.47058824       0.11764706 </v>
   <v>       0.26666667      -0.47058824       0.11764706 </v>
   <v>       0.33333333      -0.47058824       0.11764706 </v>
   <v>       0.40000000      -0.47058824       0.11764706 </v>
   <v>       0.46666667      -0.47058824       0.11764706 </v>
   <v>      -0.46666667      -0.47058824       0.11764706 </v>
   <v>      -0.40000000      -0.47058824       0.11764706 </v>
   <v>      -0.33333333      -0.47058824       0.11764706 </v>
   <v>      -0.26666667      -0.47058824       0.11764706 </v>
   <v>      -0.20000000      -0.47058824       0.11764706 </v>
   <v>      -0.13333333      -0.47058824       0.11764706 </v>
   <v>      -0.06666667      -0.47058824       0.11764706 </v>
   <v>       0.00000000      -0.41176471       0.11764706 </v>
   <v>       0.06666667      -0.41176471       0.11764706 </v>
   <v>       0.13333333      -0.41176471       0.11764706 </v>
   <v>       0.20000000      -0.41176471       0.11764706 </v>
   <v>       0.26666667      -0.41176471       0.11764706 </v>
   <v>       0.33333333      -0.41176471       0.11764706 </v>
   <v>       0.40000000      -0.41176471       0.11764706 </v>
   <v>       0.46666667      -0.41176471       0.11764706 </v>
   <v>      -0.46666667      -0.41176471       0.11764706 </v>
   <v>      -0.40000000      -0.41176471       0.11764706 </v>
   <v>      -0.33333333      -0.41176471       0.11764706 </v>
   <v>      -0.26666667      -0.41176471       0.11764706 </v>
   <v>      -0.20000000      -0.41176471       0.11764706 </v>
   <v>      -0.13333333      -0.41176471       0.11764706 </v>
   <v>      -0.06666667      -0.41176471       0.11764706 </v>
   <v>       0.00000000      -0.35294118       0.11764706 </v>
   <v>       0.06666667      -0.35294118       0.11764706 </v>
   <v>       0.13333333      -0.35294118       0.11764706 </v>
   <v>       0.20000000      -0.35294118       0.11764706 </v>
   <v>       0.26666667      -0.35294118       0.11764706 </v>
   <v>       0.33333333      -0.35294118       0.11764706 </v>
   <v>       0.40000000      -0.35294118       0.11764706 </v>
   <v>       0.46666667      -0.35294118       0.11764706 </v>
   <v>      -0.46666667      -0.35294118       0.11764706 </v>
   <v>      -0.40000000      -0.35294118       0.11764706 </v>
   <v>      -0.33333333      -0.35294118       0.11764706 </v>
   <v>      -0.26666667      -0.35294118       0.11764706 </v>
   <v>      -0.20000000      -0.35294118       0.11764706 </v>
   <v>      -0.13333333      -0.35294118       0.11764706 </v>
   <v>      -0.06666667      -0.35294118       0.11764706 </v>
   <v>       0.00000000      -0.29411765       0.11764706 </v>
   <v>       0.06666667      -0.29411765       0.11764706 </v>
   <v>       0.13333333      -0.29411765       0.11764706 </v>
   <v>       0.20000000      -0.29411765       0.11764706 </v>
   <v>       0.26666667      -0.29411765       0.11764706 </v>
   <v>       0.33333333      -0.29411765       0.11764706 </v>
   <v>       0.40000000      -0.29411765       0.11764706 </v>
   <v>       0.46666667      -0.29411765       0.11764706 </v>
   <v>      -0.46666667      -0.29411765       0.11764706 </v>
   <v>      -0.40000000      -0.29411765       0.11764706 </v>
   <v>      -0.33333333      -0.29411765       0.11764706 </v>
   <v>      -0.26666667      -0.29411765       0.11764706 </v>
   <v>      -0.20000000      -0.29411765       0.11764706 </v>
   <v>      -0.13333333      -0.29411765       0.11764706 </v>
   <v>      -0.06666667      -0.29411765       0.11764706 </v>
   <v>       0.00000000      -0.23529412       0.11764706 </v>
   <v>       0.06666667      -0.23529412       0.11764706 </v>
   <v>       0.13333333      -0.23529412       0.11764706 </v>
   <v>       0.20000000      -0.23529412       0.11764706 </v>
   <v>       0.26666667      -0.23529412       0.11764706 </v>
   <v>       0.33333333      -0.23529412       0.11764706 </v>
   <v>       0.40000000      -0.23529412       0.11764706 </v>
   <v>       0.46666667      -0.23529412       0.11764706 </v>
   <v>      -0.46666667      -0.23529412       0.11764706 </v>
   <v>      -0.40000000      -0.23529412       0.11764706 </v>
   <v>      -0.33333333      -0.23529412       0.11764706 </v>
   <v>      -0.26666667      -0.23529412       0.11764706 </v>
   <v>      -0.20000000      -0.23529412       0.11764706 </v>
   <v>      -0.13333333      -0.23529412       0.11764706 </v>
   <v>      -0.06666667      -0.23529412       0.11764706 </v>
   <v>       0.00000000      -0.17647059       0.11764706 </v>
   <v>       0.06666667      -0.17647059       0.11764706 </v>
   <v>       0.13333333      -0.17647059       0.11764706 </v>
   <v>       0.20000000      -0.17647059       0.11764706 </v>
   <v>       0.26666667      -0.17647059       0.11764706 </v>
   <v>       0.33333333      -0.17647059       0.11764706 </v>
   <v>       0.40000000      -0.17647059       0.11764706 </v>
   <v>       0.46666667      -0.17647059       0.11764706 </v>
   <v>      -0.46666667      -0.17647059       0.11764706 </v>
   <v>      -0.40000000      -0.17647059       0.11764706 </v>
   <v>      -0.33333333      -0.17647059       0.11764706 </v>
   <v>      -0.26666667      -0.17647059       0.11764706 </v>
   <v>      -0.20000000      -0.17647059       0.11764706 </v>
   <v>      -0.13333333      -0.17647059       0.11764706 </v>
   <v>      -0.06666667      -0.17647059       0.11764706 </v>
   <v>       0.00000000      -0.11764706       0.11764706 </v>
   <v>       0.06666667      -0.11764706       0.11764706 </v>
   <v>       0.13333333      -0.11764706       0.11764706 </v>
   <v>       0.20000000      -0.11764706       0.11764706 </v>
   <v>       0.26666667      -0.11764706       0.11764706 </v>
   <v>       0.33333333      -0.11764706       0.11764706 </v>
   <v>       0.40000000      -0.11764706       0.11764706 </v>
   <v>       0.46666667      -0.11764706       0.11764706 </v>
   <v>       0.00000000       0.17647059       0.17647059 </v>
   <v>       0.06666667       0.17647059       0.17647059 </v>
   <v>       0.13333333       0.17647059       0.17647059 </v>
   <v>       0.20000000       0.17647059       0.17647059 </v>
   <v>       0.26666667       0.17647059       0.17647059 </v>
   <v>       0.33333333       0.17647059       0.17647059 </v>
   <v>       0.40000000       0.17647059       0.17647059 </v>
   <v>       0.46666667       0.17647059       0.17647059 </v>
   <v>      -0.46666667       0.17647059       0.17647059 </v>
   <v>      -0.40000000       0.17647059       0.17647059 </v>
   <v>      -0.33333333       0.17647059       0.17647059 </v>
   <v>      -0.26666667       0.17647059       0.17647059 </v>
   <v>      -0.20000000       0.17647059       0.17647059 </v>
   <v>      -0.13333333       0.17647059       0.17647059 </v>
   <v>      -0.06666667       0.17647059       0.17647059 </v>
   <v>       0.00000000       0.23529412       0.17647059 </v>
   <v>       0.06666667       0.23529412       0.17647059 </v>
   <v>       0.13333333       0.23529412       0.17647059 </v>
   <v>       0.20000000       0.23529412       0.17647059 </v>
   <v>       0.26666667       0.23529412       0.17647059 </v>
   <v>       0.33333333       0.23529412       0.17647059 </v>
   <v>       0.40000000       0.23529412       0.17647059 </v>
   <v>       0.46666667       0.23529412       0.17647059 </v>
   <v>      -0.46666667       0.23529412       0.17647059 </v>
   <v>      -0.40000000       0.23529412       0.17647059 </v>
   <v>      -0.33333333       0.23529412       0.17647059 </v>
   <v>      -0.26666667       0.23529412       0.17647059 </v>
   <v>      -0.20000000       0.23529412       0.17647059 </v>
   <v>      -0.13333333       0.23529412       0.17647059 </v>
   <v>      -0.06666667       0.23529412       0.17647059 </v>
   <v>       0.00000000       0.29411765       0.17647059 </v>
   <v>       0.06666667       0.29411765       0.17647059 </v>
   <v>       0.13333333       0.29411765       0.17647059 </v>
   <v>       0.20000000       0.29411765       0.17647059 </v>
   <v>       0.26666667       0.29411765       0.17647059 </v>
   <v>       0.33333333       0.29411765       0.17647059 </v>
   <v>       0.40000000       0.29411765       0.17647059 </v>
   <v>       0.46666667       0.29411765       0.17647059 </v>
   <v>      -0.46666667       0.29411765       0.17647059 </v>
   <v>      -0.40000000       0.29411765       0.17647059 </v>
   <v>      -0.33333333       0.29411765       0.17647059 </v>
   <v>      -0.26666667       0.29411765       0.17647059 </v>
   <v>      -0.20000000       0.29411765       0.17647059 </v>
   <v>      -0.13333333       0.29411765       0.17647059 </v>
   <v>      -0.06666667       0.29411765       0.17647059 </v>
   <v>       0.00000000       0.35294118       0.17647059 </v>
   <v>       0.06666667       0.35294118       0.17647059 </v>
   <v>       0.13333333       0.35294118       0.17647059 </v>
   <v>       0.20000000       0.35294118       0.17647059 </v>
   <v>       0.26666667       0.35294118       0.17647059 </v>
   <v>       0.33333333       0.35294118       0.17647059 </v>
   <v>       0.40000000       0.35294118       0.17647059 </v>
   <v>       0.46666667       0.35294118       0.17647059 </v>
   <v>      -0.46666667       0.35294118       0.17647059 </v>
   <v>      -0.40000000       0.35294118       0.17647059 </v>
   <v>      -0.33333333       0.35294118       0.17647059 </v>
   <v>      -0.26666667       0.35294118       0.17647059 </v>
   <v>      -0.20000000       0.35294118       0.17647059 </v>
   <v>      -0.13333333       0.35294118       0.17647059 </v>
   <v>      -0.06666667       0.35294118       0.17647059 </v>
   <v>       0.00000000       0.41176471       0.17647059 </v>
   <v>       0.06666667       0.41176471       0.17647059 </v>
   <v>       0.13333333       0.41176471       0.17647059 </v>
   <v>       0.20000000       0.41176471       0.17647059 </v>
   <v>       0.26666667       0.41176471       0.17647059 </v>
   <v>       0.33333333       0.41176471       0.17647059 </v>
   <v>       0.40000000       0.41176471       0.17647059 </v>
   <v>       0.46666667       0.41176471       0.17647059 </v>
   <v>      -0.46666667       0.41176471       0.17647059 </v>
   <v>      -0.40000000       0.41176471       0.17647059 </v>
   <v>      -0.33333333       0.41176471       0.17647059 </v>
   <v>      -0.26666667       0.41176471       0.17647059 </v>
   <v>      -0.20000000       0.41176471       0.17647059 </v>
   <v>      -0.13333333       0.41176471       0.17647059 </v>
   <v>      -0.06666667       0.41176471       0.17647059 </v>
   <v>       0.00000000       0.47058824       0.17647059 </v>
   <v>       0.06666667       0.47058824       0.17647059 </v>
   <v>       0.13333333       0.47058824       0.17647059 </v>
   <v>       0.20000000       0.47058824       0.17647059 </v>
   <v>       0.26666667       0.47058824       0.17647059 </v>
   <v>       0.33333333       0.47058824       0.17647059 </v>
   <v>       0.40000000       0.47058824       0.17647059 </v>
   <v>       0.46666667       0.47058824       0.17647059 </v>
   <v>      -0.46666667       0.47058824       0.17647059 </v>
   <v>      -0.40000000       0.47058824       0.17647059 </v>
   <v>      -0.33333333       0.47058824       0.17647059 </v>
   <v>      -0.26666667       0.47058824       0.17647059 </v>
   <v>      -0.20000000       0.47058824       0.17647059 </v>
   <v>      -0.13333333       0.47058824       0.17647059 </v>
   <v>      -0.06666667       0.47058824       0.17647059 </v>
   <v>       0.00000000      -0.47058824       0.17647059 </v>
   <v>       0.06666667      -0.47058824       0.17647059 </v>
   <v>       0.13333333      -0.47058824       0.17647059 </v>
   <v>       0.20000000      -0.47058824       0.17647059 </v>
   <v>       0.26666667      -0.47058824       0.17647059 </v>
   <v>       0.33333333      -0.47058824       0.17647059 </v>
   <v>       0.40000000      -0.47058824       0.17647059 </v>
   <v>       0.46666667      -0.47058824       0.17647059 </v>
   <v>      -0.46666667      -0.47058824       0.17647059 </v>
   <v>      -0.40000000      -0.47058824       0.17647059 </v>
   <v>      -0.33333333      -0.47058824       0.17647059 </v>
   <v>      -0.26666667      -0.47058824       0.17647059 </v>
   <v>      -0.20000000      -0.47058824       0.17647059 </v>
   <v>      -0.13333333      -0.47058824       0.17647059 </v>
   <v>      -0.06666667      -0.47058824       0.17647059 </v>
   <v>       0.00000000      -0.41176471       0.17647059 </v>
   <v>       0.06666667      -0.41176471       0.17647059 </v>
   <v>       0.13333333      -0.41176471       0.17647059 </v>
   <v>       0.20000000      -0.41176471       0.17647059 </v>
   <v>       0.26666667      -0.41176471       0.17647059 </v>
   <v>       0.33333333      -0.41176471       0.17647059 </v>
   <v>       0.40000000      -0.41176471       0.17647059 </v>
   <v>       0.46666667      -0.41176471       0.17647059 </v>
   <v>      -0.46666667      -0.41176471       0.17647059 </v>
   <v>      -0.40000000      -0.41176471       0.17647059 </v>
   <v>      -0.33333333      -0.41176471       0.17647059 </v>
   <v>      -0.26666667      -0.41176471       0.17647059 </v>
   <v>      -0.20000000      -0.41176471       0.17647059 </v>
   <v>      -0.13333333      -0.41176471       0.17647059 </v>
   <v>      -0.06666667      -0.41176471       0.17647059 </v>
   <v>       0.00000000      -0.35294118       0.17647059 </v>
   <v>       0.06666667      -0.35294118       0.17647059 </v>
   <v>       0.13333333      -0.35294118       0.17647059 </v>
   <v>       0.20000000      -0.35294118       0.17647059 </v>
   <v>       0.26666667      -0.35294118       0.17647059 </v>
   <v>       0.33333333      -0.35294118       0.17647059 </v>
   <v>       0.40000000      -0.35294118       0.17647059 </v>
   <v>       0.46666667      -0.35294118       0.17647059 </v>
   <v>      -0.46666667      -0.35294118       0.17647059 </v>
   <v>      -0.40000000      -0.35294118       0.17647059 </v>
   <v>      -0.33333333      -0.35294118       0.17647059 </v>
   <v>      -0.26666667      -0.35294118       0.17647059 </v>
   <v>      -0.20000000      -0.35294118       0.17647059 </v>
   <v>      -0.13333333      -0.35294118       0.17647059 </v>
   <v>      -0.06666667      -0.35294118       0.17647059 </v>
   <v>       0.00000000      -0.29411765       0.17647059 </v>
   <v>       0.06666667      -0.29411765       0.17647059 </v>
   <v>       0.13333333      -0.29411765       0.17647059 </v>
   <v>       0.20000000      -0.29411765       0.17647059 </v>
   <v>       0.26666667      -0.29411765       0.17647059 </v>
   <v>       0.33333333      -0.29411765       0.17647059 </v>
   <v>       0.40000000      -0.29411765       0.17647059 </v>
   <v>       0.46666667      -0.29411765       0.17647059 </v>
   <v>      -0.46666667      -0.29411765       0.17647059 </v>
   <v>      -0.40000000      -0.29411765       0.17647059 </v>
   <v>      -0.33333333      -0.29411765       0.17647059 </v>
   <v>      -0.26666667      -0.29411765       0.17647059 </v>
   <v>      -0.20000000      -0.29411765       0.17647059 </v>
   <v>      -0.13333333      -0.29411765       0.17647059 </v>
   <v>      -0.06666667      -0.29411765       0.17647059 </v>
   <v>       0.00000000      -0.23529412       0.17647059 </v>
   <v>       0.06666667      -0.23529412       0.17647059 </v>
   <v>       0.13333333      -0.23529412       0.17647059 </v>
   <v>       0.20000000      -0.23529412       0.17647059 </v>
   <v>       0.26666667      -0.23529412       0.17647059 </v>
   <v>       0.33333333      -0.23529412       0.17647059 </v>
   <v>       0.40000000      -0.23529412       0.17647059 </v>
   <v>       0.46666667      -0.23529412       0.17647059 </v>
   <v>      -0.46666667      -0.23529412       0.17647059 </v>
   <v>      -0.40000000      -0.23529412       0.17647059 </v>
   <v>      -0.33333333      -0.23529412       0.17647059 </v>
   <v>      -0.26666667      -0.23529412       0.17647059 </v>
   <v>      -0.20000000      -0.23529412       0.17647059 </v>
   <v>      -0.13333333      -0.23529412       0.17647059 </v>
   <v>      -0.06666667      -0.23529412       0.17647059 </v>
   <v>       0.00000000      -0.17647059       0.17647059 </v>
   <v>       0.06666667      -0.17647059       0.17647059 </v>
   <v>       0.13333333      -0.17647059       0.17647059 </v>
   <v>       0.20000000      -0.17647059       0.17647059 </v>
   <v>       0.26666667      -0.17647059       0.17647059 </v>
   <v>       0.33333333      -0.17647059       0.17647059 </v>
   <v>       0.40000000      -0.17647059       0.17647059 </v>
   <v>       0.46666667      -0.17647059       0.17647059 </v>
   <v>       0.00000000       0.23529412       0.23529412 </v>
   <v>       0.06666667       0.23529412       0.23529412 </v>
   <v>       0.13333333       0.23529412       0.23529412 </v>
   <v>       0.20000000       0.23529412       0.23529412 </v>
   <v>       0.26666667       0.23529412       0.23529412 </v>
   <v>       0.33333333       0.23529412       0.23529412 </v>
   <v>       0.40000000       0.23529412       0.23529412 </v>
   <v>       0.46666667       0.23529412       0.23529412 </v>
   <v>      -0.46666667       0.23529412       0.23529412 </v>
   <v>      -0.40000000       0.23529412       0.23529412 </v>
   <v>      -0.33333333       0.23529412       0.23529412 </v>
   <v>      -0.26666667       0.23529412       0.23529412 </v>
   <v>      -0.20000000       0.23529412       0.23529412 </v>
   <v>      -0.13333333       0.23529412       0.23529412 </v>
   <v>      -0.06666667       0.23529412       0.23529412 </v>
   <v>       0.00000000       0.29411765       0.23529412 </v>
   <v>       0.06666667       0.29411765       0.23529412 </v>
   <v>       0.13333333       0.29411765       0.23529412 </v>
   <v>       0.20000000       0.29411765       0.23529412 </v>
   <v>       0.26666667       0.29411765       0.23529412 </v>
   <v>       0.33333333       0.29411765       0.23529412 </v>
   <v>       0.40000000       0.29411765       0.23529412 </v>
   <v>       0.46666667       0.29411765       0.23529412 </v>
   <v>      -0.46666667       0.29411765       0.23529412 </v>
   <v>      -0.40000000       0.29411765       0.23529412 </v>
   <v>      -0.33333333       0.29411765       0.23529412 </v>
   <v>      -0.26666667       0.29411765       0.23529412 </v>
   <v>      -0.20000000       0.29411765       0.23529412 </v>
   <v>      -0.13333333       0.29411765       0.23529412 </v>
   <v>      -0.06666667       0.29411765       0.23529412 </v>
   <v>       0.00000000       0.35294118       0.23529412 </v>
   <v>       0.06666667       0.35294118       0.23529412 </v>
   <v>       0.13333333       0.35294118       0.23529412 </v>
   <v>       0.20000000       0.35294118       0.23529412 </v>
   <v>       0.26666667       0.35294118       0.23529412 </v>
   <v>       0.33333333       0.35294118       0.23529412 </v>
   <v>       0.40000000       0.35294118       0.23529412 </v>
   <v>       0.46666667       0.35294118       0.23529412 </v>
   <v>      -0.46666667       0.35294118       0.23529412 </v>
   <v>      -0.40000000       0.35294118       0.23529412 </v>
   <v>      -0.33333333       0.35294118       0.23529412 </v>
   <v>      -0.26666667       0.35294118       0.23529412 </v>
   <v>      -0.20000000       0.35294118       0.23529412 </v>
   <v>      -0.13333333       0.35294118       0.23529412 </v>
   <v>      -0.06666667       0.35294118       0.23529412 </v>
   <v>       0.00000000       0.41176471       0.23529412 </v>
   <v>       0.06666667       0.41176471       0.23529412 </v>
   <v>       0.13333333       0.41176471       0.23529412 </v>
   <v>       0.20000000       0.41176471       0.23529412 </v>
   <v>       0.26666667       0.41176471       0.23529412 </v>
   <v>       0.33333333       0.41176471       0.23529412 </v>
   <v>       0.40000000       0.41176471       0.23529412 </v>
   <v>       0.46666667       0.41176471       0.23529412 </v>
   <v>      -0.46666667       0.41176471       0.23529412 </v>
   <v>      -0.40000000       0.41176471       0.23529412 </v>
   <v>      -0.33333333       0.41176471       0.23529412 </v>
   <v>      -0.26666667       0.41176471       0.23529412 </v>
   <v>      -0.20000000       0.41176471       0.23529412 </v>
   <v>      -0.13333333       0.41176471       0.23529412 </v>
   <v>      -0.06666667       0.41176471       0.23529412 </v>
   <v>       0.00000000       0.47058824       0.23529412 </v>
   <v>       0.06666667       0.47058824       0.23529412 </v>
   <v>       0.13333333       0.47058824       0.23529412 </v>
   <v>       0.20000000       0.47058824       0.23529412 </v>
   <v>       0.26666667       0.47058824       0.23529412 </v>
   <v>       0.33333333       0.47058824       0.23529412 </v>
   <v>       0.40000000       0.47058824       0.23529412 </v>
   <v>       0.46666667       0.47058824       0.23529412 </v>
   <v>      -0.46666667       0.47058824       0.23529412 </v>
   <v>      -0.40000000       0.47058824       0.23529412 </v>
   <v>      -0.33333333       0.47058824       0.23529412 </v>
   <v>      -0.26666667       0.47058824       0.23529412 </v>
   <v>      -0.20000000       0.47058824       0.23529412 </v>
   <v>      -0.13333333       0.47058824       0.23529412 </v>
   <v>      -0.06666667       0.47058824       0.23529412 </v>
   <v>       0.00000000      -0.47058824       0.23529412 </v>
   <v>       0.06666667      -0.47058824       0.23529412 </v>
   <v>       0.13333333      -0.47058824       0.23529412 </v>
   <v>       0.20000000      -0.47058824       0.23529412 </v>
   <v>       0.26666667      -0.47058824       0.23529412 </v>
   <v>       0.33333333      -0.47058824       0.23529412 </v>
   <v>       0.40000000      -0.47058824       0.23529412 </v>
   <v>       0.46666667      -0.47058824       0.23529412 </v>
   <v>      -0.46666667      -0.47058824       0.23529412 </v>
   <v>      -0.40000000      -0.47058824       0.23529412 </v>
   <v>      -0.33333333      -0.47058824       0.23529412 </v>
   <v>      -0.26666667      -0.47058824       0.23529412 </v>
   <v>      -0.20000000      -0.47058824       0.23529412 </v>
   <v>      -0.13333333      -0.47058824       0.23529412 </v>
   <v>      -0.06666667      -0.47058824       0.23529412 </v>
   <v>       0.00000000      -0.41176471       0.23529412 </v>
   <v>       0.06666667      -0.41176471       0.23529412 </v>
   <v>       0.13333333      -0.41176471       0.23529412 </v>
   <v>       0.20000000      -0.41176471       0.23529412 </v>
   <v>       0.26666667      -0.41176471       0.23529412 </v>
   <v>       0.33333333      -0.41176471       0.23529412 </v>
   <v>       0.40000000      -0.41176471       0.23529412 </v>
   <v>       0.46666667      -0.41176471       0.23529412 </v>
   <v>      -0.46666667      -0.41176471       0.23529412 </v>
   <v>      -0.40000000      -0.41176471       0.23529412 </v>
   <v>      -0.33333333      -0.41176471       0.23529412 </v>
   <v>      -0.26666667      -0.41176471       0.23529412 </v>
   <v>      -0.20000000      -0.41176471       0.23529412 </v>
   <v>      -0.13333333      -0.41176471       0.23529412 </v>
   <v>      -0.06666667      -0.41176471       0.23529412 </v>
   <v>       0.00000000      -0.35294118       0.23529412 </v>
   <v>       0.06666667      -0.35294118       0.23529412 </v>
   <v>       0.13333333      -0.35294118       0.23529412 </v>
   <v>       0.20000000      -0.35294118       0.23529412 </v>
   <v>       0.26666667      -0.35294118       0.23529412 </v>
   <v>       0.33333333      -0.35294118       0.23529412 </v>
   <v>       0.40000000      -0.35294118       0.23529412 </v>
   <v>       0.46666667      -0.35294118       0.23529412 </v>
   <v>      -0.46666667      -0.35294118       0.23529412 </v>
   <v>      -0.40000000      -0.35294118       0.23529412 </v>
   <v>      -0.33333333      -0.35294118       0.23529412 </v>
   <v>      -0.26666667      -0.35294118       0.23529412 </v>
   <v>      -0.20000000      -0.35294118       0.23529412 </v>
   <v>      -0.13333333      -0.35294118       0.23529412 </v>
   <v>      -0.06666667      -0.35294118       0.23529412 </v>
   <v>       0.00000000      -0.29411765       0.23529412 </v>
   <v>       0.06666667      -0.29411765       0.23529412 </v>
   <v>       0.13333333      -0.29411765       0.23529412 </v>
   <v>       0.20000000      -0.29411765       0.23529412 </v>
   <v>       0.26666667      -0.29411765       0.23529412 </v>
   <v>       0.33333333      -0.29411765       0.23529412 </v>
   <v>       0.40000000      -0.29411765       0.23529412 </v>
   <v>       0.46666667      -0.29411765       0.23529412 </v>
   <v>      -0.46666667      -0.29411765       0.23529412 </v>
   <v>      -0.40000000      -0.29411765       0.23529412 </v>
   <v>      -0.33333333      -0.29411765       0.23529412 </v>
   <v>      -0.26666667      -0.29411765       0.23529412 </v>
   <v>      -0.20000000      -0.29411765       0.23529412 </v>
   <v>      -0.13333333      -0.29411765       0.23529412 </v>
   <v>      -0.06666667      -0.29411765       0.23529412 </v>
   <v>       0.00000000      -0.23529412       0.23529412 </v>
   <v>       0.06666667      -0.23529412       0.23529412 </v>
   <v>       0.13333333      -0.23529412       0.23529412 </v>
   <v>       0.20000000      -0.23529412       0.23529412 </v>
   <v>       0.26666667      -0.23529412       0.23529412 </v>
   <v>       0.33333333      -0.23529412       0.23529412 </v>
   <v>       0.40000000      -0.23529412       0.23529412 </v>
   <v>       0.46666667      -0.23529412       0.23529412 </v>
   <v>       0.00000000       0.29411765       0.29411765 </v>
   <v>       0.06666667       0.29411765       0.29411765 </v>
   <v>       0.13333333       0.29411765       0.29411765 </v>
   <v>       0.20000000       0.29411765       0.29411765 </v>
   <v>       0.26666667       0.29411765       0.29411765 </v>
   <v>       0.33333333       0.29411765       0.29411765 </v>
   <v>       0.40000000       0.29411765       0.29411765 </v>
   <v>       0.46666667       0.29411765       0.29411765 </v>
   <v>      -0.46666667       0.29411765       0.29411765 </v>
   <v>      -0.40000000       0.29411765       0.29411765 </v>
   <v>      -0.33333333       0.29411765       0.29411765 </v>
   <v>      -0.26666667       0.29411765       0.29411765 </v>
   <v>      -0.20000000       0.29411765       0.29411765 </v>
   <v>      -0.13333333       0.29411765       0.29411765 </v>
   <v>      -0.06666667       0.29411765       0.29411765 </v>
   <v>       0.00000000       0.35294118       0.29411765 </v>
   <v>       0.06666667       0.35294118       0.29411765 </v>
   <v>       0.13333333       0.35294118       0.29411765 </v>
   <v>       0.20000000       0.35294118       0.29411765 </v>
   <v>       0.26666667       0.35294118       0.29411765 </v>
   <v>       0.33333333       0.35294118       0.29411765 </v>
   <v>       0.40000000       0.35294118       0.29411765 </v>
   <v>       0.46666667       0.35294118       0.29411765 </v>
   <v>      -0.46666667       0.35294118       0.29411765 </v>
   <v>      -0.40000000       0.35294118       0.29411765 </v>
   <v>      -0.33333333       0.35294118       0.29411765 </v>
   <v>      -0.26666667       0.35294118       0.29411765 </v>
   <v>      -0.20000000       0.35294118       0.29411765 </v>
   <v>      -0.13333333       0.35294118       0.29411765 </v>
   <v>      -0.06666667       0.35294118       0.29411765 </v>
   <v>       0.00000000       0.41176471       0.29411765 </v>
   <v>       0.06666667       0.41176471       0.29411765 </v>
   <v>       0.13333333       0.41176471       0.29411765 </v>
   <v>       0.20000000       0.41176471       0.29411765 </v>
   <v>       0.26666667       0.41176471       0.29411765 </v>
   <v>       0.33333333       0.41176471       0.29411765 </v>
   <v>       0.40000000       0.41176471       0.29411765 </v>
   <v>       0.46666667       0.41176471       0.29411765 </v>
   <v>      -0.46666667       0.41176471       0.29411765 </v>
   <v>      -0.40000000       0.41176471       0.29411765 </v>
   <v>      -0.33333333       0.41176471       0.29411765 </v>
   <v>      -0.26666667       0.41176471       0.29411765 </v>
   <v>      -0.20000000       0.41176471       0.29411765 </v>
   <v>      -0.13333333       0.41176471       0.29411765 </v>
   <v>      -0.06666667       0.41176471       0.29411765 </v>
   <v>       0.00000000       0.47058824       0.29411765 </v>
   <v>       0.06666667       0.47058824       0.29411765 </v>
   <v>       0.13333333       0.47058824       0.29411765 </v>
   <v>       0.20000000       0.47058824       0.29411765 </v>
   <v>       0.26666667       0.47058824       0.29411765 </v>
   <v>       0.33333333       0.47058824       0.29411765 </v>
   <v>       0.40000000       0.47058824       0.29411765 </v>
   <v>       0.46666667       0.47058824       0.29411765 </v>
   <v>      -0.46666667       0.47058824       0.29411765 </v>
   <v>      -0.40000000       0.47058824       0.29411765 </v>
   <v>      -0.33333333       0.47058824       0.29411765 </v>
   <v>      -0.26666667       0.47058824       0.29411765 </v>
   <v>      -0.20000000       0.47058824       0.29411765 </v>
   <v>      -0.13333333       0.47058824       0.29411765 </v>
   <v>      -0.06666667       0.47058824       0.29411765 </v>
   <v>       0.00000000      -0.47058824       0.29411765 </v>
   <v>       0.06666667      -0.47058824       0.29411765 </v>
   <v>       0.13333333      -0.47058824       0.29411765 </v>
   <v>       0.20000000      -0.47058824       0.29411765 </v>
   <v>       0.26666667      -0.47058824       0.29411765 </v>
   <v>       0.33333333      -0.47058824       0.29411765 </v>
   <v>       0.40000000      -0.47058824       0.29411765 </v>
   <v>       0.46666667      -0.47058824       0.29411765 </v>
   <v>      -0.46666667      -0.47058824       0.29411765 </v>
   <v>      -0.40000000      -0.47058824       0.29411765 </v>
   <v>      -0.33333333      -0.47058824       0.29411765 </v>
   <v>      -0.26666667      -0.47058824       0.29411765 </v>
   <v>      -0.20000000      -0.47058824       0.29411765 </v>
   <v>      -0.13333333      -0.47058824       0.29411765 </v>
   <v>      -0.06666667      -0.47058824       0.29411765 </v>
   <v>       0.00000000      -0.41176471       0.29411765 </v>
   <v>       0.06666667      -0.41176471       0.29411765 </v>
   <v>       0.13333333      -0.41176471       0.29411765 </v>
   <v>       0.20000000      -0.41176471       0.29411765 </v>
   <v>       0.26666667      -0.41176471       0.29411765 </v>
   <v>       0.33333333      -0.41176471       0.29411765 </v>
   <v>       0.40000000      -0.41176471       0.29411765 </v>
   <v>       0.46666667      -0.41176471       0.29411765 </v>
   <v>      -0.46666667      -0.41176471       0.29411765 </v>
   <v>      -0.40000000      -0.41176471       0.29411765 </v>
   <v>      -0.33333333      -0.41176471       0.29411765 </v>
   <v>      -0.26666667      -0.41176471       0.29411765 </v>
   <v>      -0.20000000      -0.41176471       0.29411765 </v>
   <v>      -0.13333333      -0.41176471       0.29411765 </v>
   <v>      -0.06666667      -0.41176471       0.29411765 </v>
   <v>       0.00000000      -0.35294118       0.29411765 </v>
   <v>       0.06666667      -0.35294118       0.29411765 </v>
   <v>       0.13333333      -0.35294118       0.29411765 </v>
   <v>       0.20000000      -0.35294118       0.29411765 </v>
   <v>       0.26666667      -0.35294118       0.29411765 </v>
   <v>       0.33333333      -0.35294118       0.29411765 </v>
   <v>       0.40000000      -0.35294118       0.29411765 </v>
   <v>       0.46666667      -0.35294118       0.29411765 </v>
   <v>      -0.46666667      -0.35294118       0.29411765 </v>
   <v>      -0.40000000      -0.35294118       0.29411765 </v>
   <v>      -0.33333333      -0.35294118       0.29411765 </v>
   <v>      -0.26666667      -0.35294118       0.29411765 </v>
   <v>      -0.20000000      -0.35294118       0.29411765 </v>
   <v>      -0.13333333      -0.35294118       0.29411765 </v>
   <v>      -0.06666667      -0.35294118       0.29411765 </v>
   <v>       0.00000000      -0.29411765       0.29411765 </v>
   <v>       0.06666667      -0.29411765       0.29411765 </v>
   <v>       0.13333333      -0.29411765       0.29411765 </v>
   <v>       0.20000000      -0.29411765       0.29411765 </v>
   <v>       0.26666667      -0.29411765       0.29411765 </v>
   <v>       0.33333333      -0.29411765       0.29411765 </v>
   <v>       0.40000000      -0.29411765       0.29411765 </v>
   <v>       0.46666667      -0.29411765       0.29411765 </v>
   <v>       0.00000000       0.35294118       0.35294118 </v>
   <v>       0.06666667       0.35294118       0.35294118 </v>
   <v>       0.13333333       0.35294118       0.35294118 </v>
   <v>       0.20000000       0.35294118       0.35294118 </v>
   <v>       0.26666667       0.35294118       0.35294118 </v>
   <v>       0.33333333       0.35294118       0.35294118 </v>
   <v>       0.40000000       0.35294118       0.35294118 </v>
   <v>       0.46666667       0.35294118       0.35294118 </v>
   <v>      -0.46666667       0.35294118       0.35294118 </v>
   <v>      -0.40000000       0.35294118       0.35294118 </v>
   <v>      -0.33333333       0.35294118       0.35294118 </v>
   <v>      -0.26666667       0.35294118       0.35294118 </v>
   <v>      -0.20000000       0.35294118       0.35294118 </v>
   <v>      -0.13333333       0.35294118       0.35294118 </v>
   <v>      -0.06666667       0.35294118       0.35294118 </v>
   <v>       0.00000000       0.41176471       0.35294118 </v>
   <v>       0.06666667       0.41176471       0.35294118 </v>
   <v>       0.13333333       0.41176471       0.35294118 </v>
   <v>       0.20000000       0.41176471       0.35294118 </v>
   <v>       0.26666667       0.41176471       0.35294118 </v>
   <v>       0.33333333       0.41176471       0.35294118 </v>
   <v>       0.40000000       0.41176471       0.35294118 </v>
   <v>       0.46666667       0.41176471       0.35294118 </v>
   <v>      -0.46666667       0.41176471       0.35294118 </v>
   <v>      -0.40000000       0.41176471       0.35294118 </v>
   <v>      -0.33333333       0.41176471       0.35294118 </v>
   <v>      -0.26666667       0.41176471       0.35294118 </v>
   <v>      -0.20000000       0.41176471       0.35294118 </v>
   <v>      -0.13333333       0.41176471       0.35294118 </v>
   <v>      -0.06666667       0.41176471       0.35294118 </v>
   <v>       0.00000000       0.47058824       0.35294118 </v>
   <v>       0.06666667       0.47058824       0.35294118 </v>
   <v>       0.13333333       0.47058824       0.35294118 </v>
   <v>       0.20000000       0.47058824       0.35294118 </v>
   <v>       0.26666667       0.47058824       0.35294118 </v>
   <v>       0.33333333       0.47058824       0.35294118 </v>
   <v>       0.40000000       0.47058824       0.35294118 </v>
   <v>       0.46666667       0.47058824       0.35294118 </v>
   <v>      -0.46666667       0.47058824       0.35294118 </v>
   <v>      -0.40000000       0.47058824       0.35294118 </v>
   <v>      -0.33333333       0.47058824       0.35294118 </v>
   <v>      -0.26666667       0.47058824       0.35294118 </v>
   <v>      -0.20000000       0.47058824       0.35294118 </v>
   <v>      -0.13333333       0.47058824       0.35294118 </v>
   <v>      -0.06666667       0.47058824       0.35294118 </v>
   <v>       0.00000000      -0.47058824       0.35294118 </v>
   <v>       0.06666667      -0.47058824       0.35294118 </v>
   <v>       0.13333333      -0.47058824       0.35294118 </v>
   <v>       0.20000000      -0.47058824       0.35294118 </v>
   <v>       0.26666667      -0.47058824       0.35294118 </v>
   <v>       0.33333333      -0.47058824       0.35294118 </v>
   <v>       0.40000000      -0.47058824       0.35294118 </v>
   <v>       0.46666667      -0.47058824       0.35294118 </v>
   <v>      -0.46666667      -0.47058824       0.35294118 </v>
   <v>      -0.40000000      -0.47058824       0.35294118 </v>
   <v>      -0.33333333      -0.47058824       0.35294118 </v>
   <v>      -0.26666667      -0.47058824       0.35294118 </v>
   <v>      -0.20000000      -0.47058824       0.35294118 </v>
   <v>      -0.13333333      -0.47058824       0.35294118 </v>
   <v>      -0.06666667      -0.47058824       0.35294118 </v>
   <v>       0.00000000      -0.41176471       0.35294118 </v>
   <v>       0.06666667      -0.41176471       0.35294118 </v>
   <v>       0.13333333      -0.41176471       0.35294118 </v>
   <v>       0.20000000      -0.41176471       0.35294118 </v>
   <v>       0.26666667      -0.41176471       0.35294118 </v>
   <v>       0.33333333      -0.41176471       0.35294118 </v>
   <v>       0.40000000      -0.41176471       0.35294118 </v>
   <v>       0.46666667      -0.41176471       0.35294118 </v>
   <v>      -0.46666667      -0.41176471       0.35294118 </v>
   <v>      -0.40000000      -0.41176471       0.35294118 </v>
   <v>      -0.33333333      -0.41176471       0.35294118 </v>
   <v>      -0.26666667      -0.41176471       0.35294118 </v>
   <v>      -0.20000000      -0.41176471       0.35294118 </v>
   <v>      -0.13333333      -0.41176471       0.35294118 </v>
   <v>      -0.06666667      -0.41176471       0.35294118 </v>
   <v>       0.00000000      -0.35294118       0.35294118 </v>
   <v>       0.06666667      -0.35294118       0.35294118 </v>
   <v>       0.13333333      -0.35294118       0.35294118 </v>
   <v>       0.20000000      -0.35294118       0.35294118 </v>
   <v>       0.26666667      -0.35294118       0.35294118 </v>
   <v>       0.33333333      -0.35294118       0.35294118 </v>
   <v>       0.40000000      -0.35294118       0.35294118 </v>
   <v>       0.46666667      -0.35294118       0.35294118 </v>
   <v>       0.00000000       0.41176471       0.41176471 </v>
   <v>       0.06666667       0.41176471       0.41176471 </v>
   <v>       0.13333333       0.41176471       0.41176471 </v>
   <v>       0.20000000       0.41176471       0.41176471 </v>
   <v>       0.26666667       0.41176471       0.41176471 </v>
   <v>       0.33333333       0.41176471       0.41176471 </v>
   <v>       0.40000000       0.41176471       0.41176471 </v>
   <v>       0.46666667       0.41176471       0.41176471 </v>
   <v>      -0.46666667       0.41176471       0.41176471 </v>
   <v>      -0.40000000       0.41176471       0.41176471 </v>
   <v>      -0.33333333       0.41176471       0.41176471 </v>
   <v>      -0.26666667       0.41176471       0.41176471 </v>
   <v>      -0.20000000       0.41176471       0.41176471 </v>
   <v>      -0.13333333       0.41176471       0.41176471 </v>
   <v>      -0.06666667       0.41176471       0.41176471 </v>
   <v>       0.00000000       0.47058824       0.41176471 </v>
   <v>       0.06666667       0.47058824       0.41176471 </v>
   <v>       0.13333333       0.47058824       0.41176471 </v>
   <v>       0.20000000       0.47058824       0.41176471 </v>
   <v>       0.26666667       0.47058824       0.41176471 </v>
   <v>       0.33333333       0.47058824       0.41176471 </v>
   <v>       0.40000000       0.47058824       0.41176471 </v>
   <v>       0.46666667       0.47058824       0.41176471 </v>
   <v>      -0.46666667       0.47058824       0.41176471 </v>
   <v>      -0.40000000       0.47058824       0.41176471 </v>
   <v>      -0.33333333       0.47058824       0.41176471 </v>
   <v>      -0.26666667       0.47058824       0.41176471 </v>
   <v>      -0.20000000       0.47058824       0.41176471 </v>
   <v>      -0.13333333       0.47058824       0.41176471 </v>
   <v>      -0.06666667       0.47058824       0.41176471 </v>
   <v>       0.00000000      -0.47058824       0.41176471 </v>
   <v>       0.06666667      -0.47058824       0.41176471 </v>
   <v>       0.13333333      -0.47058824       0.41176471 </v>
   <v>       0.20000000      -0.47058824       0.41176471 </v>
   <v>       0.26666667      -0.47058824       0.41176471 </v>
   <v>       0.33333333      -0.47058824       0.41176471 </v>
   <v>       0.40000000      -0.47058824       0.41176471 </v>
   <v>       0.46666667      -0.47058824       0.41176471 </v>
   <v>      -0.46666667      -0.47058824       0.41176471 </v>
   <v>      -0.40000000      -0.47058824       0.41176471 </v>
   <v>      -0.33333333      -0.47058824       0.41176471 </v>
   <v>      -0.26666667      -0.47058824       0.41176471 </v>
   <v>      -0.20000000      -0.47058824       0.41176471 </v>
   <v>      -0.13333333      -0.47058824       0.41176471 </v>
   <v>      -0.06666667      -0.47058824       0.41176471 </v>
   <v>       0.00000000      -0.41176471       0.41176471 </v>
   <v>       0.06666667      -0.41176471       0.41176471 </v>
   <v>       0.13333333      -0.41176471       0.41176471 </v>
   <v>       0.20000000      -0.41176471       0.41176471 </v>
   <v>       0.26666667      -0.41176471       0.41176471 </v>
   <v>       0.33333333      -0.41176471       0.41176471 </v>
   <v>       0.40000000      -0.41176471       0.41176471 </v>
   <v>       0.46666667      -0.41176471       0.41176471 </v>
   <v>       0.00000000       0.47058824       0.47058824 </v>
   <v>       0.06666667       0.47058824       0.47058824 </v>
   <v>       0.13333333       0.47058824       0.47058824 </v>
   <v>       0.20000000       0.47058824       0.47058824 </v>
   <v>       0.26666667       0.47058824       0.47058824 </v>
   <v>       0.33333333       0.47058824       0.47058824 </v>
   <v>       0.40000000       0.47058824       0.47058824 </v>
   <v>       0.46666667       0.47058824       0.47058824 </v>
   <v>      -0.46666667       0.47058824       0.47058824 </v>
   <v>      -0.40000000       0.47058824       0.47058824 </v>
   <v>      -0.33333333       0.47058824       0.47058824 </v>
   <v>      -0.26666667       0.47058824       0.47058824 </v>
   <v>      -0.20000000       0.47058824       0.47058824 </v>
   <v>      -0.13333333       0.47058824       0.47058824 </v>
   <v>      -0.06666667       0.47058824       0.47058824 </v>
   <v>       0.00000000      -0.47058824       0.47058824 </v>
   <v>       0.06666667      -0.47058824       0.47058824 </v>
   <v>       0.13333333      -0.47058824       0.47058824 </v>
   <v>       0.20000000      -0.47058824       0.47058824 </v>
   <v>       0.26666667      -0.47058824       0.47058824 </v>
   <v>       0.33333333      -0.47058824       0.47058824 </v>
   <v>       0.40000000      -0.47058824       0.47058824 </v>
   <v>       0.46666667      -0.47058824       0.47058824 </v>
  </varray>
  <varray name="weights" >
   <v>       0.00023068 </v>
   <v>       0.00046136 </v>
   <v>       0.00046136 </v>
   <v>       0.00046136 </v>
   <v>       0.00046136 </v>
   <v>       0.00046136 </v>
   <v>       0.00046136 </v>
   <v>       0.00046136 </v>
   <v>       0.00092272 </v>
   <v>       0.00092272 </v>
   <v>       0.00092272 </v>
   <v>       0.00092272 </v>
   <v>       0.00092272 </v>
   <v>       0.00092272 </v>
   <v>       0.00092272 </v>
   <v>       0.00092272 </v>
   <v>       0.00092272 </v>
   <v>       0.00092272 </v>
   <v>       0.00092272 </v>
   <v>       0.00092272 </v>
   <v>       0.00092272 </v>
   <v>       0.00092272 </v>
   <v>       0.00092272 </v>
   <v>       0.00092272 </v>
   <v>       0.00092272 </v>
   <v>       0.00092272 </v>
   <v>       0.00092272 </v>
   <v>       0.00092272 </v>
   <v>       0.00092272 </v>
   <v>       0.00092272 </v>
   <v>       0.00092272 </v>
   <v>       0.00092272 </v>
   <v>       0.00092272 </v>
   <v>       0.00092272 </v>
   <v>       0.00092272 </v>
   <v>       0.00092272 </v>
   <v>       0.00092272 </v>
   <v>       0.00092272 </v>
   <v>       0.00092272 </v>
   <v>       0.00092272 </v>
   <v>       0.00092272 </v>
   <v>       0.00092272 </v>
   <v>       0.00092272 </v>
   <v>       0.00092272 </v>
   <v>       0.00092272 </v>
   <v>       0.00092272 </v>
   <v>       0.00092272 </v>
   <v>       0.00092272 </v>
   <v>       0.00092272 </v>
   <v>       0.00092272 </v>
   <v>       0.00092272 </v>
   <v>       0.00092272 </v>
   <v>       0.00092272 </v>
   <v>       0.00092272 </v>
   <v>       0.00092272 </v>
   <v>       0.00092272 </v>
   <v>       0.00092272 </v>
   <v>       0.00092272 </v>
   <v>       0.00092272 </v>
   <v>       0.00092272 </v>
   <v>       0.00092272 </v>
   <v>       0.00092272 </v>
   <v>       0.00092272 </v>
   <v>       0.00092272 </v>
   <v>       0.00092272 </v>
   <v>       0.00092272 </v>
   <v>       0.00092272 </v>
   <v>       0.00092272 </v>
   <v>       0.00092272 </v>
   <v>       0.00092272 </v>
   <v>       0.00092272 </v>
   <v>       0.00092272 </v>
   <v>       0.00092272 </v>
   <v>       0.00092272 </v>
   <v>       0.00092272 </v>
   <v>       0.00092272 </v>
   <v>       0.00092272 </v>
   <v>       0.00092272 </v>
   <v>       0.00092272 </v>
   <v>       0.00092272 </v>
   <v>       0.00092272 </v>
   <v>       0.00092272 </v>
   <v>       0.00092272 </v>
   <v>       0.00092272 </v>
   <v>       0.00092272 </v>
   <v>       0.00092272 </v>
   <v>       0.00092272 </v>
   <v>       0.00092272 </v>
   <v>       0.00092272 </v>
   <v>       0.00092272 </v>
   <v>       0.00092272 </v>
   <v>       0.00092272 </v>
   <v>       0.00092272 </v>
   <v>       0.00092272 </v>
   <v>       0.00092272 </v>
   <v>       0.00092272 </v>
   <v>       0.00092272 </v>
   <v>       0.00092272 </v>
   <v>       0.00092272 </v>
   <v>       0.00092272 </v>
   <v>       0.00092272 </v>
   <v>       0.00092272 </v>
   <v>       0.00092272 </v>
   <v>       0.00092272 </v>
   <v>       0.00092272 </v>
   <v>       0.00092272 </v>
   <v>       0.00092272 </v>
   <v>       0.00092272 </v>
   <v>       0.00092272 </v>
   <v>       0.00092272 </v>
   <v>       0.00092272 </v>
   <v>       0.00092272 </v>
   <v>       0.00092272 </v>
   <v>       0.00092272 </v>
   <v>       0.00092272 </v>
   <v>       0.00092272 </v>
   <v>       0.00092272 </v>
   <v>       0.00092272 </v>
   <v>       0.00092272 </v>
   <v>       0.00092272 </v>
   <v>       0.00092272 </v>
   <v>       0.00092272 </v>
   <v>       0.00092272 </v>
   <v>       0.00092272 </v>
   <v>       0.00092272 </v>
   <v>       0.00092272 </v>
   <v>       0.00092272 </v>
   <v>       0.00092272 </v>
   <v>       0.00046136 </v>
   <v>       0.00046136 </v>
   <v>       0.00046136 </v>
   <v>       0.00046136 </v>
   <v>       0.00046136 </v>
   <v>       0.00046136 </v>
   <v>       0.00046136 </v>
   <v>       0.00046136 </v>
   <v>       0.00046136 </v>
   <v>       0.00046136 </v>
   <v>       0.00046136 </v>
   <v>       0.00046136 </v>
   <v>       0.00046136 </v>
   <v>       0.00046136 </v>
   <v>       0.00046136 </v>
   <v>       0.00092272 </v>
   <v>       0.00092272 </v>
   <v>       0.00092272 </v>
   <v>       0.00092272 </v>
   <v>       0.00092272 </v>
   <v>       0.00092272 </v>
   <v>       0.00092272 </v>
   <v>       0.00092272 </v>
   <v>       0.00092272 </v>
   <v>       0.00092272 </v>
   <v>       0.00092272 </v>
   <v>       0.00092272 </v>
   <v>       0.00092272 </v>
   <v>       0.00092272 </v>
   <v>       0.00092272 </v>
   <v>       0.00092272 </v>
   <v>       0.00092272 </v>
   <v>       0.00092272 </v>
   <v>       0.00092272 </v>
   <v>       0.00092272 </v>
   <v>       0.00092272 </v>
   <v>       0.00092272 </v>
   <v>       0.00092272 </v>
   <v>       0.00092272 </v>
   <v>       0.00092272 </v>
   <v>       0.00092272 </v>
   <v>       0.00092272 </v>
   <v>       0.00092272 </v>
   <v>       0.00092272 </v>
   <v>       0.00092272 </v>
   <v>       0.00092272 </v>
   <v>       0.00092272 </v>
   <v>       0.00092272 </v>
   <v>       0.00092272 </v>
   <v>       0.00092272 </v>
   <v>       0.00092272 </v>
   <v>       0.00092272 </v>
   <v>       0.00092272 </v>
   <v>       0.00092272 </v>
   <v>       0.00092272 </v>
   <v>       0.00092272 </v>
   <v>       0.00092272 </v>
   <v>       0.00092272 </v>
   <v>       0.00092272 </v>
   <v>       0.00092272 </v>
   <v>       0.00092272 </v>
   <v>       0.00092272 </v>
   <v>       0.00092272 </v>
   <v>       0.00092272 </v>
   <v>       0.00092272 </v>
   <v>       0.00092272 </v>
[...]
       <r>    5.2050    1.0000 </r>
       <r>    5.2741    1.0000 </r>
       <r>    5.4158    1.0000 </r>
       <r>    5.4591    1.0000 </r>
       <r>    5.5632    1.0000 </r>
       <r>    5.7721    1.0000 </r>
       <r>    5.8807    1.0000 </r>
       <r>    5.9254    1.0000 </r>
       <r>    6.1055    1.0000 </r>
       <r>    6.1733    1.0000 </r>
       <r>    6.2498    1.0000 </r>
       <r>    7.9456    1.0277 </r>
       <r>    8.3725    0.5649 </r>
       <r>    9.1092   -0.0020 </r>
       <r>    9.6937    0.0000 </r>
       <r>   12.6116    0.0000 </r>
       <r>   15.1635    0.0000 </r>
       <r>   16.7466    0.0000 </r>
       <r>   17.1342    0.0000 </r>
      </set>
      <set comment="kpoint 1151">
       <r>    2.0346    1.0000 </r>
       <r>    2.2068    1.0000 </r>
       <r>    2.4161    1.0000 </r>
       <r>    2.4906    1.0000 </r>
       <r>    2.8191    1.0000 </r>
       <r>    2.8676    1.0000 </r>
       <r>    2.9100    1.0000 </r>
       <r>    3.0505    1.0000 </r>
       <r>    3.0839    1.0000 </r>
       <r>    3.2274    1.0000 </r>
       <r>    3.2813    1.0000 </r>
       <r>    3.4976    1.0000 </r>
       <r>    3.7801    1.0000 </r>
       <r>    3.8615    1.0000 </r>
       <r>    4.0062    1.0000 </r>
       <r>    4.0464    1.0000 </r>
       <r>    4.2937    1.0000 </r>
       <r>    4.5407    1.0000 </r>
       <r>    4.6458    1.0000 </r>
       <r>    4.6817    1.0000 </r>
       <r>    4.6978    1.0000 </r>
       <r>    5.1673    1.0000 </r>
       <r>    5.2109    1.0000 </r>
       <r>    5.2909    1.0000 </r>
       <r>    5.3525    1.0000 </r>
       <r>    5.4205    1.0000 </r>
       <r>    5.8471    1.0000 </r>
       <r>    5.9869    1.0000 </r>
       <r>    6.1073    1.0000 </r>
       <r>    6.1847    1.0000 </r>
       <r>    6.2310    1.0000 </r>
       <r>    6.3407    1.0000 </r>
       <r>    7.4279    1.0000 </r>
       <r>    7.8216    1.0105 </r>
       <r>    9.2656   -0.0002 </r>
       <r>    9.5945    0.0000 </r>
       <r>   13.1081    0.0000 </r>
       <r>   14.7841    0.0000 </r>
       <r>   16.9824    0.0000 </r>
       <r>   17.7474    0.0000 </r>
      </set>
      <set comment="kpoint 1152">
       <r>    2.2125    1.0000 </r>
       <r>    2.2987    1.0000 </r>
       <r>    2.4501    1.0000 </r>
       <r>    2.4619    1.0000 </r>
       <r>    2.7547    1.0000 </r>
       <r>    2.7804    1.0000 </r>
       <r>    3.0842    1.0000 </r>
       <r>    3.1117    1.0000 </r>
       <r>    3.1222    1.0000 </r>
       <r>    3.1829    1.0000 </r>
       <r>    3.2167    1.0000 </r>
       <r>    3.3431    1.0000 </r>
       <r>    3.8628    1.0000 </r>
       <r>    3.9081    1.0000 </r>
       <r>    3.9762    1.0000 </r>
       <r>    3.9966    1.0000 </r>
       <r>    4.2790    1.0000 </r>
       <r>    4.4277    1.0000 </r>
       <r>    4.7347    1.0000 </r>
       <r>    4.7460    1.0000 </r>
       <r>    4.7807    1.0000 </r>
       <r>    4.9748    1.0000 </r>
       <r>    5.0904    1.0000 </r>
       <r>    5.1689    1.0000 </r>
       <r>    5.3302    1.0000 </r>
       <r>    5.3761    1.0000 </r>
       <r>    5.8882    1.0000 </r>
       <r>    5.9402    1.0000 </r>
       <r>    6.1984    1.0000 </r>
       <r>    6.2135    1.0000 </r>
       <r>    6.4590    1.0000 </r>
       <r>    6.6765    1.0000 </r>
       <r>    7.0432    1.0000 </r>
       <r>    7.3160    1.0000 </r>
       <r>    9.3940    0.0000 </r>
       <r>    9.4996    0.0000 </r>
       <r>   13.6622    0.0000 </r>
       <r>   14.2398    0.0000 </r>
       <r>   17.1994    0.0000 </r>
       <r>   17.4553    0.0000 </r>
      </set>
     </set>
    </set>
   </array>
  </eigenvalues>
  <separator name="orbital magnetization" >
   <v name="MAGDIPOLOUT">      0.00000000      0.00000000      0.00000000</v>
  </separator>
  <dos>
   <i name="efermi">      8.39555712 </i>
   <total>
    <array>
     <dimension dim="1">gridpoints</dimension>
     <dimension dim="2">spin</dimension>
     <field>energy</field>
     <field>total</field>
     <field>integrated</field>
     <set>
      <set comment="spin 1">
       <r>    -3.3884     0.0000     0.0000 </r>
       <r>    -3.3059     0.0000     0.0000 </r>
       <r>    -3.2234     0.0000     0.0000 </r>
       <r>    -3.1408     0.0000     0.0000 </r>
       <r>    -3.0583     0.0000     0.0000 </r>
       <r>    -2.9758     0.0000     0.0000 </r>
       <r>    -2.8933     0.0000     0.0000 </r>
       <r>    -2.8108     0.0000     0.0000 </r>
       <r>    -2.7283     0.0000     0.0000 </r>
       <r>    -2.6458     0.0000     0.0000 </r>
       <r>    -2.5633     0.0000     0.0000 </r>
       <r>    -2.4808     0.0000     0.0000 </r>
       <r>    -2.3982     0.0000     0.0000 </r>
       <r>    -2.3157     0.0000     0.0000 </r>
       <r>    -2.2332     0.0000     0.0000 </r>
       <r>    -2.1507     0.0000     0.0000 </r>
       <r>    -2.0682     0.0000     0.0000 </r>
       <r>    -1.9857     0.0000     0.0000 </r>
       <r>    -1.9032     0.0000     0.0000 </r>
       <r>    -1.8207     0.0000     0.0000 </r>
       <r>    -1.7381     0.0000     0.0000 </r>
       <r>    -1.6556     0.0000     0.0000 </r>
       <r>    -1.5731     0.0000     0.0000 </r>
       <r>    -1.4906     0.0000     0.0000 </r>
       <r>    -1.4081     0.0000     0.0000 </r>
       <r>    -1.3256     0.0000     0.0000 </r>
       <r>    -1.2431     0.0000     0.0000 </r>
       <r>    -1.1606    -0.0001     0.0000 </r>
       <r>    -1.0781    -0.0002     0.0000 </r>
       <r>    -0.9955    -0.0006    -0.0001 </r>
       <r>    -0.9130    -0.0017    -0.0002 </r>
       <r>    -0.8305    -0.0037    -0.0005 </r>
       <r>    -0.7480    -0.0065    -0.0010 </r>
       <r>    -0.6655    -0.0084    -0.0017 </r>
       <r>    -0.5830    -0.0055    -0.0022 </r>
       <r>    -0.5005     0.0082    -0.0015 </r>
       <r>    -0.4180     0.0379     0.0016 </r>
       <r>    -0.3355     0.0850     0.0086 </r>
       <r>    -0.2529     0.1449     0.0206 </r>
       <r>    -0.1704     0.2097     0.0379 </r>
       <r>    -0.0879     0.2715     0.0603 </r>
       <r>    -0.0054     0.3264     0.0872 </r>
       <r>     0.0771     0.3741     0.1181 </r>
       <r>     0.1596     0.4169     0.1525 </r>
       <r>     0.2421     0.4572     0.1902 </r>
       <r>     0.3246     0.4967     0.2312 </r>
       <r>     0.4072     0.5364     0.2755 </r>
       <r>     0.4897     0.5767     0.3230 </r>
       <r>     0.5722     0.6181     0.3741 </r>
       <r>     0.6547     0.6613     0.4286 </r>
       <r>     0.7372     0.7067     0.4869 </r>
       <r>     0.8197     0.7545     0.5492 </r>
       <r>     0.9022     0.8060     0.6157 </r>
       <r>     0.9847     0.8643     0.6870 </r>
       <r>     1.0672     0.9340     0.7641 </r>
       <r>     1.1498     1.0210     0.8483 </r>
       <r>     1.2323     1.1293     0.9415 </r>
       <r>     1.3148     1.2576     1.0452 </r>
       <r>     1.3973     1.3973     1.1605 </r>
       <r>     1.4798     1.5410     1.2877 </r>
       <r>     1.5623     1.6987     1.4279 </r>
       <r>     1.6448     1.9110     1.5855 </r>
       <r>     1.7273     2.2398     1.7703 </r>
       <r>     1.8098     2.7398     1.9964 </r>
       <r>     1.8924     3.4320     2.2796 </r>
       <r>     1.9749     4.3072     2.6350 </r>
       <r>     2.0574     5.3577     3.0771 </r>
       <r>     2.1399     6.5965     3.6213 </r>
       <r>     2.2224     8.0285     4.2838 </r>
       <r>     2.3049     9.5903     5.0751 </r>
       <r>     2.3874    11.1197     5.9926 </r>
       <r>     2.4699    12.4027     7.0160 </r>
       <r>     2.5525    13.2697     8.1109 </r>
       <r>     2.6350    13.6626     9.2382 </r>
       <r>     2.7175    13.6215    10.3621 </r>
       <r>     2.8000    13.2230    11.4532 </r>
       <r>     2.8825    12.5513    12.4888 </r>
       <r>     2.9650    11.7370    13.4572 </r>
       <r>     3.0475    11.0029    14.3651 </r>
       <r>     3.1300    10.6228    15.2416 </r>
       <r>     3.2125    10.7820    16.1312 </r>
       <r>     3.2951    11.4461    17.0757 </r>
       <r>     3.3776    12.3628    18.0958 </r>
       <r>     3.4601    13.2092    19.1857 </r>
       <r>     3.5426    13.7810    20.3228 </r>
       <r>     3.6251    14.1003    21.4862 </r>
       <r>     3.7076    14.3939    22.6739 </r>
       <r>     3.7901    14.9694    23.9090 </r>
       <r>     3.8726    16.0410    25.2326 </r>
       <r>     3.9552    17.5625    26.6817 </r>
       <r>     4.0377    19.1495    28.2617 </r>
       <r>     4.1202    20.1913    29.9277 </r>
       <r>     4.2027    20.1630    31.5914 </r>
       <r>     4.2852    18.9649    33.1562 </r>
       <r>     4.3677    17.0257    34.5611 </r>
       <r>     4.4502    15.0632    35.8040 </r>
       <r>     4.5327    13.6801    36.9327 </r>
       <r>     4.6152    13.0971    38.0134 </r>
       <r>     4.6978    13.1645    39.0996 </r>
       <r>     4.7803    13.5602    40.2185 </r>
       <r>     4.8628    13.9903    41.3728 </r>
       <r>     4.9453    14.2866    42.5516 </r>
       <r>     5.0278    14.4048    43.7402 </r>
       <r>     5.1103    14.3706    44.9259 </r>
       <r>     5.1928    14.2094    46.0984 </r>
       <r>     5.2753    13.8995    47.2453 </r>
       <r>     5.3578    13.3898    48.3501 </r>
       <r>     5.4404    12.6885    49.3970 </r>
       <r>     5.5229    11.9487    50.3829 </r>
       <r>     5.6054    11.4520    51.3278 </r>
       <r>     5.6879    11.4781    52.2749 </r>
       <r>     5.7704    12.1463    53.2771 </r>
       <r>     5.8529    13.3314    54.3771 </r>
       <r>     5.9354    14.6852    55.5888 </r>
       <r>     6.0179    15.7428    56.8878 </r>
       <r>     6.1005    16.0745    58.2141 </r>
       <r>     6.1830    15.4242    59.4868 </r>
       <r>     6.2655    13.7789    60.6237 </r>
       <r>     6.3480    11.3593    61.5610 </r>
       <r>     6.4305     8.5643    62.2676 </r>
       <r>     6.5130     5.8770    62.7526 </r>
       <r>     6.5955     3.7205    63.0596 </r>
       <r>     6.6780     2.3077    63.2500 </r>
       <r>     6.7605     1.5909    63.3812 </r>
       <r>     6.8431     1.3539    63.4929 </r>
       <r>     6.9256     1.3624    63.6054 </r>
       <r>     7.0081     1.4581    63.7257 </r>
       <r>     7.0906     1.5607    63.8544 </r>
       <r>     7.1731     1.6334    63.9892 </r>
       <r>     7.2556     1.6614    64.1263 </r>
       <r>     7.3381     1.6504    64.2625 </r>
       <r>     7.4206     1.6225    64.3964 </r>
       <r>     7.5031     1.6017    64.5285 </r>
       <r>     7.5857     1.5999    64.6605 </r>
       <r>     7.6682     1.6152    64.7938 </r>
       <r>     7.7507     1.6384    64.9290 </r>
       <r>     7.8332     1.6611    65.0661 </r>
       <r>     7.9157     1.6777    65.2045 </r>
       <r>     7.9982     1.6846    65.3435 </r>
       <r>     8.0807     1.6791    65.4820 </r>
       <r>     8.1632     1.6622    65.6192 </r>
       <r>     8.2458     1.6427    65.7547 </r>
       <r>     8.3283     1.6338    65.8895 </r>
       <r>     8.4108     1.6433    66.0251 </r>
       <r>     8.4933     1.6649    66.1625 </r>
       <r>     8.5758     1.6815    66.3012 </r>
       <r>     8.6583     1.6800    66.4399 </r>
       <r>     8.7408     1.6624    66.5770 </r>
       <r>     8.8233     1.6431    66.7126 </r>
       <r>     8.9058     1.6355    66.8476 </r>
       <r>     8.9884     1.6405    66.9829 </r>
       <r>     9.0709     1.6473    67.1188 </r>
       <r>     9.1534     1.6431    67.2544 </r>
       <r>     9.2359     1.6250    67.3885 </r>
       <r>     9.3184     1.6031    67.5208 </r>
       <r>     9.4009     1.5950    67.6524 </r>
       <r>     9.4834     1.6126    67.7854 </r>
       <r>     9.5659     1.6513    67.9217 </r>
       <r>     9.6484     1.6895    68.0611 </r>
       <r>     9.7310     1.7026    68.2016 </r>
       <r>     9.8135     1.6799    68.3402 </r>
       <r>     9.8960     1.6310    68.4748 </r>
       <r>     9.9785     1.5769    68.6049 </r>
       <r>    10.0610     1.5379    68.7318 </r>
       <r>    10.1435     1.5271    68.8578 </r>
       <r>    10.2260     1.5472    68.9854 </r>
       <r>    10.3085     1.5856    69.1163 </r>
       <r>    10.3911     1.6161    69.2496 </r>
       <r>    10.4736     1.6128    69.3827 </r>
       <r>    10.5561     1.5698    69.5122 </r>
       <r>    10.6386     1.5057    69.6364 </r>
       <r>    10.7211     1.4498    69.7561 </r>
       <r>    10.8036     1.4204    69.8733 </r>
       <r>    10.8861     1.4164    69.9901 </r>
       <r>    10.9686     1.4262    70.1078 </r>
       <r>    11.0511     1.4449    70.2270 </r>
       <r>    11.1337     1.4808    70.3492 </r>
       <r>    11.2162     1.5464    70.4768 </r>
       <r>    11.2987     1.6440    70.6124 </r>
       <r>    11.3812     1.7599    70.7577 </r>
       <r>    11.4637     1.8711    70.9121 </r>
       <r>    11.5462     1.9550    71.0734 </r>
       <r>    11.6287     1.9984    71.2383 </r>
       <r>    11.7112     2.0019    71.4034 </r>
       <r>    11.7937     1.9808    71.5669 </r>
       <r>    11.8763     1.9593    71.7285 </r>
       <r>    11.9588     1.9550    71.8898 </r>
       <r>    12.0413     1.9651    72.0520 </r>
       <r>    12.1238     1.9681    72.2144 </r>
       <r>    12.2063     1.9423    72.3746 </r>
       <r>    12.2888     1.8867    72.5303 </r>
       <r>    12.3713     1.8224    72.6807 </r>
       <r>    12.4538     1.7749    72.8271 </r>
       <r>    12.5364     1.7553    72.9720 </r>
       <r>    12.6189     1.7580    73.1170 </r>
       <r>    12.7014     1.7729    73.2633 </r>
       <r>    12.7839     1.7963    73.4115 </r>
       <r>    12.8664     1.8302    73.5625 </r>
       <r>    12.9489     1.8717    73.7170 </r>
       <r>    13.0314     1.9061    73.8742 </r>
       <r>    13.1139     1.9140    74.0322 </r>
       <r>    13.1964     1.8877    74.1879 </r>
       <r>    13.2790     1.8409    74.3398 </r>
       <r>    13.3615     1.8022    74.4885 </r>
       <r>    13.4440     1.7961    74.6367 </r>
       <r>    13.5265     1.8302    74.7877 </r>
       <r>    13.6090     1.8944    74.9441 </r>
       <r>    13.6915     1.9724    75.1068 </r>
       <r>    13.7740     2.0513    75.2761 </r>
       <r>    13.8565     2.1225    75.4512 </r>
       <r>    13.9390     2.1756    75.6307 </r>
       <r>    14.0216     2.1951    75.8118 </r>
       <r>    14.1041     2.1683    75.9907 </r>
       <r>    14.1866     2.0969    76.1638 </r>
       <r>    14.2691     1.9999    76.3288 </r>
       <r>    14.3516     1.9036    76.4858 </r>
       <r>    14.4341     1.8265    76.6365 </r>
       <r>    14.5166     1.7723    76.7828 </r>
       <r>    14.5991     1.7365    76.9261 </r>
       <r>    14.6817     1.7167    77.0677 </r>
       <r>    14.7642     1.7153    77.2093 </r>
       <r>    14.8467     1.7307    77.3521 </r>
       <r>    14.9292     1.7503    77.4965 </r>
       <r>    15.0117     1.7543    77.6412 </r>
       <r>    15.0942     1.7285    77.7838 </r>
       <r>    15.1767     1.6720    77.9218 </r>
       <r>    15.2592     1.5968    78.0536 </r>
       <r>    15.3417     1.5202    78.1790 </r>
       <r>    15.4243     1.4574    78.2992 </r>
       <r>    15.5068     1.4164    78.4161 </r>
       <r>    15.5893     1.3958    78.5313 </r>
       <r>    15.6718     1.3830    78.6454 </r>
       <r>    15.7543     1.3591    78.7575 </r>
       <r>    15.8368     1.3092    78.8656 </r>
       <r>    15.9193     1.2341    78.9674 </r>
       <r>    16.0018     1.1490    79.0622 </r>
       <r>    16.0843     1.0708    79.1506 </r>
       <r>    16.1669     1.0033    79.2333 </r>
       <r>    16.2494     0.9374    79.3107 </r>
       <r>    16.3319     0.8634    79.3819 </r>
       <r>    16.4144     0.7821    79.4465 </r>
       <r>    16.4969     0.7042    79.5046 </r>
       <r>    16.5794     0.6419    79.5575 </r>
       <r>    16.6619     0.6002    79.6071 </r>
       <r>    16.7444     0.5752    79.6545 </r>
       <r>    16.8270     0.5574    79.7005 </r>
       <r>    16.9095     0.5368    79.7448 </r>
       <r>    16.9920     0.5073    79.7867 </r>
       <r>    17.0745     0.4678    79.8253 </r>
       <r>    17.1570     0.4205    79.8600 </r>
       <r>    17.2395     0.3689    79.8904 </r>
       <r>    17.3220     0.3159    79.9165 </r>
       <r>    17.4045     0.2643    79.9383 </r>
       <r>    17.4870     0.2157    79.9561 </r>
       <r>    17.5696     0.1706    79.9701 </r>
       <r>    17.6521     0.1290    79.9808 </r>
       <r>    17.7346     0.0918    79.9884 </r>
       <r>    17.8171     0.0605    79.9934 </r>
       <r>    17.8996     0.0364    79.9964 </r>
       <r>    17.9821     0.0195    79.9980 </r>
       <r>    18.0646     0.0092    79.9987 </r>
       <r>    18.1471     0.0041    79.9991 </r>
       <r>    18.2296     0.0025    79.9993 </r>
       <r>    18.3122     0.0025    79.9995 </r>
       <r>    18.3947     0.0027    79.9997 </r>
       <r>    18.4772     0.0023    79.9999 </r>
       <r>    18.5597     0.0015    80.0000 </r>
       <r>    18.6422     0.0006    80.0001 </r>
       <r>    18.7247     0.0000    80.0001 </r>
       <r>    18.8072    -0.0002    80.0000 </r>
       <r>    18.8897    -0.0002    80.0000 </r>
       <r>    18.9723    -0.0001    80.0000 </r>
       <r>    19.0548    -0.0001    80.0000 </r>
       <r>    19.1373     0.0000    80.0000 </r>
       <r>    19.2198     0.0000    80.0000 </r>
       <r>    19.3023     0.0000    80.0000 </r>
       <r>    19.3848     0.0000    80.0000 </r>
       <r>    19.4673     0.0000    80.0000 </r>
       <r>    19.5498     0.0000    80.0000 </r>
       <r>    19.6323     0.0000    80.0000 </r>
       <r>    19.7149     0.0000    80.0000 </r>
       <r>    19.7974     0.0000    80.0000 </r>
       <r>    19.8799     0.0000    80.0000 </r>
       <r>    19.9624     0.0000    80.0000 </r>
       <r>    20.0449     0.0000    80.0000 </r>
       <r>    20.1274     0.0000    80.0000 </r>
       <r>    20.2099     0.0000    80.0000 </r>
       <r>    20.2924     0.0000    80.0000 </r>
       <r>    20.3750     0.0000    80.0000 </r>
       <r>    20.4575     0.0000    80.0000 </r>
       <r>    20.5400     0.0000    80.0000 </r>
       <r>    20.6225     0.0000    80.0000 </r>
       <r>    20.7050     0.0000    80.0000 </r>
       <r>    20.7875     0.0000    80.0000 </r>
       <r>    20.8700     0.0000    80.0000 </r>
       <r>    20.9525     0.0000    80.0000 </r>
       <r>    21.0350     0.0000    80.0000 </r>
       <r>    21.1176     0.0000    80.0000 </r>
       <r>    21.2001     0.0000    80.0000 </r>
       <r>    21.2826     0.0000    80.0000 </r>
       <r>    21.3651     0.0000    80.0000 </r>
      </set>
     </set>
    </array>
   </total>
  </dos>
 </calculation>
 <structure name="finalpos" >
  <crystal>
   <varray name="basis" >
    <v>      -2.06947294      -4.14601789      -2.06947294 </v>
    <v>      -4.15146169       2.07477915       2.07844832 </v>
    <v>       2.07844832       2.07477915      -4.15146169 </v>
   </varray>
   <i name="volume">    107.04324297 </i>
   <varray name="rec_basis" >
    <v>      -0.12075202      -0.12064925      -0.12075202 </v>
    <v>      -0.20090697       0.12044320      -0.04039101 </v>
    <v>      -0.04039101       0.12044320      -0.20090697 </v>
   </varray>
  </crystal>
  <varray name="positions" >
   <v>       0.00000000       0.33330800       0.66669200 </v>
   <v>       0.50000000       0.16669200       0.83330800 </v>
   <v>       0.00000000       0.99984304       0.00015696 </v>
   <v>       0.50000000       0.83318659       0.16681341 </v>
   <v>       0.00000000       0.66681341       0.33318659 </v>
   <v>       0.50000000       0.50015696       0.49984304 </v>
  </varray>
 </structure>
</modeling>
