<?xml version="1.0" encoding="ISO-8859-1"?>
<modeling>
 <generator>
  <i name="program" type="string">vasp </i>
  <i name="version" type="string">5.3.5  </i>
  <i name="subversion" type="string">31Mar14 (build Jun 20 2014 13:15:13) complex                          parallel </i>
  <i name="platform" type="string">LinuxIFC </i>
  <i name="date" type="string">2025 11 21 </i>
  <i name="time" type="string">12:38:43 </i>
 </generator>
 <incar>
  <i type="string" name="PREC">accurate</i>
  <i type="int" name="IALGO">    68</i>
  <i type="logical" name="ADDGRID"> T  </i>
  <i type="int" name="NELM">   100</i>
  <i type="int" name="NELMIN">     4</i>
  <i type="int" name="IBRION">     2</i>
  <i name="EDIFF">      0.00000100</i>
  <i name="EDIFFG">     -0.02000000</i>
  <i type="int" name="NSW">    30</i>
  <i type="int" name="ISIF">     3</i>
  <i name="ENCUT">    500.00000000</i>
  <i type="logical" name="LREAL"> F  </i>
  <i type="int" name="ISMEAR">     1</i>
  <i name="SIGMA">      0.30000000</i>
  <i type="logical" name="LWAVE"> F  </i>
  <i type="logical" name="LCHARG"> F  </i>
  <i type="int" name="NELM">   100</i>
 </incar>
 <kpoints>
  <generation param="Auto">
   <i name="subdivisionlength">     70.00000000 </i>
   <v type="int" name="divisions">      25       12       11 </v>
   <v name="usershift">      0.00000000       0.00000000       0.00000000 </v>
   <v name="genvec1">      0.04000000       0.00000000       0.00000000 </v>
   <v name="genvec2">      0.00000000       0.08333333       0.00000000 </v>
   <v name="genvec3">      0.00000000       0.00000000       0.09090909 </v>
   <v name="shift">      0.00000000       0.00000000       0.00000000 </v>
  </generation>
  <varray name="kpointlist" >
   <v>       0.00000000       0.00000000       0.00000000 </v>
   <v>       0.04000000       0.00000000       0.00000000 </v>
   <v>       0.08000000       0.00000000       0.00000000 </v>
   <v>       0.12000000       0.00000000       0.00000000 </v>
   <v>       0.16000000       0.00000000       0.00000000 </v>
   <v>       0.20000000       0.00000000       0.00000000 </v>
   <v>       0.24000000       0.00000000       0.00000000 </v>
   <v>       0.28000000       0.00000000       0.00000000 </v>
   <v>       0.32000000       0.00000000       0.00000000 </v>
   <v>       0.36000000       0.00000000       0.00000000 </v>
   <v>       0.40000000       0.00000000       0.00000000 </v>
   <v>       0.44000000       0.00000000       0.00000000 </v>
   <v>       0.48000000       0.00000000       0.00000000 </v>
   <v>       0.00000000       0.08333333       0.00000000 </v>
   <v>       0.04000000       0.08333333       0.00000000 </v>
   <v>       0.08000000       0.08333333       0.00000000 </v>
   <v>       0.12000000       0.08333333       0.00000000 </v>
   <v>       0.16000000       0.08333333       0.00000000 </v>
   <v>       0.20000000       0.08333333       0.00000000 </v>
   <v>       0.24000000       0.08333333       0.00000000 </v>
   <v>       0.28000000       0.08333333       0.00000000 </v>
   <v>       0.32000000       0.08333333       0.00000000 </v>
   <v>       0.36000000       0.08333333       0.00000000 </v>
   <v>       0.40000000       0.08333333       0.00000000 </v>
   <v>       0.44000000       0.08333333       0.00000000 </v>
   <v>       0.48000000       0.08333333       0.00000000 </v>
   <v>      -0.48000000       0.08333333       0.00000000 </v>
   <v>      -0.44000000       0.08333333       0.00000000 </v>
   <v>      -0.40000000       0.08333333       0.00000000 </v>
   <v>      -0.36000000       0.08333333       0.00000000 </v>
   <v>      -0.32000000       0.08333333       0.00000000 </v>
   <v>      -0.28000000       0.08333333       0.00000000 </v>
   <v>      -0.24000000       0.08333333       0.00000000 </v>
   <v>      -0.20000000       0.08333333       0.00000000 </v>
   <v>      -0.16000000       0.08333333       0.00000000 </v>
   <v>      -0.12000000       0.08333333       0.00000000 </v>
   <v>      -0.08000000       0.08333333       0.00000000 </v>
   <v>      -0.04000000       0.08333333       0.00000000 </v>
   <v>       0.00000000       0.16666667       0.00000000 </v>
   <v>       0.04000000       0.16666667       0.00000000 </v>
   <v>       0.08000000       0.16666667       0.00000000 </v>
   <v>       0.12000000       0.16666667       0.00000000 </v>
   <v>       0.16000000       0.16666667       0.00000000 </v>
   <v>       0.20000000       0.16666667       0.00000000 </v>
   <v>       0.24000000       0.16666667       0.00000000 </v>
   <v>       0.28000000       0.16666667       0.00000000 </v>
   <v>       0.32000000       0.16666667       0.00000000 </v>
   <v>       0.36000000       0.16666667       0.00000000 </v>
   <v>       0.40000000       0.16666667       0.00000000 </v>
   <v>       0.44000000       0.16666667       0.00000000 </v>
   <v>       0.48000000       0.16666667       0.00000000 </v>
   <v>      -0.48000000       0.16666667       0.00000000 </v>
   <v>      -0.44000000       0.16666667       0.00000000 </v>
   <v>      -0.40000000       0.16666667       0.00000000 </v>
   <v>      -0.36000000       0.16666667       0.00000000 </v>
   <v>      -0.32000000       0.16666667       0.00000000 </v>
   <v>      -0.28000000       0.16666667       0.00000000 </v>
   <v>      -0.24000000       0.16666667       0.00000000 </v>
   <v>      -0.20000000       0.16666667       0.00000000 </v>
   <v>      -0.16000000       0.16666667       0.00000000 </v>
   <v>      -0.12000000       0.16666667       0.00000000 </v>
   <v>      -0.08000000       0.16666667       0.00000000 </v>
   <v>      -0.04000000       0.16666667       0.00000000 </v>
   <v>       0.00000000       0.25000000       0.00000000 </v>
   <v>       0.04000000       0.25000000       0.00000000 </v>
   <v>       0.08000000       0.25000000       0.00000000 </v>
   <v>       0.12000000       0.25000000       0.00000000 </v>
   <v>       0.16000000       0.25000000       0.00000000 </v>
   <v>       0.20000000       0.25000000       0.00000000 </v>
   <v>       0.24000000       0.25000000       0.00000000 </v>
   <v>       0.28000000       0.25000000       0.00000000 </v>
   <v>       0.32000000       0.25000000       0.00000000 </v>
   <v>       0.36000000       0.25000000       0.00000000 </v>
   <v>       0.40000000       0.25000000       0.00000000 </v>
   <v>       0.44000000       0.25000000       0.00000000 </v>
   <v>       0.48000000       0.25000000       0.00000000 </v>
   <v>      -0.48000000       0.25000000       0.00000000 </v>
   <v>      -0.44000000       0.25000000       0.00000000 </v>
   <v>      -0.40000000       0.25000000       0.00000000 </v>
   <v>      -0.36000000       0.25000000       0.00000000 </v>
   <v>      -0.32000000       0.25000000       0.00000000 </v>
   <v>      -0.28000000       0.25000000       0.00000000 </v>
   <v>      -0.24000000       0.25000000       0.00000000 </v>
   <v>      -0.20000000       0.25000000       0.00000000 </v>
   <v>      -0.16000000       0.25000000       0.00000000 </v>
   <v>      -0.12000000       0.25000000       0.00000000 </v>
   <v>      -0.08000000       0.25000000       0.00000000 </v>
   <v>      -0.04000000       0.25000000       0.00000000 </v>
   <v>       0.00000000       0.33333333       0.00000000 </v>
   <v>       0.04000000       0.33333333       0.00000000 </v>
   <v>       0.08000000       0.33333333       0.00000000 </v>
   <v>       0.12000000       0.33333333       0.00000000 </v>
   <v>       0.16000000       0.33333333       0.00000000 </v>
   <v>       0.20000000       0.33333333       0.00000000 </v>
   <v>       0.24000000       0.33333333       0.00000000 </v>
   <v>       0.28000000       0.33333333       0.00000000 </v>
   <v>       0.32000000       0.33333333       0.00000000 </v>
   <v>       0.36000000       0.33333333       0.00000000 </v>
   <v>       0.40000000       0.33333333       0.00000000 </v>
   <v>       0.44000000       0.33333333       0.00000000 </v>
   <v>       0.48000000       0.33333333       0.00000000 </v>
   <v>      -0.48000000       0.33333333       0.00000000 </v>
   <v>      -0.44000000       0.33333333       0.00000000 </v>
   <v>      -0.40000000       0.33333333       0.00000000 </v>
   <v>      -0.36000000       0.33333333       0.00000000 </v>
   <v>      -0.32000000       0.33333333       0.00000000 </v>
   <v>      -0.28000000       0.33333333       0.00000000 </v>
   <v>      -0.24000000       0.33333333       0.00000000 </v>
   <v>      -0.20000000       0.33333333       0.00000000 </v>
   <v>      -0.16000000       0.33333333       0.00000000 </v>
   <v>      -0.12000000       0.33333333       0.00000000 </v>
   <v>      -0.08000000       0.33333333       0.00000000 </v>
   <v>      -0.04000000       0.33333333       0.00000000 </v>
   <v>       0.00000000       0.41666667       0.00000000 </v>
   <v>       0.04000000       0.41666667       0.00000000 </v>
   <v>       0.08000000       0.41666667       0.00000000 </v>
   <v>       0.12000000       0.41666667       0.00000000 </v>
   <v>       0.16000000       0.41666667       0.00000000 </v>
   <v>       0.20000000       0.41666667       0.00000000 </v>
   <v>       0.24000000       0.41666667       0.00000000 </v>
   <v>       0.28000000       0.41666667       0.00000000 </v>
   <v>       0.32000000       0.41666667       0.00000000 </v>
   <v>       0.36000000       0.41666667       0.00000000 </v>
   <v>       0.40000000       0.41666667       0.00000000 </v>
   <v>       0.44000000       0.41666667       0.00000000 </v>
   <v>       0.48000000       0.41666667       0.00000000 </v>
   <v>      -0.48000000       0.41666667       0.00000000 </v>
   <v>      -0.44000000       0.41666667       0.00000000 </v>
   <v>      -0.40000000       0.41666667       0.00000000 </v>
   <v>      -0.36000000       0.41666667       0.00000000 </v>
   <v>      -0.32000000       0.41666667       0.00000000 </v>
   <v>      -0.28000000       0.41666667       0.00000000 </v>
   <v>      -0.24000000       0.41666667       0.00000000 </v>
   <v>      -0.20000000       0.41666667       0.00000000 </v>
   <v>      -0.16000000       0.41666667       0.00000000 </v>
   <v>      -0.12000000       0.41666667       0.00000000 </v>
   <v>      -0.08000000       0.41666667       0.00000000 </v>
   <v>      -0.04000000       0.41666667       0.00000000 </v>
   <v>       0.00000000       0.50000000       0.00000000 </v>
   <v>       0.04000000       0.50000000       0.00000000 </v>
   <v>       0.08000000       0.50000000       0.00000000 </v>
   <v>       0.12000000       0.50000000       0.00000000 </v>
   <v>       0.16000000       0.50000000       0.00000000 </v>
   <v>       0.20000000       0.50000000       0.00000000 </v>
   <v>       0.24000000       0.50000000       0.00000000 </v>
   <v>       0.28000000       0.50000000       0.00000000 </v>
   <v>       0.32000000       0.50000000       0.00000000 </v>
   <v>       0.36000000       0.50000000       0.00000000 </v>
   <v>       0.40000000       0.50000000       0.00000000 </v>
   <v>       0.44000000       0.50000000       0.00000000 </v>
   <v>       0.48000000       0.50000000       0.00000000 </v>
   <v>       0.00000000       0.00000000       0.09090909 </v>
   <v>       0.04000000       0.00000000       0.09090909 </v>
   <v>       0.08000000       0.00000000       0.09090909 </v>
   <v>       0.12000000       0.00000000       0.09090909 </v>
   <v>       0.16000000       0.00000000       0.09090909 </v>
   <v>       0.20000000       0.00000000       0.09090909 </v>
   <v>       0.24000000       0.00000000       0.09090909 </v>
   <v>       0.28000000       0.00000000       0.09090909 </v>
   <v>       0.32000000       0.00000000       0.09090909 </v>
   <v>       0.36000000       0.00000000       0.09090909 </v>
   <v>       0.40000000       0.00000000       0.09090909 </v>
   <v>       0.44000000       0.00000000       0.09090909 </v>
   <v>       0.48000000       0.00000000       0.09090909 </v>
   <v>      -0.48000000       0.00000000       0.09090909 </v>
   <v>      -0.44000000       0.00000000       0.09090909 </v>
   <v>      -0.40000000       0.00000000       0.09090909 </v>
   <v>      -0.36000000       0.00000000       0.09090909 </v>
   <v>      -0.32000000       0.00000000       0.09090909 </v>
   <v>      -0.28000000       0.00000000       0.09090909 </v>
   <v>      -0.24000000       0.00000000       0.09090909 </v>
   <v>      -0.20000000       0.00000000       0.09090909 </v>
   <v>      -0.16000000       0.00000000       0.09090909 </v>
   <v>      -0.12000000       0.00000000       0.09090909 </v>
   <v>      -0.08000000       0.00000000       0.09090909 </v>
   <v>      -0.04000000       0.00000000       0.09090909 </v>
   <v>       0.00000000       0.08333333       0.09090909 </v>
   <v>       0.04000000       0.08333333       0.09090909 </v>
   <v>       0.08000000       0.08333333       0.09090909 </v>
   <v>       0.12000000       0.08333333       0.09090909 </v>
   <v>       0.16000000       0.08333333       0.09090909 </v>
   <v>       0.20000000       0.08333333       0.09090909 </v>
   <v>       0.24000000       0.08333333       0.09090909 </v>
   <v>       0.28000000       0.08333333       0.09090909 </v>
   <v>       0.32000000       0.08333333       0.09090909 </v>
   <v>       0.36000000       0.08333333       0.09090909 </v>
   <v>       0.40000000       0.08333333       0.09090909 </v>
   <v>       0.44000000       0.08333333       0.09090909 </v>
   <v>       0.48000000       0.08333333       0.09090909 </v>
   <v>      -0.48000000       0.08333333       0.09090909 </v>
   <v>      -0.44000000       0.08333333       0.09090909 </v>
   <v>      -0.40000000       0.08333333       0.09090909 </v>
   <v>      -0.36000000       0.08333333       0.09090909 </v>
   <v>      -0.32000000       0.08333333       0.09090909 </v>
   <v>      -0.28000000       0.08333333       0.09090909 </v>
   <v>      -0.24000000       0.08333333       0.09090909 </v>
   <v>      -0.20000000       0.08333333       0.09090909 </v>
   <v>      -0.16000000       0.08333333       0.09090909 </v>
   <v>      -0.12000000       0.08333333       0.09090909 </v>
   <v>      -0.08000000       0.08333333       0.09090909 </v>
   <v>      -0.04000000       0.08333333       0.09090909 </v>
   <v>       0.00000000       0.16666667       0.09090909 </v>
   <v>       0.04000000       0.16666667       0.09090909 </v>
   <v>       0.08000000       0.16666667       0.09090909 </v>
   <v>       0.12000000       0.16666667       0.09090909 </v>
   <v>       0.16000000       0.16666667       0.09090909 </v>
   <v>       0.20000000       0.16666667       0.09090909 </v>
   <v>       0.24000000       0.16666667       0.09090909 </v>
   <v>       0.28000000       0.16666667       0.09090909 </v>
   <v>       0.32000000       0.16666667       0.09090909 </v>
   <v>       0.36000000       0.16666667       0.09090909 </v>
   <v>       0.40000000       0.16666667       0.09090909 </v>
   <v>       0.44000000       0.16666667       0.09090909 </v>
   <v>       0.48000000       0.16666667       0.09090909 </v>
   <v>      -0.48000000       0.16666667       0.09090909 </v>
   <v>      -0.44000000       0.16666667       0.09090909 </v>
   <v>      -0.40000000       0.16666667       0.09090909 </v>
   <v>      -0.36000000       0.16666667       0.09090909 </v>
   <v>      -0.32000000       0.16666667       0.09090909 </v>
   <v>      -0.28000000       0.16666667       0.09090909 </v>
   <v>      -0.24000000       0.16666667       0.09090909 </v>
   <v>      -0.20000000       0.16666667       0.09090909 </v>
   <v>      -0.16000000       0.16666667       0.09090909 </v>
   <v>      -0.12000000       0.16666667       0.09090909 </v>
   <v>      -0.08000000       0.16666667       0.09090909 </v>
   <v>      -0.04000000       0.16666667       0.09090909 </v>
   <v>       0.00000000       0.25000000       0.09090909 </v>
   <v>       0.04000000       0.25000000       0.09090909 </v>
   <v>       0.08000000       0.25000000       0.09090909 </v>
   <v>       0.12000000       0.25000000       0.09090909 </v>
   <v>       0.16000000       0.25000000       0.09090909 </v>
   <v>       0.20000000       0.25000000       0.09090909 </v>
   <v>       0.24000000       0.25000000       0.09090909 </v>
   <v>       0.28000000       0.25000000       0.09090909 </v>
   <v>       0.32000000       0.25000000       0.09090909 </v>
   <v>       0.36000000       0.25000000       0.09090909 </v>
   <v>       0.40000000       0.25000000       0.09090909 </v>
   <v>       0.44000000       0.25000000       0.09090909 </v>
   <v>       0.48000000       0.25000000       0.09090909 </v>
   <v>      -0.48000000       0.25000000       0.09090909 </v>
   <v>      -0.44000000       0.25000000       0.09090909 </v>
   <v>      -0.40000000       0.25000000       0.09090909 </v>
   <v>      -0.36000000       0.25000000       0.09090909 </v>
   <v>      -0.32000000       0.25000000       0.09090909 </v>
   <v>      -0.28000000       0.25000000       0.09090909 </v>
   <v>      -0.24000000       0.25000000       0.09090909 </v>
   <v>      -0.20000000       0.25000000       0.09090909 </v>
   <v>      -0.16000000       0.25000000       0.09090909 </v>
   <v>      -0.12000000       0.25000000       0.09090909 </v>
   <v>      -0.08000000       0.25000000       0.09090909 </v>
   <v>      -0.04000000       0.25000000       0.09090909 </v>
   <v>       0.00000000       0.33333333       0.09090909 </v>
   <v>       0.04000000       0.33333333       0.09090909 </v>
   <v>       0.08000000       0.33333333       0.09090909 </v>
   <v>       0.12000000       0.33333333       0.09090909 </v>
   <v>       0.16000000       0.33333333       0.09090909 </v>
   <v>       0.20000000       0.33333333       0.09090909 </v>
   <v>       0.24000000       0.33333333       0.09090909 </v>
   <v>       0.28000000       0.33333333       0.09090909 </v>
   <v>       0.32000000       0.33333333       0.09090909 </v>
   <v>       0.36000000       0.33333333       0.09090909 </v>
   <v>       0.40000000       0.33333333       0.09090909 </v>
   <v>       0.44000000       0.33333333       0.09090909 </v>
   <v>       0.48000000       0.33333333       0.09090909 </v>
   <v>      -0.48000000       0.33333333       0.09090909 </v>
   <v>      -0.44000000       0.33333333       0.09090909 </v>
   <v>      -0.40000000       0.33333333       0.09090909 </v>
   <v>      -0.36000000       0.33333333       0.09090909 </v>
   <v>      -0.32000000       0.33333333       0.09090909 </v>
   <v>      -0.28000000       0.33333333       0.09090909 </v>
   <v>      -0.24000000       0.33333333       0.09090909 </v>
   <v>      -0.20000000       0.33333333       0.09090909 </v>
   <v>      -0.16000000       0.33333333       0.09090909 </v>
   <v>      -0.12000000       0.33333333       0.09090909 </v>
   <v>      -0.08000000       0.33333333       0.09090909 </v>
   <v>      -0.04000000       0.33333333       0.09090909 </v>
   <v>       0.00000000       0.41666667       0.09090909 </v>
   <v>       0.04000000       0.41666667       0.09090909 </v>
   <v>       0.08000000       0.41666667       0.09090909 </v>
   <v>       0.12000000       0.41666667       0.09090909 </v>
   <v>       0.16000000       0.41666667       0.09090909 </v>
   <v>       0.20000000       0.41666667       0.09090909 </v>
   <v>       0.24000000       0.41666667       0.09090909 </v>
   <v>       0.28000000       0.41666667       0.09090909 </v>
   <v>       0.32000000       0.41666667       0.09090909 </v>
   <v>       0.36000000       0.41666667       0.09090909 </v>
   <v>       0.40000000       0.41666667       0.09090909 </v>
   <v>       0.44000000       0.41666667       0.09090909 </v>
   <v>       0.48000000       0.41666667       0.09090909 </v>
   <v>      -0.48000000       0.41666667       0.09090909 </v>
   <v>      -0.44000000       0.41666667       0.09090909 </v>
   <v>      -0.40000000       0.41666667       0.09090909 </v>
   <v>      -0.36000000       0.41666667       0.09090909 </v>
   <v>      -0.32000000       0.41666667       0.09090909 </v>
   <v>      -0.28000000       0.41666667       0.09090909 </v>
   <v>      -0.24000000       0.41666667       0.09090909 </v>
   <v>      -0.20000000       0.41666667       0.09090909 </v>
   <v>      -0.16000000       0.41666667       0.09090909 </v>
   <v>      -0.12000000       0.41666667       0.09090909 </v>
   <v>      -0.08000000       0.41666667       0.09090909 </v>
   <v>      -0.04000000       0.41666667       0.09090909 </v>
   <v>       0.00000000       0.50000000       0.09090909 </v>
   <v>       0.04000000       0.50000000       0.09090909 </v>
   <v>       0.08000000       0.50000000       0.09090909 </v>
   <v>       0.12000000       0.50000000       0.09090909 </v>
   <v>       0.16000000       0.50000000       0.09090909 </v>
   <v>       0.20000000       0.50000000       0.09090909 </v>
   <v>       0.24000000       0.50000000       0.09090909 </v>
   <v>       0.28000000       0.50000000       0.09090909 </v>
   <v>       0.32000000       0.50000000       0.09090909 </v>
   <v>       0.36000000       0.50000000       0.09090909 </v>
   <v>       0.40000000       0.50000000       0.09090909 </v>
   <v>       0.44000000       0.50000000       0.09090909 </v>
   <v>       0.48000000       0.50000000       0.09090909 </v>
   <v>      -0.48000000       0.50000000       0.09090909 </v>
   <v>      -0.44000000       0.50000000       0.09090909 </v>
   <v>      -0.40000000       0.50000000       0.09090909 </v>
   <v>      -0.36000000       0.50000000       0.09090909 </v>
   <v>      -0.32000000       0.50000000       0.09090909 </v>
   <v>      -0.28000000       0.50000000       0.09090909 </v>
   <v>      -0.24000000       0.50000000       0.09090909 </v>
   <v>      -0.20000000       0.50000000       0.09090909 </v>
   <v>      -0.16000000       0.50000000       0.09090909 </v>
   <v>      -0.12000000       0.50000000       0.09090909 </v>
   <v>      -0.08000000       0.50000000       0.09090909 </v>
   <v>      -0.04000000       0.50000000       0.09090909 </v>
   <v>       0.00000000      -0.41666667       0.09090909 </v>
   <v>       0.04000000      -0.41666667       0.09090909 </v>
   <v>       0.08000000      -0.41666667       0.09090909 </v>
   <v>       0.12000000      -0.41666667       0.09090909 </v>
   <v>       0.16000000      -0.41666667       0.09090909 </v>
   <v>       0.20000000      -0.41666667       0.09090909 </v>
   <v>       0.24000000      -0.41666667       0.09090909 </v>
   <v>       0.28000000      -0.41666667       0.09090909 </v>
   <v>       0.32000000      -0.41666667       0.09090909 </v>
   <v>       0.36000000      -0.41666667       0.09090909 </v>
   <v>       0.40000000      -0.41666667       0.09090909 </v>
   <v>       0.44000000      -0.41666667       0.09090909 </v>
   <v>       0.48000000      -0.41666667       0.09090909 </v>
   <v>      -0.48000000      -0.41666667       0.09090909 </v>
   <v>      -0.44000000      -0.41666667       0.09090909 </v>
   <v>      -0.40000000      -0.41666667       0.09090909 </v>
   <v>      -0.36000000      -0.41666667       0.09090909 </v>
   <v>      -0.32000000      -0.41666667       0.09090909 </v>
   <v>      -0.28000000      -0.41666667       0.09090909 </v>
   <v>      -0.24000000      -0.41666667       0.09090909 </v>
   <v>      -0.20000000      -0.41666667       0.09090909 </v>
   <v>      -0.16000000      -0.41666667       0.09090909 </v>
   <v>      -0.12000000      -0.41666667       0.09090909 </v>
   <v>      -0.08000000      -0.41666667       0.09090909 </v>
   <v>      -0.04000000      -0.41666667       0.09090909 </v>
   <v>       0.00000000      -0.33333333       0.09090909 </v>
   <v>       0.04000000      -0.33333333       0.09090909 </v>
   <v>       0.08000000      -0.33333333       0.09090909 </v>
   <v>       0.12000000      -0.33333333       0.09090909 </v>
   <v>       0.16000000      -0.33333333       0.09090909 </v>
   <v>       0.20000000      -0.33333333       0.09090909 </v>
   <v>       0.24000000      -0.33333333       0.09090909 </v>
   <v>       0.28000000      -0.33333333       0.09090909 </v>
   <v>       0.32000000      -0.33333333       0.09090909 </v>
   <v>       0.36000000      -0.33333333       0.09090909 </v>
   <v>       0.40000000      -0.33333333       0.09090909 </v>
   <v>       0.44000000      -0.33333333       0.09090909 </v>
   <v>       0.48000000      -0.33333333       0.09090909 </v>
   <v>      -0.48000000      -0.33333333       0.09090909 </v>
   <v>      -0.44000000      -0.33333333       0.09090909 </v>
   <v>      -0.40000000      -0.33333333       0.09090909 </v>
   <v>      -0.36000000      -0.33333333       0.09090909 </v>
   <v>      -0.32000000      -0.33333333       0.09090909 </v>
   <v>      -0.28000000      -0.33333333       0.09090909 </v>
   <v>      -0.24000000      -0.33333333       0.09090909 </v>
   <v>      -0.20000000      -0.33333333       0.09090909 </v>
   <v>      -0.16000000      -0.33333333       0.09090909 </v>
   <v>      -0.12000000      -0.33333333       0.09090909 </v>
   <v>      -0.08000000      -0.33333333       0.09090909 </v>
   <v>      -0.04000000      -0.33333333       0.09090909 </v>
   <v>       0.00000000      -0.25000000       0.09090909 </v>
   <v>       0.04000000      -0.25000000       0.09090909 </v>
   <v>       0.08000000      -0.25000000       0.09090909 </v>
   <v>       0.12000000      -0.25000000       0.09090909 </v>
   <v>       0.16000000      -0.25000000       0.09090909 </v>
   <v>       0.20000000      -0.25000000       0.09090909 </v>
   <v>       0.24000000      -0.25000000       0.09090909 </v>
   <v>       0.28000000      -0.25000000       0.09090909 </v>
   <v>       0.32000000      -0.25000000       0.09090909 </v>
   <v>       0.36000000      -0.25000000       0.09090909 </v>
   <v>       0.40000000      -0.25000000       0.09090909 </v>
   <v>       0.44000000      -0.25000000       0.09090909 </v>
   <v>       0.48000000      -0.25000000       0.09090909 </v>
   <v>      -0.48000000      -0.25000000       0.09090909 </v>
   <v>      -0.44000000      -0.25000000       0.09090909 </v>
   <v>      -0.40000000      -0.25000000       0.09090909 </v>
   <v>      -0.36000000      -0.25000000       0.09090909 </v>
   <v>      -0.32000000      -0.25000000       0.09090909 </v>
   <v>      -0.28000000      -0.25000000       0.09090909 </v>
   <v>      -0.24000000      -0.25000000       0.09090909 </v>
   <v>      -0.20000000      -0.25000000       0.09090909 </v>
   <v>      -0.16000000      -0.25000000       0.09090909 </v>
   <v>      -0.12000000      -0.25000000       0.09090909 </v>
   <v>      -0.08000000      -0.25000000       0.09090909 </v>
   <v>      -0.04000000      -0.25000000       0.09090909 </v>
   <v>       0.00000000      -0.16666667       0.09090909 </v>
   <v>       0.04000000      -0.16666667       0.09090909 </v>
   <v>       0.08000000      -0.16666667       0.09090909 </v>
   <v>       0.12000000      -0.16666667       0.09090909 </v>
   <v>       0.16000000      -0.16666667       0.09090909 </v>
   <v>       0.20000000      -0.16666667       0.09090909 </v>
   <v>       0.24000000      -0.16666667       0.09090909 </v>
   <v>       0.28000000      -0.16666667       0.09090909 </v>
   <v>       0.32000000      -0.16666667       0.09090909 </v>
   <v>       0.36000000      -0.16666667       0.09090909 </v>
   <v>       0.40000000      -0.16666667       0.09090909 </v>
   <v>       0.44000000      -0.16666667       0.09090909 </v>
   <v>       0.48000000      -0.16666667       0.09090909 </v>
   <v>      -0.48000000      -0.16666667       0.09090909 </v>
   <v>      -0.44000000      -0.16666667       0.09090909 </v>
   <v>      -0.40000000      -0.16666667       0.09090909 </v>
   <v>      -0.36000000      -0.16666667       0.09090909 </v>
   <v>      -0.32000000      -0.16666667       0.09090909 </v>
   <v>      -0.28000000      -0.16666667       0.09090909 </v>
   <v>      -0.24000000      -0.16666667       0.09090909 </v>
   <v>      -0.20000000      -0.16666667       0.09090909 </v>
   <v>      -0.16000000      -0.16666667       0.09090909 </v>
   <v>      -0.12000000      -0.16666667       0.09090909 </v>
   <v>      -0.08000000      -0.16666667       0.09090909 </v>
   <v>      -0.04000000      -0.16666667       0.09090909 </v>
   <v>       0.00000000      -0.08333333       0.09090909 </v>
   <v>       0.04000000      -0.08333333       0.09090909 </v>
   <v>       0.08000000      -0.08333333       0.09090909 </v>
   <v>       0.12000000      -0.08333333       0.09090909 </v>
   <v>       0.16000000      -0.08333333       0.09090909 </v>
   <v>       0.20000000      -0.08333333       0.09090909 </v>
   <v>       0.24000000      -0.08333333       0.09090909 </v>
   <v>       0.28000000      -0.08333333       0.09090909 </v>
   <v>       0.32000000      -0.08333333       0.09090909 </v>
   <v>       0.36000000      -0.08333333       0.09090909 </v>
   <v>       0.40000000      -0.08333333       0.09090909 </v>
   <v>       0.44000000      -0.08333333       0.09090909 </v>
   <v>       0.48000000      -0.08333333       0.09090909 </v>
   <v>      -0.48000000      -0.08333333       0.09090909 </v>
   <v>      -0.44000000      -0.08333333       0.09090909 </v>
   <v>      -0.40000000      -0.08333333       0.09090909 </v>
   <v>      -0.36000000      -0.08333333       0.09090909 </v>
   <v>      -0.32000000      -0.08333333       0.09090909 </v>
   <v>      -0.28000000      -0.08333333       0.09090909 </v>
   <v>      -0.24000000      -0.08333333       0.09090909 </v>
   <v>      -0.20000000      -0.08333333       0.09090909 </v>
   <v>      -0.16000000      -0.08333333       0.09090909 </v>
   <v>      -0.12000000      -0.08333333       0.09090909 </v>
   <v>      -0.08000000      -0.08333333       0.09090909 </v>
   <v>      -0.04000000      -0.08333333       0.09090909 </v>
   <v>       0.00000000       0.00000000       0.18181818 </v>
   <v>       0.04000000       0.00000000       0.18181818 </v>
   <v>       0.08000000       0.00000000       0.18181818 </v>
   <v>       0.12000000       0.00000000       0.18181818 </v>
   <v>       0.16000000       0.00000000       0.18181818 </v>
   <v>       0.20000000       0.00000000       0.18181818 </v>
   <v>       0.24000000       0.00000000       0.18181818 </v>
   <v>       0.28000000       0.00000000       0.18181818 </v>
   <v>       0.32000000       0.00000000       0.18181818 </v>
   <v>       0.36000000       0.00000000       0.18181818 </v>
   <v>       0.40000000       0.00000000       0.18181818 </v>
   <v>       0.44000000       0.00000000       0.18181818 </v>
   <v>       0.48000000       0.00000000       0.18181818 </v>
   <v>      -0.48000000       0.00000000       0.18181818 </v>
   <v>      -0.44000000       0.00000000       0.18181818 </v>
   <v>      -0.40000000       0.00000000       0.18181818 </v>
   <v>      -0.36000000       0.00000000       0.18181818 </v>
   <v>      -0.32000000       0.00000000       0.18181818 </v>
   <v>      -0.28000000       0.00000000       0.18181818 </v>
   <v>      -0.24000000       0.00000000       0.18181818 </v>
   <v>      -0.20000000       0.00000000       0.18181818 </v>
   <v>      -0.16000000       0.00000000       0.18181818 </v>
   <v>      -0.12000000       0.00000000       0.18181818 </v>
   <v>      -0.08000000       0.00000000       0.18181818 </v>
   <v>      -0.04000000       0.00000000       0.18181818 </v>
   <v>       0.00000000       0.08333333       0.18181818 </v>
   <v>       0.04000000       0.08333333       0.18181818 </v>
   <v>       0.08000000       0.08333333       0.18181818 </v>
   <v>       0.12000000       0.08333333       0.18181818 </v>
   <v>       0.16000000       0.08333333       0.18181818 </v>
   <v>       0.20000000       0.08333333       0.18181818 </v>
   <v>       0.24000000       0.08333333       0.18181818 </v>
   <v>       0.28000000       0.08333333       0.18181818 </v>
   <v>       0.32000000       0.08333333       0.18181818 </v>
   <v>       0.36000000       0.08333333       0.18181818 </v>
   <v>       0.40000000       0.08333333       0.18181818 </v>
   <v>       0.44000000       0.08333333       0.18181818 </v>
   <v>       0.48000000       0.08333333       0.18181818 </v>
   <v>      -0.48000000       0.08333333       0.18181818 </v>
   <v>      -0.44000000       0.08333333       0.18181818 </v>
   <v>      -0.40000000       0.08333333       0.18181818 </v>
   <v>      -0.36000000       0.08333333       0.18181818 </v>
   <v>      -0.32000000       0.08333333       0.18181818 </v>
   <v>      -0.28000000       0.08333333       0.18181818 </v>
   <v>      -0.24000000       0.08333333       0.18181818 </v>
   <v>      -0.20000000       0.08333333       0.18181818 </v>
   <v>      -0.16000000       0.08333333       0.18181818 </v>
   <v>      -0.12000000       0.08333333       0.18181818 </v>
   <v>      -0.08000000       0.08333333       0.18181818 </v>
   <v>      -0.04000000       0.08333333       0.18181818 </v>
   <v>       0.00000000       0.16666667       0.18181818 </v>
   <v>       0.04000000       0.16666667       0.18181818 </v>
   <v>       0.08000000       0.16666667       0.18181818 </v>
   <v>       0.12000000       0.16666667       0.18181818 </v>
   <v>       0.16000000       0.16666667       0.18181818 </v>
   <v>       0.20000000       0.16666667       0.18181818 </v>
   <v>       0.24000000       0.16666667       0.18181818 </v>
   <v>       0.28000000       0.16666667       0.18181818 </v>
   <v>       0.32000000       0.16666667       0.18181818 </v>
   <v>       0.36000000       0.16666667       0.18181818 </v>
   <v>       0.40000000       0.16666667       0.18181818 </v>
   <v>       0.44000000       0.16666667       0.18181818 </v>
   <v>       0.48000000       0.16666667       0.18181818 </v>
   <v>      -0.48000000       0.16666667       0.18181818 </v>
   <v>      -0.44000000       0.16666667       0.18181818 </v>
   <v>      -0.40000000       0.16666667       0.18181818 </v>
   <v>      -0.36000000       0.16666667       0.18181818 </v>
   <v>      -0.32000000       0.16666667       0.18181818 </v>
   <v>      -0.28000000       0.16666667       0.18181818 </v>
   <v>      -0.24000000       0.16666667       0.18181818 </v>
   <v>      -0.20000000       0.16666667       0.18181818 </v>
   <v>      -0.16000000       0.16666667       0.18181818 </v>
   <v>      -0.12000000       0.16666667       0.18181818 </v>
   <v>      -0.08000000       0.16666667       0.18181818 </v>
   <v>      -0.04000000       0.16666667       0.18181818 </v>
   <v>       0.00000000       0.25000000       0.18181818 </v>
   <v>       0.04000000       0.25000000       0.18181818 </v>
   <v>       0.08000000       0.25000000       0.18181818 </v>
   <v>       0.12000000       0.25000000       0.18181818 </v>
   <v>       0.16000000       0.25000000       0.18181818 </v>
   <v>       0.20000000       0.25000000       0.18181818 </v>
   <v>       0.24000000       0.25000000       0.18181818 </v>
   <v>       0.28000000       0.25000000       0.18181818 </v>
   <v>       0.32000000       0.25000000       0.18181818 </v>
   <v>       0.36000000       0.25000000       0.18181818 </v>
   <v>       0.40000000       0.25000000       0.18181818 </v>
   <v>       0.44000000       0.25000000       0.18181818 </v>
   <v>       0.48000000       0.25000000       0.18181818 </v>
   <v>      -0.48000000       0.25000000       0.18181818 </v>
   <v>      -0.44000000       0.25000000       0.18181818 </v>
   <v>      -0.40000000       0.25000000       0.18181818 </v>
   <v>      -0.36000000       0.25000000       0.18181818 </v>
   <v>      -0.32000000       0.25000000       0.18181818 </v>
   <v>      -0.28000000       0.25000000       0.18181818 </v>
   <v>      -0.24000000       0.25000000       0.18181818 </v>
   <v>      -0.20000000       0.25000000       0.18181818 </v>
   <v>      -0.16000000       0.25000000       0.18181818 </v>
   <v>      -0.12000000       0.25000000       0.18181818 </v>
   <v>      -0.08000000       0.25000000       0.18181818 </v>
   <v>      -0.04000000       0.25000000       0.18181818 </v>
   <v>       0.00000000       0.33333333       0.18181818 </v>
   <v>       0.04000000       0.33333333       0.18181818 </v>
   <v>       0.08000000       0.33333333       0.18181818 </v>
   <v>       0.12000000       0.33333333       0.18181818 </v>
   <v>       0.16000000       0.33333333       0.18181818 </v>
   <v>       0.20000000       0.33333333       0.18181818 </v>
   <v>       0.24000000       0.33333333       0.18181818 </v>
   <v>       0.28000000       0.33333333       0.18181818 </v>
   <v>       0.32000000       0.33333333       0.18181818 </v>
   <v>       0.36000000       0.33333333       0.18181818 </v>
   <v>       0.40000000       0.33333333       0.18181818 </v>
   <v>       0.44000000       0.33333333       0.18181818 </v>
   <v>       0.48000000       0.33333333       0.18181818 </v>
   <v>      -0.48000000       0.33333333       0.18181818 </v>
   <v>      -0.44000000       0.33333333       0.18181818 </v>
   <v>      -0.40000000       0.33333333       0.18181818 </v>
   <v>      -0.36000000       0.33333333       0.18181818 </v>
   <v>      -0.32000000       0.33333333       0.18181818 </v>
   <v>      -0.28000000       0.33333333       0.18181818 </v>
   <v>      -0.24000000       0.33333333       0.18181818 </v>
   <v>      -0.20000000       0.33333333       0.18181818 </v>
   <v>      -0.16000000       0.33333333       0.18181818 </v>
   <v>      -0.12000000       0.33333333       0.18181818 </v>
   <v>      -0.08000000       0.33333333       0.18181818 </v>
   <v>      -0.04000000       0.33333333       0.18181818 </v>
   <v>       0.00000000       0.41666667       0.18181818 </v>
   <v>       0.04000000       0.41666667       0.18181818 </v>
   <v>       0.08000000       0.41666667       0.18181818 </v>
   <v>       0.12000000       0.41666667       0.18181818 </v>
   <v>       0.16000000       0.41666667       0.18181818 </v>
   <v>       0.20000000       0.41666667       0.18181818 </v>
   <v>       0.24000000       0.41666667       0.18181818 </v>
   <v>       0.28000000       0.41666667       0.18181818 </v>
   <v>       0.32000000       0.41666667       0.18181818 </v>
   <v>       0.36000000       0.41666667       0.18181818 </v>
   <v>       0.40000000       0.41666667       0.18181818 </v>
   <v>       0.44000000       0.41666667       0.18181818 </v>
   <v>       0.48000000       0.41666667       0.18181818 </v>
   <v>      -0.48000000       0.41666667       0.18181818 </v>
   <v>      -0.44000000       0.41666667       0.18181818 </v>
   <v>      -0.40000000       0.41666667       0.18181818 </v>
   <v>      -0.36000000       0.41666667       0.18181818 </v>
   <v>      -0.32000000       0.41666667       0.18181818 </v>
   <v>      -0.28000000       0.41666667       0.18181818 </v>
   <v>      -0.24000000       0.41666667       0.18181818 </v>
   <v>      -0.20000000       0.41666667       0.18181818 </v>
   <v>      -0.16000000       0.41666667       0.18181818 </v>
   <v>      -0.12000000       0.41666667       0.18181818 </v>
   <v>      -0.08000000       0.41666667       0.18181818 </v>
   <v>      -0.04000000       0.41666667       0.18181818 </v>
   <v>       0.00000000       0.50000000       0.18181818 </v>
   <v>       0.04000000       0.50000000       0.18181818 </v>
   <v>       0.08000000       0.50000000       0.18181818 </v>
   <v>       0.12000000       0.50000000       0.18181818 </v>
   <v>       0.16000000       0.50000000       0.18181818 </v>
   <v>       0.20000000       0.50000000       0.18181818 </v>
   <v>       0.24000000       0.50000000       0.18181818 </v>
   <v>       0.28000000       0.50000000       0.18181818 </v>
   <v>       0.32000000       0.50000000       0.18181818 </v>
   <v>       0.36000000       0.50000000       0.18181818 </v>
   <v>       0.40000000       0.50000000       0.18181818 </v>
   <v>       0.44000000       0.50000000       0.18181818 </v>
   <v>       0.48000000       0.50000000       0.18181818 </v>
   <v>      -0.48000000       0.50000000       0.18181818 </v>
   <v>      -0.44000000       0.50000000       0.18181818 </v>
   <v>      -0.40000000       0.50000000       0.18181818 </v>
   <v>      -0.36000000       0.50000000       0.18181818 </v>
   <v>      -0.32000000       0.50000000       0.18181818 </v>
   <v>      -0.28000000       0.50000000       0.18181818 </v>
   <v>      -0.24000000       0.50000000       0.18181818 </v>
   <v>      -0.20000000       0.50000000       0.18181818 </v>
   <v>      -0.16000000       0.50000000       0.18181818 </v>
   <v>      -0.12000000       0.50000000       0.18181818 </v>
   <v>      -0.08000000       0.50000000       0.18181818 </v>
   <v>      -0.04000000       0.50000000       0.18181818 </v>
   <v>       0.00000000      -0.41666667       0.18181818 </v>
   <v>       0.04000000      -0.41666667       0.18181818 </v>
   <v>       0.08000000      -0.41666667       0.18181818 </v>
   <v>       0.12000000      -0.41666667       0.18181818 </v>
   <v>       0.16000000      -0.41666667       0.18181818 </v>
   <v>       0.20000000      -0.41666667       0.18181818 </v>
   <v>       0.24000000      -0.41666667       0.18181818 </v>
   <v>       0.28000000      -0.41666667       0.18181818 </v>
   <v>       0.32000000      -0.41666667       0.18181818 </v>
   <v>       0.36000000      -0.41666667       0.18181818 </v>
   <v>       0.40000000      -0.41666667       0.18181818 </v>
   <v>       0.44000000      -0.41666667       0.18181818 </v>
   <v>       0.48000000      -0.41666667       0.18181818 </v>
   <v>      -0.48000000      -0.41666667       0.18181818 </v>
   <v>      -0.44000000      -0.41666667       0.18181818 </v>
   <v>      -0.40000000      -0.41666667       0.18181818 </v>
   <v>      -0.36000000      -0.41666667       0.18181818 </v>
   <v>      -0.32000000      -0.41666667       0.18181818 </v>
   <v>      -0.28000000      -0.41666667       0.18181818 </v>
   <v>      -0.24000000      -0.41666667       0.18181818 </v>
   <v>      -0.20000000      -0.41666667       0.18181818 </v>
   <v>      -0.16000000      -0.41666667       0.18181818 </v>
   <v>      -0.12000000      -0.41666667       0.18181818 </v>
   <v>      -0.08000000      -0.41666667       0.18181818 </v>
   <v>      -0.04000000      -0.41666667       0.18181818 </v>
   <v>       0.00000000      -0.33333333       0.18181818 </v>
   <v>       0.04000000      -0.33333333       0.18181818 </v>
   <v>       0.08000000      -0.33333333       0.18181818 </v>
   <v>       0.12000000      -0.33333333       0.18181818 </v>
   <v>       0.16000000      -0.33333333       0.18181818 </v>
   <v>       0.20000000      -0.33333333       0.18181818 </v>
   <v>       0.24000000      -0.33333333       0.18181818 </v>
   <v>       0.28000000      -0.33333333       0.18181818 </v>
   <v>       0.32000000      -0.33333333       0.18181818 </v>
   <v>       0.36000000      -0.33333333       0.18181818 </v>
   <v>       0.40000000      -0.33333333       0.18181818 </v>
   <v>       0.44000000      -0.33333333       0.18181818 </v>
   <v>       0.48000000      -0.33333333       0.18181818 </v>
   <v>      -0.48000000      -0.33333333       0.18181818 </v>
   <v>      -0.44000000      -0.33333333       0.18181818 </v>
   <v>      -0.40000000      -0.33333333       0.18181818 </v>
   <v>      -0.36000000      -0.33333333       0.18181818 </v>
   <v>      -0.32000000      -0.33333333       0.18181818 </v>
   <v>      -0.28000000      -0.33333333       0.18181818 </v>
   <v>      -0.24000000      -0.33333333       0.18181818 </v>
   <v>      -0.20000000      -0.33333333       0.18181818 </v>
   <v>      -0.16000000      -0.33333333       0.18181818 </v>
   <v>      -0.12000000      -0.33333333       0.18181818 </v>
   <v>      -0.08000000      -0.33333333       0.18181818 </v>
   <v>      -0.04000000      -0.33333333       0.18181818 </v>
   <v>       0.00000000      -0.25000000       0.18181818 </v>
   <v>       0.04000000      -0.25000000       0.18181818 </v>
   <v>       0.08000000      -0.25000000       0.18181818 </v>
   <v>       0.12000000      -0.25000000       0.18181818 </v>
   <v>       0.16000000      -0.25000000       0.18181818 </v>
   <v>       0.20000000      -0.25000000       0.18181818 </v>
   <v>       0.24000000      -0.25000000       0.18181818 </v>
   <v>       0.28000000      -0.25000000       0.18181818 </v>
   <v>       0.32000000      -0.25000000       0.18181818 </v>
   <v>       0.36000000      -0.25000000       0.18181818 </v>
   <v>       0.40000000      -0.25000000       0.18181818 </v>
   <v>       0.44000000      -0.25000000       0.18181818 </v>
   <v>       0.48000000      -0.25000000       0.18181818 </v>
   <v>      -0.48000000      -0.25000000       0.18181818 </v>
   <v>      -0.44000000      -0.25000000       0.18181818 </v>
   <v>      -0.40000000      -0.25000000       0.18181818 </v>
   <v>      -0.36000000      -0.25000000       0.18181818 </v>
   <v>      -0.32000000      -0.25000000       0.18181818 </v>
   <v>      -0.28000000      -0.25000000       0.18181818 </v>
   <v>      -0.24000000      -0.25000000       0.18181818 </v>
   <v>      -0.20000000      -0.25000000       0.18181818 </v>
   <v>      -0.16000000      -0.25000000       0.18181818 </v>
   <v>      -0.12000000      -0.25000000       0.18181818 </v>
   <v>      -0.08000000      -0.25000000       0.18181818 </v>
   <v>      -0.04000000      -0.25000000       0.18181818 </v>
   <v>       0.00000000      -0.16666667       0.18181818 </v>
   <v>       0.04000000      -0.16666667       0.18181818 </v>
   <v>       0.08000000      -0.16666667       0.18181818 </v>
   <v>       0.12000000      -0.16666667       0.18181818 </v>
   <v>       0.16000000      -0.16666667       0.18181818 </v>
   <v>       0.20000000      -0.16666667       0.18181818 </v>
   <v>       0.24000000      -0.16666667       0.18181818 </v>
   <v>       0.28000000      -0.16666667       0.18181818 </v>
   <v>       0.32000000      -0.16666667       0.18181818 </v>
   <v>       0.36000000      -0.16666667       0.18181818 </v>
   <v>       0.40000000      -0.16666667       0.18181818 </v>
   <v>       0.44000000      -0.16666667       0.18181818 </v>
   <v>       0.48000000      -0.16666667       0.18181818 </v>
   <v>      -0.48000000      -0.16666667       0.18181818 </v>
   <v>      -0.44000000      -0.16666667       0.18181818 </v>
   <v>      -0.40000000      -0.16666667       0.18181818 </v>
   <v>      -0.36000000      -0.16666667       0.18181818 </v>
   <v>      -0.32000000      -0.16666667       0.18181818 </v>
   <v>      -0.28000000      -0.16666667       0.18181818 </v>
   <v>      -0.24000000      -0.16666667       0.18181818 </v>
   <v>      -0.20000000      -0.16666667       0.18181818 </v>
   <v>      -0.16000000      -0.16666667       0.18181818 </v>
   <v>      -0.12000000      -0.16666667       0.18181818 </v>
   <v>      -0.08000000      -0.16666667       0.18181818 </v>
   <v>      -0.04000000      -0.16666667       0.18181818 </v>
   <v>       0.00000000      -0.08333333       0.18181818 </v>
   <v>       0.04000000      -0.08333333       0.18181818 </v>
   <v>       0.08000000      -0.08333333       0.18181818 </v>
   <v>       0.12000000      -0.08333333       0.18181818 </v>
   <v>       0.16000000      -0.08333333       0.18181818 </v>
   <v>       0.20000000      -0.08333333       0.18181818 </v>
   <v>       0.24000000      -0.08333333       0.18181818 </v>
   <v>       0.28000000      -0.08333333       0.18181818 </v>
   <v>       0.32000000      -0.08333333       0.18181818 </v>
   <v>       0.36000000      -0.08333333       0.18181818 </v>
   <v>       0.40000000      -0.08333333       0.18181818 </v>
   <v>       0.44000000      -0.08333333       0.18181818 </v>
   <v>       0.48000000      -0.08333333       0.18181818 </v>
   <v>      -0.48000000      -0.08333333       0.18181818 </v>
   <v>      -0.44000000      -0.08333333       0.18181818 </v>
   <v>      -0.40000000      -0.08333333       0.18181818 </v>
   <v>      -0.36000000      -0.08333333       0.18181818 </v>
   <v>      -0.32000000      -0.08333333       0.18181818 </v>
   <v>      -0.28000000      -0.08333333       0.18181818 </v>
   <v>      -0.24000000      -0.08333333       0.18181818 </v>
   <v>      -0.20000000      -0.08333333       0.18181818 </v>
   <v>      -0.16000000      -0.08333333       0.18181818 </v>
   <v>      -0.12000000      -0.08333333       0.18181818 </v>
   <v>      -0.08000000      -0.08333333       0.18181818 </v>
   <v>      -0.04000000      -0.08333333       0.18181818 </v>
   <v>       0.00000000       0.00000000       0.27272727 </v>
   <v>       0.04000000       0.00000000       0.27272727 </v>
   <v>       0.08000000       0.00000000       0.27272727 </v>
   <v>       0.12000000       0.00000000       0.27272727 </v>
   <v>       0.16000000       0.00000000       0.27272727 </v>
   <v>       0.20000000       0.00000000       0.27272727 </v>
   <v>       0.24000000       0.00000000       0.27272727 </v>
   <v>       0.28000000       0.00000000       0.27272727 </v>
   <v>       0.32000000       0.00000000       0.27272727 </v>
   <v>       0.36000000       0.00000000       0.27272727 </v>
   <v>       0.40000000       0.00000000       0.27272727 </v>
   <v>       0.44000000       0.00000000       0.27272727 </v>
   <v>       0.48000000       0.00000000       0.27272727 </v>
   <v>      -0.48000000       0.00000000       0.27272727 </v>
   <v>      -0.44000000       0.00000000       0.27272727 </v>
   <v>      -0.40000000       0.00000000       0.27272727 </v>
   <v>      -0.36000000       0.00000000       0.27272727 </v>
   <v>      -0.32000000       0.00000000       0.27272727 </v>
   <v>      -0.28000000       0.00000000       0.27272727 </v>
   <v>      -0.24000000       0.00000000       0.27272727 </v>
   <v>      -0.20000000       0.00000000       0.27272727 </v>
   <v>      -0.16000000       0.00000000       0.27272727 </v>
   <v>      -0.12000000       0.00000000       0.27272727 </v>
   <v>      -0.08000000       0.00000000       0.27272727 </v>
   <v>      -0.04000000       0.00000000       0.27272727 </v>
   <v>       0.00000000       0.08333333       0.27272727 </v>
   <v>       0.04000000       0.08333333       0.27272727 </v>
   <v>       0.08000000       0.08333333       0.27272727 </v>
   <v>       0.12000000       0.08333333       0.27272727 </v>
   <v>       0.16000000       0.08333333       0.27272727 </v>
   <v>       0.20000000       0.08333333       0.27272727 </v>
   <v>       0.24000000       0.08333333       0.27272727 </v>
   <v>       0.28000000       0.08333333       0.27272727 </v>
   <v>       0.32000000       0.08333333       0.27272727 </v>
   <v>       0.36000000       0.08333333       0.27272727 </v>
   <v>       0.40000000       0.08333333       0.27272727 </v>
   <v>       0.44000000       0.08333333       0.27272727 </v>
   <v>       0.48000000       0.08333333       0.27272727 </v>
   <v>      -0.48000000       0.08333333       0.27272727 </v>
   <v>      -0.44000000       0.08333333       0.27272727 </v>
   <v>      -0.40000000       0.08333333       0.27272727 </v>
   <v>      -0.36000000       0.08333333       0.27272727 </v>
   <v>      -0.32000000       0.08333333       0.27272727 </v>
   <v>      -0.28000000       0.08333333       0.27272727 </v>
   <v>      -0.24000000       0.08333333       0.27272727 </v>
   <v>      -0.20000000       0.08333333       0.27272727 </v>
   <v>      -0.16000000       0.08333333       0.27272727 </v>
   <v>      -0.12000000       0.08333333       0.27272727 </v>
   <v>      -0.08000000       0.08333333       0.27272727 </v>
   <v>      -0.04000000       0.08333333       0.27272727 </v>
   <v>       0.00000000       0.16666667       0.27272727 </v>
   <v>       0.04000000       0.16666667       0.27272727 </v>
   <v>       0.08000000       0.16666667       0.27272727 </v>
   <v>       0.12000000       0.16666667       0.27272727 </v>
   <v>       0.16000000       0.16666667       0.27272727 </v>
   <v>       0.20000000       0.16666667       0.27272727 </v>
   <v>       0.24000000       0.16666667       0.27272727 </v>
   <v>       0.28000000       0.16666667       0.27272727 </v>
   <v>       0.32000000       0.16666667       0.27272727 </v>
   <v>       0.36000000       0.16666667       0.27272727 </v>
   <v>       0.40000000       0.16666667       0.27272727 </v>
   <v>       0.44000000       0.16666667       0.27272727 </v>
   <v>       0.48000000       0.16666667       0.27272727 </v>
   <v>      -0.48000000       0.16666667       0.27272727 </v>
   <v>      -0.44000000       0.16666667       0.27272727 </v>
   <v>      -0.40000000       0.16666667       0.27272727 </v>
   <v>      -0.36000000       0.16666667       0.27272727 </v>
   <v>      -0.32000000       0.16666667       0.27272727 </v>
   <v>      -0.28000000       0.16666667       0.27272727 </v>
   <v>      -0.24000000       0.16666667       0.27272727 </v>
   <v>      -0.20000000       0.16666667       0.27272727 </v>
   <v>      -0.16000000       0.16666667       0.27272727 </v>
   <v>      -0.12000000       0.16666667       0.27272727 </v>
   <v>      -0.08000000       0.16666667       0.27272727 </v>
   <v>      -0.04000000       0.16666667       0.27272727 </v>
   <v>       0.00000000       0.25000000       0.27272727 </v>
   <v>       0.04000000       0.25000000       0.27272727 </v>
   <v>       0.08000000       0.25000000       0.27272727 </v>
   <v>       0.12000000       0.25000000       0.27272727 </v>
   <v>       0.16000000       0.25000000       0.27272727 </v>
   <v>       0.20000000       0.25000000       0.27272727 </v>
   <v>       0.24000000       0.25000000       0.27272727 </v>
   <v>       0.28000000       0.25000000       0.27272727 </v>
   <v>       0.32000000       0.25000000       0.27272727 </v>
   <v>       0.36000000       0.25000000       0.27272727 </v>
   <v>       0.40000000       0.25000000       0.27272727 </v>
   <v>       0.44000000       0.25000000       0.27272727 </v>
   <v>       0.48000000       0.25000000       0.27272727 </v>
   <v>      -0.48000000       0.25000000       0.27272727 </v>
   <v>      -0.44000000       0.25000000       0.27272727 </v>
   <v>      -0.40000000       0.25000000       0.27272727 </v>
   <v>      -0.36000000       0.25000000       0.27272727 </v>
   <v>      -0.32000000       0.25000000       0.27272727 </v>
   <v>      -0.28000000       0.25000000       0.27272727 </v>
   <v>      -0.24000000       0.25000000       0.27272727 </v>
   <v>      -0.20000000       0.25000000       0.27272727 </v>
   <v>      -0.16000000       0.25000000       0.27272727 </v>
   <v>      -0.12000000       0.25000000       0.27272727 </v>
   <v>      -0.08000000       0.25000000       0.27272727 </v>
   <v>      -0.04000000       0.25000000       0.27272727 </v>
   <v>       0.00000000       0.33333333       0.27272727 </v>
   <v>       0.04000000       0.33333333       0.27272727 </v>
   <v>       0.08000000       0.33333333       0.27272727 </v>
   <v>       0.12000000       0.33333333       0.27272727 </v>
   <v>       0.16000000       0.33333333       0.27272727 </v>
   <v>       0.20000000       0.33333333       0.27272727 </v>
   <v>       0.24000000       0.33333333       0.27272727 </v>
   <v>       0.28000000       0.33333333       0.27272727 </v>
   <v>       0.32000000       0.33333333       0.27272727 </v>
   <v>       0.36000000       0.33333333       0.27272727 </v>
   <v>       0.40000000       0.33333333       0.27272727 </v>
   <v>       0.44000000       0.33333333       0.27272727 </v>
   <v>       0.48000000       0.33333333       0.27272727 </v>
   <v>      -0.48000000       0.33333333       0.27272727 </v>
   <v>      -0.44000000       0.33333333       0.27272727 </v>
   <v>      -0.40000000       0.33333333       0.27272727 </v>
   <v>      -0.36000000       0.33333333       0.27272727 </v>
   <v>      -0.32000000       0.33333333       0.27272727 </v>
   <v>      -0.28000000       0.33333333       0.27272727 </v>
   <v>      -0.24000000       0.33333333       0.27272727 </v>
   <v>      -0.20000000       0.33333333       0.27272727 </v>
   <v>      -0.16000000       0.33333333       0.27272727 </v>
   <v>      -0.12000000       0.33333333       0.27272727 </v>
   <v>      -0.08000000       0.33333333       0.27272727 </v>
   <v>      -0.04000000       0.33333333       0.27272727 </v>
   <v>       0.00000000       0.41666667       0.27272727 </v>
   <v>       0.04000000       0.41666667       0.27272727 </v>
   <v>       0.08000000       0.41666667       0.27272727 </v>
   <v>       0.12000000       0.41666667       0.27272727 </v>
   <v>       0.16000000       0.41666667       0.27272727 </v>
   <v>       0.20000000       0.41666667       0.27272727 </v>
   <v>       0.24000000       0.41666667       0.27272727 </v>
   <v>       0.28000000       0.41666667       0.27272727 </v>
   <v>       0.32000000       0.41666667       0.27272727 </v>
   <v>       0.36000000       0.41666667       0.27272727 </v>
   <v>       0.40000000       0.41666667       0.27272727 </v>
   <v>       0.44000000       0.41666667       0.27272727 </v>
   <v>       0.48000000       0.41666667       0.27272727 </v>
   <v>      -0.48000000       0.41666667       0.27272727 </v>
   <v>      -0.44000000       0.41666667       0.27272727 </v>
   <v>      -0.40000000       0.41666667       0.27272727 </v>
   <v>      -0.36000000       0.41666667       0.27272727 </v>
   <v>      -0.32000000       0.41666667       0.27272727 </v>
   <v>      -0.28000000       0.41666667       0.27272727 </v>
   <v>      -0.24000000       0.41666667       0.27272727 </v>
   <v>      -0.20000000       0.41666667       0.27272727 </v>
   <v>      -0.16000000       0.41666667       0.27272727 </v>
   <v>      -0.12000000       0.41666667       0.27272727 </v>
   <v>      -0.08000000       0.41666667       0.27272727 </v>
   <v>      -0.04000000       0.41666667       0.27272727 </v>
   <v>       0.00000000       0.50000000       0.27272727 </v>
   <v>       0.04000000       0.50000000       0.27272727 </v>
   <v>       0.08000000       0.50000000       0.27272727 </v>
   <v>       0.12000000       0.50000000       0.27272727 </v>
   <v>       0.16000000       0.50000000       0.27272727 </v>
   <v>       0.20000000       0.50000000       0.27272727 </v>
   <v>       0.24000000       0.50000000       0.27272727 </v>
   <v>       0.28000000       0.50000000       0.27272727 </v>
   <v>       0.32000000       0.50000000       0.27272727 </v>
   <v>       0.36000000       0.50000000       0.27272727 </v>
   <v>       0.40000000       0.50000000       0.27272727 </v>
   <v>       0.44000000       0.50000000       0.27272727 </v>
   <v>       0.48000000       0.50000000       0.27272727 </v>
   <v>      -0.48000000       0.50000000       0.27272727 </v>
   <v>      -0.44000000       0.50000000       0.27272727 </v>
   <v>      -0.40000000       0.50000000       0.27272727 </v>
   <v>      -0.36000000       0.50000000       0.27272727 </v>
   <v>      -0.32000000       0.50000000       0.27272727 </v>
   <v>      -0.28000000       0.50000000       0.27272727 </v>
   <v>      -0.24000000       0.50000000       0.27272727 </v>
   <v>      -0.20000000       0.50000000       0.27272727 </v>
   <v>      -0.16000000       0.50000000       0.27272727 </v>
   <v>      -0.12000000       0.50000000       0.27272727 </v>
   <v>      -0.08000000       0.50000000       0.27272727 </v>
   <v>      -0.04000000       0.50000000       0.27272727 </v>
   <v>       0.00000000      -0.41666667       0.27272727 </v>
   <v>       0.04000000      -0.41666667       0.27272727 </v>
   <v>       0.08000000      -0.41666667       0.27272727 </v>
   <v>       0.12000000      -0.41666667       0.27272727 </v>
   <v>       0.16000000      -0.41666667       0.27272727 </v>
   <v>       0.20000000      -0.41666667       0.27272727 </v>
   <v>       0.24000000      -0.41666667       0.27272727 </v>
   <v>       0.28000000      -0.41666667       0.27272727 </v>
   <v>       0.32000000      -0.41666667       0.27272727 </v>
   <v>       0.36000000      -0.41666667       0.27272727 </v>
   <v>       0.40000000      -0.41666667       0.27272727 </v>
   <v>       0.44000000      -0.41666667       0.27272727 </v>
   <v>       0.48000000      -0.41666667       0.27272727 </v>
   <v>      -0.48000000      -0.41666667       0.27272727 </v>
   <v>      -0.44000000      -0.41666667       0.27272727 </v>
   <v>      -0.40000000      -0.41666667       0.27272727 </v>
   <v>      -0.36000000      -0.41666667       0.27272727 </v>
   <v>      -0.32000000      -0.41666667       0.27272727 </v>
   <v>      -0.28000000      -0.41666667       0.27272727 </v>
   <v>      -0.24000000      -0.41666667       0.27272727 </v>
   <v>      -0.20000000      -0.41666667       0.27272727 </v>
   <v>      -0.16000000      -0.41666667       0.27272727 </v>
   <v>      -0.12000000      -0.41666667       0.27272727 </v>
   <v>      -0.08000000      -0.41666667       0.27272727 </v>
   <v>      -0.04000000      -0.41666667       0.27272727 </v>
   <v>       0.00000000      -0.33333333       0.27272727 </v>
   <v>       0.04000000      -0.33333333       0.27272727 </v>
   <v>       0.08000000      -0.33333333       0.27272727 </v>
   <v>       0.12000000      -0.33333333       0.27272727 </v>
   <v>       0.16000000      -0.33333333       0.27272727 </v>
   <v>       0.20000000      -0.33333333       0.27272727 </v>
   <v>       0.24000000      -0.33333333       0.27272727 </v>
   <v>       0.28000000      -0.33333333       0.27272727 </v>
   <v>       0.32000000      -0.33333333       0.27272727 </v>
   <v>       0.36000000      -0.33333333       0.27272727 </v>
   <v>       0.40000000      -0.33333333       0.27272727 </v>
   <v>       0.44000000      -0.33333333       0.27272727 </v>
   <v>       0.48000000      -0.33333333       0.27272727 </v>
   <v>      -0.48000000      -0.33333333       0.27272727 </v>
   <v>      -0.44000000      -0.33333333       0.27272727 </v>
   <v>      -0.40000000      -0.33333333       0.27272727 </v>
   <v>      -0.36000000      -0.33333333       0.27272727 </v>
   <v>      -0.32000000      -0.33333333       0.27272727 </v>
   <v>      -0.28000000      -0.33333333       0.27272727 </v>
   <v>      -0.24000000      -0.33333333       0.27272727 </v>
   <v>      -0.20000000      -0.33333333       0.27272727 </v>
   <v>      -0.16000000      -0.33333333       0.27272727 </v>
   <v>      -0.12000000      -0.33333333       0.27272727 </v>
   <v>      -0.08000000      -0.33333333       0.27272727 </v>
   <v>      -0.04000000      -0.33333333       0.27272727 </v>
   <v>       0.00000000      -0.25000000       0.27272727 </v>
   <v>       0.04000000      -0.25000000       0.27272727 </v>
   <v>       0.08000000      -0.25000000       0.27272727 </v>
   <v>       0.12000000      -0.25000000       0.27272727 </v>
   <v>       0.16000000      -0.25000000       0.27272727 </v>
   <v>       0.20000000      -0.25000000       0.27272727 </v>
   <v>       0.24000000      -0.25000000       0.27272727 </v>
   <v>       0.28000000      -0.25000000       0.27272727 </v>
   <v>       0.32000000      -0.25000000       0.27272727 </v>
   <v>       0.36000000      -0.25000000       0.27272727 </v>
   <v>       0.40000000      -0.25000000       0.27272727 </v>
   <v>       0.44000000      -0.25000000       0.27272727 </v>
   <v>       0.48000000      -0.25000000       0.27272727 </v>
   <v>      -0.48000000      -0.25000000       0.27272727 </v>
   <v>      -0.44000000      -0.25000000       0.27272727 </v>
   <v>      -0.40000000      -0.25000000       0.27272727 </v>
   <v>      -0.36000000      -0.25000000       0.27272727 </v>
   <v>      -0.32000000      -0.25000000       0.27272727 </v>
   <v>      -0.28000000      -0.25000000       0.27272727 </v>
   <v>      -0.24000000      -0.25000000       0.27272727 </v>
   <v>      -0.20000000      -0.25000000       0.27272727 </v>
   <v>      -0.16000000      -0.25000000       0.27272727 </v>
   <v>      -0.12000000      -0.25000000       0.27272727 </v>
   <v>      -0.08000000      -0.25000000       0.27272727 </v>
   <v>      -0.04000000      -0.25000000       0.27272727 </v>
   <v>       0.00000000      -0.16666667       0.27272727 </v>
   <v>       0.04000000      -0.16666667       0.27272727 </v>
   <v>       0.08000000      -0.16666667       0.27272727 </v>
   <v>       0.12000000      -0.16666667       0.27272727 </v>
   <v>       0.16000000      -0.16666667       0.27272727 </v>
   <v>       0.20000000      -0.16666667       0.27272727 </v>
   <v>       0.24000000      -0.16666667       0.27272727 </v>
   <v>       0.28000000      -0.16666667       0.27272727 </v>
   <v>       0.32000000      -0.16666667       0.27272727 </v>
   <v>       0.36000000      -0.16666667       0.27272727 </v>
   <v>       0.40000000      -0.16666667       0.27272727 </v>
   <v>       0.44000000      -0.16666667       0.27272727 </v>
   <v>       0.48000000      -0.16666667       0.27272727 </v>
   <v>      -0.48000000      -0.16666667       0.27272727 </v>
   <v>      -0.44000000      -0.16666667       0.27272727 </v>
   <v>      -0.40000000      -0.16666667       0.27272727 </v>
   <v>      -0.36000000      -0.16666667       0.27272727 </v>
   <v>      -0.32000000      -0.16666667       0.27272727 </v>
   <v>      -0.28000000      -0.16666667       0.27272727 </v>
   <v>      -0.24000000      -0.16666667       0.27272727 </v>
   <v>      -0.20000000      -0.16666667       0.27272727 </v>
   <v>      -0.16000000      -0.16666667       0.27272727 </v>
   <v>      -0.12000000      -0.16666667       0.27272727 </v>
   <v>      -0.08000000      -0.16666667       0.27272727 </v>
   <v>      -0.04000000      -0.16666667       0.27272727 </v>
   <v>       0.00000000      -0.08333333       0.27272727 </v>
   <v>       0.04000000      -0.08333333       0.27272727 </v>
   <v>       0.08000000      -0.08333333       0.27272727 </v>
   <v>       0.12000000      -0.08333333       0.27272727 </v>
   <v>       0.16000000      -0.08333333       0.27272727 </v>
   <v>       0.20000000      -0.08333333       0.27272727 </v>
   <v>       0.24000000      -0.08333333       0.27272727 </v>
   <v>       0.28000000      -0.08333333       0.27272727 </v>
   <v>       0.32000000      -0.08333333       0.27272727 </v>
   <v>       0.36000000      -0.08333333       0.27272727 </v>
   <v>       0.40000000      -0.08333333       0.27272727 </v>
   <v>       0.44000000      -0.08333333       0.27272727 </v>
   <v>       0.48000000      -0.08333333       0.27272727 </v>
   <v>      -0.48000000      -0.08333333       0.27272727 </v>
   <v>      -0.44000000      -0.08333333       0.27272727 </v>
   <v>      -0.40000000      -0.08333333       0.27272727 </v>
   <v>      -0.36000000      -0.08333333       0.27272727 </v>
   <v>      -0.32000000      -0.08333333       0.27272727 </v>
   <v>      -0.28000000      -0.08333333       0.27272727 </v>
   <v>      -0.24000000      -0.08333333       0.27272727 </v>
   <v>      -0.20000000      -0.08333333       0.27272727 </v>
   <v>      -0.16000000      -0.08333333       0.27272727 </v>
   <v>      -0.12000000      -0.08333333       0.27272727 </v>
   <v>      -0.08000000      -0.08333333       0.27272727 </v>
   <v>      -0.04000000      -0.08333333       0.27272727 </v>
   <v>       0.00000000       0.00000000       0.36363636 </v>
   <v>       0.04000000       0.00000000       0.36363636 </v>
   <v>       0.08000000       0.00000000       0.36363636 </v>
   <v>       0.12000000       0.00000000       0.36363636 </v>
   <v>       0.16000000       0.00000000       0.36363636 </v>
   <v>       0.20000000       0.00000000       0.36363636 </v>
   <v>       0.24000000       0.00000000       0.36363636 </v>
   <v>       0.28000000       0.00000000       0.36363636 </v>
   <v>       0.32000000       0.00000000       0.36363636 </v>
   <v>       0.36000000       0.00000000       0.36363636 </v>
   <v>       0.40000000       0.00000000       0.36363636 </v>
   <v>       0.44000000       0.00000000       0.36363636 </v>
   <v>       0.48000000       0.00000000       0.36363636 </v>
   <v>      -0.48000000       0.00000000       0.36363636 </v>
   <v>      -0.44000000       0.00000000       0.36363636 </v>
   <v>      -0.40000000       0.00000000       0.36363636 </v>
   <v>      -0.36000000       0.00000000       0.36363636 </v>
   <v>      -0.32000000       0.00000000       0.36363636 </v>
   <v>      -0.28000000       0.00000000       0.36363636 </v>
   <v>      -0.24000000       0.00000000       0.36363636 </v>
   <v>      -0.20000000       0.00000000       0.36363636 </v>
   <v>      -0.16000000       0.00000000       0.36363636 </v>
   <v>      -0.12000000       0.00000000       0.36363636 </v>
   <v>      -0.08000000       0.00000000       0.36363636 </v>
   <v>      -0.04000000       0.00000000       0.36363636 </v>
   <v>       0.00000000       0.08333333       0.36363636 </v>
   <v>       0.04000000       0.08333333       0.36363636 </v>
   <v>       0.08000000       0.08333333       0.36363636 </v>
   <v>       0.12000000       0.08333333       0.36363636 </v>
   <v>       0.16000000       0.08333333       0.36363636 </v>
   <v>       0.20000000       0.08333333       0.36363636 </v>
   <v>       0.24000000       0.08333333       0.36363636 </v>
   <v>       0.28000000       0.08333333       0.36363636 </v>
   <v>       0.32000000       0.08333333       0.36363636 </v>
   <v>       0.36000000       0.08333333       0.36363636 </v>
   <v>       0.40000000       0.08333333       0.36363636 </v>
   <v>       0.44000000       0.08333333       0.36363636 </v>
   <v>       0.48000000       0.08333333       0.36363636 </v>
   <v>      -0.48000000       0.08333333       0.36363636 </v>
   <v>      -0.44000000       0.08333333       0.36363636 </v>
   <v>      -0.40000000       0.08333333       0.36363636 </v>
   <v>      -0.36000000       0.08333333       0.36363636 </v>
   <v>      -0.32000000       0.08333333       0.36363636 </v>
   <v>      -0.28000000       0.08333333       0.36363636 </v>
   <v>      -0.24000000       0.08333333       0.36363636 </v>
   <v>      -0.20000000       0.08333333       0.36363636 </v>
   <v>      -0.16000000       0.08333333       0.36363636 </v>
   <v>      -0.12000000       0.08333333       0.36363636 </v>
   <v>      -0.08000000       0.08333333       0.36363636 </v>
   <v>      -0.04000000       0.08333333       0.36363636 </v>
   <v>       0.00000000       0.16666667       0.36363636 </v>
   <v>       0.04000000       0.16666667       0.36363636 </v>
   <v>       0.08000000       0.16666667       0.36363636 </v>
   <v>       0.12000000       0.16666667       0.36363636 </v>
   <v>       0.16000000       0.16666667       0.36363636 </v>
   <v>       0.20000000       0.16666667       0.36363636 </v>
   <v>       0.24000000       0.16666667       0.36363636 </v>
   <v>       0.28000000       0.16666667       0.36363636 </v>
   <v>       0.32000000       0.16666667       0.36363636 </v>
   <v>       0.36000000       0.16666667       0.36363636 </v>
   <v>       0.40000000       0.16666667       0.36363636 </v>
   <v>       0.44000000       0.16666667       0.36363636 </v>
   <v>       0.48000000       0.16666667       0.36363636 </v>
   <v>      -0.48000000       0.16666667       0.36363636 </v>
   <v>      -0.44000000       0.16666667       0.36363636 </v>
   <v>      -0.40000000       0.16666667       0.36363636 </v>
   <v>      -0.36000000       0.16666667       0.36363636 </v>
   <v>      -0.32000000       0.16666667       0.36363636 </v>
   <v>      -0.28000000       0.16666667       0.36363636 </v>
   <v>      -0.24000000       0.16666667       0.36363636 </v>
   <v>      -0.20000000       0.16666667       0.36363636 </v>
   <v>      -0.16000000       0.16666667       0.36363636 </v>
   <v>      -0.12000000       0.16666667       0.36363636 </v>
   <v>      -0.08000000       0.16666667       0.36363636 </v>
   <v>      -0.04000000       0.16666667       0.36363636 </v>
   <v>       0.00000000       0.25000000       0.36363636 </v>
   <v>       0.04000000       0.25000000       0.36363636 </v>
   <v>       0.08000000       0.25000000       0.36363636 </v>
   <v>       0.12000000       0.25000000       0.36363636 </v>
   <v>       0.16000000       0.25000000       0.36363636 </v>
   <v>       0.20000000       0.25000000       0.36363636 </v>
   <v>       0.24000000       0.25000000       0.36363636 </v>
   <v>       0.28000000       0.25000000       0.36363636 </v>
   <v>       0.32000000       0.25000000       0.36363636 </v>
   <v>       0.36000000       0.25000000       0.36363636 </v>
   <v>       0.40000000       0.25000000       0.36363636 </v>
   <v>       0.44000000       0.25000000       0.36363636 </v>
   <v>       0.48000000       0.25000000       0.36363636 </v>
   <v>      -0.48000000       0.25000000       0.36363636 </v>
   <v>      -0.44000000       0.25000000       0.36363636 </v>
   <v>      -0.40000000       0.25000000       0.36363636 </v>
   <v>      -0.36000000       0.25000000       0.36363636 </v>
   <v>      -0.32000000       0.25000000       0.36363636 </v>
   <v>      -0.28000000       0.25000000       0.36363636 </v>
   <v>      -0.24000000       0.25000000       0.36363636 </v>
   <v>      -0.20000000       0.25000000       0.36363636 </v>
   <v>      -0.16000000       0.25000000       0.36363636 </v>
   <v>      -0.12000000       0.25000000       0.36363636 </v>
   <v>      -0.08000000       0.25000000       0.36363636 </v>
   <v>      -0.04000000       0.25000000       0.36363636 </v>
   <v>       0.00000000       0.33333333       0.36363636 </v>
   <v>       0.04000000       0.33333333       0.36363636 </v>
   <v>       0.08000000       0.33333333       0.36363636 </v>
   <v>       0.12000000       0.33333333       0.36363636 </v>
   <v>       0.16000000       0.33333333       0.36363636 </v>
   <v>       0.20000000       0.33333333       0.36363636 </v>
   <v>       0.24000000       0.33333333       0.36363636 </v>
   <v>       0.28000000       0.33333333       0.36363636 </v>
   <v>       0.32000000       0.33333333       0.36363636 </v>
   <v>       0.36000000       0.33333333       0.36363636 </v>
   <v>       0.40000000       0.33333333       0.36363636 </v>
   <v>       0.44000000       0.33333333       0.36363636 </v>
   <v>       0.48000000       0.33333333       0.36363636 </v>
   <v>      -0.48000000       0.33333333       0.36363636 </v>
   <v>      -0.44000000       0.33333333       0.36363636 </v>
   <v>      -0.40000000       0.33333333       0.36363636 </v>
   <v>      -0.36000000       0.33333333       0.36363636 </v>
   <v>      -0.32000000       0.33333333       0.36363636 </v>
   <v>      -0.28000000       0.33333333       0.36363636 </v>
   <v>      -0.24000000       0.33333333       0.36363636 </v>
   <v>      -0.20000000       0.33333333       0.36363636 </v>
   <v>      -0.16000000       0.33333333       0.36363636 </v>
   <v>      -0.12000000       0.33333333       0.36363636 </v>
   <v>      -0.08000000       0.33333333       0.36363636 </v>
   <v>      -0.04000000       0.33333333       0.36363636 </v>
   <v>       0.00000000       0.41666667       0.36363636 </v>
   <v>       0.04000000       0.41666667       0.36363636 </v>
   <v>       0.08000000       0.41666667       0.36363636 </v>
   <v>       0.12000000       0.41666667       0.36363636 </v>
   <v>       0.16000000       0.41666667       0.36363636 </v>
   <v>       0.20000000       0.41666667       0.36363636 </v>
   <v>       0.24000000       0.41666667       0.36363636 </v>
   <v>       0.28000000       0.41666667       0.36363636 </v>
   <v>       0.32000000       0.41666667       0.36363636 </v>
   <v>       0.36000000       0.41666667       0.36363636 </v>
   <v>       0.40000000       0.41666667       0.36363636 </v>
   <v>       0.44000000       0.41666667       0.36363636 </v>
   <v>       0.48000000       0.41666667       0.36363636 </v>
   <v>      -0.48000000       0.41666667       0.36363636 </v>
   <v>      -0.44000000       0.41666667       0.36363636 </v>
   <v>      -0.40000000       0.41666667       0.36363636 </v>
   <v>      -0.36000000       0.41666667       0.36363636 </v>
   <v>      -0.32000000       0.41666667       0.36363636 </v>
   <v>      -0.28000000       0.41666667       0.36363636 </v>
   <v>      -0.24000000       0.41666667       0.36363636 </v>
   <v>      -0.20000000       0.41666667       0.36363636 </v>
   <v>      -0.16000000       0.41666667       0.36363636 </v>
   <v>      -0.12000000       0.41666667       0.36363636 </v>
   <v>      -0.08000000       0.41666667       0.36363636 </v>
   <v>      -0.04000000       0.41666667       0.36363636 </v>
   <v>       0.00000000       0.50000000       0.36363636 </v>
   <v>       0.04000000       0.50000000       0.36363636 </v>
   <v>       0.08000000       0.50000000       0.36363636 </v>
   <v>       0.12000000       0.50000000       0.36363636 </v>
   <v>       0.16000000       0.50000000       0.36363636 </v>
   <v>       0.20000000       0.50000000       0.36363636 </v>
   <v>       0.24000000       0.50000000       0.36363636 </v>
   <v>       0.28000000       0.50000000       0.36363636 </v>
   <v>       0.32000000       0.50000000       0.36363636 </v>
   <v>       0.36000000       0.50000000       0.36363636 </v>
   <v>       0.40000000       0.50000000       0.36363636 </v>
   <v>       0.44000000       0.50000000       0.36363636 </v>
   <v>       0.48000000       0.50000000       0.36363636 </v>
   <v>      -0.48000000       0.50000000       0.36363636 </v>
   <v>      -0.44000000       0.50000000       0.36363636 </v>
   <v>      -0.40000000       0.50000000       0.36363636 </v>
   <v>      -0.36000000       0.50000000       0.36363636 </v>
   <v>      -0.32000000       0.50000000       0.36363636 </v>
   <v>      -0.28000000       0.50000000       0.36363636 </v>
   <v>      -0.24000000       0.50000000       0.36363636 </v>
   <v>      -0.20000000       0.50000000       0.36363636 </v>
   <v>      -0.16000000       0.50000000       0.36363636 </v>
   <v>      -0.12000000       0.50000000       0.36363636 </v>
   <v>      -0.08000000       0.50000000       0.36363636 </v>
   <v>      -0.04000000       0.50000000       0.36363636 </v>
   <v>       0.00000000      -0.41666667       0.36363636 </v>
   <v>       0.04000000      -0.41666667       0.36363636 </v>
   <v>       0.08000000      -0.41666667       0.36363636 </v>
   <v>       0.12000000      -0.41666667       0.36363636 </v>
   <v>       0.16000000      -0.41666667       0.36363636 </v>
   <v>       0.20000000      -0.41666667       0.36363636 </v>
   <v>       0.24000000      -0.41666667       0.36363636 </v>
   <v>       0.28000000      -0.41666667       0.36363636 </v>
   <v>       0.32000000      -0.41666667       0.36363636 </v>
   <v>       0.36000000      -0.41666667       0.36363636 </v>
   <v>       0.40000000      -0.41666667       0.36363636 </v>
   <v>       0.44000000      -0.41666667       0.36363636 </v>
   <v>       0.48000000      -0.41666667       0.36363636 </v>
   <v>      -0.48000000      -0.41666667       0.36363636 </v>
   <v>      -0.44000000      -0.41666667       0.36363636 </v>
   <v>      -0.40000000      -0.41666667       0.36363636 </v>
[...]
       <r>    4.6830    1.0000 </r>
       <r>    4.8162    1.0000 </r>
       <r>    4.9136    1.0000 </r>
       <r>    5.1069    1.0000 </r>
       <r>    5.2317    1.0000 </r>
       <r>    5.3878    1.0000 </r>
       <r>    5.4999    1.0000 </r>
       <r>    5.6356    1.0000 </r>
       <r>    5.8152    1.0000 </r>
       <r>    5.9141    1.0000 </r>
       <r>    6.0888    1.0000 </r>
       <r>    7.4228    1.0002 </r>
       <r>    8.1001    0.9411 </r>
       <r>    8.7273   -0.0302 </r>
       <r>   10.0239    0.0000 </r>
       <r>   12.3457    0.0000 </r>
       <r>   13.9818    0.0000 </r>
       <r>   14.7680    0.0000 </r>
       <r>   15.2590    0.0000 </r>
      </set>
      <set comment="kpoint 1650">
       <r>    0.5543    1.0000 </r>
       <r>    1.2665    1.0000 </r>
       <r>    1.9488    1.0000 </r>
       <r>    2.1055    1.0000 </r>
       <r>    2.1899    1.0000 </r>
       <r>    2.3131    1.0000 </r>
       <r>    2.8303    1.0000 </r>
       <r>    3.1105    1.0000 </r>
       <r>    3.3103    1.0000 </r>
       <r>    3.4074    1.0000 </r>
       <r>    3.5883    1.0000 </r>
       <r>    3.6845    1.0000 </r>
       <r>    3.7267    1.0000 </r>
       <r>    3.7550    1.0000 </r>
       <r>    3.9853    1.0000 </r>
       <r>    4.0063    1.0000 </r>
       <r>    4.0482    1.0000 </r>
       <r>    4.1016    1.0000 </r>
       <r>    4.3750    1.0000 </r>
       <r>    4.3777    1.0000 </r>
       <r>    4.5324    1.0000 </r>
       <r>    4.6229    1.0000 </r>
       <r>    4.6915    1.0000 </r>
       <r>    4.9984    1.0000 </r>
       <r>    5.2000    1.0000 </r>
       <r>    5.2362    1.0000 </r>
       <r>    5.4465    1.0000 </r>
       <r>    5.5863    1.0000 </r>
       <r>    5.7062    1.0000 </r>
       <r>    5.8246    1.0000 </r>
       <r>    5.9513    1.0000 </r>
       <r>    6.1264    1.0000 </r>
       <r>    7.2033    1.0000 </r>
       <r>    7.7359    1.0121 </r>
       <r>    8.6087   -0.0292 </r>
       <r>    9.7417    0.0000 </r>
       <r>   12.1617    0.0000 </r>
       <r>   14.0409    0.0000 </r>
       <r>   14.6386    0.0000 </r>
       <r>   15.0344    0.0000 </r>
      </set>
      <set comment="kpoint 1651">
       <r>    0.5225    1.0000 </r>
       <r>    1.1119    1.0000 </r>
       <r>    1.8681    1.0000 </r>
       <r>    2.0397    1.0000 </r>
       <r>    2.1351    1.0000 </r>
       <r>    2.2812    1.0000 </r>
       <r>    2.7342    1.0000 </r>
       <r>    3.1179    1.0000 </r>
       <r>    3.3661    1.0000 </r>
       <r>    3.3732    1.0000 </r>
       <r>    3.6034    1.0000 </r>
       <r>    3.6674    1.0000 </r>
       <r>    3.7533    1.0000 </r>
       <r>    3.9142    1.0000 </r>
       <r>    3.9804    1.0000 </r>
       <r>    4.0420    1.0000 </r>
       <r>    4.0769    1.0000 </r>
       <r>    4.1819    1.0000 </r>
       <r>    4.3601    1.0000 </r>
       <r>    4.4124    1.0000 </r>
       <r>    4.4617    1.0000 </r>
       <r>    4.5720    1.0000 </r>
       <r>    4.6029    1.0000 </r>
       <r>    5.0202    1.0000 </r>
       <r>    5.1465    1.0000 </r>
       <r>    5.2036    1.0000 </r>
       <r>    5.4994    1.0000 </r>
       <r>    5.6693    1.0000 </r>
       <r>    5.8207    1.0000 </r>
       <r>    5.8970    1.0000 </r>
       <r>    5.9928    1.0000 </r>
       <r>    6.2049    1.0000 </r>
       <r>    7.0872    1.0000 </r>
       <r>    7.4442    1.0002 </r>
       <r>    8.5348    0.0102 </r>
       <r>    9.5648    0.0000 </r>
       <r>   12.0179    0.0000 </r>
       <r>   14.0571    0.0000 </r>
       <r>   14.5244    0.0000 </r>
       <r>   14.8882    0.0000 </r>
      </set>
     </set>
    </set>
   </array>
  </eigenvalues>
  <separator name="orbital magnetization" >
   <v name="MAGDIPOLOUT">      0.00000000      0.00000000      0.00000000</v>
  </separator>
  <dos>
   <i name="efermi">      8.29502164 </i>
   <total>
    <array>
     <dimension dim="1">gridpoints</dimension>
     <dimension dim="2">spin</dimension>
     <field>energy</field>
     <field>total</field>
     <field>integrated</field>
     <set>
      <set comment="spin 1">
       <r>    -3.2781     0.0000     0.0000 </r>
       <r>    -3.1907     0.0000     0.0000 </r>
       <r>    -3.1033     0.0000     0.0000 </r>
       <r>    -3.0159     0.0000     0.0000 </r>
       <r>    -2.9285     0.0000     0.0000 </r>
       <r>    -2.8412     0.0000     0.0000 </r>
       <r>    -2.7538     0.0000     0.0000 </r>
       <r>    -2.6664     0.0000     0.0000 </r>
       <r>    -2.5790     0.0000     0.0000 </r>
       <r>    -2.4916     0.0000     0.0000 </r>
       <r>    -2.4042     0.0000     0.0000 </r>
       <r>    -2.3169     0.0000     0.0000 </r>
       <r>    -2.2295     0.0000     0.0000 </r>
       <r>    -2.1421     0.0000     0.0000 </r>
       <r>    -2.0547     0.0000     0.0000 </r>
       <r>    -1.9673     0.0000     0.0000 </r>
       <r>    -1.8799     0.0000     0.0000 </r>
       <r>    -1.7926     0.0000     0.0000 </r>
       <r>    -1.7052     0.0000     0.0000 </r>
       <r>    -1.6178     0.0000     0.0000 </r>
       <r>    -1.5304     0.0000     0.0000 </r>
       <r>    -1.4430     0.0000     0.0000 </r>
       <r>    -1.3557     0.0000     0.0000 </r>
       <r>    -1.2683     0.0000     0.0000 </r>
       <r>    -1.1809     0.0000     0.0000 </r>
       <r>    -1.0935     0.0000     0.0000 </r>
       <r>    -1.0061    -0.0001     0.0000 </r>
       <r>    -0.9187    -0.0004     0.0000 </r>
       <r>    -0.8314    -0.0013    -0.0002 </r>
       <r>    -0.7440    -0.0031    -0.0004 </r>
       <r>    -0.6566    -0.0061    -0.0010 </r>
       <r>    -0.5692    -0.0088    -0.0017 </r>
       <r>    -0.4818    -0.0069    -0.0023 </r>
       <r>    -0.3944     0.0067    -0.0017 </r>
       <r>    -0.3071     0.0390     0.0017 </r>
       <r>    -0.2197     0.0919     0.0097 </r>
       <r>    -0.1323     0.1601     0.0237 </r>
       <r>    -0.0449     0.2336     0.0441 </r>
       <r>     0.0425     0.3036     0.0706 </r>
       <r>     0.1299     0.3668     0.1027 </r>
       <r>     0.2172     0.4256     0.1399 </r>
       <r>     0.3046     0.4844     0.1822 </r>
       <r>     0.3920     0.5465     0.2299 </r>
       <r>     0.4794     0.6111     0.2833 </r>
       <r>     0.5668     0.6730     0.3422 </r>
       <r>     0.6541     0.7253     0.4055 </r>
       <r>     0.7415     0.7646     0.4723 </r>
       <r>     0.8289     0.7931     0.5417 </r>
       <r>     0.9163     0.8158     0.6129 </r>
       <r>     1.0037     0.8366     0.6860 </r>
       <r>     1.0911     0.8590     0.7611 </r>
       <r>     1.1784     0.8870     0.8386 </r>
       <r>     1.2658     0.9245     0.9194 </r>
       <r>     1.3532     0.9771     1.0048 </r>
       <r>     1.4406     1.0635     1.0977 </r>
       <r>     1.5280     1.2306     1.2052 </r>
       <r>     1.6154     1.5542     1.3411 </r>
       <r>     1.7027     2.1048     1.5250 </r>
       <r>     1.7901     2.8950     1.7779 </r>
       <r>     1.8775     3.8664     2.1158 </r>
       <r>     1.9649     4.9597     2.5492 </r>
       <r>     2.0523     6.2058     3.0915 </r>
       <r>     2.1397     7.7125     3.7654 </r>
       <r>     2.2270     9.5226     4.5975 </r>
       <r>     2.3144    11.4830     5.6009 </r>
       <r>     2.4018    13.2729     6.7608 </r>
       <r>     2.4892    14.5638     8.0334 </r>
       <r>     2.5766    15.1628     9.3583 </r>
       <r>     2.6639    15.0506    10.6735 </r>
       <r>     2.7513    14.3560    11.9280 </r>
       <r>     2.8387    13.3373    13.0934 </r>
       <r>     2.9261    12.3602    14.1735 </r>
       <r>     3.0135    11.8035    15.2049 </r>
       <r>     3.1009    11.8877    16.2437 </r>
       <r>     3.1882    12.5396    17.3394 </r>
       <r>     3.2756    13.4317    18.5131 </r>
       <r>     3.3630    14.2006    19.7540 </r>
       <r>     3.4504    14.6951    21.0381 </r>
       <r>     3.5378    15.0784    22.3557 </r>
       <r>     3.6252    15.7160    23.7290 </r>
       <r>     3.7125    16.9002    25.2058 </r>
       <r>     3.7999    18.5622    26.8278 </r>
       <r>     3.8873    20.1761    28.5908 </r>
       <r>     3.9747    21.0006    30.4259 </r>
       <r>     4.0621    20.5585    32.2224 </r>
       <r>     4.1495    18.9905    33.8818 </r>
       <r>     4.2368    16.9721    35.3649 </r>
       <r>     4.3242    15.2697    36.6992 </r>
       <r>     4.4116    14.3231    37.9508 </r>
       <r>     4.4990    14.1406    39.1864 </r>
       <r>     4.5864    14.4570    40.4497 </r>
       <r>     4.6737    14.9371    41.7549 </r>
       <r>     4.7611    15.3022    43.0921 </r>
       <r>     4.8485    15.3861    44.4366 </r>
       <r>     4.9359    15.1497    45.7604 </r>
       <r>     5.0233    14.6567    47.0411 </r>
       <r>     5.1107    14.0382    48.2678 </r>
       <r>     5.1980    13.4701    49.4449 </r>
       <r>     5.2854    13.1429    50.5933 </r>
       <r>     5.3728    13.1883    51.7458 </r>
       <r>     5.4602    13.5941    52.9337 </r>
       <r>     5.5476    14.1836    54.1731 </r>
       <r>     5.6350    14.6867    55.4564 </r>
       <r>     5.7223    14.8534    56.7543 </r>
       <r>     5.8097    14.5361    58.0245 </r>
       <r>     5.8971    13.6965    59.2214 </r>
       <r>     5.9845    12.3502    60.3006 </r>
       <r>     6.0719    10.5296    61.2207 </r>
       <r>     6.1593     8.3349    61.9490 </r>
       <r>     6.2466     6.0211    62.4751 </r>
       <r>     6.3340     3.9735    62.8224 </r>
       <r>     6.4214     2.5239    63.0429 </r>
       <r>     6.5088     1.7562    63.1964 </r>
       <r>     6.5962     1.4892    63.3265 </r>
       <r>     6.6835     1.4455    63.4528 </r>
       <r>     6.7709     1.4397    63.5786 </r>
       <r>     6.8583     1.4343    63.7039 </r>
       <r>     6.9457     1.4648    63.8319 </r>
       <r>     7.0331     1.5430    63.9668 </r>
       <r>     7.1205     1.6252    64.1088 </r>
       <r>     7.2078     1.6535    64.2533 </r>
       <r>     7.2952     1.6104    64.3940 </r>
       <r>     7.3826     1.5348    64.5281 </r>
       <r>     7.4700     1.4875    64.6581 </r>
       <r>     7.5574     1.5034    64.7894 </r>
       <r>     7.6448     1.5716    64.9268 </r>
       <r>     7.7321     1.6518    65.0711 </r>
       <r>     7.8195     1.7043    65.2201 </r>
       <r>     7.9069     1.7106    65.3695 </r>
       <r>     7.9943     1.6777    65.5161 </r>
       <r>     8.0817     1.6303    65.6586 </r>
       <r>     8.1691     1.5975    65.7982 </r>
       <r>     8.2564     1.5966    65.9377 </r>
       <r>     8.3438     1.6252    66.0797 </r>
       <r>     8.4312     1.6646    66.2252 </r>
       <r>     8.5186     1.6925    66.3731 </r>
       <r>     8.6060     1.6942    66.5211 </r>
       <r>     8.6933     1.6694    66.6670 </r>
       <r>     8.7807     1.6322    66.8096 </r>
       <r>     8.8681     1.6042    66.9498 </r>
       <r>     8.9555     1.6000    67.0896 </r>
       <r>     9.0429     1.6149    67.2307 </r>
       <r>     9.1303     1.6288    67.3730 </r>
       <r>     9.2176     1.6254    67.5151 </r>
       <r>     9.3050     1.6102    67.6558 </r>
       <r>     9.3924     1.6043    67.7960 </r>
       <r>     9.4798     1.6200    67.9375 </r>
       <r>     9.5672     1.6461    68.0814 </r>
       <r>     9.6546     1.6598    68.2264 </r>
       <r>     9.7419     1.6498    68.3706 </r>
       <r>     9.8293     1.6227    68.5124 </r>
       <r>     9.9167     1.5913    68.6514 </r>
       <r>    10.0041     1.5634    68.7880 </r>
       <r>    10.0915     1.5422    68.9228 </r>
       <r>    10.1789     1.5300    69.0565 </r>
       <r>    10.2662     1.5274    69.1899 </r>
       <r>    10.3536     1.5308    69.3237 </r>
       <r>    10.4410     1.5334    69.4577 </r>
       <r>    10.5284     1.5272    69.5912 </r>
       <r>    10.6158     1.5074    69.7229 </r>
       <r>    10.7031     1.4762    69.8519 </r>
       <r>    10.7905     1.4431    69.9780 </r>
       <r>    10.8779     1.4200    70.1021 </r>
       <r>    10.9653     1.4138    70.2256 </r>
       <r>    11.0527     1.4229    70.3499 </r>
       <r>    11.1401     1.4448    70.4762 </r>
       <r>    11.2274     1.4893    70.6063 </r>
       <r>    11.3148     1.5787    70.7443 </r>
       <r>    11.4022     1.7245    70.8950 </r>
       <r>    11.4896     1.9017    71.0611 </r>
       <r>    11.5770     2.0540    71.2406 </r>
       <r>    11.6644     2.1329    71.4270 </r>
       <r>    11.7517     2.1344    71.6135 </r>
       <r>    11.8391     2.0957    71.7966 </r>
       <r>    11.9265     2.0573    71.9764 </r>
       <r>    12.0139     2.0307    72.1539 </r>
       <r>    12.1013     2.0014    72.3287 </r>
       <r>    12.1887     1.9563    72.4997 </r>
       <r>    12.2760     1.9018    72.6659 </r>
       <r>    12.3634     1.8532    72.8278 </r>
       <r>    12.4508     1.8165    72.9866 </r>
       <r>    12.5382     1.7868    73.1427 </r>
       <r>    12.6256     1.7613    73.2966 </r>
       <r>    12.7129     1.7454    73.4491 </r>
       <r>    12.8003     1.7441    73.6015 </r>
       <r>    12.8877     1.7542    73.7548 </r>
       <r>    12.9751     1.7698    73.9095 </r>
       <r>    13.0625     1.7915    74.0660 </r>
       <r>    13.1499     1.8228    74.2253 </r>
       <r>    13.2372     1.8570    74.3876 </r>
       <r>    13.3246     1.8746    74.5514 </r>
       <r>    13.4120     1.8614    74.7140 </r>
       <r>    13.4994     1.8284    74.8738 </r>
       <r>    13.5868     1.8081    75.0318 </r>
       <r>    13.6742     1.8253    75.1913 </r>
       <r>    13.7615     1.8729    75.3550 </r>
       <r>    13.8489     1.9200    75.5227 </r>
       <r>    13.9363     1.9458    75.6928 </r>
       <r>    14.0237     1.9610    75.8641 </r>
       <r>    14.1111     1.9940    76.0384 </r>
       <r>    14.1985     2.0556    76.2180 </r>
       <r>    14.2858     2.1201    76.4032 </r>
       <r>    14.3732     2.1438    76.5906 </r>
       <r>    14.4606     2.1003    76.7741 </r>
       <r>    14.5480     2.0002    76.9489 </r>
       <r>    14.6354     1.8798    77.1131 </r>
       <r>    14.7227     1.7746    77.2682 </r>
       <r>    14.8101     1.7021    77.4170 </r>
       <r>    14.8975     1.6610    77.5621 </r>
       <r>    14.9849     1.6388    77.7053 </r>
       <r>    15.0723     1.6195    77.8468 </r>
       <r>    15.1597     1.5897    77.9857 </r>
       <r>    15.2470     1.5426    78.1205 </r>
       <r>    15.3344     1.4813    78.2500 </r>
       <r>    15.4218     1.4166    78.3737 </r>
       <r>    15.5092     1.3595    78.4925 </r>
       <r>    15.5966     1.3133    78.6073 </r>
       <r>    15.6840     1.2711    78.7184 </r>
       <r>    15.7713     1.2212    78.8251 </r>
       <r>    15.8587     1.1569    78.9262 </r>
       <r>    15.9461     1.0814    79.0207 </r>
       <r>    16.0335     1.0035    79.1084 </r>
       <r>    16.1209     0.9299    79.1896 </r>
       <r>    16.2083     0.8613    79.2649 </r>
       <r>    16.2956     0.7957    79.3344 </r>
       <r>    16.3830     0.7320    79.3984 </r>
       <r>    16.4704     0.6705    79.4570 </r>
       <r>    16.5578     0.6110    79.5104 </r>
       <r>    16.6452     0.5531    79.5587 </r>
       <r>    16.7325     0.4978    79.6022 </r>
       <r>    16.8199     0.4465    79.6412 </r>
       <r>    16.9073     0.4002    79.6762 </r>
       <r>    16.9947     0.3601    79.7076 </r>
       <r>    17.0821     0.3283    79.7363 </r>
       <r>    17.1695     0.3057    79.7630 </r>
       <r>    17.2568     0.2891    79.7883 </r>
       <r>    17.3442     0.2717    79.8120 </r>
       <r>    17.4316     0.2493    79.8338 </r>
       <r>    17.5190     0.2234    79.8533 </r>
       <r>    17.6064     0.1993    79.8708 </r>
       <r>    17.6938     0.1814    79.8866 </r>
       <r>    17.7811     0.1695    79.9014 </r>
       <r>    17.8685     0.1602    79.9154 </r>
       <r>    17.9559     0.1496    79.9285 </r>
       <r>    18.0433     0.1359    79.9404 </r>
       <r>    18.1307     0.1193    79.9508 </r>
       <r>    18.2181     0.1009    79.9596 </r>
       <r>    18.3054     0.0819    79.9668 </r>
       <r>    18.3928     0.0637    79.9723 </r>
       <r>    18.4802     0.0485    79.9766 </r>
       <r>    18.5676     0.0383    79.9799 </r>
       <r>    18.6550     0.0335    79.9829 </r>
       <r>    18.7423     0.0323    79.9857 </r>
       <r>    18.8297     0.0316    79.9884 </r>
       <r>    18.9171     0.0289    79.9910 </r>
       <r>    19.0045     0.0233    79.9930 </r>
       <r>    19.0919     0.0162    79.9944 </r>
       <r>    19.1793     0.0098    79.9953 </r>
       <r>    19.2666     0.0059    79.9958 </r>
       <r>    19.3540     0.0051    79.9962 </r>
       <r>    19.4414     0.0067    79.9968 </r>
       <r>    19.5288     0.0087    79.9976 </r>
       <r>    19.6162     0.0091    79.9984 </r>
       <r>    19.7036     0.0075    79.9990 </r>
       <r>    19.7909     0.0050    79.9995 </r>
       <r>    19.8783     0.0029    79.9997 </r>
       <r>    19.9657     0.0016    79.9999 </r>
       <r>    20.0531     0.0010    79.9999 </r>
       <r>    20.1405     0.0006    80.0000 </r>
       <r>    20.2279     0.0003    80.0000 </r>
       <r>    20.3152     0.0000    80.0000 </r>
       <r>    20.4026    -0.0001    80.0000 </r>
       <r>    20.4900    -0.0001    80.0000 </r>
       <r>    20.5774    -0.0001    80.0000 </r>
       <r>    20.6648     0.0000    80.0000 </r>
       <r>    20.7521     0.0000    80.0000 </r>
       <r>    20.8395     0.0000    80.0000 </r>
       <r>    20.9269     0.0000    80.0000 </r>
       <r>    21.0143     0.0000    80.0000 </r>
       <r>    21.1017     0.0000    80.0000 </r>
       <r>    21.1891     0.0000    80.0000 </r>
       <r>    21.2764     0.0000    80.0000 </r>
       <r>    21.3638     0.0000    80.0000 </r>
       <r>    21.4512     0.0000    80.0000 </r>
       <r>    21.5386     0.0000    80.0000 </r>
       <r>    21.6260     0.0000    80.0000 </r>
       <r>    21.7134     0.0000    80.0000 </r>
       <r>    21.8007     0.0000    80.0000 </r>
       <r>    21.8881     0.0000    80.0000 </r>
       <r>    21.9755     0.0000    80.0000 </r>
       <r>    22.0629     0.0000    80.0000 </r>
       <r>    22.1503     0.0000    80.0000 </r>
       <r>    22.2377     0.0000    80.0000 </r>
       <r>    22.3250     0.0000    80.0000 </r>
       <r>    22.4124     0.0000    80.0000 </r>
       <r>    22.4998     0.0000    80.0000 </r>
       <r>    22.5872     0.0000    80.0000 </r>
       <r>    22.6746     0.0000    80.0000 </r>
       <r>    22.7619     0.0000    80.0000 </r>
       <r>    22.8493     0.0000    80.0000 </r>
       <r>    22.9367     0.0000    80.0000 </r>
      </set>
     </set>
    </array>
   </total>
  </dos>
 </calculation>
 <structure name="finalpos" >
  <crystal>
   <varray name="basis" >
    <v>       0.00000000       2.05798475       2.05798475 </v>
    <v>      -0.00456996      -4.14239795       4.14239795 </v>
    <v>       6.26931581       0.00999839      -2.06798313 </v>
   </varray>
   <i name="volume">    106.87218847 </i>
   <varray name="rec_basis" >
    <v>       0.07976810       0.24291212       0.24300013 </v>
    <v>       0.04001466      -0.12072511       0.12072511 </v>
    <v>       0.15953621      -0.00008800       0.00008800 </v>
   </varray>
  </crystal>
  <varray name="positions" >
   <v>       0.99869380       0.50057727       0.99738760 </v>
   <v>       0.66666667       0.33333333       0.33333333 </v>
   <v>       0.33463953       0.16608940       0.66927907 </v>
   <v>       0.00129282       0.00311162       0.00258564 </v>
   <v>       0.66666667       0.83333333       0.33333333 </v>
   <v>       0.33204052       0.66355505       0.66408103 </v>
  </varray>
 </structure>
</modeling>
