<?xml version="1.0" encoding="ISO-8859-1"?>
<modeling>
 <generator>
  <i name="program" type="string">vasp </i>
  <i name="version" type="string">5.3.5  </i>
  <i name="subversion" type="string">31Mar14 (build Jun 20 2014 13:15:13) complex                          parallel </i>
  <i name="platform" type="string">LinuxIFC </i>
  <i name="date" type="string">2025 11 21 </i>
  <i name="time" type="string">12:45:39 </i>
 </generator>
 <incar>
  <i type="string" name="PREC">accurate</i>
  <i type="int" name="IALGO">    68</i>
  <i type="logical" name="ADDGRID"> T  </i>
  <i type="int" name="NELM">   100</i>
  <i type="int" name="NELMIN">     4</i>
  <i type="int" name="IBRION">     2</i>
  <i name="EDIFF">      0.00000100</i>
  <i name="EDIFFG">     -0.02000000</i>
  <i type="int" name="NSW">    30</i>
  <i type="int" name="ISIF">     3</i>
  <i name="ENCUT">    500.00000000</i>
  <i type="logical" name="LREAL"> F  </i>
  <i type="int" name="ISMEAR">     1</i>
  <i name="SIGMA">      0.30000000</i>
  <i type="logical" name="LWAVE"> F  </i>
  <i type="logical" name="LCHARG"> F  </i>
  <i type="int" name="NELM">   100</i>
 </incar>
 <kpoints>
  <generation param="Auto">
   <i name="subdivisionlength">     70.00000000 </i>
   <v type="int" name="divisions">      24       24        6 </v>
   <v name="usershift">      0.00000000       0.00000000       0.00000000 </v>
   <v name="genvec1">      0.04166667       0.00000000       0.00000000 </v>
   <v name="genvec2">      0.00000000       0.04166667       0.00000000 </v>
   <v name="genvec3">      0.00000000       0.00000000       0.16666667 </v>
   <v name="shift">      0.00000000       0.00000000       0.00000000 </v>
  </generation>
  <varray name="kpointlist" >
   <v>       0.00000000       0.00000000       0.00000000 </v>
   <v>       0.04166667       0.00000000       0.00000000 </v>
   <v>       0.08333333       0.00000000       0.00000000 </v>
   <v>       0.12500000       0.00000000       0.00000000 </v>
   <v>       0.16666667       0.00000000       0.00000000 </v>
   <v>       0.20833333       0.00000000       0.00000000 </v>
   <v>       0.25000000       0.00000000       0.00000000 </v>
   <v>       0.29166667       0.00000000       0.00000000 </v>
   <v>       0.33333333       0.00000000       0.00000000 </v>
   <v>       0.37500000       0.00000000       0.00000000 </v>
   <v>       0.41666667       0.00000000       0.00000000 </v>
   <v>       0.45833333       0.00000000       0.00000000 </v>
   <v>       0.50000000       0.00000000       0.00000000 </v>
   <v>       0.04166667       0.04166667       0.00000000 </v>
   <v>       0.08333333       0.04166667       0.00000000 </v>
   <v>       0.12500000       0.04166667       0.00000000 </v>
   <v>       0.16666667       0.04166667       0.00000000 </v>
   <v>       0.20833333       0.04166667       0.00000000 </v>
   <v>       0.25000000       0.04166667       0.00000000 </v>
   <v>       0.29166667       0.04166667       0.00000000 </v>
   <v>       0.33333333       0.04166667       0.00000000 </v>
   <v>       0.37500000       0.04166667       0.00000000 </v>
   <v>       0.41666667       0.04166667       0.00000000 </v>
   <v>       0.45833333       0.04166667       0.00000000 </v>
   <v>       0.50000000       0.04166667       0.00000000 </v>
   <v>       0.08333333       0.08333333       0.00000000 </v>
   <v>       0.12500000       0.08333333       0.00000000 </v>
   <v>       0.16666667       0.08333333       0.00000000 </v>
   <v>       0.20833333       0.08333333       0.00000000 </v>
   <v>       0.25000000       0.08333333       0.00000000 </v>
   <v>       0.29166667       0.08333333       0.00000000 </v>
   <v>       0.33333333       0.08333333       0.00000000 </v>
   <v>       0.37500000       0.08333333       0.00000000 </v>
   <v>       0.41666667       0.08333333       0.00000000 </v>
   <v>       0.45833333       0.08333333       0.00000000 </v>
   <v>       0.50000000       0.08333333       0.00000000 </v>
   <v>       0.12500000       0.12500000       0.00000000 </v>
   <v>       0.16666667       0.12500000       0.00000000 </v>
   <v>       0.20833333       0.12500000       0.00000000 </v>
   <v>       0.25000000       0.12500000       0.00000000 </v>
   <v>       0.29166667       0.12500000       0.00000000 </v>
   <v>       0.33333333       0.12500000       0.00000000 </v>
   <v>       0.37500000       0.12500000       0.00000000 </v>
   <v>       0.41666667       0.12500000       0.00000000 </v>
   <v>       0.45833333       0.12500000       0.00000000 </v>
   <v>       0.50000000       0.12500000       0.00000000 </v>
   <v>       0.16666667       0.16666667       0.00000000 </v>
   <v>       0.20833333       0.16666667       0.00000000 </v>
   <v>       0.25000000       0.16666667       0.00000000 </v>
   <v>       0.29166667       0.16666667       0.00000000 </v>
   <v>       0.33333333       0.16666667       0.00000000 </v>
   <v>       0.37500000       0.16666667       0.00000000 </v>
   <v>       0.41666667       0.16666667       0.00000000 </v>
   <v>       0.45833333       0.16666667       0.00000000 </v>
   <v>       0.50000000       0.16666667       0.00000000 </v>
   <v>       0.20833333       0.20833333       0.00000000 </v>
   <v>       0.25000000       0.20833333       0.00000000 </v>
   <v>       0.29166667       0.20833333       0.00000000 </v>
   <v>       0.33333333       0.20833333       0.00000000 </v>
   <v>       0.37500000       0.20833333       0.00000000 </v>
   <v>       0.41666667       0.20833333       0.00000000 </v>
   <v>       0.45833333       0.20833333       0.00000000 </v>
   <v>       0.50000000       0.20833333       0.00000000 </v>
   <v>       0.25000000       0.25000000       0.00000000 </v>
   <v>       0.29166667       0.25000000       0.00000000 </v>
   <v>       0.33333333       0.25000000       0.00000000 </v>
   <v>       0.37500000       0.25000000       0.00000000 </v>
   <v>       0.41666667       0.25000000       0.00000000 </v>
   <v>       0.45833333       0.25000000       0.00000000 </v>
   <v>       0.50000000       0.25000000       0.00000000 </v>
   <v>       0.29166667       0.29166667       0.00000000 </v>
   <v>       0.33333333       0.29166667       0.00000000 </v>
   <v>       0.37500000       0.29166667       0.00000000 </v>
   <v>       0.41666667       0.29166667       0.00000000 </v>
   <v>       0.45833333       0.29166667       0.00000000 </v>
   <v>       0.50000000       0.29166667       0.00000000 </v>
   <v>       0.33333333       0.33333333       0.00000000 </v>
   <v>       0.37500000       0.33333333       0.00000000 </v>
   <v>       0.41666667       0.33333333       0.00000000 </v>
   <v>       0.45833333       0.33333333       0.00000000 </v>
   <v>       0.50000000       0.33333333       0.00000000 </v>
   <v>       0.37500000       0.37500000       0.00000000 </v>
   <v>       0.41666667       0.37500000       0.00000000 </v>
   <v>       0.45833333       0.37500000       0.00000000 </v>
   <v>       0.50000000       0.37500000       0.00000000 </v>
   <v>       0.41666667       0.41666667       0.00000000 </v>
   <v>       0.45833333       0.41666667       0.00000000 </v>
   <v>       0.50000000       0.41666667       0.00000000 </v>
   <v>       0.45833333       0.45833333       0.00000000 </v>
   <v>       0.50000000       0.45833333       0.00000000 </v>
   <v>       0.50000000       0.50000000       0.00000000 </v>
   <v>       0.00000000       0.00000000       0.16666667 </v>
   <v>       0.04166667       0.00000000       0.16666667 </v>
   <v>       0.08333333       0.00000000       0.16666667 </v>
   <v>       0.12500000       0.00000000       0.16666667 </v>
   <v>       0.16666667       0.00000000       0.16666667 </v>
   <v>       0.20833333       0.00000000       0.16666667 </v>
   <v>       0.25000000       0.00000000       0.16666667 </v>
   <v>       0.29166667       0.00000000       0.16666667 </v>
   <v>       0.33333333       0.00000000       0.16666667 </v>
   <v>       0.37500000       0.00000000       0.16666667 </v>
   <v>       0.41666667       0.00000000       0.16666667 </v>
   <v>       0.45833333       0.00000000       0.16666667 </v>
   <v>       0.50000000       0.00000000       0.16666667 </v>
   <v>       0.04166667       0.04166667       0.16666667 </v>
   <v>       0.08333333       0.04166667       0.16666667 </v>
   <v>       0.12500000       0.04166667       0.16666667 </v>
   <v>       0.16666667       0.04166667       0.16666667 </v>
   <v>       0.20833333       0.04166667       0.16666667 </v>
   <v>       0.25000000       0.04166667       0.16666667 </v>
   <v>       0.29166667       0.04166667       0.16666667 </v>
   <v>       0.33333333       0.04166667       0.16666667 </v>
   <v>       0.37500000       0.04166667       0.16666667 </v>
   <v>       0.41666667       0.04166667       0.16666667 </v>
   <v>       0.45833333       0.04166667       0.16666667 </v>
   <v>       0.50000000       0.04166667       0.16666667 </v>
   <v>       0.08333333       0.08333333       0.16666667 </v>
   <v>       0.12500000       0.08333333       0.16666667 </v>
   <v>       0.16666667       0.08333333       0.16666667 </v>
   <v>       0.20833333       0.08333333       0.16666667 </v>
   <v>       0.25000000       0.08333333       0.16666667 </v>
   <v>       0.29166667       0.08333333       0.16666667 </v>
   <v>       0.33333333       0.08333333       0.16666667 </v>
   <v>       0.37500000       0.08333333       0.16666667 </v>
   <v>       0.41666667       0.08333333       0.16666667 </v>
   <v>       0.45833333       0.08333333       0.16666667 </v>
   <v>       0.50000000       0.08333333       0.16666667 </v>
   <v>       0.12500000       0.12500000       0.16666667 </v>
   <v>       0.16666667       0.12500000       0.16666667 </v>
   <v>       0.20833333       0.12500000       0.16666667 </v>
   <v>       0.25000000       0.12500000       0.16666667 </v>
   <v>       0.29166667       0.12500000       0.16666667 </v>
   <v>       0.33333333       0.12500000       0.16666667 </v>
   <v>       0.37500000       0.12500000       0.16666667 </v>
   <v>       0.41666667       0.12500000       0.16666667 </v>
   <v>       0.45833333       0.12500000       0.16666667 </v>
   <v>       0.50000000       0.12500000       0.16666667 </v>
   <v>       0.16666667       0.16666667       0.16666667 </v>
   <v>       0.20833333       0.16666667       0.16666667 </v>
   <v>       0.25000000       0.16666667       0.16666667 </v>
   <v>       0.29166667       0.16666667       0.16666667 </v>
   <v>       0.33333333       0.16666667       0.16666667 </v>
   <v>       0.37500000       0.16666667       0.16666667 </v>
   <v>       0.41666667       0.16666667       0.16666667 </v>
   <v>       0.45833333       0.16666667       0.16666667 </v>
   <v>       0.50000000       0.16666667       0.16666667 </v>
   <v>       0.20833333       0.20833333       0.16666667 </v>
   <v>       0.25000000       0.20833333       0.16666667 </v>
   <v>       0.29166667       0.20833333       0.16666667 </v>
   <v>       0.33333333       0.20833333       0.16666667 </v>
   <v>       0.37500000       0.20833333       0.16666667 </v>
   <v>       0.41666667       0.20833333       0.16666667 </v>
   <v>       0.45833333       0.20833333       0.16666667 </v>
   <v>       0.50000000       0.20833333       0.16666667 </v>
   <v>       0.25000000       0.25000000       0.16666667 </v>
   <v>       0.29166667       0.25000000       0.16666667 </v>
   <v>       0.33333333       0.25000000       0.16666667 </v>
   <v>       0.37500000       0.25000000       0.16666667 </v>
   <v>       0.41666667       0.25000000       0.16666667 </v>
   <v>       0.45833333       0.25000000       0.16666667 </v>
   <v>       0.50000000       0.25000000       0.16666667 </v>
   <v>       0.29166667       0.29166667       0.16666667 </v>
   <v>       0.33333333       0.29166667       0.16666667 </v>
   <v>       0.37500000       0.29166667       0.16666667 </v>
   <v>       0.41666667       0.29166667       0.16666667 </v>
   <v>       0.45833333       0.29166667       0.16666667 </v>
   <v>       0.50000000       0.29166667       0.16666667 </v>
   <v>       0.33333333       0.33333333       0.16666667 </v>
   <v>       0.37500000       0.33333333       0.16666667 </v>
   <v>       0.41666667       0.33333333       0.16666667 </v>
   <v>       0.45833333       0.33333333       0.16666667 </v>
   <v>       0.50000000       0.33333333       0.16666667 </v>
   <v>       0.37500000       0.37500000       0.16666667 </v>
   <v>       0.41666667       0.37500000       0.16666667 </v>
   <v>       0.45833333       0.37500000       0.16666667 </v>
   <v>       0.50000000       0.37500000       0.16666667 </v>
   <v>       0.41666667       0.41666667       0.16666667 </v>
   <v>       0.45833333       0.41666667       0.16666667 </v>
   <v>       0.50000000       0.41666667       0.16666667 </v>
   <v>       0.45833333       0.45833333       0.16666667 </v>
   <v>       0.50000000       0.45833333       0.16666667 </v>
   <v>       0.50000000       0.50000000       0.16666667 </v>
   <v>       0.00000000       0.00000000       0.33333333 </v>
   <v>       0.04166667       0.00000000       0.33333333 </v>
   <v>       0.08333333       0.00000000       0.33333333 </v>
   <v>       0.12500000       0.00000000       0.33333333 </v>
   <v>       0.16666667       0.00000000       0.33333333 </v>
   <v>       0.20833333       0.00000000       0.33333333 </v>
   <v>       0.25000000       0.00000000       0.33333333 </v>
   <v>       0.29166667       0.00000000       0.33333333 </v>
   <v>       0.33333333       0.00000000       0.33333333 </v>
   <v>       0.37500000       0.00000000       0.33333333 </v>
   <v>       0.41666667       0.00000000       0.33333333 </v>
   <v>       0.45833333       0.00000000       0.33333333 </v>
   <v>       0.50000000       0.00000000       0.33333333 </v>
   <v>       0.04166667       0.04166667       0.33333333 </v>
   <v>       0.08333333       0.04166667       0.33333333 </v>
   <v>       0.12500000       0.04166667       0.33333333 </v>
   <v>       0.16666667       0.04166667       0.33333333 </v>
   <v>       0.20833333       0.04166667       0.33333333 </v>
   <v>       0.25000000       0.04166667       0.33333333 </v>
   <v>       0.29166667       0.04166667       0.33333333 </v>
   <v>       0.33333333       0.04166667       0.33333333 </v>
   <v>       0.37500000       0.04166667       0.33333333 </v>
   <v>       0.41666667       0.04166667       0.33333333 </v>
   <v>       0.45833333       0.04166667       0.33333333 </v>
   <v>       0.50000000       0.04166667       0.33333333 </v>
   <v>       0.08333333       0.08333333       0.33333333 </v>
   <v>       0.12500000       0.08333333       0.33333333 </v>
   <v>       0.16666667       0.08333333       0.33333333 </v>
   <v>       0.20833333       0.08333333       0.33333333 </v>
   <v>       0.25000000       0.08333333       0.33333333 </v>
   <v>       0.29166667       0.08333333       0.33333333 </v>
   <v>       0.33333333       0.08333333       0.33333333 </v>
   <v>       0.37500000       0.08333333       0.33333333 </v>
   <v>       0.41666667       0.08333333       0.33333333 </v>
   <v>       0.45833333       0.08333333       0.33333333 </v>
   <v>       0.50000000       0.08333333       0.33333333 </v>
   <v>       0.12500000       0.12500000       0.33333333 </v>
   <v>       0.16666667       0.12500000       0.33333333 </v>
   <v>       0.20833333       0.12500000       0.33333333 </v>
   <v>       0.25000000       0.12500000       0.33333333 </v>
   <v>       0.29166667       0.12500000       0.33333333 </v>
   <v>       0.33333333       0.12500000       0.33333333 </v>
   <v>       0.37500000       0.12500000       0.33333333 </v>
   <v>       0.41666667       0.12500000       0.33333333 </v>
   <v>       0.45833333       0.12500000       0.33333333 </v>
   <v>       0.50000000       0.12500000       0.33333333 </v>
   <v>       0.16666667       0.16666667       0.33333333 </v>
   <v>       0.20833333       0.16666667       0.33333333 </v>
   <v>       0.25000000       0.16666667       0.33333333 </v>
   <v>       0.29166667       0.16666667       0.33333333 </v>
   <v>       0.33333333       0.16666667       0.33333333 </v>
   <v>       0.37500000       0.16666667       0.33333333 </v>
   <v>       0.41666667       0.16666667       0.33333333 </v>
   <v>       0.45833333       0.16666667       0.33333333 </v>
   <v>       0.50000000       0.16666667       0.33333333 </v>
   <v>       0.20833333       0.20833333       0.33333333 </v>
   <v>       0.25000000       0.20833333       0.33333333 </v>
   <v>       0.29166667       0.20833333       0.33333333 </v>
   <v>       0.33333333       0.20833333       0.33333333 </v>
   <v>       0.37500000       0.20833333       0.33333333 </v>
   <v>       0.41666667       0.20833333       0.33333333 </v>
   <v>       0.45833333       0.20833333       0.33333333 </v>
   <v>       0.50000000       0.20833333       0.33333333 </v>
   <v>       0.25000000       0.25000000       0.33333333 </v>
   <v>       0.29166667       0.25000000       0.33333333 </v>
   <v>       0.33333333       0.25000000       0.33333333 </v>
   <v>       0.37500000       0.25000000       0.33333333 </v>
   <v>       0.41666667       0.25000000       0.33333333 </v>
   <v>       0.45833333       0.25000000       0.33333333 </v>
   <v>       0.50000000       0.25000000       0.33333333 </v>
   <v>       0.29166667       0.29166667       0.33333333 </v>
   <v>       0.33333333       0.29166667       0.33333333 </v>
   <v>       0.37500000       0.29166667       0.33333333 </v>
   <v>       0.41666667       0.29166667       0.33333333 </v>
   <v>       0.45833333       0.29166667       0.33333333 </v>
   <v>       0.50000000       0.29166667       0.33333333 </v>
   <v>       0.33333333       0.33333333       0.33333333 </v>
   <v>       0.37500000       0.33333333       0.33333333 </v>
   <v>       0.41666667       0.33333333       0.33333333 </v>
   <v>       0.45833333       0.33333333       0.33333333 </v>
   <v>       0.50000000       0.33333333       0.33333333 </v>
   <v>       0.37500000       0.37500000       0.33333333 </v>
   <v>       0.41666667       0.37500000       0.33333333 </v>
   <v>       0.45833333       0.37500000       0.33333333 </v>
   <v>       0.50000000       0.37500000       0.33333333 </v>
   <v>       0.41666667       0.41666667       0.33333333 </v>
   <v>       0.45833333       0.41666667       0.33333333 </v>
   <v>       0.50000000       0.41666667       0.33333333 </v>
   <v>       0.45833333       0.45833333       0.33333333 </v>
   <v>       0.50000000       0.45833333       0.33333333 </v>
   <v>       0.50000000       0.50000000       0.33333333 </v>
   <v>       0.00000000       0.00000000       0.50000000 </v>
   <v>       0.04166667       0.00000000       0.50000000 </v>
   <v>       0.08333333       0.00000000       0.50000000 </v>
   <v>       0.12500000       0.00000000       0.50000000 </v>
   <v>       0.16666667       0.00000000       0.50000000 </v>
   <v>       0.20833333       0.00000000       0.50000000 </v>
   <v>       0.25000000       0.00000000       0.50000000 </v>
   <v>       0.29166667       0.00000000       0.50000000 </v>
   <v>       0.33333333       0.00000000       0.50000000 </v>
   <v>       0.37500000       0.00000000       0.50000000 </v>
   <v>       0.41666667       0.00000000       0.50000000 </v>
   <v>       0.45833333       0.00000000       0.50000000 </v>
   <v>       0.50000000       0.00000000       0.50000000 </v>
   <v>       0.04166667       0.04166667       0.50000000 </v>
   <v>       0.08333333       0.04166667       0.50000000 </v>
   <v>       0.12500000       0.04166667       0.50000000 </v>
   <v>       0.16666667       0.04166667       0.50000000 </v>
   <v>       0.20833333       0.04166667       0.50000000 </v>
   <v>       0.25000000       0.04166667       0.50000000 </v>
   <v>       0.29166667       0.04166667       0.50000000 </v>
   <v>       0.33333333       0.04166667       0.50000000 </v>
   <v>       0.37500000       0.04166667       0.50000000 </v>
   <v>       0.41666667       0.04166667       0.50000000 </v>
   <v>       0.45833333       0.04166667       0.50000000 </v>
   <v>       0.50000000       0.04166667       0.50000000 </v>
   <v>       0.08333333       0.08333333       0.50000000 </v>
   <v>       0.12500000       0.08333333       0.50000000 </v>
   <v>       0.16666667       0.08333333       0.50000000 </v>
   <v>       0.20833333       0.08333333       0.50000000 </v>
   <v>       0.25000000       0.08333333       0.50000000 </v>
   <v>       0.29166667       0.08333333       0.50000000 </v>
   <v>       0.33333333       0.08333333       0.50000000 </v>
   <v>       0.37500000       0.08333333       0.50000000 </v>
   <v>       0.41666667       0.08333333       0.50000000 </v>
   <v>       0.45833333       0.08333333       0.50000000 </v>
   <v>       0.50000000       0.08333333       0.50000000 </v>
   <v>       0.12500000       0.12500000       0.50000000 </v>
   <v>       0.16666667       0.12500000       0.50000000 </v>
   <v>       0.20833333       0.12500000       0.50000000 </v>
   <v>       0.25000000       0.12500000       0.50000000 </v>
   <v>       0.29166667       0.12500000       0.50000000 </v>
   <v>       0.33333333       0.12500000       0.50000000 </v>
   <v>       0.37500000       0.12500000       0.50000000 </v>
   <v>       0.41666667       0.12500000       0.50000000 </v>
   <v>       0.45833333       0.12500000       0.50000000 </v>
   <v>       0.50000000       0.12500000       0.50000000 </v>
   <v>       0.16666667       0.16666667       0.50000000 </v>
   <v>       0.20833333       0.16666667       0.50000000 </v>
   <v>       0.25000000       0.16666667       0.50000000 </v>
   <v>       0.29166667       0.16666667       0.50000000 </v>
   <v>       0.33333333       0.16666667       0.50000000 </v>
   <v>       0.37500000       0.16666667       0.50000000 </v>
   <v>       0.41666667       0.16666667       0.50000000 </v>
   <v>       0.45833333       0.16666667       0.50000000 </v>
   <v>       0.50000000       0.16666667       0.50000000 </v>
   <v>       0.20833333       0.20833333       0.50000000 </v>
   <v>       0.25000000       0.20833333       0.50000000 </v>
   <v>       0.29166667       0.20833333       0.50000000 </v>
   <v>       0.33333333       0.20833333       0.50000000 </v>
   <v>       0.37500000       0.20833333       0.50000000 </v>
   <v>       0.41666667       0.20833333       0.50000000 </v>
   <v>       0.45833333       0.20833333       0.50000000 </v>
   <v>       0.50000000       0.20833333       0.50000000 </v>
   <v>       0.25000000       0.25000000       0.50000000 </v>
   <v>       0.29166667       0.25000000       0.50000000 </v>
   <v>       0.33333333       0.25000000       0.50000000 </v>
   <v>       0.37500000       0.25000000       0.50000000 </v>
   <v>       0.41666667       0.25000000       0.50000000 </v>
   <v>       0.45833333       0.25000000       0.50000000 </v>
   <v>       0.50000000       0.25000000       0.50000000 </v>
   <v>       0.29166667       0.29166667       0.50000000 </v>
   <v>       0.33333333       0.29166667       0.50000000 </v>
   <v>       0.37500000       0.29166667       0.50000000 </v>
   <v>       0.41666667       0.29166667       0.50000000 </v>
   <v>       0.45833333       0.29166667       0.50000000 </v>
   <v>       0.50000000       0.29166667       0.50000000 </v>
   <v>       0.33333333       0.33333333       0.50000000 </v>
   <v>       0.37500000       0.33333333       0.50000000 </v>
   <v>       0.41666667       0.33333333       0.50000000 </v>
   <v>       0.45833333       0.33333333       0.50000000 </v>
   <v>       0.50000000       0.33333333       0.50000000 </v>
   <v>       0.37500000       0.37500000       0.50000000 </v>
   <v>       0.41666667       0.37500000       0.50000000 </v>
   <v>       0.45833333       0.37500000       0.50000000 </v>
   <v>       0.50000000       0.37500000       0.50000000 </v>
   <v>       0.41666667       0.41666667       0.50000000 </v>
   <v>       0.45833333       0.41666667       0.50000000 </v>
   <v>       0.50000000       0.41666667       0.50000000 </v>
   <v>       0.45833333       0.45833333       0.50000000 </v>
   <v>       0.50000000       0.45833333       0.50000000 </v>
   <v>       0.50000000       0.50000000       0.50000000 </v>
  </varray>
  <varray name="weights" >
   <v>       0.00028935 </v>
   <v>       0.00115741 </v>
   <v>       0.00115741 </v>
   <v>       0.00115741 </v>
   <v>       0.00115741 </v>
   <v>       0.00115741 </v>
   <v>       0.00115741 </v>
   <v>       0.00115741 </v>
   <v>       0.00115741 </v>
   <v>       0.00115741 </v>
   <v>       0.00115741 </v>
   <v>       0.00115741 </v>
   <v>       0.00057870 </v>
   <v>       0.00115741 </v>
   <v>       0.00231481 </v>
   <v>       0.00231481 </v>
   <v>       0.00231481 </v>
   <v>       0.00231481 </v>
   <v>       0.00231481 </v>
   <v>       0.00231481 </v>
   <v>       0.00231481 </v>
   <v>       0.00231481 </v>
   <v>       0.00231481 </v>
   <v>       0.00231481 </v>
   <v>       0.00115741 </v>
   <v>       0.00115741 </v>
   <v>       0.00231481 </v>
   <v>       0.00231481 </v>
   <v>       0.00231481 </v>
   <v>       0.00231481 </v>
   <v>       0.00231481 </v>
   <v>       0.00231481 </v>
   <v>       0.00231481 </v>
   <v>       0.00231481 </v>
   <v>       0.00231481 </v>
   <v>       0.00115741 </v>
   <v>       0.00115741 </v>
   <v>       0.00231481 </v>
   <v>       0.00231481 </v>
   <v>       0.00231481 </v>
   <v>       0.00231481 </v>
   <v>       0.00231481 </v>
   <v>       0.00231481 </v>
   <v>       0.00231481 </v>
   <v>       0.00231481 </v>
   <v>       0.00115741 </v>
   <v>       0.00115741 </v>
   <v>       0.00231481 </v>
   <v>       0.00231481 </v>
   <v>       0.00231481 </v>
   <v>       0.00231481 </v>
   <v>       0.00231481 </v>
   <v>       0.00231481 </v>
   <v>       0.00231481 </v>
   <v>       0.00115741 </v>
   <v>       0.00115741 </v>
   <v>       0.00231481 </v>
   <v>       0.00231481 </v>
   <v>       0.00231481 </v>
   <v>       0.00231481 </v>
   <v>       0.00231481 </v>
   <v>       0.00231481 </v>
   <v>       0.00115741 </v>
   <v>       0.00115741 </v>
   <v>       0.00231481 </v>
   <v>       0.00231481 </v>
   <v>       0.00231481 </v>
   <v>       0.00231481 </v>
   <v>       0.00231481 </v>
   <v>       0.00115741 </v>
   <v>       0.00115741 </v>
   <v>       0.00231481 </v>
   <v>       0.00231481 </v>
   <v>       0.00231481 </v>
   <v>       0.00231481 </v>
   <v>       0.00115741 </v>
   <v>       0.00115741 </v>
   <v>       0.00231481 </v>
   <v>       0.00231481 </v>
   <v>       0.00231481 </v>
   <v>       0.00115741 </v>
   <v>       0.00115741 </v>
   <v>       0.00231481 </v>
   <v>       0.00231481 </v>
   <v>       0.00115741 </v>
   <v>       0.00115741 </v>
   <v>       0.00231481 </v>
   <v>       0.00115741 </v>
   <v>       0.00115741 </v>
   <v>       0.00115741 </v>
   <v>       0.00028935 </v>
   <v>       0.00057870 </v>
   <v>       0.00231481 </v>
   <v>       0.00231481 </v>
   <v>       0.00231481 </v>
   <v>       0.00231481 </v>
   <v>       0.00231481 </v>
   <v>       0.00231481 </v>
   <v>       0.00231481 </v>
   <v>       0.00231481 </v>
   <v>       0.00231481 </v>
   <v>       0.00231481 </v>
   <v>       0.00231481 </v>
   <v>       0.00115741 </v>
   <v>       0.00231481 </v>
   <v>       0.00462963 </v>
   <v>       0.00462963 </v>
   <v>       0.00462963 </v>
   <v>       0.00462963 </v>
   <v>       0.00462963 </v>
   <v>       0.00462963 </v>
   <v>       0.00462963 </v>
   <v>       0.00462963 </v>
   <v>       0.00462963 </v>
   <v>       0.00462963 </v>
   <v>       0.00231481 </v>
   <v>       0.00231481 </v>
   <v>       0.00462963 </v>
   <v>       0.00462963 </v>
   <v>       0.00462963 </v>
   <v>       0.00462963 </v>
   <v>       0.00462963 </v>
   <v>       0.00462963 </v>
   <v>       0.00462963 </v>
   <v>       0.00462963 </v>
   <v>       0.00462963 </v>
   <v>       0.00231481 </v>
   <v>       0.00231481 </v>
   <v>       0.00462963 </v>
   <v>       0.00462963 </v>
   <v>       0.00462963 </v>
   <v>       0.00462963 </v>
   <v>       0.00462963 </v>
   <v>       0.00462963 </v>
   <v>       0.00462963 </v>
   <v>       0.00462963 </v>
   <v>       0.00231481 </v>
   <v>       0.00231481 </v>
   <v>       0.00462963 </v>
   <v>       0.00462963 </v>
   <v>       0.00462963 </v>
   <v>       0.00462963 </v>
   <v>       0.00462963 </v>
   <v>       0.00462963 </v>
   <v>       0.00462963 </v>
   <v>       0.00231481 </v>
   <v>       0.00231481 </v>
   <v>       0.00462963 </v>
   <v>       0.00462963 </v>
   <v>       0.00462963 </v>
   <v>       0.00462963 </v>
   <v>       0.00462963 </v>
   <v>       0.00462963 </v>
   <v>       0.00231481 </v>
   <v>       0.00231481 </v>
   <v>       0.00462963 </v>
   <v>       0.00462963 </v>
   <v>       0.00462963 </v>
   <v>       0.00462963 </v>
   <v>       0.00462963 </v>
   <v>       0.00231481 </v>
   <v>       0.00231481 </v>
   <v>       0.00462963 </v>
   <v>       0.00462963 </v>
   <v>       0.00462963 </v>
   <v>       0.00462963 </v>
   <v>       0.00231481 </v>
   <v>       0.00231481 </v>
   <v>       0.00462963 </v>
   <v>       0.00462963 </v>
   <v>       0.00462963 </v>
   <v>       0.00231481 </v>
   <v>       0.00231481 </v>
   <v>       0.00462963 </v>
   <v>       0.00462963 </v>
   <v>       0.00231481 </v>
   <v>       0.00231481 </v>
   <v>       0.00462963 </v>
   <v>       0.00231481 </v>
   <v>       0.00231481 </v>
   <v>       0.00231481 </v>
   <v>       0.00057870 </v>
   <v>       0.00057870 </v>
   <v>       0.00231481 </v>
   <v>       0.00231481 </v>
   <v>       0.00231481 </v>
   <v>       0.00231481 </v>
   <v>       0.00231481 </v>
   <v>       0.00231481 </v>
   <v>       0.00231481 </v>
   <v>       0.00231481 </v>
   <v>       0.00231481 </v>
   <v>       0.00231481 </v>
   <v>       0.00231481 </v>
   <v>       0.00115741 </v>
   <v>       0.00231481 </v>
   <v>       0.00462963 </v>
   <v>       0.00462963 </v>
   <v>       0.00462963 </v>
   <v>       0.00462963 </v>
   <v>       0.00462963 </v>
   <v>       0.00462963 </v>
   <v>       0.00462963 </v>
   <v>       0.00462963 </v>
   <v>       0.00462963 </v>
   <v>       0.00462963 </v>
   <v>       0.00231481 </v>
   <v>       0.00231481 </v>
   <v>       0.00462963 </v>
   <v>       0.00462963 </v>
   <v>       0.00462963 </v>
   <v>       0.00462963 </v>
   <v>       0.00462963 </v>
   <v>       0.00462963 </v>
   <v>       0.00462963 </v>
   <v>       0.00462963 </v>
   <v>       0.00462963 </v>
   <v>       0.00231481 </v>
   <v>       0.00231481 </v>
   <v>       0.00462963 </v>
   <v>       0.00462963 </v>
   <v>       0.00462963 </v>
   <v>       0.00462963 </v>
   <v>       0.00462963 </v>
   <v>       0.00462963 </v>
   <v>       0.00462963 </v>
   <v>       0.00462963 </v>
   <v>       0.00231481 </v>
   <v>       0.00231481 </v>
   <v>       0.00462963 </v>
   <v>       0.00462963 </v>
   <v>       0.00462963 </v>
   <v>       0.00462963 </v>
   <v>       0.00462963 </v>
   <v>       0.00462963 </v>
   <v>       0.00462963 </v>
   <v>       0.00231481 </v>
   <v>       0.00231481 </v>
   <v>       0.00462963 </v>
   <v>       0.00462963 </v>
   <v>       0.00462963 </v>
   <v>       0.00462963 </v>
   <v>       0.00462963 </v>
   <v>       0.00462963 </v>
   <v>       0.00231481 </v>
   <v>       0.00231481 </v>
   <v>       0.00462963 </v>
   <v>       0.00462963 </v>
   <v>       0.00462963 </v>
   <v>       0.00462963 </v>
   <v>       0.00462963 </v>
   <v>       0.00231481 </v>
   <v>       0.00231481 </v>
   <v>       0.00462963 </v>
   <v>       0.00462963 </v>
   <v>       0.00462963 </v>
   <v>       0.00462963 </v>
   <v>       0.00231481 </v>
   <v>       0.00231481 </v>
   <v>       0.00462963 </v>
   <v>       0.00462963 </v>
   <v>       0.00462963 </v>
   <v>       0.00231481 </v>
   <v>       0.00231481 </v>
   <v>       0.00462963 </v>
   <v>       0.00462963 </v>
   <v>       0.00231481 </v>
   <v>       0.00231481 </v>
   <v>       0.00462963 </v>
   <v>       0.00231481 </v>
   <v>       0.00231481 </v>
   <v>       0.00231481 </v>
   <v>       0.00057870 </v>
   <v>       0.00028935 </v>
   <v>       0.00115741 </v>
   <v>       0.00115741 </v>
   <v>       0.00115741 </v>
   <v>       0.00115741 </v>
   <v>       0.00115741 </v>
   <v>       0.00115741 </v>
   <v>       0.00115741 </v>
   <v>       0.00115741 </v>
   <v>       0.00115741 </v>
   <v>       0.00115741 </v>
   <v>       0.00115741 </v>
   <v>       0.00057870 </v>
   <v>       0.00115741 </v>
   <v>       0.00231481 </v>
   <v>       0.00231481 </v>
   <v>       0.00231481 </v>
   <v>       0.00231481 </v>
   <v>       0.00231481 </v>
   <v>       0.00231481 </v>
   <v>       0.00231481 </v>
   <v>       0.00231481 </v>
   <v>       0.00231481 </v>
   <v>       0.00231481 </v>
   <v>       0.00115741 </v>
   <v>       0.00115741 </v>
   <v>       0.00231481 </v>
   <v>       0.00231481 </v>
   <v>       0.00231481 </v>
   <v>       0.00231481 </v>
   <v>       0.00231481 </v>
   <v>       0.00231481 </v>
   <v>       0.00231481 </v>
   <v>       0.00231481 </v>
   <v>       0.00231481 </v>
   <v>       0.00115741 </v>
   <v>       0.00115741 </v>
   <v>       0.00231481 </v>
   <v>       0.00231481 </v>
   <v>       0.00231481 </v>
   <v>       0.00231481 </v>
   <v>       0.00231481 </v>
   <v>       0.00231481 </v>
   <v>       0.00231481 </v>
   <v>       0.00231481 </v>
   <v>       0.00115741 </v>
   <v>       0.00115741 </v>
   <v>       0.00231481 </v>
   <v>       0.00231481 </v>
   <v>       0.00231481 </v>
   <v>       0.00231481 </v>
   <v>       0.00231481 </v>
   <v>       0.00231481 </v>
   <v>       0.00231481 </v>
   <v>       0.00115741 </v>
   <v>       0.00115741 </v>
   <v>       0.00231481 </v>
   <v>       0.00231481 </v>
   <v>       0.00231481 </v>
   <v>       0.00231481 </v>
   <v>       0.00231481 </v>
   <v>       0.00231481 </v>
   <v>       0.00115741 </v>
   <v>       0.00115741 </v>
   <v>       0.00231481 </v>
   <v>       0.00231481 </v>
   <v>       0.00231481 </v>
   <v>       0.00231481 </v>
   <v>       0.00231481 </v>
   <v>       0.00115741 </v>
   <v>       0.00115741 </v>
   <v>       0.00231481 </v>
   <v>       0.00231481 </v>
   <v>       0.00231481 </v>
   <v>       0.00231481 </v>
   <v>       0.00115741 </v>
   <v>       0.00115741 </v>
   <v>       0.00231481 </v>
   <v>       0.00231481 </v>
   <v>       0.00231481 </v>
   <v>       0.00115741 </v>
   <v>       0.00115741 </v>
   <v>       0.00231481 </v>
   <v>       0.00231481 </v>
   <v>       0.00115741 </v>
   <v>       0.00115741 </v>
   <v>       0.00231481 </v>
   <v>       0.00115741 </v>
   <v>       0.00115741 </v>
   <v>       0.00115741 </v>
   <v>       0.00028935 </v>
  </varray>
 </kpoints>
 <parameters>
  <separator name="general" >
   <i type="string" name="SYSTEM">unknown system</i>
   <i type="logical" name="LCOMPAT"> F  </i>
  </separator>
  <separator name="electronic" >
   <i type="string" name="PREC">accura</i>
   <i name="ENMAX">    500.00000000</i>
   <i name="ENAUG">    412.49600000</i>
   <i name="EDIFF">      0.00000100</i>
   <i type="int" name="IALGO">    68</i>
   <i type="int" name="IWAVPR">    11</i>
   <i type="int" name="NBANDS">    40</i>
   <i name="NELECT">     66.00000000</i>
   <i type="int" name="TURBO">     0</i>
   <i type="int" name="IRESTART">     0</i>
   <i type="int" name="NREBOOT">     0</i>
   <i type="int" name="NMIN">     0</i>
   <i name="EREF">      0.00000000</i>
   <separator name="electronic smearing" >
    <i type="int" name="ISMEAR">     1</i>
    <i name="SIGMA">      0.30000000</i>
    <i name="KSPACING">      0.50000000</i>
    <i type="logical" name="KGAMMA"> T  </i>
   </separator>
   <separator name="electronic projectors" >
    <i type="logical" name="LREAL"> F  </i>
    <v name="ROPT">      0.00000000      0.00000000</v>
    <i type="int" name="LMAXPAW">  -100</i>
    <i type="int" name="LMAXMIX">     2</i>
    <i type="logical" name="NLSPLINE"> F  </i>
   </separator>
   <separator name="electronic startup" >
    <i type="int" name="ISTART">     0</i>
    <i type="int" name="ICHARG">     2</i>
    <i type="int" name="INIWAV">     1</i>
   </separator>
   <separator name="electronic spin" >
    <i type="int" name="ISPIN">     1</i>
    <i type="logical" name="LNONCOLLINEAR"> F  </i>
    <v name="MAGMOM">      1.00000000      1.00000000      1.00000000      1.00000000      1.00000000      1.00000000</v>
    <i name="NUPDOWN">     -1.00000000</i>
    <i type="logical" name="LSORBIT"> F  </i>
    <v name="SAXIS">      0.00000000      0.00000000      1.00000000</v>
    <i type="logical" name="LSPIRAL"> F  </i>
    <v name="QSPIRAL">      0.00000000      0.00000000      0.00000000</v>
    <i type="logical" name="LZEROZ"> F  </i>
   </separator>
   <separator name="electronic exchange-correlation" >
    <i type="logical" name="LASPH"> F  </i>
    <i type="logical" name="LMETAGGA"> F  </i>
   </separator>
   <separator name="electronic convergence" >
    <i type="int" name="NELM">   100</i>
    <i type="int" name="NELMDL">     0</i>
    <i type="int" name="NELMIN">     4</i>
    <i name="ENINI">    500.00000000</i>
    <separator name="electronic convergence detail" >
     <i type="logical" name="LDIAG"> T  </i>
     <i type="logical" name="LSUBROT"> F  </i>
     <i name="WEIMIN">      0.00100000</i>
     <i name="EBREAK">      0.00000001</i>
     <i name="DEPER">      0.30000000</i>
     <i type="int" name="NRMM">     4</i>
     <i name="TIME">      0.40000000</i>
    </separator>
   </separator>
   <separator name="electronic mixer" >
    <i name="AMIX">      0.40000000</i>
    <i name="BMIX">      1.00000000</i>
    <i name="AMIN">      0.10000000</i>
    <i name="AMIX_MAG">      1.60000000</i>
    <i name="BMIX_MAG">      1.00000000</i>
    <separator name="electronic mixer details" >
     <i type="int" name="IMIX">     4</i>
     <i type="int" name="MAXMIX">   -45</i>
     <i name="WC">    100.00000000</i>
     <i type="int" name="INIMIX">     1</i>
     <i type="int" name="MIXPRE">     1</i>
     <i type="int" name="MREMOVE">     5</i>
    </separator>
   </separator>
   <separator name="electronic dipolcorrection" >
    <i type="logical" name="LDIPOL"> F  </i>
    <i type="logical" name="LMONO"> F  </i>
    <i type="int" name="IDIPOL">     0</i>
    <i name="EPSILON">      1.00000000</i>
    <v name="DIPOL">   -100.00000000   -100.00000000   -100.00000000</v>
    <i name="EFIELD">      0.00000000</i>
   </separator>
  </separator>
  <separator name="grids" >
   <i type="int" name="NGX">    24</i>
   <i type="int" name="NGY">    24</i>
   <i type="int" name="NGZ">    96</i>
   <i type="int" name="NGXF">    48</i>
   <i type="int" name="NGYF">    48</i>
   <i type="int" name="NGZF">   192</i>
   <i type="logical" name="ADDGRID"> T  </i>
  </separator>
  <separator name="ionic" >
   <i type="int" name="NSW">    30</i>
   <i type="int" name="IBRION">     2</i>
   <i type="int" name="ISIF">     3</i>
   <i name="PSTRESS">      0.00000000</i>
   <i name="EDIFFG">     -0.02000000</i>
   <i type="int" name="NFREE">     1</i>
   <i name="POTIM">      0.50000000</i>
   <i name="SMASS">     -3.00000000</i>
   <i name="SCALEE">      1.00000000</i>
  </separator>
  <separator name="ionic md" >
   <i name="TEBEG">      0.00010000</i>
   <i name="TEEND">      0.00010000</i>
   <i type="int" name="NBLOCK">     1</i>
   <i type="int" name="KBLOCK">    30</i>
   <i type="int" name="NPACO">   256</i>
   <i name="APACO">     16.00000000</i>
  </separator>
  <separator name="symmetry" >
   <i type="int" name="ISYM">     2</i>
   <i name="SYMPREC">      0.00001000</i>
  </separator>
  <separator name="dos" >
   <i type="logical" name="LORBIT"> F  </i>
   <v name="RWIGS">     -1.00000000     -1.00000000</v>
   <i type="int" name="NEDOS">   301</i>
   <i name="EMIN">     10.00000000</i>
   <i name="EMAX">    -10.00000000</i>
   <i name="EFERMI">      0.00000000</i>
  </separator>
  <separator name="writing" >
   <i type="int" name="NWRITE">     2</i>
   <i type="logical" name="LWAVE"> F  </i>
   <i type="logical" name="LCHARG"> F  </i>
   <i type="logical" name="LPARD"> F  </i>
   <i type="logical" name="LVTOT"> F  </i>
   <i type="logical" name="LVHAR"> F  </i>
   <i type="logical" name="LELF"> F  </i>
   <i type="logical" name="LOPTICS"> F  </i>
   <v name="STM">      0.00000000      0.00000000      0.00000000      0.00000000      0.00000000      0.00000000      0.00000000</v>
  </separator>
  <separator name="performance" >
   <i type="int" name="NPAR">     4</i>
   <i type="int" name="NSIM">     4</i>
   <i type="int" name="NBLK">    -1</i>
   <i type="logical" name="LPLANE"> T  </i>
   <i type="logical" name="LSCALAPACK"> T  </i>
   <i type="logical" name="LSCAAWARE"> F  </i>
   <i type="logical" name="LSCALU"> F  </i>
   <i type="logical" name="LASYNC"> F  </i>
   <i type="logical" name="LORBITALREAL"> F  </i>
  </separator>
  <separator name="miscellaneous" >
   <i type="int" name="IDIOT">     3</i>
   <i type="logical" name="LMUSIC"> F  </i>
   <v name="POMASS">    107.86800000    196.96600000</v>
   <v name="DARWINR">      0.00000000      0.00000000</v>
   <v name="DARWINV">      1.00000000      1.00000000</v>
   <i type="logical" name="LCORR"> T  </i>
  </separator>
  <i type="logical" name="GGA_COMPAT"> T  </i>
  <i type="logical" name="LBERRY"> F  </i>
  <i type="int" name="ICORELEVEL">     0</i>
  <i type="logical" name="LDAU"> F  </i>
  <i type="int" name="I_CONSTRAINED_M">     0</i>
  <separator name="electronic exchange-correlation" >
   <i type="string" name="GGA">--</i>
   <i type="int" name="VOSKOWN">     0</i>
   <i type="logical" name="LHFCALC"> F  </i>
   <i type="string" name="PRECFOCK"></i>
   <i type="logical" name="LSYMGRAD"> F  </i>
   <i type="logical" name="LHFONE"> F  </i>
   <i type="logical" name="LRHFCALC"> F  </i>
   <i type="logical" name="LTHOMAS"> F  </i>
   <i type="logical" name="LMODELHF"> F  </i>
   <i name="ENCUT4O">     -1.00000000</i>
   <i type="int" name="EXXOEP">     0</i>
   <i type="int" name="FOURORBIT">     0</i>
   <i name="AEXX">      0.00000000</i>
   <i name="HFALPHA">      0.00000000</i>
   <i name="MCALPHA">      0.00000000</i>
   <i name="ALDAX">      1.00000000</i>
   <i name="AGGAX">      1.00000000</i>
   <i name="ALDAC">      1.00000000</i>
   <i name="AGGAC">      1.00000000</i>
   <i type="int" name="NKREDX">     1</i>
   <i type="int" name="NKREDY">     1</i>
   <i type="int" name="NKREDZ">     1</i>
   <i type="logical" name="SHIFTRED"> F  </i>
   <i type="logical" name="ODDONLY"> F  </i>
   <i type="logical" name="EVENONLY"> F  </i>
   <i type="int" name="LMAXFOCK">     0</i>
   <i type="int" name="NMAXFOCKAE">     0</i>
   <i type="logical" name="LFOCKAEDFT"> F  </i>
   <i name="HFSCREEN">      0.00000000</i>
   <i name="HFSCREENC">      0.00000000</i>
   <i type="int" name="NBANDSGWLOW">     0</i>
  </separator>
  <separator name="vdW DFT" >
   <i type="logical" name="LUSE_VDW"> F  </i>
   <i name="Zab_VDW">     -0.84910000</i>
   <i name="PARAM1">      0.12340000</i>
   <i name="PARAM2">      1.00000000</i>
   <i name="PARAM3">      0.00000000</i>
  </separator>
  <separator name="model GW" >
   <i type="int" name="MODEL_GW">     0</i>
   <i name="MODEL_EPS0">     10.70416237</i>
   <i name="MODEL_ALPHA">      1.00000000</i>
  </separator>
  <separator name="linear response parameters" >
   <i type="logical" name="LEPSILON"> F  </i>
   <i type="logical" name="LRPA"> F  </i>
   <i type="logical" name="LNABLA"> F  </i>
   <i type="logical" name="LVEL"> F  </i>
   <i type="int" name="KINTER">     0</i>
   <i name="CSHIFT">      0.10000000</i>
   <i name="OMEGAMAX">     -1.00000000</i>
   <i name="DEG_THRESHOLD">      0.00200000</i>
  </separator>
  <separator name="orbital magnetization" >
   <i type="logical" name="NUCIND"> F  </i>
   <v name="MAGPOS">      0.00000000      0.00000000      0.00000000</v>
   <i type="logical" name="LNICSALL"> T  </i>
   <i type="logical" name="ORBITALMAG"> F  </i>
   <i type="logical" name="LMAGBLOCH"> F  </i>
   <i type="logical" name="LCHIMAG"> F  </i>
   <i type="logical" name="LGAUGE"> T  </i>
   <i type="int" name="MAGATOM">     0</i>
   <v name="MAGDIPOL">      0.00000000      0.00000000      0.00000000</v>
   <v name="AVECCONST">      0.00000000      0.00000000      0.00000000</v>
  </separator>
  <separator name="response functions" >
   <i type="logical" name="LADDER"> F  </i>
   <i type="logical" name="LFXC"> F  </i>
   <i type="logical" name="LHARTREE"> T  </i>
   <i type="int" name="IBSE">     0</i>
   <i type="logical" name="LTCTE"> F  </i>
   <i type="logical" name="LTETE"> F  </i>
   <i type="logical" name="LTRIPLET"> F  </i>
   <i type="logical" name="LFXCEPS"> F  </i>
   <i type="logical" name="LFXHEG"> F  </i>
   <i type="logical" name="L2ORDER"> F  </i>
   <i type="logical" name="LUSEW"> F  </i>
   <i name="ENCUTGW">     -2.00000000</i>
   <i name="ENCUTGWSOFT">     -2.00000000</i>
   <i name="ENCUTLF">     -1.00000000</i>
   <i type="int" name="LMAXMP2">    -1</i>
   <i name="SCISSOR">      0.00000000</i>
   <i type="int" name="NOMEGA">     0</i>
   <i type="int" name="NOMEGAR">     0</i>
   <i type="int" name="NBANDSGW">    -1</i>
   <i type="int" name="NBANDSO">    -1</i>
   <i type="int" name="NBANDSV">    -1</i>
   <i type="int" name="NELM">   100</i>
   <i type="int" name="DIM">     3</i>
   <i type="int" name="ANTIRES">     0</i>
   <i name="OMEGAMAX">    -30.00000000</i>
   <i name="OMEGAMIN">    -30.00000000</i>
   <i name="OMEGATL">   -200.00000000</i>
   <i type="int" name="OMEGAGRID">     0</i>
   <i name="CSHIFT">     -0.10000000</i>
   <i type="logical" name="SELFENERGY"> F  </i>
   <i type="logical" name="LSPECTRAL"> F  </i>
   <i type="logical" name="ODDONLYGW"> F  </i>
   <i type="logical" name="EVENONLYGW"> F  </i>
   <i type="int" name="NKREDLFX">     1</i>
   <i type="int" name="NKREDLFY">     1</i>
   <i type="int" name="NKREDLFZ">     1</i>
   <i type="int" name="MAXMEM">  1800</i>
   <i type="int" name="TELESCOPE">     0</i>
   <i type="int" name="TAUPAR">     1</i>
  </separator>
  <separator name="External order field" >
   <i name="OFIELD_KAPPA">      0.00000000</i>
   <v name="OFIELD_K">      0.00000000      0.00000000      0.00000000</v>
   <i name="OFIELD_Q6_NEAR">      0.00000000</i>
   <i name="OFIELD_Q6_FAR">      0.00000000</i>
   <i name="OFIELD_A">      0.00000000</i>
  </separator>
 </parameters>
 <atominfo>
  <atoms>       6 </atoms>
  <types>       2 </types>
  <array name="atoms" >
   <dimension dim="1">ion</dimension>
   <field type="string">element</field>
   <field type="int">atomtype</field>
   <set>
    <rc><c>Ag</c><c>   1</c></rc>
    <rc><c>Ag</c><c>   1</c></rc>
    <rc><c>Au</c><c>   2</c></rc>
    <rc><c>Au</c><c>   2</c></rc>
    <rc><c>Au</c><c>   2</c></rc>
    <rc><c>Au</c><c>   2</c></rc>
   </set>
  </array>
  <array name="atomtypes" >
   <dimension dim="1">type</dimension>
   <field type="int">atomspertype</field>
   <field type="string">element</field>
   <field>mass</field>
   <field>valence</field>
   <field type="string">pseudopotential</field>
   <set>
    <rc><c>   2</c><c>Ag</c><c>    107.86800000</c><c>     11.00000000</c><c>  PAW_PBE Ag 02Apr2005                  </c></rc>
    <rc><c>   4</c><c>Au</c><c>    196.96600000</c><c>     11.00000000</c><c>  PAW_PBE Au 04Oct2007                  </c></rc>
   </set>
  </array>
 </atominfo>
 <structure name="initialpos" >
  <crystal>
   <varray name="basis" >
    <v>       0.00000000       2.05859274      -2.05859274 </v>
    <v>       0.00000000      -2.05859274      -2.05859274 </v>
    <v>     -12.62937380       0.00000000       0.00000000 </v>
   </varray>
   <i name="volume">    107.04162368 </i>
   <varray name="rec_basis" >
    <v>       0.00000000       0.24288437      -0.24288437 </v>
    <v>       0.00000000      -0.24288437      -0.24288437 </v>
    <v>      -0.07918049       0.00000000       0.00000000 </v>
   </varray>
  </crystal>
  <varray name="positions" >
   <v>       0.50000000       0.50000000       0.49988140 </v>
   <v>       0.50000000       0.50000000       0.16678527 </v>
   <v>       0.00000000       0.00000000       0.00138033 </v>
   <v>       0.50000000       0.50000000       0.83333333 </v>
   <v>       0.00000000       0.00000000       0.66528633 </v>
   <v>       0.00000000       0.00000000       0.33333333 </v>
  </varray>
 </structure>
 <calculation>
  <scstep>
   <time name="dav">    6.12    6.13</time>
   <time name="total">    6.19    6.22</time>
   <energy>
    <i name="alphaZ">    356.51591144 </i>
    <i name="ewald">  -5777.50460694 </i>
    <i name="hartreedc">   -938.93625075 </i>
    <i name="XCdc">     40.91873898 </i>
    <i name="pawpsdc">   5503.31431206 </i>
    <i name="pawaedc">  -5318.73908776 </i>
    <i name="eentropy">      0.00164422 </i>
    <i name="bandstr">    800.34309589 </i>
    <i name="atom">   5778.85447048 </i>
    <i name="e_fr_energy">    444.76822763 </i>
    <i name="e_wo_entrp">    444.76658341 </i>
    <i name="e_0_energy">    444.76767956 </i>
   </energy>
  </scstep>
  <scstep>
   <time name="dav">    6.44    6.44</time>
   <time name="total">    6.46    6.47</time>
   <energy>
    <i name="e_fr_energy">     -8.34548284 </i>
    <i name="e_wo_entrp">     -8.34400397 </i>
    <i name="e_0_energy">     -8.34498988 </i>
   </energy>
  </scstep>
  <scstep>
   <time name="dav">    6.63    6.64</time>
   <time name="total">    6.66    6.67</time>
   <energy>
    <i name="e_fr_energy">    -20.05880652 </i>
    <i name="e_wo_entrp">    -20.05777530 </i>
    <i name="e_0_energy">    -20.05846278 </i>
   </energy>
  </scstep>
  <scstep>
   <time name="dav">    6.39    6.39</time>
   <time name="total">    6.41    6.43</time>
   <energy>
    <i name="e_fr_energy">    -20.15264057 </i>
    <i name="e_wo_entrp">    -20.15157275 </i>
    <i name="e_0_energy">    -20.15228463 </i>
   </energy>
  </scstep>
  <scstep>
   <time name="dav">    6.70    6.70</time>
   <time name="total">    7.17    7.19</time>
   <energy>
    <i name="e_fr_energy">    -20.15358084 </i>
    <i name="e_wo_entrp">    -20.15251259 </i>
    <i name="e_0_energy">    -20.15322476 </i>
   </energy>
  </scstep>
  <scstep>
   <time name="diag">    1.64    1.64</time>
   <time name="diis">    3.13    3.13</time>
   <time name="orth">    0.24    0.24</time>
   <time name="total">    5.53    5.55</time>
   <energy>
    <i name="e_fr_energy">    -18.65904774 </i>
    <i name="e_wo_entrp">    -18.65912908 </i>
    <i name="e_0_energy">    -18.65907486 </i>
   </energy>
  </scstep>
  <scstep>
   <time name="diag">    1.70    1.70</time>
   <time name="diis">    3.12    3.12</time>
   <time name="orth">    0.23    0.23</time>
   <time name="total">    5.57    5.58</time>
   <energy>
    <i name="e_fr_energy">    -18.59427171 </i>
    <i name="e_wo_entrp">    -18.59339409 </i>
    <i name="e_0_energy">    -18.59397917 </i>
   </energy>
  </scstep>
  <scstep>
   <time name="diag">    1.64    1.64</time>
   <time name="diis">    3.16    3.16</time>
   <time name="orth">    0.24    0.24</time>
   <time name="total">    5.56    5.58</time>
   <energy>
    <i name="e_fr_energy">    -18.58595231 </i>
    <i name="e_wo_entrp">    -18.58636279 </i>
    <i name="e_0_energy">    -18.58608913 </i>
   </energy>
  </scstep>
  <scstep>
   <time name="diag">    1.63    1.63</time>
   <time name="diis">    3.10    3.10</time>
   <time name="orth">    0.23    0.23</time>
   <time name="total">    5.48    5.50</time>
   <energy>
    <i name="e_fr_energy">    -18.56600161 </i>
    <i name="e_wo_entrp">    -18.56561368 </i>
    <i name="e_0_energy">    -18.56587230 </i>
   </energy>
  </scstep>
  <scstep>
   <time name="diag">    1.69    1.70</time>
   <time name="diis">    3.10    3.10</time>
   <time name="orth">    0.24    0.24</time>
   <time name="total">    5.55    5.58</time>
   <energy>
    <i name="e_fr_energy">    -18.56591574 </i>
    <i name="e_wo_entrp">    -18.56549305 </i>
    <i name="e_0_energy">    -18.56577484 </i>
   </energy>
  </scstep>
  <scstep>
   <time name="diag">    1.63    1.63</time>
   <time name="diis">    3.11    3.11</time>
   <time name="orth">    0.23    0.23</time>
   <time name="total">    5.50    5.51</time>
   <energy>
    <i name="e_fr_energy">    -18.56591965 </i>
    <i name="e_wo_entrp">    -18.56549563 </i>
    <i name="e_0_energy">    -18.56577831 </i>
   </energy>
  </scstep>
  <scstep>
   <time name="diag">    1.63    1.63</time>
   <time name="diis">    2.23    2.23</time>
   <time name="orth">    0.24    0.24</time>
   <time name="total">    4.68    4.70</time>
   <energy>
    <i name="e_fr_energy">    -18.56592534 </i>
    <i name="e_wo_entrp">    -18.56550352 </i>
    <i name="e_0_energy">    -18.56578473 </i>
   </energy>
  </scstep>
  <scstep>
   <time name="diag">    1.64    1.64</time>
   <time name="diis">    1.95    1.96</time>
   <time name="orth">    0.24    0.24</time>
   <time name="total">    3.90    3.92</time>
   <energy>
    <i name="alphaZ">    356.51591144 </i>
    <i name="ewald">  -5777.50460694 </i>
    <i name="hartreedc">   -870.43532344 </i>
    <i name="XCdc">     38.03815208 </i>
    <i name="pawpsdc">   6293.94545654 </i>
    <i name="pawaedc">  -6124.05611688 </i>
    <i name="eentropy">     -0.00042230 </i>
    <i name="bandstr">    286.07655369 </i>
    <i name="atom">   5778.85447048 </i>
    <i name="e_fr_energy">    -18.56592532 </i>
    <i name="e_wo_entrp">    -18.56550303 </i>
    <i name="e_0_energy">    -18.56578456 </i>
   </energy>
  </scstep>
  <structure>
   <crystal>
    <varray name="basis" >
     <v>       0.00000000       2.05859274      -2.05859274 </v>
     <v>       0.00000000      -2.05859274      -2.05859274 </v>
     <v>     -12.62937380       0.00000000       0.00000000 </v>
    </varray>
    <i name="volume">    107.04162368 </i>
    <varray name="rec_basis" >
     <v>       0.00000000       0.24288437      -0.24288437 </v>
     <v>       0.00000000      -0.24288437      -0.24288437 </v>
     <v>      -0.07918049       0.00000000       0.00000000 </v>
    </varray>
   </crystal>
   <varray name="positions" >
    <v>       0.50000000       0.50000000       0.49988140 </v>
    <v>       0.50000000       0.50000000       0.16678527 </v>
    <v>       0.00000000       0.00000000       0.00138033 </v>
    <v>       0.50000000       0.50000000       0.83333333 </v>
    <v>       0.00000000       0.00000000       0.66528633 </v>
    <v>       0.00000000       0.00000000       0.33333333 </v>
   </varray>
  </structure>
  <varray name="forces" >
   <v>       0.00861385       0.00000000       0.00000000 </v>
   <v>      -0.00861385       0.00000000       0.00000000 </v>
   <v>       0.01071074       0.00000000       0.00000000 </v>
   <v>       0.00000000       0.00000000       0.00000000 </v>
   <v>      -0.01071074       0.00000000       0.00000000 </v>
   <v>       0.00000000       0.00000000       0.00000000 </v>
  </varray>
  <varray name="stress" >
   <v>      -0.66505280       0.00000000       0.00000000 </v>
   <v>       0.00000000       1.48177047       0.00000000 </v>
   <v>       0.00000000       0.00000000       1.48177047 </v>
  </varray>
  <energy>
   <i name="e_fr_energy">    -18.56592532 </i>
   <i name="e_wo_entrp">    -18.56578456 </i>
   <i name="e_0_energy">     -0.00042230 </i>
  </energy>
  <time name="totalsc">   79.33   79.62</time>
  <eigenvalues>
   <array>
    <dimension dim="1">band</dimension>
    <dimension dim="2">kpoint</dimension>
    <dimension dim="3">spin</dimension>
    <field>eigene</field>
    <field>occ</field>
    <set>
     <set comment="spin 1">
      <set comment="kpoint 1">
       <r>   -0.5166    1.0000 </r>
       <r>    0.6062    1.0000 </r>
       <r>    0.8293    1.0000 </r>
       <r>    1.8502    1.0000 </r>
       <r>    2.1596    1.0000 </r>
       <r>    2.2191    1.0000 </r>
       <r>    2.4333    1.0000 </r>
       <r>    2.5157    1.0000 </r>
       <r>    2.5566    1.0000 </r>
       <r>    3.3250    1.0000 </r>
       <r>    3.3534    1.0000 </r>
       <r>    3.7869    1.0000 </r>
       <r>    3.9435    1.0000 </r>
       <r>    3.9435    1.0000 </r>
       <r>    4.3213    1.0000 </r>
       <r>    4.3213    1.0000 </r>
       <r>    4.5132    1.0000 </r>
       <r>    4.5132    1.0000 </r>
       <r>    4.5652    1.0000 </r>
       <r>    4.6244    1.0000 </r>
       <r>    5.0036    1.0000 </r>
       <r>    5.0659    1.0000 </r>
       <r>    5.0824    1.0000 </r>
       <r>    5.5529    1.0000 </r>
       <r>    5.5529    1.0000 </r>
       <r>    5.6372    1.0000 </r>
       <r>    5.6694    1.0000 </r>
       <r>    5.6954    1.0000 </r>
       <r>    5.6954    1.0000 </r>
       <r>    5.7972    1.0000 </r>
       <r>    5.9788    1.0000 </r>
       <r>    6.0181    1.0000 </r>
       <r>    6.2936    1.0000 </r>
       <r>    6.4532    1.0000 </r>
       <r>    6.4532    1.0000 </r>
       <r>    9.5054    0.0000 </r>
       <r>   13.9243    0.0000 </r>
       <r>   18.7421    0.0000 </r>
       <r>   18.7421    0.0000 </r>
       <r>   19.7099    0.0000 </r>
      </set>
      <set comment="kpoint 2">
       <r>   -0.4782    1.0000 </r>
       <r>    0.6401    1.0000 </r>
       <r>    0.8617    1.0000 </r>
       <r>    1.8773    1.0000 </r>
       <r>    2.1800    1.0000 </r>
       <r>    2.2429    1.0000 </r>
       <r>    2.4558    1.0000 </r>
       <r>    2.5332    1.0000 </r>
       <r>    2.5738    1.0000 </r>
       <r>    3.3341    1.0000 </r>
       <r>    3.3614    1.0000 </r>
       <r>    3.8030    1.0000 </r>
       <r>    3.9305    1.0000 </r>
       <r>    3.9532    1.0000 </r>
       <r>    4.2926    1.0000 </r>
       <r>    4.3176    1.0000 </r>
       <r>    4.4234    1.0000 </r>
       <r>    4.5036    1.0000 </r>
       <r>    4.6566    1.0000 </r>
       <r>    4.6619    1.0000 </r>
       <r>    4.9909    1.0000 </r>
       <r>    5.0700    1.0000 </r>
       <r>    5.0769    1.0000 </r>
       <r>    5.2527    1.0000 </r>
       <r>    5.3703    1.0000 </r>
       <r>    5.5113    1.0000 </r>
       <r>    5.6449    1.0000 </r>
       <r>    5.6638    1.0000 </r>
       <r>    5.9920    1.0000 </r>
       <r>    5.9985    1.0000 </r>
       <r>    6.0179    1.0000 </r>
       <r>    6.0839    1.0000 </r>
       <r>    6.2774    1.0000 </r>
       <r>    6.4069    1.0000 </r>
       <r>    6.4484    1.0000 </r>
       <r>    9.6462    0.0000 </r>
       <r>   13.9072    0.0000 </r>
       <r>   18.5043    0.0000 </r>
       <r>   18.8133    0.0000 </r>
       <r>   19.5751    0.0000 </r>
      </set>
      <set comment="kpoint 3">
       <r>   -0.3640    1.0000 </r>
       <r>    0.7386    1.0000 </r>
       <r>    0.9549    1.0000 </r>
       <r>    1.9509    1.0000 </r>
       <r>    2.2446    1.0000 </r>
       <r>    2.3055    1.0000 </r>
       <r>    2.5044    1.0000 </r>
       <r>    2.5944    1.0000 </r>
       <r>    2.6415    1.0000 </r>
       <r>    3.3638    1.0000 </r>
       <r>    3.3885    1.0000 </r>
       <r>    3.8492    1.0000 </r>
       <r>    3.8929    1.0000 </r>
       <r>    3.9818    1.0000 </r>
       <r>    4.2324    1.0000 </r>
       <r>    4.3062    1.0000 </r>
       <r>    4.3216    1.0000 </r>
       <r>    4.4754    1.0000 </r>
       <r>    4.6996    1.0000 </r>
       <r>    4.7822    1.0000 </r>
       <r>    4.9535    1.0000 </r>
       <r>    4.9604    1.0000 </r>
       <r>    5.0194    1.0000 </r>
       <r>    5.0567    1.0000 </r>
       <r>    5.0870    1.0000 </r>
       <r>    5.4194    1.0000 </r>
       <r>    5.5963    1.0000 </r>
       <r>    5.6441    1.0000 </r>
       <r>    6.0029    1.0000 </r>
       <r>    6.0056    1.0000 </r>
       <r>    6.0346    1.0000 </r>
       <r>    6.2410    1.0000 </r>
       <r>    6.3784    1.0000 </r>
       <r>    6.4347    1.0000 </r>
       <r>    6.6314    1.0000 </r>
       <r>   10.0232    0.0000 </r>
       <r>   13.8529    0.0000 </r>
       <r>   17.9026    0.0000 </r>
       <r>   18.9143    0.0000 </r>
       <r>   19.0239    0.0000 </r>
      </set>
      <set comment="kpoint 4">
       <r>   -0.1780    1.0000 </r>
       <r>    0.8921    1.0000 </r>
       <r>    1.0971    1.0000 </r>
       <r>    2.0497    1.0000 </r>
       <r>    2.3564    1.0000 </r>
       <r>    2.3861    1.0000 </r>
       <r>    2.5478    1.0000 </r>
       <r>    2.7227    1.0000 </r>
       <r>    2.7818    1.0000 </r>
       <r>    3.4218    1.0000 </r>
       <r>    3.4447    1.0000 </r>
       <r>    3.8339    1.0000 </r>
       <r>    3.9190    1.0000 </r>
       <r>    4.0283    1.0000 </r>
       <r>    4.1692    1.0000 </r>
       <r>    4.2313    1.0000 </r>
       <r>    4.2861    1.0000 </r>
       <r>    4.4308    1.0000 </r>
       <r>    4.5448    1.0000 </r>
       <r>    4.6854    1.0000 </r>
       <r>    4.8933    1.0000 </r>
       <r>    4.9151    1.0000 </r>
       <r>    4.9195    1.0000 </r>
       <r>    5.0109    1.0000 </r>
       <r>    5.1249    1.0000 </r>
       <r>    5.3021    1.0000 </r>
       <r>    5.5338    1.0000 </r>
       <r>    5.6285    1.0000 </r>
       <r>    5.6875    1.0000 </r>
       <r>    5.9411    1.0000 </r>
       <r>    6.0598    1.0000 </r>
       <r>    6.2148    1.0000 </r>
       <r>    6.4147    1.0000 </r>
       <r>    6.7734    1.0000 </r>
       <r>    7.0285    1.0000 </r>
       <r>   10.5563    0.0000 </r>
       <r>   13.7493    0.0000 </r>
       <r>   17.1264    0.0000 </r>
       <r>   17.9412    0.0000 </r>
       <r>   18.2135    0.0000 </r>
      </set>
      <set comment="kpoint 5">
       <r>    0.0730    1.0000 </r>
       <r>    1.0838    1.0000 </r>
       <r>    1.2668    1.0000 </r>
       <r>    2.1511    1.0000 </r>
       <r>    2.4342    1.0000 </r>
       <r>    2.5474    1.0000 </r>
       <r>    2.5815    1.0000 </r>
       <r>    2.9299    1.0000 </r>
       <r>    2.9813    1.0000 </r>
       <r>    3.5231    1.0000 </r>
       <r>    3.5476    1.0000 </r>
       <r>    3.7592    1.0000 </r>
       <r>    3.9986    1.0000 </r>
       <r>    4.0896    1.0000 </r>
       <r>    4.1137    1.0000 </r>
       <r>    4.1543    1.0000 </r>
       <r>    4.2566    1.0000 </r>
       <r>    4.3090    1.0000 </r>
       <r>    4.3748    1.0000 </r>
       <r>    4.4156    1.0000 </r>
       <r>    4.8126    1.0000 </r>
       <r>    4.9299    1.0000 </r>
       <r>    5.0004    1.0000 </r>
       <r>    5.0326    1.0000 </r>
       <r>    5.1728    1.0000 </r>
       <r>    5.2029    1.0000 </r>
       <r>    5.3450    1.0000 </r>
       <r>    5.5024    1.0000 </r>
       <r>    5.6042    1.0000 </r>
       <r>    5.8277    1.0000 </r>
       <r>    6.0606    1.0000 </r>
       <r>    6.2095    1.0000 </r>
       <r>    6.3917    1.0000 </r>
       <r>    7.1725    1.0000 </r>
       <r>    7.4440    1.0000 </r>
       <r>   11.1887    0.0000 </r>
       <r>   13.5664    0.0000 </r>
       <r>   16.3261    0.0000 </r>
       <r>   16.8593    0.0000 </r>
       <r>   17.1052    0.0000 </r>
      </set>
      <set comment="kpoint 6">
       <r>    0.3783    1.0000 </r>
       <r>    1.2902    1.0000 </r>
       <r>    1.4351    1.0000 </r>
       <r>    2.2410    1.0000 </r>
       <r>    2.4878    1.0000 </r>
       <r>    2.6005    1.0000 </r>
       <r>    2.7675    1.0000 </r>
       <r>    3.1903    1.0000 </r>
       <r>    3.2116    1.0000 </r>
       <r>    3.6744    1.0000 </r>
       <r>    3.6892    1.0000 </r>
       <r>    3.7183    1.0000 </r>
       <r>    4.0432    1.0000 </r>
       <r>    4.0859    1.0000 </r>
       <r>    4.0875    1.0000 </r>
       <r>    4.1439    1.0000 </r>
       <r>    4.1560    1.0000 </r>
       <r>    4.2181    1.0000 </r>
       <r>    4.2296    1.0000 </r>
       <r>    4.3195    1.0000 </r>
       <r>    4.7144    1.0000 </r>
       <r>    4.8186    1.0000 </r>
       <r>    4.9354    1.0000 </r>
       <r>    5.0426    1.0000 </r>
       <r>    5.1067    1.0000 </r>
       <r>    5.2218    1.0000 </r>
       <r>    5.3302    1.0000 </r>
       <r>    5.5078    1.0000 </r>
       <r>    5.5646    1.0000 </r>
       <r>    5.7005    1.0000 </r>
       <r>    6.0320    1.0000 </r>
       <r>    6.2111    1.0000 </r>
       <r>    6.3681    1.0000 </r>
       <r>    7.5743    1.0004 </r>
       <r>    7.8632    1.0150 </r>
       <r>   11.8881    0.0000 </r>
       <r>   13.2444    0.0000 </r>
       <r>   15.5757    0.0000 </r>
       <r>   15.8166    0.0000 </r>
       <r>   15.9783    0.0000 </r>
      </set>
      <set comment="kpoint 7">
       <r>    0.7209    1.0000 </r>
       <r>    1.4878    1.0000 </r>
       <r>    1.5742    1.0000 </r>
       <r>    2.2983    1.0000 </r>
       <r>    2.5507    1.0000 </r>
       <r>    2.5937    1.0000 </r>
       <r>    3.0085    1.0000 </r>
       <r>    3.4129    1.0000 </r>
       <r>    3.4256    1.0000 </r>
       <r>    3.5895    1.0000 </r>
       <r>    3.9328    1.0000 </r>
       <r>    3.9412    1.0000 </r>
       <r>    4.0283    1.0000 </r>
       <r>    4.0509    1.0000 </r>
       <r>    4.0913    1.0000 </r>
       <r>    4.1364    1.0000 </r>
       <r>    4.1731    1.0000 </r>
       <r>    4.1788    1.0000 </r>
       <r>    4.2037    1.0000 </r>
       <r>    4.3137    1.0000 </r>
       <r>    4.6027    1.0000 </r>
       <r>    4.6257    1.0000 </r>
       <r>    4.6959    1.0000 </r>
       <r>    4.9211    1.0000 </r>
       <r>    5.2461    1.0000 </r>
       <r>    5.3361    1.0000 </r>
       <r>    5.4591    1.0000 </r>
       <r>    5.5047    1.0000 </r>
       <r>    5.5414    1.0000 </r>
       <r>    5.6363    1.0000 </r>
       <r>    5.9756    1.0000 </r>
       <r>    6.2097    1.0000 </r>
       <r>    6.3430    1.0000 </r>
       <r>    7.9796    1.0318 </r>
       <r>    8.2812    0.8059 </r>
       <r>   12.6350    0.0000 </r>
       <r>   12.7209    0.0000 </r>
       <r>   14.5761    0.0000 </r>
       <r>   14.8737    0.0000 </r>
       <r>   15.2613    0.0000 </r>
      </set>
      <set comment="kpoint 8">
       <r>    1.0727    1.0000 </r>
       <r>    1.6674    1.0000 </r>
       <r>    1.6701    1.0000 </r>
       <r>    2.3013    1.0000 </r>
       <r>    2.5536    1.0000 </r>
       <r>    2.6431    1.0000 </r>
       <r>    3.2460    1.0000 </r>
       <r>    3.5051    1.0000 </r>
       <r>    3.5107    1.0000 </r>
       <r>    3.5289    1.0000 </r>
       <r>    3.9755    1.0000 </r>
       <r>    3.9874    1.0000 </r>
       <r>    4.1259    1.0000 </r>
       <r>    4.1325    1.0000 </r>
       <r>    4.1376    1.0000 </r>
       <r>    4.2435    1.0000 </r>
       <r>    4.2491    1.0000 </r>
       <r>    4.3092    1.0000 </r>
       <r>    4.3347    1.0000 </r>
       <r>    4.3674    1.0000 </r>
       <r>    4.4843    1.0000 </r>
       <r>    4.4850    1.0000 </r>
       <r>    4.5958    1.0000 </r>
       <r>    4.8151    1.0000 </r>
       <r>    5.3089    1.0000 </r>
       <r>    5.4257    1.0000 </r>
       <r>    5.4642    1.0000 </r>
       <r>    5.5915    1.0000 </r>
       <r>    5.6304    1.0000 </r>
       <r>    5.7353    1.0000 </r>
       <r>    5.8982    1.0000 </r>
       <r>    6.2022    1.0000 </r>
       <r>    6.3135    1.0000 </r>
       <r>    8.3904    0.5247 </r>
       <r>    8.6906   -0.0219 </r>
       <r>   12.0164    0.0000 </r>
       <r>   13.3851    0.0000 </r>
       <r>   13.5068    0.0000 </r>
       <r>   13.8519    0.0000 </r>
       <r>   15.0536    0.0000 </r>
      </set>
      <set comment="kpoint 9">
       <r>    1.3816    1.0000 </r>
       <r>    1.7261    1.0000 </r>
       <r>    1.8493    1.0000 </r>
       <r>    2.2645    1.0000 </r>
       <r>    2.4849    1.0000 </r>
       <r>    2.7589    1.0000 </r>
       <r>    3.4446    1.0000 </r>
       <r>    3.4567    1.0000 </r>
       <r>    3.5347    1.0000 </r>
       <r>    3.5581    1.0000 </r>
       <r>    3.9422    1.0000 </r>
       <r>    3.9553    1.0000 </r>
       <r>    4.0645    1.0000 </r>
       <r>    4.0771    1.0000 </r>
       <r>    4.0822    1.0000 </r>
       <r>    4.1081    1.0000 </r>
       <r>    4.3502    1.0000 </r>
       <r>    4.3677    1.0000 </r>
       <r>    4.5233    1.0000 </r>
       <r>    4.5750    1.0000 </r>
       <r>    4.6021    1.0000 </r>
       <r>    4.7280    1.0000 </r>
       <r>    4.7639    1.0000 </r>
       <r>    4.9342    1.0000 </r>
       <r>    5.1619    1.0000 </r>
       <r>    5.6055    1.0000 </r>
       <r>    5.6411    1.0000 </r>
       <r>    5.6445    1.0000 </r>
       <r>    5.6476    1.0000 </r>
       <r>    5.8156    1.0000 </r>
       <r>    6.0418    1.0000 </r>
       <r>    6.1887    1.0000 </r>
       <r>    6.2768    1.0000 </r>
       <r>    8.8023   -0.0336 </r>
       <r>    9.0669   -0.0036 </r>
       <r>   11.2182    0.0000 </r>
       <r>   12.4878    0.0000 </r>
       <r>   12.8154    0.0000 </r>
       <r>   14.2673    0.0000 </r>
       <r>   15.0317    0.0000 </r>
      </set>
      <set comment="kpoint 10">
       <r>    1.5870    1.0000 </r>
       <r>    1.7548    1.0000 </r>
       <r>    2.0203    1.0000 </r>
       <r>    2.2654    1.0000 </r>
       <r>    2.4041    1.0000 </r>
       <r>    2.8820    1.0000 </r>
       <r>    3.4001    1.0000 </r>
       <r>    3.5668    1.0000 </r>
       <r>    3.5908    1.0000 </r>
       <r>    3.6225    1.0000 </r>
       <r>    3.8488    1.0000 </r>
       <r>    3.9018    1.0000 </r>
       <r>    3.9165    1.0000 </r>
       <r>    4.0308    1.0000 </r>
       <r>    4.0480    1.0000 </r>
       <r>    4.0515    1.0000 </r>
       <r>    4.2613    1.0000 </r>
       <r>    4.2670    1.0000 </r>
       <r>    4.6614    1.0000 </r>
       <r>    4.6998    1.0000 </r>
       <r>    4.8040    1.0000 </r>
       <r>    4.9055    1.0000 </r>
       <r>    5.0341    1.0000 </r>
       <r>    5.1772    1.0000 </r>
       <r>    5.3830    1.0000 </r>
       <r>    5.6290    1.0000 </r>
       <r>    5.6676    1.0000 </r>
       <r>    5.7898    1.0000 </r>
       <r>    5.8629    1.0000 </r>
       <r>    5.9745    1.0000 </r>
       <r>    6.1711    1.0000 </r>
       <r>    6.2323    1.0000 </r>
       <r>    6.4350    1.0000 </r>
       <r>    9.1677   -0.0009 </r>
       <r>    9.3248   -0.0001 </r>
       <r>   10.3979    0.0000 </r>
       <r>   11.5975    0.0000 </r>
       <r>   12.0391    0.0000 </r>
       <r>   14.7642    0.0000 </r>
       <r>   15.0432    0.0000 </r>
      </set>
      <set comment="kpoint 11">
       <r>    1.7050    1.0000 </r>
       <r>    1.7682    1.0000 </r>
       <r>    2.0188    1.0000 </r>
       <r>    2.3305    1.0000 </r>
       <r>    2.4469    1.0000 </r>
       <r>    2.9970    1.0000 </r>
       <r>    3.3827    1.0000 </r>
       <r>    3.6134    1.0000 </r>
       <r>    3.6395    1.0000 </r>
       <r>    3.6748    1.0000 </r>
       <r>    3.7325    1.0000 </r>
       <r>    3.8558    1.0000 </r>
       <r>    3.8720    1.0000 </r>
       <r>    3.9808    1.0000 </r>
       <r>    3.9989    1.0000 </r>
       <r>    4.0282    1.0000 </r>
       <r>    4.1720    1.0000 </r>
       <r>    4.1882    1.0000 </r>
       <r>    4.6157    1.0000 </r>
       <r>    4.8149    1.0000 </r>
       <r>    4.9346    1.0000 </r>
       <r>    5.0435    1.0000 </r>
       <r>    5.1845    1.0000 </r>
       <r>    5.4289    1.0000 </r>
       <r>    5.5381    1.0000 </r>
       <r>    5.5705    1.0000 </r>
       <r>    5.6922    1.0000 </r>
       <r>    5.8409    1.0000 </r>
       <r>    6.1527    1.0000 </r>
       <r>    6.1818    1.0000 </r>
       <r>    6.4384    1.0000 </r>
       <r>    6.5114    1.0000 </r>
       <r>    6.9128    1.0000 </r>
       <r>    9.2474   -0.0002 </r>
       <r>    9.2525   -0.0002 </r>
       <r>    9.5988    0.0000 </r>
       <r>   11.0910    0.0000 </r>
       <r>   11.6719    0.0000 </r>
       <r>   13.8485    0.0000 </r>
       <r>   14.3985    0.0000 </r>
      </set>
      <set comment="kpoint 12">
       <r>    1.7741    1.0000 </r>
       <r>    1.7856    1.0000 </r>
       <r>    1.9506    1.0000 </r>
       <r>    2.2797    1.0000 </r>
       <r>    2.6332    1.0000 </r>
       <r>    3.0847    1.0000 </r>
       <r>    3.3968    1.0000 </r>
       <r>    3.5436    1.0000 </r>
       <r>    3.6670    1.0000 </r>
       <r>    3.6961    1.0000 </r>
       <r>    3.7889    1.0000 </r>
       <r>    3.8063    1.0000 </r>
       <r>    3.8306    1.0000 </r>
       <r>    3.9100    1.0000 </r>
       <r>    3.9822    1.0000 </r>
       <r>    4.0261    1.0000 </r>
       <r>    4.1052    1.0000 </r>
       <r>    4.1340    1.0000 </r>
       <r>    4.5898    1.0000 </r>
       <r>    4.8709    1.0000 </r>
       <r>    4.9159    1.0000 </r>
       <r>    5.2087    1.0000 </r>
       <r>    5.3801    1.0000 </r>
       <r>    5.4451    1.0000 </r>
       <r>    5.5282    1.0000 </r>
       <r>    5.6260    1.0000 </r>
       <r>    5.7111    1.0000 </r>
       <r>    5.8997    1.0000 </r>
       <r>    6.1323    1.0000 </r>
       <r>    6.1383    1.0000 </r>
       <r>    7.1665    1.0000 </r>
       <r>    7.2113    1.0000 </r>
       <r>    7.4689    1.0001 </r>
       <r>    8.7327   -0.0332 </r>
       <r>    8.7674   -0.0355 </r>
       <r>    8.8460   -0.0281 </r>
       <r>   11.2576    0.0000 </r>
       <r>   11.7975    0.0000 </r>
       <r>   12.9814    0.0000 </r>
       <r>   13.6446    0.0000 </r>
      </set>
      <set comment="kpoint 13">
       <r>    1.7758    1.0000 </r>
       <r>    1.8355    1.0000 </r>
       <r>    1.9000    1.0000 </r>
       <r>    2.2616    1.0000 </r>
       <r>    2.7050    1.0000 </r>
       <r>    3.1191    1.0000 </r>
       <r>    3.4330    1.0000 </r>
       <r>    3.4681    1.0000 </r>
       <r>    3.7023    1.0000 </r>
       <r>    3.7392    1.0000 </r>
       <r>    3.7728    1.0000 </r>
       <r>    3.7730    1.0000 </r>
       <r>    3.8519    1.0000 </r>
       <r>    3.8544    1.0000 </r>
       <r>    3.9775    1.0000 </r>
       <r>    4.0344    1.0000 </r>
       <r>    4.0734    1.0000 </r>
       <r>    4.1144    1.0000 </r>
       <r>    4.5816    1.0000 </r>
       <r>    4.8488    1.0000 </r>
       <r>    4.9610    1.0000 </r>
       <r>    5.2693    1.0000 </r>
       <r>    5.4024    1.0000 </r>
       <r>    5.4611    1.0000 </r>
       <r>    5.5427    1.0000 </r>
       <r>    5.6379    1.0000 </r>
       <r>    5.7184    1.0000 </r>
       <r>    5.9287    1.0000 </r>
       <r>    6.1071    1.0000 </r>
       <r>    6.1328    1.0000 </r>
       <r>    7.7869    1.0070 </r>
       <r>    7.8433    1.0125 </r>
       <r>    8.0346    1.0354 </r>
       <r>    8.1263    1.0130 </r>
       <r>    8.1523    0.9957 </r>
       <r>    8.2429    0.8814 </r>
       <r>   11.5775    0.0000 </r>
       <r>   11.9888    0.0000 </r>
       <r>   12.4820    0.0000 </r>
       <r>   13.2763    0.0000 </r>
      </set>
      <set comment="kpoint 14">
       <r>   -0.4397    1.0000 </r>
       <r>    0.6741    1.0000 </r>
       <r>    0.8943    1.0000 </r>
       <r>    1.9051    1.0000 </r>
       <r>    2.1999    1.0000 </r>
       <r>    2.2679    1.0000 </r>
       <r>    2.4810    1.0000 </r>
       <r>    2.5494    1.0000 </r>
       <r>    2.5883    1.0000 </r>
       <r>    3.3421    1.0000 </r>
       <r>    3.3684    1.0000 </r>
       <r>    3.8193    1.0000 </r>
       <r>    3.9105    1.0000 </r>
       <r>    3.9697    1.0000 </r>
       <r>    4.2685    1.0000 </r>
       <r>    4.3185    1.0000 </r>
       <r>    4.3826    1.0000 </r>
       <r>    4.5021    1.0000 </r>
       <r>    4.6753    1.0000 </r>
       <r>    4.6955    1.0000 </r>
       <r>    4.9648    1.0000 </r>
       <r>    5.0522    1.0000 </r>
       <r>    5.0700    1.0000 </r>
       <r>    5.1221    1.0000 </r>
       <r>    5.2433    1.0000 </r>
       <r>    5.5484    1.0000 </r>
       <r>    5.6246    1.0000 </r>
       <r>    5.6899    1.0000 </r>
       <r>    5.9327    1.0000 </r>
       <r>    5.9446    1.0000 </r>
       <r>    6.1158    1.0000 </r>
       <r>    6.1478    1.0000 </r>
       <r>    6.3031    1.0000 </r>
       <r>    6.4510    1.0000 </r>
       <r>    6.4728    1.0000 </r>
       <r>    9.7772    0.0000 </r>
       <r>   13.8913    0.0000 </r>
       <r>   18.5628    0.0000 </r>
       <r>   18.5818    0.0000 </r>
       <r>   19.4317    0.0000 </r>
      </set>
      <set comment="kpoint 15">
       <r>   -0.3256    1.0000 </r>
       <r>    0.7731    1.0000 </r>
       <r>    0.9884    1.0000 </r>
       <r>    1.9809    1.0000 </r>
       <r>    2.2630    1.0000 </r>
       <r>    2.3338    1.0000 </r>
       <r>    2.5360    1.0000 </r>
       <r>    2.6064    1.0000 </r>
       <r>    2.6497    1.0000 </r>
       <r>    3.3687    1.0000 </r>
       <r>    3.3925    1.0000 </r>
       <r>    3.8664    1.0000 </r>
       <r>    3.8679    1.0000 </r>
       <r>    4.0025    1.0000 </r>
       <r>    4.2190    1.0000 </r>
       <r>    4.3076    1.0000 </r>
       <r>    4.3115    1.0000 </r>
       <r>    4.4790    1.0000 </r>
       <r>    4.6719    1.0000 </r>
       <r>    4.7680    1.0000 </r>
       <r>    4.8457    1.0000 </r>
       <r>    4.8732    1.0000 </r>
       <r>    4.9977    1.0000 </r>
       <r>    5.0918    1.0000 </r>
       <r>    5.1440    1.0000 </r>
       <r>    5.4726    1.0000 </r>
       <r>    5.6339    1.0000 </r>
       <r>    5.6356    1.0000 </r>
       <r>    5.9162    1.0000 </r>
       <r>    5.9420    1.0000 </r>
       <r>    5.9584    1.0000 </r>
       <r>    6.1618    1.0000 </r>
       <r>    6.4403    1.0000 </r>
       <r>    6.5394    1.0000 </r>
       <r>    6.7605    1.0000 </r>
       <r>   10.1336    0.0000 </r>
       <r>   13.8406    0.0000 </r>
       <r>   17.9647    0.0000 </r>
       <r>   18.7589    0.0000 </r>
       <r>   18.9216    0.0000 </r>
      </set>
      <set comment="kpoint 16">
       <r>   -0.1398    1.0000 </r>
       <r>    0.9276    1.0000 </r>
       <r>    1.1318    1.0000 </r>
       <r>    2.0825    1.0000 </r>
       <r>    2.3769    1.0000 </r>
       <r>    2.4133    1.0000 </r>
       <r>    2.5811    1.0000 </r>
       <r>    2.7301    1.0000 </r>
       <r>    2.7884    1.0000 </r>
       <r>    3.4213    1.0000 </r>
       <r>    3.4433    1.0000 </r>
       <r>    3.8069    1.0000 </r>
       <r>    3.9373    1.0000 </r>
       <r>    4.0493    1.0000 </r>
       <r>    4.1645    1.0000 </r>
       <r>    4.2316    1.0000 </r>
       <r>    4.2939    1.0000 </r>
       <r>    4.4339    1.0000 </r>
       <r>    4.4775    1.0000 </r>
       <r>    4.6019    1.0000 </r>
       <r>    4.8226    1.0000 </r>
       <r>    4.8457    1.0000 </r>
       <r>    4.9765    1.0000 </r>
       <r>    5.1117    1.0000 </r>
       <r>    5.1171    1.0000 </r>
       <r>    5.3465    1.0000 </r>
       <r>    5.5519    1.0000 </r>
       <r>    5.6211    1.0000 </r>
       <r>    5.6377    1.0000 </r>
       <r>    5.9065    1.0000 </r>
       <r>    6.0045    1.0000 </r>
       <r>    6.1340    1.0000 </r>
       <r>    6.4168    1.0000 </r>
       <r>    6.8827    1.0000 </r>
       <r>    7.1303    1.0000 </r>
       <r>   10.6465    0.0000 </r>
       <r>   13.7436    0.0000 </r>
       <r>   17.1806    0.0000 </r>
       <r>   17.9608    0.0000 </r>
       <r>   18.2379    0.0000 </r>
      </set>
[...]
       <r>    5.7197    1.0000 </r>
       <r>    5.8841    1.0000 </r>
       <r>    5.9756    1.0000 </r>
       <r>    5.9935    1.0000 </r>
       <r>    6.0894    1.0000 </r>
       <r>    6.6918    1.0000 </r>
       <r>    6.7169    1.0000 </r>
       <r>    6.7418    1.0000 </r>
       <r>    6.7579    1.0000 </r>
       <r>    9.9594    0.0000 </r>
       <r>   10.1998    0.0000 </r>
       <r>   10.8360    0.0000 </r>
       <r>   11.0196    0.0000 </r>
       <r>   12.3494    0.0000 </r>
       <r>   12.9988    0.0000 </r>
       <r>   13.7377    0.0000 </r>
       <r>   13.9763    0.0000 </r>
       <r>   14.2704    0.0000 </r>
       <r>   14.5791    0.0000 </r>
      </set>
      <set comment="kpoint 363">
       <r>    2.0779    1.0000 </r>
       <r>    2.0798    1.0000 </r>
       <r>    2.1913    1.0000 </r>
       <r>    2.2273    1.0000 </r>
       <r>    2.3287    1.0000 </r>
       <r>    2.3367    1.0000 </r>
       <r>    2.4127    1.0000 </r>
       <r>    2.4138    1.0000 </r>
       <r>    2.8131    1.0000 </r>
       <r>    2.8905    1.0000 </r>
       <r>    3.4987    1.0000 </r>
       <r>    3.5529    1.0000 </r>
       <r>    3.5580    1.0000 </r>
       <r>    3.6167    1.0000 </r>
       <r>    4.8624    1.0000 </r>
       <r>    5.2343    1.0000 </r>
       <r>    5.4742    1.0000 </r>
       <r>    5.4947    1.0000 </r>
       <r>    5.5155    1.0000 </r>
       <r>    5.6288    1.0000 </r>
       <r>    5.7270    1.0000 </r>
       <r>    5.7364    1.0000 </r>
       <r>    5.8651    1.0000 </r>
       <r>    5.9644    1.0000 </r>
       <r>    6.0059    1.0000 </r>
       <r>    6.0878    1.0000 </r>
       <r>    6.7680    1.0000 </r>
       <r>    6.7700    1.0000 </r>
       <r>    6.7860    1.0000 </r>
       <r>    6.7911    1.0000 </r>
       <r>   10.4601    0.0000 </r>
       <r>   10.4871    0.0000 </r>
       <r>   10.6423    0.0000 </r>
       <r>   10.7411    0.0000 </r>
       <r>   12.7364    0.0000 </r>
       <r>   13.3466    0.0000 </r>
       <r>   13.6235    0.0000 </r>
       <r>   13.8021    0.0000 </r>
       <r>   13.9319    0.0000 </r>
       <r>   14.4692    0.0000 </r>
      </set>
      <set comment="kpoint 364">
       <r>    2.0619    1.0000 </r>
       <r>    2.0639    1.0000 </r>
       <r>    2.1777    1.0000 </r>
       <r>    2.2256    1.0000 </r>
       <r>    2.3075    1.0000 </r>
       <r>    2.3075    1.0000 </r>
       <r>    2.3963    1.0000 </r>
       <r>    2.3963    1.0000 </r>
       <r>    2.7928    1.0000 </r>
       <r>    2.8740    1.0000 </r>
       <r>    3.5337    1.0000 </r>
       <r>    3.5337    1.0000 </r>
       <r>    3.5939    1.0000 </r>
       <r>    3.5939    1.0000 </r>
       <r>    4.8580    1.0000 </r>
       <r>    5.2274    1.0000 </r>
       <r>    5.4924    1.0000 </r>
       <r>    5.5440    1.0000 </r>
       <r>    5.5440    1.0000 </r>
       <r>    5.7383    1.0000 </r>
       <r>    5.7387    1.0000 </r>
       <r>    5.7995    1.0000 </r>
       <r>    5.7995    1.0000 </r>
       <r>    5.9481    1.0000 </r>
       <r>    6.0087    1.0000 </r>
       <r>    6.0955    1.0000 </r>
       <r>    6.8262    1.0000 </r>
       <r>    6.8303    1.0000 </r>
       <r>    6.8310    1.0000 </r>
       <r>    6.8450    1.0000 </r>
       <r>   10.6021    0.0000 </r>
       <r>   10.6021    0.0000 </r>
       <r>   10.8217    0.0000 </r>
       <r>   10.8217    0.0000 </r>
       <r>   13.1696    0.0000 </r>
       <r>   13.3759    0.0000 </r>
       <r>   13.4511    0.0000 </r>
       <r>   13.6218    0.0000 </r>
       <r>   14.1112    0.0000 </r>
       <r>   14.1112    0.0000 </r>
      </set>
     </set>
    </set>
   </array>
  </eigenvalues>
  <separator name="orbital magnetization" >
   <v name="MAGDIPOLOUT">      0.00000000      0.00000000      0.00000000</v>
  </separator>
  <dos>
   <i name="efermi">      8.39920269 </i>
   <total>
    <array>
     <dimension dim="1">gridpoints</dimension>
     <dimension dim="2">spin</dimension>
     <field>energy</field>
     <field>total</field>
     <field>integrated</field>
     <set>
      <set comment="spin 1">
       <r>    -3.5166     0.0000     0.0000 </r>
       <r>    -3.4292     0.0000     0.0000 </r>
       <r>    -3.3418     0.0000     0.0000 </r>
       <r>    -3.2544     0.0000     0.0000 </r>
       <r>    -3.1670     0.0000     0.0000 </r>
       <r>    -3.0795     0.0000     0.0000 </r>
       <r>    -2.9921     0.0000     0.0000 </r>
       <r>    -2.9047     0.0000     0.0000 </r>
       <r>    -2.8173     0.0000     0.0000 </r>
       <r>    -2.7298     0.0000     0.0000 </r>
       <r>    -2.6424     0.0000     0.0000 </r>
       <r>    -2.5550     0.0000     0.0000 </r>
       <r>    -2.4676     0.0000     0.0000 </r>
       <r>    -2.3802     0.0000     0.0000 </r>
       <r>    -2.2927     0.0000     0.0000 </r>
       <r>    -2.2053     0.0000     0.0000 </r>
       <r>    -2.1179     0.0000     0.0000 </r>
       <r>    -2.0305     0.0000     0.0000 </r>
       <r>    -1.9431     0.0000     0.0000 </r>
       <r>    -1.8556     0.0000     0.0000 </r>
       <r>    -1.7682     0.0000     0.0000 </r>
       <r>    -1.6808     0.0000     0.0000 </r>
       <r>    -1.5934     0.0000     0.0000 </r>
       <r>    -1.5059     0.0000     0.0000 </r>
       <r>    -1.4185     0.0000     0.0000 </r>
       <r>    -1.3311     0.0000     0.0000 </r>
       <r>    -1.2437    -0.0001     0.0000 </r>
       <r>    -1.1563    -0.0005    -0.0001 </r>
       <r>    -1.0688    -0.0016    -0.0002 </r>
       <r>    -0.9814    -0.0039    -0.0006 </r>
       <r>    -0.8940    -0.0074    -0.0012 </r>
       <r>    -0.8066    -0.0096    -0.0020 </r>
       <r>    -0.7191    -0.0044    -0.0024 </r>
       <r>    -0.6317     0.0168    -0.0010 </r>
       <r>    -0.5443     0.0603     0.0043 </r>
       <r>    -0.4569     0.1230     0.0151 </r>
       <r>    -0.3695     0.1912     0.0318 </r>
       <r>    -0.2820     0.2479     0.0535 </r>
       <r>    -0.1946     0.2830     0.0782 </r>
       <r>    -0.1072     0.2988     0.1043 </r>
       <r>    -0.0198     0.3064     0.1311 </r>
       <r>     0.0677     0.3187     0.1590 </r>
       <r>     0.1551     0.3441     0.1890 </r>
       <r>     0.2425     0.3850     0.2227 </r>
       <r>     0.3299     0.4385     0.2610 </r>
       <r>     0.4173     0.4970     0.3045 </r>
       <r>     0.5048     0.5528     0.3528 </r>
       <r>     0.5922     0.6024     0.4055 </r>
       <r>     0.6796     0.6473     0.4621 </r>
       <r>     0.7670     0.6903     0.5224 </r>
       <r>     0.8544     0.7338     0.5866 </r>
       <r>     0.9419     0.7824     0.6550 </r>
       <r>     1.0293     0.8400     0.7284 </r>
       <r>     1.1167     0.9064     0.8076 </r>
       <r>     1.2041     0.9783     0.8932 </r>
       <r>     1.2916     1.0591     0.9857 </r>
       <r>     1.3790     1.1719     1.0882 </r>
       <r>     1.4664     1.3633     1.2074 </r>
       <r>     1.5538     1.6869     1.3548 </r>
       <r>     1.6412     2.1609     1.5438 </r>
       <r>     1.7287     2.7348     1.7828 </r>
       <r>     1.8161     3.3205     2.0731 </r>
       <r>     1.9035     3.8865     2.4129 </r>
       <r>     1.9909     4.5283     2.8088 </r>
       <r>     2.0784     5.4224     3.2828 </r>
       <r>     2.1658     6.6881     3.8675 </r>
       <r>     2.2532     8.2792     4.5913 </r>
       <r>     2.3406     9.9979     5.4653 </r>
       <r>     2.4280    11.5919     6.4787 </r>
       <r>     2.5155    12.8401     7.6012 </r>
       <r>     2.6029    13.5895     8.7892 </r>
       <r>     2.6903    13.7733     9.9933 </r>
       <r>     2.7777    13.4282    11.1672 </r>
       <r>     2.8652    12.6949    12.2770 </r>
       <r>     2.9526    11.8025    13.3088 </r>
       <r>     3.0400    11.0420    14.2741 </r>
       <r>     3.1274    10.7012    15.2096 </r>
       <r>     3.2148    10.9405    16.1661 </r>
       <r>     3.3023    11.6837    17.1875 </r>
       <r>     3.3897    12.6372    18.2923 </r>
       <r>     3.4771    13.4601    19.4690 </r>
       <r>     3.5645    13.9683    20.6901 </r>
       <r>     3.6520    14.2419    21.9351 </r>
       <r>     3.7394    14.5835    23.2101 </r>
       <r>     3.8268    15.3497    24.5520 </r>
       <r>     3.9142    16.7059    26.0124 </r>
       <r>     4.0016    18.4099    27.6219 </r>
       <r>     4.0891    19.8120    29.3539 </r>
       <r>     4.1765    20.1874    31.1187 </r>
       <r>     4.2639    19.2364    32.8004 </r>
       <r>     4.3513    17.3426    34.3165 </r>
       <r>     4.4387    15.3317    35.6568 </r>
       <r>     4.5262    13.9282    36.8744 </r>
       <r>     4.6136    13.3681    38.0431 </r>
       <r>     4.7010    13.4230    39.2166 </r>
       <r>     4.7884    13.7022    40.4144 </r>
       <r>     4.8759    13.9309    41.6323 </r>
       <r>     4.9633    14.0263    42.8585 </r>
       <r>     5.0507    14.0030    44.0827 </r>
       <r>     5.1381    13.8632    45.2946 </r>
       <r>     5.2255    13.5913    46.4828 </r>
       <r>     5.3130    13.2386    47.6401 </r>
       <r>     5.4004    12.9561    48.7728 </r>
       <r>     5.4878    12.8955    49.9001 </r>
       <r>     5.5752    13.0761    51.0433 </r>
       <r>     5.6627    13.3874    52.2136 </r>
       <r>     5.7501    13.7129    53.4124 </r>
       <r>     5.8375    13.9946    54.6359 </r>
       <r>     5.9249    14.1757    55.8751 </r>
       <r>     6.0123    14.1578    57.1128 </r>
       <r>     6.0998    13.8453    58.3232 </r>
       <r>     6.1872    13.1655    59.4742 </r>
       <r>     6.2746    12.0198    60.5250 </r>
       <r>     6.3620    10.3142    61.4266 </r>
       <r>     6.4495     8.1320    62.1376 </r>
       <r>     6.5369     5.8348    62.6476 </r>
       <r>     6.6243     3.8991    62.9885 </r>
       <r>     6.7117     2.6190    63.2175 </r>
       <r>     6.7991     1.9706    63.3897 </r>
       <r>     6.8866     1.7251    63.5406 </r>
       <r>     6.9740     1.6445    63.6843 </r>
       <r>     7.0614     1.5940    63.8237 </r>
       <r>     7.1488     1.5450    63.9587 </r>
       <r>     7.2362     1.5237    64.0920 </r>
       <r>     7.3237     1.5497    64.2274 </r>
       <r>     7.4111     1.6052    64.3678 </r>
       <r>     7.4985     1.6499    64.5120 </r>
       <r>     7.5859     1.6587    64.6570 </r>
       <r>     7.6734     1.6360    64.8000 </r>
       <r>     7.7608     1.6019    64.9401 </r>
       <r>     7.8482     1.5756    65.0778 </r>
       <r>     7.9356     1.5742    65.2154 </r>
       <r>     8.0230     1.6077    65.3560 </r>
       <r>     8.1105     1.6673    65.5017 </r>
       <r>     8.1979     1.7234    65.6524 </r>
       <r>     8.2853     1.7452    65.8050 </r>
       <r>     8.3727     1.7207    65.9554 </r>
       <r>     8.4602     1.6614    66.1006 </r>
       <r>     8.5476     1.5969    66.2402 </r>
       <r>     8.6350     1.5672    66.3772 </r>
       <r>     8.7224     1.6005    66.5172 </r>
       <r>     8.8098     1.6845    66.6644 </r>
       <r>     8.8973     1.7650    66.8187 </r>
       <r>     8.9847     1.7880    66.9750 </r>
       <r>     9.0721     1.7438    67.1275 </r>
       <r>     9.1595     1.6676    67.2733 </r>
       <r>     9.2470     1.6019    67.4133 </r>
       <r>     9.3344     1.5659    67.5502 </r>
       <r>     9.4218     1.5587    67.6865 </r>
       <r>     9.5092     1.5772    67.8243 </r>
       <r>     9.5966     1.6195    67.9659 </r>
       <r>     9.6841     1.6740    68.1123 </r>
       <r>     9.7715     1.7135    68.2621 </r>
       <r>     9.8589     1.7124    68.4118 </r>
       <r>     9.9463     1.6690    68.5577 </r>
       <r>    10.0337     1.6066    68.6981 </r>
       <r>    10.1212     1.5506    68.8337 </r>
       <r>    10.2086     1.5128    68.9659 </r>
       <r>    10.2960     1.4957    69.0967 </r>
       <r>    10.3834     1.4982    69.2277 </r>
       <r>    10.4709     1.5098    69.3597 </r>
       <r>    10.5583     1.5126    69.4919 </r>
       <r>    10.6457     1.4992    69.6230 </r>
       <r>    10.7331     1.4835    69.7526 </r>
       <r>    10.8205     1.4857    69.8825 </r>
       <r>    10.9080     1.5137    70.0149 </r>
       <r>    10.9954     1.5645    70.1516 </r>
       <r>    11.0828     1.6334    70.2944 </r>
       <r>    11.1702     1.7125    70.4441 </r>
       <r>    11.2577     1.7852    70.6002 </r>
       <r>    11.3451     1.8325    70.7604 </r>
       <r>    11.4325     1.8452    70.9217 </r>
       <r>    11.5199     1.8292    71.0816 </r>
       <r>    11.6073     1.8007    71.2391 </r>
       <r>    11.6948     1.7813    71.3948 </r>
       <r>    11.7822     1.7886    71.5511 </r>
       <r>    11.8696     1.8253    71.7107 </r>
       <r>    11.9570     1.8787    71.8749 </r>
       <r>    12.0445     1.9324    72.0439 </r>
       <r>    12.1319     1.9764    72.2167 </r>
       <r>    12.2193     2.0013    72.3916 </r>
       <r>    12.3067     1.9941    72.5660 </r>
       <r>    12.3941     1.9457    72.7361 </r>
       <r>    12.4816     1.8647    72.8991 </r>
       <r>    12.5690     1.7795    73.0546 </r>
       <r>    12.6564     1.7231    73.2053 </r>
       <r>    12.7438     1.7099    73.3548 </r>
       <r>    12.8312     1.7280    73.5058 </r>
       <r>    12.9187     1.7555    73.6593 </r>
       <r>    13.0061     1.7838    73.8152 </r>
       <r>    13.0935     1.8173    73.9741 </r>
       <r>    13.1809     1.8526    74.1361 </r>
       <r>    13.2684     1.8733    74.2998 </r>
       <r>    13.3558     1.8750    74.4637 </r>
       <r>    13.4432     1.8839    74.6284 </r>
       <r>    13.5306     1.9350    74.7976 </r>
       <r>    13.6180     2.0322    74.9753 </r>
       <r>    13.7055     2.1433    75.1626 </r>
       <r>    13.7929     2.2360    75.3581 </r>
       <r>    13.8803     2.3037    75.5595 </r>
       <r>    13.9677     2.3469    75.7647 </r>
       <r>    14.0552     2.3463    75.9698 </r>
       <r>    14.1426     2.2732    76.1685 </r>
       <r>    14.2300     2.1267    76.3545 </r>
       <r>    14.3174     1.9465    76.5246 </r>
       <r>    14.4048     1.7846    76.6806 </r>
       <r>    14.4923     1.6720    76.8268 </r>
       <r>    14.5797     1.6128    76.9678 </r>
       <r>    14.6671     1.6004    77.1077 </r>
       <r>    14.7545     1.6228    77.2496 </r>
       <r>    14.8420     1.6527    77.3941 </r>
       <r>    14.9294     1.6438    77.5378 </r>
       <r>    15.0168     1.5547    77.6737 </r>
       <r>    15.1042     1.3856    77.7948 </r>
       <r>    15.1916     1.1926    77.8991 </r>
       <r>    15.2791     1.0556    77.9913 </r>
       <r>    15.3665     1.0229    78.0808 </r>
       <r>    15.4539     1.0808    78.1753 </r>
       <r>    15.5413     1.1697    78.2775 </r>
       <r>    15.6287     1.2285    78.3849 </r>
       <r>    15.7162     1.2266    78.4921 </r>
       <r>    15.8036     1.1646    78.5940 </r>
       <r>    15.8910     1.0575    78.6864 </r>
       <r>    15.9784     0.9224    78.7670 </r>
       <r>    16.0659     0.7790    78.8351 </r>
       <r>    16.1533     0.6529    78.8922 </r>
       <r>    16.2407     0.5739    78.9424 </r>
       <r>    16.3281     0.5597    78.9913 </r>
       <r>    16.4155     0.5967    79.0435 </r>
       <r>    16.5030     0.6398    79.0994 </r>
       <r>    16.5904     0.6424    79.1556 </r>
       <r>    16.6778     0.5913    79.2073 </r>
       <r>    16.7652     0.5106    79.2519 </r>
       <r>    16.8527     0.4373    79.2901 </r>
       <r>    16.9401     0.3945    79.3246 </r>
       <r>    17.0275     0.3858    79.3584 </r>
       <r>    17.1149     0.4032    79.3936 </r>
       <r>    17.2023     0.4339    79.4315 </r>
       <r>    17.2898     0.4611    79.4718 </r>
       <r>    17.3772     0.4654    79.5125 </r>
       <r>    17.4646     0.4340    79.5505 </r>
       <r>    17.5520     0.3710    79.5829 </r>
       <r>    17.6395     0.2998    79.6091 </r>
       <r>    17.7269     0.2508    79.6310 </r>
       <r>    17.8143     0.2421    79.6522 </r>
       <r>    17.9017     0.2671    79.6755 </r>
       <r>    17.9891     0.3016    79.7019 </r>
       <r>    18.0766     0.3217    79.7300 </r>
       <r>    18.1640     0.3182    79.7578 </r>
       <r>    18.2514     0.2980    79.7839 </r>
       <r>    18.3388     0.2752    79.8080 </r>
       <r>    18.4262     0.2609    79.8308 </r>
       <r>    18.5137     0.2572    79.8533 </r>
       <r>    18.6011     0.2593    79.8759 </r>
       <r>    18.6885     0.2611    79.8988 </r>
       <r>    18.7759     0.2580    79.9213 </r>
       <r>    18.8634     0.2445    79.9427 </r>
       <r>    18.9508     0.2154    79.9615 </r>
       <r>    19.0382     0.1709    79.9765 </r>
       <r>    19.1256     0.1184    79.9868 </r>
       <r>    19.2130     0.0695    79.9929 </r>
       <r>    19.3005     0.0339    79.9958 </r>
       <r>    19.3879     0.0147    79.9971 </r>
       <r>    19.4753     0.0082    79.9978 </r>
       <r>    19.5627     0.0076    79.9985 </r>
       <r>    19.6502     0.0076    79.9992 </r>
       <r>    19.7376     0.0060    79.9997 </r>
       <r>    19.8250     0.0035    80.0000 </r>
       <r>    19.9124     0.0012    80.0001 </r>
       <r>    19.9998    -0.0001    80.0001 </r>
       <r>    20.0873    -0.0005    80.0001 </r>
       <r>    20.1747    -0.0004    80.0000 </r>
       <r>    20.2621    -0.0002    80.0000 </r>
       <r>    20.3495    -0.0001    80.0000 </r>
       <r>    20.4370     0.0000    80.0000 </r>
       <r>    20.5244     0.0000    80.0000 </r>
       <r>    20.6118     0.0000    80.0000 </r>
       <r>    20.6992     0.0000    80.0000 </r>
       <r>    20.7866     0.0000    80.0000 </r>
       <r>    20.8741     0.0000    80.0000 </r>
       <r>    20.9615     0.0000    80.0000 </r>
       <r>    21.0489     0.0000    80.0000 </r>
       <r>    21.1363     0.0000    80.0000 </r>
       <r>    21.2237     0.0000    80.0000 </r>
       <r>    21.3112     0.0000    80.0000 </r>
       <r>    21.3986     0.0000    80.0000 </r>
       <r>    21.4860     0.0000    80.0000 </r>
       <r>    21.5734     0.0000    80.0000 </r>
       <r>    21.6609     0.0000    80.0000 </r>
       <r>    21.7483     0.0000    80.0000 </r>
       <r>    21.8357     0.0000    80.0000 </r>
       <r>    21.9231     0.0000    80.0000 </r>
       <r>    22.0105     0.0000    80.0000 </r>
       <r>    22.0980     0.0000    80.0000 </r>
       <r>    22.1854     0.0000    80.0000 </r>
       <r>    22.2728     0.0000    80.0000 </r>
       <r>    22.3602     0.0000    80.0000 </r>
       <r>    22.4477     0.0000    80.0000 </r>
       <r>    22.5351     0.0000    80.0000 </r>
       <r>    22.6225     0.0000    80.0000 </r>
       <r>    22.7099     0.0000    80.0000 </r>
      </set>
     </set>
    </array>
   </total>
  </dos>
 </calculation>
 <structure name="finalpos" >
  <crystal>
   <varray name="basis" >
    <v>       0.00000000       2.05859274      -2.05859274 </v>
    <v>       0.00000000      -2.05859274      -2.05859274 </v>
    <v>     -12.62937380       0.00000000       0.00000000 </v>
   </varray>
   <i name="volume">    107.04162368 </i>
   <varray name="rec_basis" >
    <v>       0.00000000       0.24288437      -0.24288437 </v>
    <v>       0.00000000      -0.24288437      -0.24288437 </v>
    <v>      -0.07918049       0.00000000       0.00000000 </v>
   </varray>
  </crystal>
  <varray name="positions" >
   <v>       0.50000000       0.50000000       0.49988140 </v>
   <v>       0.50000000       0.50000000       0.16678527 </v>
   <v>       0.00000000       0.00000000       0.00138033 </v>
   <v>       0.50000000       0.50000000       0.83333333 </v>
   <v>       0.00000000       0.00000000       0.66528633 </v>
   <v>       0.00000000       0.00000000       0.33333333 </v>
  </varray>
 </structure>
</modeling>
