<?xml version="1.0" encoding="ISO-8859-1"?>
<modeling>
 <generator>
  <i name="program" type="string">vasp </i>
  <i name="version" type="string">5.3.5  </i>
  <i name="subversion" type="string">31Mar14 (build Jun 20 2014 13:15:13) complex                          parallel </i>
  <i name="platform" type="string">LinuxIFC </i>
  <i name="date" type="string">2025 11 21 </i>
  <i name="time" type="string">13:10:04 </i>
 </generator>
 <incar>
  <i type="string" name="PREC">accurate</i>
  <i type="int" name="IALGO">    68</i>
  <i type="logical" name="ADDGRID"> T  </i>
  <i type="int" name="NELM">   100</i>
  <i type="int" name="NELMIN">     4</i>
  <i type="int" name="IBRION">     2</i>
  <i name="EDIFF">      0.00000100</i>
  <i name="EDIFFG">     -0.02000000</i>
  <i type="int" name="NSW">    30</i>
  <i type="int" name="ISIF">     3</i>
  <i name="ENCUT">    500.00000000</i>
  <i type="logical" name="LREAL"> F  </i>
  <i type="int" name="ISMEAR">     1</i>
  <i name="SIGMA">      0.30000000</i>
  <i type="logical" name="LWAVE"> F  </i>
  <i type="logical" name="LCHARG"> F  </i>
  <i type="int" name="NELM">   100</i>
 </incar>
 <kpoints>
  <generation param="Auto">
   <i name="subdivisionlength">     70.00000000 </i>
   <v type="int" name="divisions">      26       15        9 </v>
   <v name="usershift">      0.00000000       0.00000000       0.00000000 </v>
   <v name="genvec1">      0.03846154       0.00000000       0.00000000 </v>
   <v name="genvec2">      0.00000000       0.06666667       0.00000000 </v>
   <v name="genvec3">      0.00000000       0.00000000       0.11111111 </v>
   <v name="shift">      0.00000000       0.00000000       0.00000000 </v>
  </generation>
  <varray name="kpointlist" >
   <v>       0.00000000       0.00000000       0.00000000 </v>
   <v>       0.03846154       0.00000000       0.00000000 </v>
   <v>       0.07692308       0.00000000       0.00000000 </v>
   <v>       0.11538462       0.00000000       0.00000000 </v>
   <v>       0.15384615       0.00000000       0.00000000 </v>
   <v>       0.19230769       0.00000000       0.00000000 </v>
   <v>       0.23076923       0.00000000       0.00000000 </v>
   <v>       0.26923077       0.00000000       0.00000000 </v>
   <v>       0.30769231       0.00000000       0.00000000 </v>
   <v>       0.34615385       0.00000000       0.00000000 </v>
   <v>       0.38461538       0.00000000       0.00000000 </v>
   <v>       0.42307692       0.00000000       0.00000000 </v>
   <v>       0.46153846       0.00000000       0.00000000 </v>
   <v>       0.50000000       0.00000000       0.00000000 </v>
   <v>       0.00000000       0.06666667       0.00000000 </v>
   <v>       0.03846154       0.06666667       0.00000000 </v>
   <v>       0.07692308       0.06666667       0.00000000 </v>
   <v>       0.11538462       0.06666667       0.00000000 </v>
   <v>       0.15384615       0.06666667       0.00000000 </v>
   <v>       0.19230769       0.06666667       0.00000000 </v>
   <v>       0.23076923       0.06666667       0.00000000 </v>
   <v>       0.26923077       0.06666667       0.00000000 </v>
   <v>       0.30769231       0.06666667       0.00000000 </v>
   <v>       0.34615385       0.06666667       0.00000000 </v>
   <v>       0.38461538       0.06666667       0.00000000 </v>
   <v>       0.42307692       0.06666667       0.00000000 </v>
   <v>       0.46153846       0.06666667       0.00000000 </v>
   <v>       0.50000000       0.06666667       0.00000000 </v>
   <v>      -0.46153846       0.06666667       0.00000000 </v>
   <v>      -0.42307692       0.06666667       0.00000000 </v>
   <v>      -0.38461538       0.06666667       0.00000000 </v>
   <v>      -0.34615385       0.06666667       0.00000000 </v>
   <v>      -0.30769231       0.06666667       0.00000000 </v>
   <v>      -0.26923077       0.06666667       0.00000000 </v>
   <v>      -0.23076923       0.06666667       0.00000000 </v>
   <v>      -0.19230769       0.06666667       0.00000000 </v>
   <v>      -0.15384615       0.06666667       0.00000000 </v>
   <v>      -0.11538462       0.06666667       0.00000000 </v>
   <v>      -0.07692308       0.06666667       0.00000000 </v>
   <v>      -0.03846154       0.06666667       0.00000000 </v>
   <v>       0.00000000       0.13333333       0.00000000 </v>
   <v>       0.03846154       0.13333333       0.00000000 </v>
   <v>       0.07692308       0.13333333       0.00000000 </v>
   <v>       0.11538462       0.13333333       0.00000000 </v>
   <v>       0.15384615       0.13333333       0.00000000 </v>
   <v>       0.19230769       0.13333333       0.00000000 </v>
   <v>       0.23076923       0.13333333       0.00000000 </v>
   <v>       0.26923077       0.13333333       0.00000000 </v>
   <v>       0.30769231       0.13333333       0.00000000 </v>
   <v>       0.34615385       0.13333333       0.00000000 </v>
   <v>       0.38461538       0.13333333       0.00000000 </v>
   <v>       0.42307692       0.13333333       0.00000000 </v>
   <v>       0.46153846       0.13333333       0.00000000 </v>
   <v>       0.50000000       0.13333333       0.00000000 </v>
   <v>      -0.46153846       0.13333333       0.00000000 </v>
   <v>      -0.42307692       0.13333333       0.00000000 </v>
   <v>      -0.38461538       0.13333333       0.00000000 </v>
   <v>      -0.34615385       0.13333333       0.00000000 </v>
   <v>      -0.30769231       0.13333333       0.00000000 </v>
   <v>      -0.26923077       0.13333333       0.00000000 </v>
   <v>      -0.23076923       0.13333333       0.00000000 </v>
   <v>      -0.19230769       0.13333333       0.00000000 </v>
   <v>      -0.15384615       0.13333333       0.00000000 </v>
   <v>      -0.11538462       0.13333333       0.00000000 </v>
   <v>      -0.07692308       0.13333333       0.00000000 </v>
   <v>      -0.03846154       0.13333333       0.00000000 </v>
   <v>       0.00000000       0.20000000       0.00000000 </v>
   <v>       0.03846154       0.20000000       0.00000000 </v>
   <v>       0.07692308       0.20000000       0.00000000 </v>
   <v>       0.11538462       0.20000000       0.00000000 </v>
   <v>       0.15384615       0.20000000       0.00000000 </v>
   <v>       0.19230769       0.20000000       0.00000000 </v>
   <v>       0.23076923       0.20000000       0.00000000 </v>
   <v>       0.26923077       0.20000000       0.00000000 </v>
   <v>       0.30769231       0.20000000       0.00000000 </v>
   <v>       0.34615385       0.20000000       0.00000000 </v>
   <v>       0.38461538       0.20000000       0.00000000 </v>
   <v>       0.42307692       0.20000000       0.00000000 </v>
   <v>       0.46153846       0.20000000       0.00000000 </v>
   <v>       0.50000000       0.20000000       0.00000000 </v>
   <v>      -0.46153846       0.20000000       0.00000000 </v>
   <v>      -0.42307692       0.20000000       0.00000000 </v>
   <v>      -0.38461538       0.20000000       0.00000000 </v>
   <v>      -0.34615385       0.20000000       0.00000000 </v>
   <v>      -0.30769231       0.20000000       0.00000000 </v>
   <v>      -0.26923077       0.20000000       0.00000000 </v>
   <v>      -0.23076923       0.20000000       0.00000000 </v>
   <v>      -0.19230769       0.20000000       0.00000000 </v>
   <v>      -0.15384615       0.20000000       0.00000000 </v>
   <v>      -0.11538462       0.20000000       0.00000000 </v>
   <v>      -0.07692308       0.20000000       0.00000000 </v>
   <v>      -0.03846154       0.20000000       0.00000000 </v>
   <v>       0.00000000       0.26666667       0.00000000 </v>
   <v>       0.03846154       0.26666667       0.00000000 </v>
   <v>       0.07692308       0.26666667       0.00000000 </v>
   <v>       0.11538462       0.26666667       0.00000000 </v>
   <v>       0.15384615       0.26666667       0.00000000 </v>
   <v>       0.19230769       0.26666667       0.00000000 </v>
   <v>       0.23076923       0.26666667       0.00000000 </v>
   <v>       0.26923077       0.26666667       0.00000000 </v>
   <v>       0.30769231       0.26666667       0.00000000 </v>
   <v>       0.34615385       0.26666667       0.00000000 </v>
   <v>       0.38461538       0.26666667       0.00000000 </v>
   <v>       0.42307692       0.26666667       0.00000000 </v>
   <v>       0.46153846       0.26666667       0.00000000 </v>
   <v>       0.50000000       0.26666667       0.00000000 </v>
   <v>      -0.46153846       0.26666667       0.00000000 </v>
   <v>      -0.42307692       0.26666667       0.00000000 </v>
   <v>      -0.38461538       0.26666667       0.00000000 </v>
   <v>      -0.34615385       0.26666667       0.00000000 </v>
   <v>      -0.30769231       0.26666667       0.00000000 </v>
   <v>      -0.26923077       0.26666667       0.00000000 </v>
   <v>      -0.23076923       0.26666667       0.00000000 </v>
   <v>      -0.19230769       0.26666667       0.00000000 </v>
   <v>      -0.15384615       0.26666667       0.00000000 </v>
   <v>      -0.11538462       0.26666667       0.00000000 </v>
   <v>      -0.07692308       0.26666667       0.00000000 </v>
   <v>      -0.03846154       0.26666667       0.00000000 </v>
   <v>       0.00000000       0.33333333       0.00000000 </v>
   <v>       0.03846154       0.33333333       0.00000000 </v>
   <v>       0.07692308       0.33333333       0.00000000 </v>
   <v>       0.11538462       0.33333333       0.00000000 </v>
   <v>       0.15384615       0.33333333       0.00000000 </v>
   <v>       0.19230769       0.33333333       0.00000000 </v>
   <v>       0.23076923       0.33333333       0.00000000 </v>
   <v>       0.26923077       0.33333333       0.00000000 </v>
   <v>       0.30769231       0.33333333       0.00000000 </v>
   <v>       0.34615385       0.33333333       0.00000000 </v>
   <v>       0.38461538       0.33333333       0.00000000 </v>
   <v>       0.42307692       0.33333333       0.00000000 </v>
   <v>       0.46153846       0.33333333       0.00000000 </v>
   <v>       0.50000000       0.33333333       0.00000000 </v>
   <v>      -0.46153846       0.33333333       0.00000000 </v>
   <v>      -0.42307692       0.33333333       0.00000000 </v>
   <v>      -0.38461538       0.33333333       0.00000000 </v>
   <v>      -0.34615385       0.33333333       0.00000000 </v>
   <v>      -0.30769231       0.33333333       0.00000000 </v>
   <v>      -0.26923077       0.33333333       0.00000000 </v>
   <v>      -0.23076923       0.33333333       0.00000000 </v>
   <v>      -0.19230769       0.33333333       0.00000000 </v>
   <v>      -0.15384615       0.33333333       0.00000000 </v>
   <v>      -0.11538462       0.33333333       0.00000000 </v>
   <v>      -0.07692308       0.33333333       0.00000000 </v>
   <v>      -0.03846154       0.33333333       0.00000000 </v>
   <v>       0.00000000       0.40000000       0.00000000 </v>
   <v>       0.03846154       0.40000000       0.00000000 </v>
   <v>       0.07692308       0.40000000       0.00000000 </v>
   <v>       0.11538462       0.40000000       0.00000000 </v>
   <v>       0.15384615       0.40000000       0.00000000 </v>
   <v>       0.19230769       0.40000000       0.00000000 </v>
   <v>       0.23076923       0.40000000       0.00000000 </v>
   <v>       0.26923077       0.40000000       0.00000000 </v>
   <v>       0.30769231       0.40000000       0.00000000 </v>
   <v>       0.34615385       0.40000000       0.00000000 </v>
   <v>       0.38461538       0.40000000       0.00000000 </v>
   <v>       0.42307692       0.40000000       0.00000000 </v>
   <v>       0.46153846       0.40000000       0.00000000 </v>
   <v>       0.50000000       0.40000000       0.00000000 </v>
   <v>      -0.46153846       0.40000000       0.00000000 </v>
   <v>      -0.42307692       0.40000000       0.00000000 </v>
   <v>      -0.38461538       0.40000000       0.00000000 </v>
   <v>      -0.34615385       0.40000000       0.00000000 </v>
   <v>      -0.30769231       0.40000000       0.00000000 </v>
   <v>      -0.26923077       0.40000000       0.00000000 </v>
   <v>      -0.23076923       0.40000000       0.00000000 </v>
   <v>      -0.19230769       0.40000000       0.00000000 </v>
   <v>      -0.15384615       0.40000000       0.00000000 </v>
   <v>      -0.11538462       0.40000000       0.00000000 </v>
   <v>      -0.07692308       0.40000000       0.00000000 </v>
   <v>      -0.03846154       0.40000000       0.00000000 </v>
   <v>       0.00000000       0.46666667       0.00000000 </v>
   <v>       0.03846154       0.46666667       0.00000000 </v>
   <v>       0.07692308       0.46666667       0.00000000 </v>
   <v>       0.11538462       0.46666667       0.00000000 </v>
   <v>       0.15384615       0.46666667       0.00000000 </v>
   <v>       0.19230769       0.46666667       0.00000000 </v>
   <v>       0.23076923       0.46666667       0.00000000 </v>
   <v>       0.26923077       0.46666667       0.00000000 </v>
   <v>       0.30769231       0.46666667       0.00000000 </v>
   <v>       0.34615385       0.46666667       0.00000000 </v>
   <v>       0.38461538       0.46666667       0.00000000 </v>
   <v>       0.42307692       0.46666667       0.00000000 </v>
   <v>       0.46153846       0.46666667       0.00000000 </v>
   <v>       0.50000000       0.46666667       0.00000000 </v>
   <v>      -0.46153846       0.46666667       0.00000000 </v>
   <v>      -0.42307692       0.46666667       0.00000000 </v>
   <v>      -0.38461538       0.46666667       0.00000000 </v>
   <v>      -0.34615385       0.46666667       0.00000000 </v>
   <v>      -0.30769231       0.46666667       0.00000000 </v>
   <v>      -0.26923077       0.46666667       0.00000000 </v>
   <v>      -0.23076923       0.46666667       0.00000000 </v>
   <v>      -0.19230769       0.46666667       0.00000000 </v>
   <v>      -0.15384615       0.46666667       0.00000000 </v>
   <v>      -0.11538462       0.46666667       0.00000000 </v>
   <v>      -0.07692308       0.46666667       0.00000000 </v>
   <v>      -0.03846154       0.46666667       0.00000000 </v>
   <v>       0.00000000       0.00000000       0.11111111 </v>
   <v>       0.03846154       0.00000000       0.11111111 </v>
   <v>       0.07692308       0.00000000       0.11111111 </v>
   <v>       0.11538462       0.00000000       0.11111111 </v>
   <v>       0.15384615       0.00000000       0.11111111 </v>
   <v>       0.19230769       0.00000000       0.11111111 </v>
   <v>       0.23076923       0.00000000       0.11111111 </v>
   <v>       0.26923077       0.00000000       0.11111111 </v>
   <v>       0.30769231       0.00000000       0.11111111 </v>
   <v>       0.34615385       0.00000000       0.11111111 </v>
   <v>       0.38461538       0.00000000       0.11111111 </v>
   <v>       0.42307692       0.00000000       0.11111111 </v>
   <v>       0.46153846       0.00000000       0.11111111 </v>
   <v>       0.50000000       0.00000000       0.11111111 </v>
   <v>      -0.46153846       0.00000000       0.11111111 </v>
   <v>      -0.42307692       0.00000000       0.11111111 </v>
   <v>      -0.38461538       0.00000000       0.11111111 </v>
   <v>      -0.34615385       0.00000000       0.11111111 </v>
   <v>      -0.30769231       0.00000000       0.11111111 </v>
   <v>      -0.26923077       0.00000000       0.11111111 </v>
   <v>      -0.23076923       0.00000000       0.11111111 </v>
   <v>      -0.19230769       0.00000000       0.11111111 </v>
   <v>      -0.15384615       0.00000000       0.11111111 </v>
   <v>      -0.11538462       0.00000000       0.11111111 </v>
   <v>      -0.07692308       0.00000000       0.11111111 </v>
   <v>      -0.03846154       0.00000000       0.11111111 </v>
   <v>       0.00000000       0.06666667       0.11111111 </v>
   <v>       0.03846154       0.06666667       0.11111111 </v>
   <v>       0.07692308       0.06666667       0.11111111 </v>
   <v>       0.11538462       0.06666667       0.11111111 </v>
   <v>       0.15384615       0.06666667       0.11111111 </v>
   <v>       0.19230769       0.06666667       0.11111111 </v>
   <v>       0.23076923       0.06666667       0.11111111 </v>
   <v>       0.26923077       0.06666667       0.11111111 </v>
   <v>       0.30769231       0.06666667       0.11111111 </v>
   <v>       0.34615385       0.06666667       0.11111111 </v>
   <v>       0.38461538       0.06666667       0.11111111 </v>
   <v>       0.42307692       0.06666667       0.11111111 </v>
   <v>       0.46153846       0.06666667       0.11111111 </v>
   <v>       0.50000000       0.06666667       0.11111111 </v>
   <v>      -0.46153846       0.06666667       0.11111111 </v>
   <v>      -0.42307692       0.06666667       0.11111111 </v>
   <v>      -0.38461538       0.06666667       0.11111111 </v>
   <v>      -0.34615385       0.06666667       0.11111111 </v>
   <v>      -0.30769231       0.06666667       0.11111111 </v>
   <v>      -0.26923077       0.06666667       0.11111111 </v>
   <v>      -0.23076923       0.06666667       0.11111111 </v>
   <v>      -0.19230769       0.06666667       0.11111111 </v>
   <v>      -0.15384615       0.06666667       0.11111111 </v>
   <v>      -0.11538462       0.06666667       0.11111111 </v>
   <v>      -0.07692308       0.06666667       0.11111111 </v>
   <v>      -0.03846154       0.06666667       0.11111111 </v>
   <v>       0.00000000       0.13333333       0.11111111 </v>
   <v>       0.03846154       0.13333333       0.11111111 </v>
   <v>       0.07692308       0.13333333       0.11111111 </v>
   <v>       0.11538462       0.13333333       0.11111111 </v>
   <v>       0.15384615       0.13333333       0.11111111 </v>
   <v>       0.19230769       0.13333333       0.11111111 </v>
   <v>       0.23076923       0.13333333       0.11111111 </v>
   <v>       0.26923077       0.13333333       0.11111111 </v>
   <v>       0.30769231       0.13333333       0.11111111 </v>
   <v>       0.34615385       0.13333333       0.11111111 </v>
   <v>       0.38461538       0.13333333       0.11111111 </v>
   <v>       0.42307692       0.13333333       0.11111111 </v>
   <v>       0.46153846       0.13333333       0.11111111 </v>
   <v>       0.50000000       0.13333333       0.11111111 </v>
   <v>      -0.46153846       0.13333333       0.11111111 </v>
   <v>      -0.42307692       0.13333333       0.11111111 </v>
   <v>      -0.38461538       0.13333333       0.11111111 </v>
   <v>      -0.34615385       0.13333333       0.11111111 </v>
   <v>      -0.30769231       0.13333333       0.11111111 </v>
   <v>      -0.26923077       0.13333333       0.11111111 </v>
   <v>      -0.23076923       0.13333333       0.11111111 </v>
   <v>      -0.19230769       0.13333333       0.11111111 </v>
   <v>      -0.15384615       0.13333333       0.11111111 </v>
   <v>      -0.11538462       0.13333333       0.11111111 </v>
   <v>      -0.07692308       0.13333333       0.11111111 </v>
   <v>      -0.03846154       0.13333333       0.11111111 </v>
   <v>       0.00000000       0.20000000       0.11111111 </v>
   <v>       0.03846154       0.20000000       0.11111111 </v>
   <v>       0.07692308       0.20000000       0.11111111 </v>
   <v>       0.11538462       0.20000000       0.11111111 </v>
   <v>       0.15384615       0.20000000       0.11111111 </v>
   <v>       0.19230769       0.20000000       0.11111111 </v>
   <v>       0.23076923       0.20000000       0.11111111 </v>
   <v>       0.26923077       0.20000000       0.11111111 </v>
   <v>       0.30769231       0.20000000       0.11111111 </v>
   <v>       0.34615385       0.20000000       0.11111111 </v>
   <v>       0.38461538       0.20000000       0.11111111 </v>
   <v>       0.42307692       0.20000000       0.11111111 </v>
   <v>       0.46153846       0.20000000       0.11111111 </v>
   <v>       0.50000000       0.20000000       0.11111111 </v>
   <v>      -0.46153846       0.20000000       0.11111111 </v>
   <v>      -0.42307692       0.20000000       0.11111111 </v>
   <v>      -0.38461538       0.20000000       0.11111111 </v>
   <v>      -0.34615385       0.20000000       0.11111111 </v>
   <v>      -0.30769231       0.20000000       0.11111111 </v>
   <v>      -0.26923077       0.20000000       0.11111111 </v>
   <v>      -0.23076923       0.20000000       0.11111111 </v>
   <v>      -0.19230769       0.20000000       0.11111111 </v>
   <v>      -0.15384615       0.20000000       0.11111111 </v>
   <v>      -0.11538462       0.20000000       0.11111111 </v>
   <v>      -0.07692308       0.20000000       0.11111111 </v>
   <v>      -0.03846154       0.20000000       0.11111111 </v>
   <v>       0.00000000       0.26666667       0.11111111 </v>
   <v>       0.03846154       0.26666667       0.11111111 </v>
   <v>       0.07692308       0.26666667       0.11111111 </v>
   <v>       0.11538462       0.26666667       0.11111111 </v>
   <v>       0.15384615       0.26666667       0.11111111 </v>
   <v>       0.19230769       0.26666667       0.11111111 </v>
   <v>       0.23076923       0.26666667       0.11111111 </v>
   <v>       0.26923077       0.26666667       0.11111111 </v>
   <v>       0.30769231       0.26666667       0.11111111 </v>
   <v>       0.34615385       0.26666667       0.11111111 </v>
   <v>       0.38461538       0.26666667       0.11111111 </v>
   <v>       0.42307692       0.26666667       0.11111111 </v>
   <v>       0.46153846       0.26666667       0.11111111 </v>
   <v>       0.50000000       0.26666667       0.11111111 </v>
   <v>      -0.46153846       0.26666667       0.11111111 </v>
   <v>      -0.42307692       0.26666667       0.11111111 </v>
   <v>      -0.38461538       0.26666667       0.11111111 </v>
   <v>      -0.34615385       0.26666667       0.11111111 </v>
   <v>      -0.30769231       0.26666667       0.11111111 </v>
   <v>      -0.26923077       0.26666667       0.11111111 </v>
   <v>      -0.23076923       0.26666667       0.11111111 </v>
   <v>      -0.19230769       0.26666667       0.11111111 </v>
   <v>      -0.15384615       0.26666667       0.11111111 </v>
   <v>      -0.11538462       0.26666667       0.11111111 </v>
   <v>      -0.07692308       0.26666667       0.11111111 </v>
   <v>      -0.03846154       0.26666667       0.11111111 </v>
   <v>       0.00000000       0.33333333       0.11111111 </v>
   <v>       0.03846154       0.33333333       0.11111111 </v>
   <v>       0.07692308       0.33333333       0.11111111 </v>
   <v>       0.11538462       0.33333333       0.11111111 </v>
   <v>       0.15384615       0.33333333       0.11111111 </v>
   <v>       0.19230769       0.33333333       0.11111111 </v>
   <v>       0.23076923       0.33333333       0.11111111 </v>
   <v>       0.26923077       0.33333333       0.11111111 </v>
   <v>       0.30769231       0.33333333       0.11111111 </v>
   <v>       0.34615385       0.33333333       0.11111111 </v>
   <v>       0.38461538       0.33333333       0.11111111 </v>
   <v>       0.42307692       0.33333333       0.11111111 </v>
   <v>       0.46153846       0.33333333       0.11111111 </v>
   <v>       0.50000000       0.33333333       0.11111111 </v>
   <v>      -0.46153846       0.33333333       0.11111111 </v>
   <v>      -0.42307692       0.33333333       0.11111111 </v>
   <v>      -0.38461538       0.33333333       0.11111111 </v>
   <v>      -0.34615385       0.33333333       0.11111111 </v>
   <v>      -0.30769231       0.33333333       0.11111111 </v>
   <v>      -0.26923077       0.33333333       0.11111111 </v>
   <v>      -0.23076923       0.33333333       0.11111111 </v>
   <v>      -0.19230769       0.33333333       0.11111111 </v>
   <v>      -0.15384615       0.33333333       0.11111111 </v>
   <v>      -0.11538462       0.33333333       0.11111111 </v>
   <v>      -0.07692308       0.33333333       0.11111111 </v>
   <v>      -0.03846154       0.33333333       0.11111111 </v>
   <v>       0.00000000       0.40000000       0.11111111 </v>
   <v>       0.03846154       0.40000000       0.11111111 </v>
   <v>       0.07692308       0.40000000       0.11111111 </v>
   <v>       0.11538462       0.40000000       0.11111111 </v>
   <v>       0.15384615       0.40000000       0.11111111 </v>
   <v>       0.19230769       0.40000000       0.11111111 </v>
   <v>       0.23076923       0.40000000       0.11111111 </v>
   <v>       0.26923077       0.40000000       0.11111111 </v>
   <v>       0.30769231       0.40000000       0.11111111 </v>
   <v>       0.34615385       0.40000000       0.11111111 </v>
   <v>       0.38461538       0.40000000       0.11111111 </v>
   <v>       0.42307692       0.40000000       0.11111111 </v>
   <v>       0.46153846       0.40000000       0.11111111 </v>
   <v>       0.50000000       0.40000000       0.11111111 </v>
   <v>      -0.46153846       0.40000000       0.11111111 </v>
   <v>      -0.42307692       0.40000000       0.11111111 </v>
   <v>      -0.38461538       0.40000000       0.11111111 </v>
   <v>      -0.34615385       0.40000000       0.11111111 </v>
   <v>      -0.30769231       0.40000000       0.11111111 </v>
   <v>      -0.26923077       0.40000000       0.11111111 </v>
   <v>      -0.23076923       0.40000000       0.11111111 </v>
   <v>      -0.19230769       0.40000000       0.11111111 </v>
   <v>      -0.15384615       0.40000000       0.11111111 </v>
   <v>      -0.11538462       0.40000000       0.11111111 </v>
   <v>      -0.07692308       0.40000000       0.11111111 </v>
   <v>      -0.03846154       0.40000000       0.11111111 </v>
   <v>       0.00000000       0.46666667       0.11111111 </v>
   <v>       0.03846154       0.46666667       0.11111111 </v>
   <v>       0.07692308       0.46666667       0.11111111 </v>
   <v>       0.11538462       0.46666667       0.11111111 </v>
   <v>       0.15384615       0.46666667       0.11111111 </v>
   <v>       0.19230769       0.46666667       0.11111111 </v>
   <v>       0.23076923       0.46666667       0.11111111 </v>
   <v>       0.26923077       0.46666667       0.11111111 </v>
   <v>       0.30769231       0.46666667       0.11111111 </v>
   <v>       0.34615385       0.46666667       0.11111111 </v>
   <v>       0.38461538       0.46666667       0.11111111 </v>
   <v>       0.42307692       0.46666667       0.11111111 </v>
   <v>       0.46153846       0.46666667       0.11111111 </v>
   <v>       0.50000000       0.46666667       0.11111111 </v>
   <v>      -0.46153846       0.46666667       0.11111111 </v>
   <v>      -0.42307692       0.46666667       0.11111111 </v>
   <v>      -0.38461538       0.46666667       0.11111111 </v>
   <v>      -0.34615385       0.46666667       0.11111111 </v>
   <v>      -0.30769231       0.46666667       0.11111111 </v>
   <v>      -0.26923077       0.46666667       0.11111111 </v>
   <v>      -0.23076923       0.46666667       0.11111111 </v>
   <v>      -0.19230769       0.46666667       0.11111111 </v>
   <v>      -0.15384615       0.46666667       0.11111111 </v>
   <v>      -0.11538462       0.46666667       0.11111111 </v>
   <v>      -0.07692308       0.46666667       0.11111111 </v>
   <v>      -0.03846154       0.46666667       0.11111111 </v>
   <v>       0.00000000      -0.46666667       0.11111111 </v>
   <v>       0.03846154      -0.46666667       0.11111111 </v>
   <v>       0.07692308      -0.46666667       0.11111111 </v>
   <v>       0.11538462      -0.46666667       0.11111111 </v>
   <v>       0.15384615      -0.46666667       0.11111111 </v>
   <v>       0.19230769      -0.46666667       0.11111111 </v>
   <v>       0.23076923      -0.46666667       0.11111111 </v>
   <v>       0.26923077      -0.46666667       0.11111111 </v>
   <v>       0.30769231      -0.46666667       0.11111111 </v>
   <v>       0.34615385      -0.46666667       0.11111111 </v>
   <v>       0.38461538      -0.46666667       0.11111111 </v>
   <v>       0.42307692      -0.46666667       0.11111111 </v>
   <v>       0.46153846      -0.46666667       0.11111111 </v>
   <v>       0.50000000      -0.46666667       0.11111111 </v>
   <v>      -0.46153846      -0.46666667       0.11111111 </v>
   <v>      -0.42307692      -0.46666667       0.11111111 </v>
   <v>      -0.38461538      -0.46666667       0.11111111 </v>
   <v>      -0.34615385      -0.46666667       0.11111111 </v>
   <v>      -0.30769231      -0.46666667       0.11111111 </v>
   <v>      -0.26923077      -0.46666667       0.11111111 </v>
   <v>      -0.23076923      -0.46666667       0.11111111 </v>
   <v>      -0.19230769      -0.46666667       0.11111111 </v>
   <v>      -0.15384615      -0.46666667       0.11111111 </v>
   <v>      -0.11538462      -0.46666667       0.11111111 </v>
   <v>      -0.07692308      -0.46666667       0.11111111 </v>
   <v>      -0.03846154      -0.46666667       0.11111111 </v>
   <v>       0.00000000      -0.40000000       0.11111111 </v>
   <v>       0.03846154      -0.40000000       0.11111111 </v>
   <v>       0.07692308      -0.40000000       0.11111111 </v>
   <v>       0.11538462      -0.40000000       0.11111111 </v>
   <v>       0.15384615      -0.40000000       0.11111111 </v>
   <v>       0.19230769      -0.40000000       0.11111111 </v>
   <v>       0.23076923      -0.40000000       0.11111111 </v>
   <v>       0.26923077      -0.40000000       0.11111111 </v>
   <v>       0.30769231      -0.40000000       0.11111111 </v>
   <v>       0.34615385      -0.40000000       0.11111111 </v>
   <v>       0.38461538      -0.40000000       0.11111111 </v>
   <v>       0.42307692      -0.40000000       0.11111111 </v>
   <v>       0.46153846      -0.40000000       0.11111111 </v>
   <v>       0.50000000      -0.40000000       0.11111111 </v>
   <v>      -0.46153846      -0.40000000       0.11111111 </v>
   <v>      -0.42307692      -0.40000000       0.11111111 </v>
   <v>      -0.38461538      -0.40000000       0.11111111 </v>
   <v>      -0.34615385      -0.40000000       0.11111111 </v>
   <v>      -0.30769231      -0.40000000       0.11111111 </v>
   <v>      -0.26923077      -0.40000000       0.11111111 </v>
   <v>      -0.23076923      -0.40000000       0.11111111 </v>
   <v>      -0.19230769      -0.40000000       0.11111111 </v>
   <v>      -0.15384615      -0.40000000       0.11111111 </v>
   <v>      -0.11538462      -0.40000000       0.11111111 </v>
   <v>      -0.07692308      -0.40000000       0.11111111 </v>
   <v>      -0.03846154      -0.40000000       0.11111111 </v>
   <v>       0.00000000      -0.33333333       0.11111111 </v>
   <v>       0.03846154      -0.33333333       0.11111111 </v>
   <v>       0.07692308      -0.33333333       0.11111111 </v>
   <v>       0.11538462      -0.33333333       0.11111111 </v>
   <v>       0.15384615      -0.33333333       0.11111111 </v>
   <v>       0.19230769      -0.33333333       0.11111111 </v>
   <v>       0.23076923      -0.33333333       0.11111111 </v>
   <v>       0.26923077      -0.33333333       0.11111111 </v>
   <v>       0.30769231      -0.33333333       0.11111111 </v>
   <v>       0.34615385      -0.33333333       0.11111111 </v>
   <v>       0.38461538      -0.33333333       0.11111111 </v>
   <v>       0.42307692      -0.33333333       0.11111111 </v>
   <v>       0.46153846      -0.33333333       0.11111111 </v>
   <v>       0.50000000      -0.33333333       0.11111111 </v>
   <v>      -0.46153846      -0.33333333       0.11111111 </v>
   <v>      -0.42307692      -0.33333333       0.11111111 </v>
   <v>      -0.38461538      -0.33333333       0.11111111 </v>
   <v>      -0.34615385      -0.33333333       0.11111111 </v>
   <v>      -0.30769231      -0.33333333       0.11111111 </v>
   <v>      -0.26923077      -0.33333333       0.11111111 </v>
   <v>      -0.23076923      -0.33333333       0.11111111 </v>
   <v>      -0.19230769      -0.33333333       0.11111111 </v>
   <v>      -0.15384615      -0.33333333       0.11111111 </v>
   <v>      -0.11538462      -0.33333333       0.11111111 </v>
   <v>      -0.07692308      -0.33333333       0.11111111 </v>
   <v>      -0.03846154      -0.33333333       0.11111111 </v>
   <v>       0.00000000      -0.26666667       0.11111111 </v>
   <v>       0.03846154      -0.26666667       0.11111111 </v>
   <v>       0.07692308      -0.26666667       0.11111111 </v>
   <v>       0.11538462      -0.26666667       0.11111111 </v>
   <v>       0.15384615      -0.26666667       0.11111111 </v>
   <v>       0.19230769      -0.26666667       0.11111111 </v>
   <v>       0.23076923      -0.26666667       0.11111111 </v>
   <v>       0.26923077      -0.26666667       0.11111111 </v>
   <v>       0.30769231      -0.26666667       0.11111111 </v>
   <v>       0.34615385      -0.26666667       0.11111111 </v>
   <v>       0.38461538      -0.26666667       0.11111111 </v>
   <v>       0.42307692      -0.26666667       0.11111111 </v>
   <v>       0.46153846      -0.26666667       0.11111111 </v>
   <v>       0.50000000      -0.26666667       0.11111111 </v>
   <v>      -0.46153846      -0.26666667       0.11111111 </v>
   <v>      -0.42307692      -0.26666667       0.11111111 </v>
   <v>      -0.38461538      -0.26666667       0.11111111 </v>
   <v>      -0.34615385      -0.26666667       0.11111111 </v>
   <v>      -0.30769231      -0.26666667       0.11111111 </v>
   <v>      -0.26923077      -0.26666667       0.11111111 </v>
   <v>      -0.23076923      -0.26666667       0.11111111 </v>
   <v>      -0.19230769      -0.26666667       0.11111111 </v>
   <v>      -0.15384615      -0.26666667       0.11111111 </v>
   <v>      -0.11538462      -0.26666667       0.11111111 </v>
   <v>      -0.07692308      -0.26666667       0.11111111 </v>
   <v>      -0.03846154      -0.26666667       0.11111111 </v>
   <v>       0.00000000      -0.20000000       0.11111111 </v>
   <v>       0.03846154      -0.20000000       0.11111111 </v>
   <v>       0.07692308      -0.20000000       0.11111111 </v>
   <v>       0.11538462      -0.20000000       0.11111111 </v>
   <v>       0.15384615      -0.20000000       0.11111111 </v>
   <v>       0.19230769      -0.20000000       0.11111111 </v>
   <v>       0.23076923      -0.20000000       0.11111111 </v>
   <v>       0.26923077      -0.20000000       0.11111111 </v>
   <v>       0.30769231      -0.20000000       0.11111111 </v>
   <v>       0.34615385      -0.20000000       0.11111111 </v>
   <v>       0.38461538      -0.20000000       0.11111111 </v>
   <v>       0.42307692      -0.20000000       0.11111111 </v>
   <v>       0.46153846      -0.20000000       0.11111111 </v>
   <v>       0.50000000      -0.20000000       0.11111111 </v>
   <v>      -0.46153846      -0.20000000       0.11111111 </v>
   <v>      -0.42307692      -0.20000000       0.11111111 </v>
   <v>      -0.38461538      -0.20000000       0.11111111 </v>
   <v>      -0.34615385      -0.20000000       0.11111111 </v>
   <v>      -0.30769231      -0.20000000       0.11111111 </v>
   <v>      -0.26923077      -0.20000000       0.11111111 </v>
   <v>      -0.23076923      -0.20000000       0.11111111 </v>
   <v>      -0.19230769      -0.20000000       0.11111111 </v>
   <v>      -0.15384615      -0.20000000       0.11111111 </v>
   <v>      -0.11538462      -0.20000000       0.11111111 </v>
   <v>      -0.07692308      -0.20000000       0.11111111 </v>
   <v>      -0.03846154      -0.20000000       0.11111111 </v>
   <v>       0.00000000      -0.13333333       0.11111111 </v>
   <v>       0.03846154      -0.13333333       0.11111111 </v>
   <v>       0.07692308      -0.13333333       0.11111111 </v>
   <v>       0.11538462      -0.13333333       0.11111111 </v>
   <v>       0.15384615      -0.13333333       0.11111111 </v>
   <v>       0.19230769      -0.13333333       0.11111111 </v>
   <v>       0.23076923      -0.13333333       0.11111111 </v>
   <v>       0.26923077      -0.13333333       0.11111111 </v>
   <v>       0.30769231      -0.13333333       0.11111111 </v>
   <v>       0.34615385      -0.13333333       0.11111111 </v>
   <v>       0.38461538      -0.13333333       0.11111111 </v>
   <v>       0.42307692      -0.13333333       0.11111111 </v>
   <v>       0.46153846      -0.13333333       0.11111111 </v>
   <v>       0.50000000      -0.13333333       0.11111111 </v>
   <v>      -0.46153846      -0.13333333       0.11111111 </v>
   <v>      -0.42307692      -0.13333333       0.11111111 </v>
   <v>      -0.38461538      -0.13333333       0.11111111 </v>
   <v>      -0.34615385      -0.13333333       0.11111111 </v>
   <v>      -0.30769231      -0.13333333       0.11111111 </v>
   <v>      -0.26923077      -0.13333333       0.11111111 </v>
   <v>      -0.23076923      -0.13333333       0.11111111 </v>
   <v>      -0.19230769      -0.13333333       0.11111111 </v>
   <v>      -0.15384615      -0.13333333       0.11111111 </v>
   <v>      -0.11538462      -0.13333333       0.11111111 </v>
   <v>      -0.07692308      -0.13333333       0.11111111 </v>
   <v>      -0.03846154      -0.13333333       0.11111111 </v>
   <v>       0.00000000      -0.06666667       0.11111111 </v>
   <v>       0.03846154      -0.06666667       0.11111111 </v>
   <v>       0.07692308      -0.06666667       0.11111111 </v>
   <v>       0.11538462      -0.06666667       0.11111111 </v>
   <v>       0.15384615      -0.06666667       0.11111111 </v>
   <v>       0.19230769      -0.06666667       0.11111111 </v>
   <v>       0.23076923      -0.06666667       0.11111111 </v>
   <v>       0.26923077      -0.06666667       0.11111111 </v>
   <v>       0.30769231      -0.06666667       0.11111111 </v>
   <v>       0.34615385      -0.06666667       0.11111111 </v>
   <v>       0.38461538      -0.06666667       0.11111111 </v>
   <v>       0.42307692      -0.06666667       0.11111111 </v>
   <v>       0.46153846      -0.06666667       0.11111111 </v>
   <v>       0.50000000      -0.06666667       0.11111111 </v>
   <v>      -0.46153846      -0.06666667       0.11111111 </v>
   <v>      -0.42307692      -0.06666667       0.11111111 </v>
   <v>      -0.38461538      -0.06666667       0.11111111 </v>
   <v>      -0.34615385      -0.06666667       0.11111111 </v>
   <v>      -0.30769231      -0.06666667       0.11111111 </v>
   <v>      -0.26923077      -0.06666667       0.11111111 </v>
   <v>      -0.23076923      -0.06666667       0.11111111 </v>
   <v>      -0.19230769      -0.06666667       0.11111111 </v>
   <v>      -0.15384615      -0.06666667       0.11111111 </v>
   <v>      -0.11538462      -0.06666667       0.11111111 </v>
   <v>      -0.07692308      -0.06666667       0.11111111 </v>
   <v>      -0.03846154      -0.06666667       0.11111111 </v>
   <v>       0.00000000       0.00000000       0.22222222 </v>
   <v>       0.03846154       0.00000000       0.22222222 </v>
   <v>       0.07692308       0.00000000       0.22222222 </v>
   <v>       0.11538462       0.00000000       0.22222222 </v>
   <v>       0.15384615       0.00000000       0.22222222 </v>
   <v>       0.19230769       0.00000000       0.22222222 </v>
   <v>       0.23076923       0.00000000       0.22222222 </v>
   <v>       0.26923077       0.00000000       0.22222222 </v>
   <v>       0.30769231       0.00000000       0.22222222 </v>
   <v>       0.34615385       0.00000000       0.22222222 </v>
   <v>       0.38461538       0.00000000       0.22222222 </v>
   <v>       0.42307692       0.00000000       0.22222222 </v>
   <v>       0.46153846       0.00000000       0.22222222 </v>
   <v>       0.50000000       0.00000000       0.22222222 </v>
   <v>      -0.46153846       0.00000000       0.22222222 </v>
   <v>      -0.42307692       0.00000000       0.22222222 </v>
   <v>      -0.38461538       0.00000000       0.22222222 </v>
   <v>      -0.34615385       0.00000000       0.22222222 </v>
   <v>      -0.30769231       0.00000000       0.22222222 </v>
   <v>      -0.26923077       0.00000000       0.22222222 </v>
   <v>      -0.23076923       0.00000000       0.22222222 </v>
   <v>      -0.19230769       0.00000000       0.22222222 </v>
   <v>      -0.15384615       0.00000000       0.22222222 </v>
   <v>      -0.11538462       0.00000000       0.22222222 </v>
   <v>      -0.07692308       0.00000000       0.22222222 </v>
   <v>      -0.03846154       0.00000000       0.22222222 </v>
   <v>       0.00000000       0.06666667       0.22222222 </v>
   <v>       0.03846154       0.06666667       0.22222222 </v>
   <v>       0.07692308       0.06666667       0.22222222 </v>
   <v>       0.11538462       0.06666667       0.22222222 </v>
   <v>       0.15384615       0.06666667       0.22222222 </v>
   <v>       0.19230769       0.06666667       0.22222222 </v>
   <v>       0.23076923       0.06666667       0.22222222 </v>
   <v>       0.26923077       0.06666667       0.22222222 </v>
   <v>       0.30769231       0.06666667       0.22222222 </v>
   <v>       0.34615385       0.06666667       0.22222222 </v>
   <v>       0.38461538       0.06666667       0.22222222 </v>
   <v>       0.42307692       0.06666667       0.22222222 </v>
   <v>       0.46153846       0.06666667       0.22222222 </v>
   <v>       0.50000000       0.06666667       0.22222222 </v>
   <v>      -0.46153846       0.06666667       0.22222222 </v>
   <v>      -0.42307692       0.06666667       0.22222222 </v>
   <v>      -0.38461538       0.06666667       0.22222222 </v>
   <v>      -0.34615385       0.06666667       0.22222222 </v>
   <v>      -0.30769231       0.06666667       0.22222222 </v>
   <v>      -0.26923077       0.06666667       0.22222222 </v>
   <v>      -0.23076923       0.06666667       0.22222222 </v>
   <v>      -0.19230769       0.06666667       0.22222222 </v>
   <v>      -0.15384615       0.06666667       0.22222222 </v>
   <v>      -0.11538462       0.06666667       0.22222222 </v>
   <v>      -0.07692308       0.06666667       0.22222222 </v>
   <v>      -0.03846154       0.06666667       0.22222222 </v>
   <v>       0.00000000       0.13333333       0.22222222 </v>
   <v>       0.03846154       0.13333333       0.22222222 </v>
   <v>       0.07692308       0.13333333       0.22222222 </v>
   <v>       0.11538462       0.13333333       0.22222222 </v>
   <v>       0.15384615       0.13333333       0.22222222 </v>
   <v>       0.19230769       0.13333333       0.22222222 </v>
   <v>       0.23076923       0.13333333       0.22222222 </v>
   <v>       0.26923077       0.13333333       0.22222222 </v>
   <v>       0.30769231       0.13333333       0.22222222 </v>
   <v>       0.34615385       0.13333333       0.22222222 </v>
   <v>       0.38461538       0.13333333       0.22222222 </v>
   <v>       0.42307692       0.13333333       0.22222222 </v>
   <v>       0.46153846       0.13333333       0.22222222 </v>
   <v>       0.50000000       0.13333333       0.22222222 </v>
   <v>      -0.46153846       0.13333333       0.22222222 </v>
   <v>      -0.42307692       0.13333333       0.22222222 </v>
   <v>      -0.38461538       0.13333333       0.22222222 </v>
   <v>      -0.34615385       0.13333333       0.22222222 </v>
   <v>      -0.30769231       0.13333333       0.22222222 </v>
   <v>      -0.26923077       0.13333333       0.22222222 </v>
   <v>      -0.23076923       0.13333333       0.22222222 </v>
   <v>      -0.19230769       0.13333333       0.22222222 </v>
   <v>      -0.15384615       0.13333333       0.22222222 </v>
   <v>      -0.11538462       0.13333333       0.22222222 </v>
   <v>      -0.07692308       0.13333333       0.22222222 </v>
   <v>      -0.03846154       0.13333333       0.22222222 </v>
   <v>       0.00000000       0.20000000       0.22222222 </v>
   <v>       0.03846154       0.20000000       0.22222222 </v>
   <v>       0.07692308       0.20000000       0.22222222 </v>
   <v>       0.11538462       0.20000000       0.22222222 </v>
   <v>       0.15384615       0.20000000       0.22222222 </v>
   <v>       0.19230769       0.20000000       0.22222222 </v>
   <v>       0.23076923       0.20000000       0.22222222 </v>
   <v>       0.26923077       0.20000000       0.22222222 </v>
   <v>       0.30769231       0.20000000       0.22222222 </v>
   <v>       0.34615385       0.20000000       0.22222222 </v>
   <v>       0.38461538       0.20000000       0.22222222 </v>
   <v>       0.42307692       0.20000000       0.22222222 </v>
   <v>       0.46153846       0.20000000       0.22222222 </v>
   <v>       0.50000000       0.20000000       0.22222222 </v>
   <v>      -0.46153846       0.20000000       0.22222222 </v>
   <v>      -0.42307692       0.20000000       0.22222222 </v>
   <v>      -0.38461538       0.20000000       0.22222222 </v>
   <v>      -0.34615385       0.20000000       0.22222222 </v>
   <v>      -0.30769231       0.20000000       0.22222222 </v>
   <v>      -0.26923077       0.20000000       0.22222222 </v>
   <v>      -0.23076923       0.20000000       0.22222222 </v>
   <v>      -0.19230769       0.20000000       0.22222222 </v>
   <v>      -0.15384615       0.20000000       0.22222222 </v>
   <v>      -0.11538462       0.20000000       0.22222222 </v>
   <v>      -0.07692308       0.20000000       0.22222222 </v>
   <v>      -0.03846154       0.20000000       0.22222222 </v>
   <v>       0.00000000       0.26666667       0.22222222 </v>
   <v>       0.03846154       0.26666667       0.22222222 </v>
   <v>       0.07692308       0.26666667       0.22222222 </v>
   <v>       0.11538462       0.26666667       0.22222222 </v>
   <v>       0.15384615       0.26666667       0.22222222 </v>
   <v>       0.19230769       0.26666667       0.22222222 </v>
   <v>       0.23076923       0.26666667       0.22222222 </v>
   <v>       0.26923077       0.26666667       0.22222222 </v>
   <v>       0.30769231       0.26666667       0.22222222 </v>
   <v>       0.34615385       0.26666667       0.22222222 </v>
   <v>       0.38461538       0.26666667       0.22222222 </v>
   <v>       0.42307692       0.26666667       0.22222222 </v>
   <v>       0.46153846       0.26666667       0.22222222 </v>
   <v>       0.50000000       0.26666667       0.22222222 </v>
   <v>      -0.46153846       0.26666667       0.22222222 </v>
   <v>      -0.42307692       0.26666667       0.22222222 </v>
   <v>      -0.38461538       0.26666667       0.22222222 </v>
   <v>      -0.34615385       0.26666667       0.22222222 </v>
   <v>      -0.30769231       0.26666667       0.22222222 </v>
   <v>      -0.26923077       0.26666667       0.22222222 </v>
   <v>      -0.23076923       0.26666667       0.22222222 </v>
   <v>      -0.19230769       0.26666667       0.22222222 </v>
   <v>      -0.15384615       0.26666667       0.22222222 </v>
   <v>      -0.11538462       0.26666667       0.22222222 </v>
   <v>      -0.07692308       0.26666667       0.22222222 </v>
   <v>      -0.03846154       0.26666667       0.22222222 </v>
   <v>       0.00000000       0.33333333       0.22222222 </v>
   <v>       0.03846154       0.33333333       0.22222222 </v>
   <v>       0.07692308       0.33333333       0.22222222 </v>
   <v>       0.11538462       0.33333333       0.22222222 </v>
   <v>       0.15384615       0.33333333       0.22222222 </v>
   <v>       0.19230769       0.33333333       0.22222222 </v>
   <v>       0.23076923       0.33333333       0.22222222 </v>
   <v>       0.26923077       0.33333333       0.22222222 </v>
   <v>       0.30769231       0.33333333       0.22222222 </v>
   <v>       0.34615385       0.33333333       0.22222222 </v>
   <v>       0.38461538       0.33333333       0.22222222 </v>
   <v>       0.42307692       0.33333333       0.22222222 </v>
   <v>       0.46153846       0.33333333       0.22222222 </v>
   <v>       0.50000000       0.33333333       0.22222222 </v>
   <v>      -0.46153846       0.33333333       0.22222222 </v>
   <v>      -0.42307692       0.33333333       0.22222222 </v>
   <v>      -0.38461538       0.33333333       0.22222222 </v>
   <v>      -0.34615385       0.33333333       0.22222222 </v>
   <v>      -0.30769231       0.33333333       0.22222222 </v>
   <v>      -0.26923077       0.33333333       0.22222222 </v>
   <v>      -0.23076923       0.33333333       0.22222222 </v>
   <v>      -0.19230769       0.33333333       0.22222222 </v>
   <v>      -0.15384615       0.33333333       0.22222222 </v>
   <v>      -0.11538462       0.33333333       0.22222222 </v>
   <v>      -0.07692308       0.33333333       0.22222222 </v>
   <v>      -0.03846154       0.33333333       0.22222222 </v>
   <v>       0.00000000       0.40000000       0.22222222 </v>
   <v>       0.03846154       0.40000000       0.22222222 </v>
   <v>       0.07692308       0.40000000       0.22222222 </v>
   <v>       0.11538462       0.40000000       0.22222222 </v>
   <v>       0.15384615       0.40000000       0.22222222 </v>
   <v>       0.19230769       0.40000000       0.22222222 </v>
   <v>       0.23076923       0.40000000       0.22222222 </v>
   <v>       0.26923077       0.40000000       0.22222222 </v>
   <v>       0.30769231       0.40000000       0.22222222 </v>
   <v>       0.34615385       0.40000000       0.22222222 </v>
   <v>       0.38461538       0.40000000       0.22222222 </v>
   <v>       0.42307692       0.40000000       0.22222222 </v>
   <v>       0.46153846       0.40000000       0.22222222 </v>
   <v>       0.50000000       0.40000000       0.22222222 </v>
   <v>      -0.46153846       0.40000000       0.22222222 </v>
   <v>      -0.42307692       0.40000000       0.22222222 </v>
   <v>      -0.38461538       0.40000000       0.22222222 </v>
   <v>      -0.34615385       0.40000000       0.22222222 </v>
   <v>      -0.30769231       0.40000000       0.22222222 </v>
   <v>      -0.26923077       0.40000000       0.22222222 </v>
   <v>      -0.23076923       0.40000000       0.22222222 </v>
   <v>      -0.19230769       0.40000000       0.22222222 </v>
   <v>      -0.15384615       0.40000000       0.22222222 </v>
   <v>      -0.11538462       0.40000000       0.22222222 </v>
   <v>      -0.07692308       0.40000000       0.22222222 </v>
   <v>      -0.03846154       0.40000000       0.22222222 </v>
   <v>       0.00000000       0.46666667       0.22222222 </v>
   <v>       0.03846154       0.46666667       0.22222222 </v>
   <v>       0.07692308       0.46666667       0.22222222 </v>
   <v>       0.11538462       0.46666667       0.22222222 </v>
   <v>       0.15384615       0.46666667       0.22222222 </v>
   <v>       0.19230769       0.46666667       0.22222222 </v>
   <v>       0.23076923       0.46666667       0.22222222 </v>
   <v>       0.26923077       0.46666667       0.22222222 </v>
   <v>       0.30769231       0.46666667       0.22222222 </v>
   <v>       0.34615385       0.46666667       0.22222222 </v>
   <v>       0.38461538       0.46666667       0.22222222 </v>
   <v>       0.42307692       0.46666667       0.22222222 </v>
   <v>       0.46153846       0.46666667       0.22222222 </v>
   <v>       0.50000000       0.46666667       0.22222222 </v>
   <v>      -0.46153846       0.46666667       0.22222222 </v>
   <v>      -0.42307692       0.46666667       0.22222222 </v>
   <v>      -0.38461538       0.46666667       0.22222222 </v>
   <v>      -0.34615385       0.46666667       0.22222222 </v>
   <v>      -0.30769231       0.46666667       0.22222222 </v>
   <v>      -0.26923077       0.46666667       0.22222222 </v>
   <v>      -0.23076923       0.46666667       0.22222222 </v>
   <v>      -0.19230769       0.46666667       0.22222222 </v>
   <v>      -0.15384615       0.46666667       0.22222222 </v>
   <v>      -0.11538462       0.46666667       0.22222222 </v>
   <v>      -0.07692308       0.46666667       0.22222222 </v>
   <v>      -0.03846154       0.46666667       0.22222222 </v>
   <v>       0.00000000      -0.46666667       0.22222222 </v>
   <v>       0.03846154      -0.46666667       0.22222222 </v>
   <v>       0.07692308      -0.46666667       0.22222222 </v>
   <v>       0.11538462      -0.46666667       0.22222222 </v>
   <v>       0.15384615      -0.46666667       0.22222222 </v>
   <v>       0.19230769      -0.46666667       0.22222222 </v>
   <v>       0.23076923      -0.46666667       0.22222222 </v>
   <v>       0.26923077      -0.46666667       0.22222222 </v>
   <v>       0.30769231      -0.46666667       0.22222222 </v>
   <v>       0.34615385      -0.46666667       0.22222222 </v>
   <v>       0.38461538      -0.46666667       0.22222222 </v>
   <v>       0.42307692      -0.46666667       0.22222222 </v>
   <v>       0.46153846      -0.46666667       0.22222222 </v>
   <v>       0.50000000      -0.46666667       0.22222222 </v>
   <v>      -0.46153846      -0.46666667       0.22222222 </v>
   <v>      -0.42307692      -0.46666667       0.22222222 </v>
   <v>      -0.38461538      -0.46666667       0.22222222 </v>
   <v>      -0.34615385      -0.46666667       0.22222222 </v>
   <v>      -0.30769231      -0.46666667       0.22222222 </v>
   <v>      -0.26923077      -0.46666667       0.22222222 </v>
   <v>      -0.23076923      -0.46666667       0.22222222 </v>
   <v>      -0.19230769      -0.46666667       0.22222222 </v>
   <v>      -0.15384615      -0.46666667       0.22222222 </v>
   <v>      -0.11538462      -0.46666667       0.22222222 </v>
   <v>      -0.07692308      -0.46666667       0.22222222 </v>
   <v>      -0.03846154      -0.46666667       0.22222222 </v>
   <v>       0.00000000      -0.40000000       0.22222222 </v>
   <v>       0.03846154      -0.40000000       0.22222222 </v>
   <v>       0.07692308      -0.40000000       0.22222222 </v>
   <v>       0.11538462      -0.40000000       0.22222222 </v>
   <v>       0.15384615      -0.40000000       0.22222222 </v>
   <v>       0.19230769      -0.40000000       0.22222222 </v>
   <v>       0.23076923      -0.40000000       0.22222222 </v>
   <v>       0.26923077      -0.40000000       0.22222222 </v>
   <v>       0.30769231      -0.40000000       0.22222222 </v>
   <v>       0.34615385      -0.40000000       0.22222222 </v>
   <v>       0.38461538      -0.40000000       0.22222222 </v>
   <v>       0.42307692      -0.40000000       0.22222222 </v>
   <v>       0.46153846      -0.40000000       0.22222222 </v>
   <v>       0.50000000      -0.40000000       0.22222222 </v>
   <v>      -0.46153846      -0.40000000       0.22222222 </v>
   <v>      -0.42307692      -0.40000000       0.22222222 </v>
   <v>      -0.38461538      -0.40000000       0.22222222 </v>
   <v>      -0.34615385      -0.40000000       0.22222222 </v>
   <v>      -0.30769231      -0.40000000       0.22222222 </v>
   <v>      -0.26923077      -0.40000000       0.22222222 </v>
   <v>      -0.23076923      -0.40000000       0.22222222 </v>
   <v>      -0.19230769      -0.40000000       0.22222222 </v>
   <v>      -0.15384615      -0.40000000       0.22222222 </v>
   <v>      -0.11538462      -0.40000000       0.22222222 </v>
   <v>      -0.07692308      -0.40000000       0.22222222 </v>
   <v>      -0.03846154      -0.40000000       0.22222222 </v>
   <v>       0.00000000      -0.33333333       0.22222222 </v>
   <v>       0.03846154      -0.33333333       0.22222222 </v>
   <v>       0.07692308      -0.33333333       0.22222222 </v>
   <v>       0.11538462      -0.33333333       0.22222222 </v>
   <v>       0.15384615      -0.33333333       0.22222222 </v>
   <v>       0.19230769      -0.33333333       0.22222222 </v>
   <v>       0.23076923      -0.33333333       0.22222222 </v>
   <v>       0.26923077      -0.33333333       0.22222222 </v>
   <v>       0.30769231      -0.33333333       0.22222222 </v>
   <v>       0.34615385      -0.33333333       0.22222222 </v>
   <v>       0.38461538      -0.33333333       0.22222222 </v>
   <v>       0.42307692      -0.33333333       0.22222222 </v>
   <v>       0.46153846      -0.33333333       0.22222222 </v>
   <v>       0.50000000      -0.33333333       0.22222222 </v>
   <v>      -0.46153846      -0.33333333       0.22222222 </v>
   <v>      -0.42307692      -0.33333333       0.22222222 </v>
   <v>      -0.38461538      -0.33333333       0.22222222 </v>
   <v>      -0.34615385      -0.33333333       0.22222222 </v>
   <v>      -0.30769231      -0.33333333       0.22222222 </v>
   <v>      -0.26923077      -0.33333333       0.22222222 </v>
   <v>      -0.23076923      -0.33333333       0.22222222 </v>
   <v>      -0.19230769      -0.33333333       0.22222222 </v>
   <v>      -0.15384615      -0.33333333       0.22222222 </v>
   <v>      -0.11538462      -0.33333333       0.22222222 </v>
   <v>      -0.07692308      -0.33333333       0.22222222 </v>
   <v>      -0.03846154      -0.33333333       0.22222222 </v>
   <v>       0.00000000      -0.26666667       0.22222222 </v>
   <v>       0.03846154      -0.26666667       0.22222222 </v>
   <v>       0.07692308      -0.26666667       0.22222222 </v>
   <v>       0.11538462      -0.26666667       0.22222222 </v>
   <v>       0.15384615      -0.26666667       0.22222222 </v>
   <v>       0.19230769      -0.26666667       0.22222222 </v>
   <v>       0.23076923      -0.26666667       0.22222222 </v>
   <v>       0.26923077      -0.26666667       0.22222222 </v>
   <v>       0.30769231      -0.26666667       0.22222222 </v>
   <v>       0.34615385      -0.26666667       0.22222222 </v>
   <v>       0.38461538      -0.26666667       0.22222222 </v>
   <v>       0.42307692      -0.26666667       0.22222222 </v>
   <v>       0.46153846      -0.26666667       0.22222222 </v>
   <v>       0.50000000      -0.26666667       0.22222222 </v>
   <v>      -0.46153846      -0.26666667       0.22222222 </v>
   <v>      -0.42307692      -0.26666667       0.22222222 </v>
   <v>      -0.38461538      -0.26666667       0.22222222 </v>
   <v>      -0.34615385      -0.26666667       0.22222222 </v>
   <v>      -0.30769231      -0.26666667       0.22222222 </v>
   <v>      -0.26923077      -0.26666667       0.22222222 </v>
   <v>      -0.23076923      -0.26666667       0.22222222 </v>
   <v>      -0.19230769      -0.26666667       0.22222222 </v>
   <v>      -0.15384615      -0.26666667       0.22222222 </v>
   <v>      -0.11538462      -0.26666667       0.22222222 </v>
   <v>      -0.07692308      -0.26666667       0.22222222 </v>
   <v>      -0.03846154      -0.26666667       0.22222222 </v>
   <v>       0.00000000      -0.20000000       0.22222222 </v>
   <v>       0.03846154      -0.20000000       0.22222222 </v>
   <v>       0.07692308      -0.20000000       0.22222222 </v>
   <v>       0.11538462      -0.20000000       0.22222222 </v>
   <v>       0.15384615      -0.20000000       0.22222222 </v>
   <v>       0.19230769      -0.20000000       0.22222222 </v>
   <v>       0.23076923      -0.20000000       0.22222222 </v>
   <v>       0.26923077      -0.20000000       0.22222222 </v>
   <v>       0.30769231      -0.20000000       0.22222222 </v>
   <v>       0.34615385      -0.20000000       0.22222222 </v>
   <v>       0.38461538      -0.20000000       0.22222222 </v>
   <v>       0.42307692      -0.20000000       0.22222222 </v>
   <v>       0.46153846      -0.20000000       0.22222222 </v>
   <v>       0.50000000      -0.20000000       0.22222222 </v>
   <v>      -0.46153846      -0.20000000       0.22222222 </v>
   <v>      -0.42307692      -0.20000000       0.22222222 </v>
   <v>      -0.38461538      -0.20000000       0.22222222 </v>
   <v>      -0.34615385      -0.20000000       0.22222222 </v>
   <v>      -0.30769231      -0.20000000       0.22222222 </v>
   <v>      -0.26923077      -0.20000000       0.22222222 </v>
   <v>      -0.23076923      -0.20000000       0.22222222 </v>
   <v>      -0.19230769      -0.20000000       0.22222222 </v>
   <v>      -0.15384615      -0.20000000       0.22222222 </v>
   <v>      -0.11538462      -0.20000000       0.22222222 </v>
   <v>      -0.07692308      -0.20000000       0.22222222 </v>
   <v>      -0.03846154      -0.20000000       0.22222222 </v>
   <v>       0.00000000      -0.13333333       0.22222222 </v>
   <v>       0.03846154      -0.13333333       0.22222222 </v>
   <v>       0.07692308      -0.13333333       0.22222222 </v>
   <v>       0.11538462      -0.13333333       0.22222222 </v>
   <v>       0.15384615      -0.13333333       0.22222222 </v>
   <v>       0.19230769      -0.13333333       0.22222222 </v>
   <v>       0.23076923      -0.13333333       0.22222222 </v>
   <v>       0.26923077      -0.13333333       0.22222222 </v>
   <v>       0.30769231      -0.13333333       0.22222222 </v>
   <v>       0.34615385      -0.13333333       0.22222222 </v>
   <v>       0.38461538      -0.13333333       0.22222222 </v>
   <v>       0.42307692      -0.13333333       0.22222222 </v>
   <v>       0.46153846      -0.13333333       0.22222222 </v>
   <v>       0.50000000      -0.13333333       0.22222222 </v>
   <v>      -0.46153846      -0.13333333       0.22222222 </v>
   <v>      -0.42307692      -0.13333333       0.22222222 </v>
   <v>      -0.38461538      -0.13333333       0.22222222 </v>
   <v>      -0.34615385      -0.13333333       0.22222222 </v>
   <v>      -0.30769231      -0.13333333       0.22222222 </v>
   <v>      -0.26923077      -0.13333333       0.22222222 </v>
   <v>      -0.23076923      -0.13333333       0.22222222 </v>
   <v>      -0.19230769      -0.13333333       0.22222222 </v>
   <v>      -0.15384615      -0.13333333       0.22222222 </v>
   <v>      -0.11538462      -0.13333333       0.22222222 </v>
   <v>      -0.07692308      -0.13333333       0.22222222 </v>
   <v>      -0.03846154      -0.13333333       0.22222222 </v>
   <v>       0.00000000      -0.06666667       0.22222222 </v>
   <v>       0.03846154      -0.06666667       0.22222222 </v>
   <v>       0.07692308      -0.06666667       0.22222222 </v>
   <v>       0.11538462      -0.06666667       0.22222222 </v>
   <v>       0.15384615      -0.06666667       0.22222222 </v>
   <v>       0.19230769      -0.06666667       0.22222222 </v>
   <v>       0.23076923      -0.06666667       0.22222222 </v>
   <v>       0.26923077      -0.06666667       0.22222222 </v>
   <v>       0.30769231      -0.06666667       0.22222222 </v>
   <v>       0.34615385      -0.06666667       0.22222222 </v>
   <v>       0.38461538      -0.06666667       0.22222222 </v>
   <v>       0.42307692      -0.06666667       0.22222222 </v>
   <v>       0.46153846      -0.06666667       0.22222222 </v>
   <v>       0.50000000      -0.06666667       0.22222222 </v>
   <v>      -0.46153846      -0.06666667       0.22222222 </v>
   <v>      -0.42307692      -0.06666667       0.22222222 </v>
   <v>      -0.38461538      -0.06666667       0.22222222 </v>
   <v>      -0.34615385      -0.06666667       0.22222222 </v>
   <v>      -0.30769231      -0.06666667       0.22222222 </v>
   <v>      -0.26923077      -0.06666667       0.22222222 </v>
   <v>      -0.23076923      -0.06666667       0.22222222 </v>
   <v>      -0.19230769      -0.06666667       0.22222222 </v>
   <v>      -0.15384615      -0.06666667       0.22222222 </v>
   <v>      -0.11538462      -0.06666667       0.22222222 </v>
   <v>      -0.07692308      -0.06666667       0.22222222 </v>
   <v>      -0.03846154      -0.06666667       0.22222222 </v>
   <v>       0.00000000       0.00000000       0.33333333 </v>
   <v>       0.03846154       0.00000000       0.33333333 </v>
   <v>       0.07692308       0.00000000       0.33333333 </v>
   <v>       0.11538462       0.00000000       0.33333333 </v>
   <v>       0.15384615       0.00000000       0.33333333 </v>
   <v>       0.19230769       0.00000000       0.33333333 </v>
   <v>       0.23076923       0.00000000       0.33333333 </v>
   <v>       0.26923077       0.00000000       0.33333333 </v>
   <v>       0.30769231       0.00000000       0.33333333 </v>
   <v>       0.34615385       0.00000000       0.33333333 </v>
   <v>       0.38461538       0.00000000       0.33333333 </v>
   <v>       0.42307692       0.00000000       0.33333333 </v>
   <v>       0.46153846       0.00000000       0.33333333 </v>
   <v>       0.50000000       0.00000000       0.33333333 </v>
   <v>      -0.46153846       0.00000000       0.33333333 </v>
   <v>      -0.42307692       0.00000000       0.33333333 </v>
   <v>      -0.38461538       0.00000000       0.33333333 </v>
   <v>      -0.34615385       0.00000000       0.33333333 </v>
   <v>      -0.30769231       0.00000000       0.33333333 </v>
   <v>      -0.26923077       0.00000000       0.33333333 </v>
   <v>      -0.23076923       0.00000000       0.33333333 </v>
   <v>      -0.19230769       0.00000000       0.33333333 </v>
   <v>      -0.15384615       0.00000000       0.33333333 </v>
   <v>      -0.11538462       0.00000000       0.33333333 </v>
   <v>      -0.07692308       0.00000000       0.33333333 </v>
   <v>      -0.03846154       0.00000000       0.33333333 </v>
   <v>       0.00000000       0.06666667       0.33333333 </v>
   <v>       0.03846154       0.06666667       0.33333333 </v>
   <v>       0.07692308       0.06666667       0.33333333 </v>
   <v>       0.11538462       0.06666667       0.33333333 </v>
   <v>       0.15384615       0.06666667       0.33333333 </v>
   <v>       0.19230769       0.06666667       0.33333333 </v>
   <v>       0.23076923       0.06666667       0.33333333 </v>
   <v>       0.26923077       0.06666667       0.33333333 </v>
   <v>       0.30769231       0.06666667       0.33333333 </v>
   <v>       0.34615385       0.06666667       0.33333333 </v>
   <v>       0.38461538       0.06666667       0.33333333 </v>
   <v>       0.42307692       0.06666667       0.33333333 </v>
   <v>       0.46153846       0.06666667       0.33333333 </v>
   <v>       0.50000000       0.06666667       0.33333333 </v>
   <v>      -0.46153846       0.06666667       0.33333333 </v>
   <v>      -0.42307692       0.06666667       0.33333333 </v>
   <v>      -0.38461538       0.06666667       0.33333333 </v>
   <v>      -0.34615385       0.06666667       0.33333333 </v>
   <v>      -0.30769231       0.06666667       0.33333333 </v>
   <v>      -0.26923077       0.06666667       0.33333333 </v>
   <v>      -0.23076923       0.06666667       0.33333333 </v>
   <v>      -0.19230769       0.06666667       0.33333333 </v>
   <v>      -0.15384615       0.06666667       0.33333333 </v>
   <v>      -0.11538462       0.06666667       0.33333333 </v>
   <v>      -0.07692308       0.06666667       0.33333333 </v>
   <v>      -0.03846154       0.06666667       0.33333333 </v>
   <v>       0.00000000       0.13333333       0.33333333 </v>
   <v>       0.03846154       0.13333333       0.33333333 </v>
   <v>       0.07692308       0.13333333       0.33333333 </v>
   <v>       0.11538462       0.13333333       0.33333333 </v>
   <v>       0.15384615       0.13333333       0.33333333 </v>
   <v>       0.19230769       0.13333333       0.33333333 </v>
   <v>       0.23076923       0.13333333       0.33333333 </v>
   <v>       0.26923077       0.13333333       0.33333333 </v>
   <v>       0.30769231       0.13333333       0.33333333 </v>
   <v>       0.34615385       0.13333333       0.33333333 </v>
   <v>       0.38461538       0.13333333       0.33333333 </v>
   <v>       0.42307692       0.13333333       0.33333333 </v>
   <v>       0.46153846       0.13333333       0.33333333 </v>
   <v>       0.50000000       0.13333333       0.33333333 </v>
   <v>      -0.46153846       0.13333333       0.33333333 </v>
   <v>      -0.42307692       0.13333333       0.33333333 </v>
   <v>      -0.38461538       0.13333333       0.33333333 </v>
   <v>      -0.34615385       0.13333333       0.33333333 </v>
   <v>      -0.30769231       0.13333333       0.33333333 </v>
   <v>      -0.26923077       0.13333333       0.33333333 </v>
   <v>      -0.23076923       0.13333333       0.33333333 </v>
   <v>      -0.19230769       0.13333333       0.33333333 </v>
   <v>      -0.15384615       0.13333333       0.33333333 </v>
   <v>      -0.11538462       0.13333333       0.33333333 </v>
   <v>      -0.07692308       0.13333333       0.33333333 </v>
   <v>      -0.03846154       0.13333333       0.33333333 </v>
   <v>       0.00000000       0.20000000       0.33333333 </v>
   <v>       0.03846154       0.20000000       0.33333333 </v>
   <v>       0.07692308       0.20000000       0.33333333 </v>
   <v>       0.11538462       0.20000000       0.33333333 </v>
   <v>       0.15384615       0.20000000       0.33333333 </v>
   <v>       0.19230769       0.20000000       0.33333333 </v>
   <v>       0.23076923       0.20000000       0.33333333 </v>
   <v>       0.26923077       0.20000000       0.33333333 </v>
   <v>       0.30769231       0.20000000       0.33333333 </v>
   <v>       0.34615385       0.20000000       0.33333333 </v>
   <v>       0.38461538       0.20000000       0.33333333 </v>
   <v>       0.42307692       0.20000000       0.33333333 </v>
   <v>       0.46153846       0.20000000       0.33333333 </v>
   <v>       0.50000000       0.20000000       0.33333333 </v>
   <v>      -0.46153846       0.20000000       0.33333333 </v>
   <v>      -0.42307692       0.20000000       0.33333333 </v>
   <v>      -0.38461538       0.20000000       0.33333333 </v>
   <v>      -0.34615385       0.20000000       0.33333333 </v>
   <v>      -0.30769231       0.20000000       0.33333333 </v>
   <v>      -0.26923077       0.20000000       0.33333333 </v>
   <v>      -0.23076923       0.20000000       0.33333333 </v>
   <v>      -0.19230769       0.20000000       0.33333333 </v>
   <v>      -0.15384615       0.20000000       0.33333333 </v>
   <v>      -0.11538462       0.20000000       0.33333333 </v>
   <v>      -0.07692308       0.20000000       0.33333333 </v>
   <v>      -0.03846154       0.20000000       0.33333333 </v>
   <v>       0.00000000       0.26666667       0.33333333 </v>
   <v>       0.03846154       0.26666667       0.33333333 </v>
   <v>       0.07692308       0.26666667       0.33333333 </v>
   <v>       0.11538462       0.26666667       0.33333333 </v>
   <v>       0.15384615       0.26666667       0.33333333 </v>
   <v>       0.19230769       0.26666667       0.33333333 </v>
   <v>       0.23076923       0.26666667       0.33333333 </v>
   <v>       0.26923077       0.26666667       0.33333333 </v>
   <v>       0.30769231       0.26666667       0.33333333 </v>
   <v>       0.34615385       0.26666667       0.33333333 </v>
   <v>       0.38461538       0.26666667       0.33333333 </v>
   <v>       0.42307692       0.26666667       0.33333333 </v>
   <v>       0.46153846       0.26666667       0.33333333 </v>
   <v>       0.50000000       0.26666667       0.33333333 </v>
   <v>      -0.46153846       0.26666667       0.33333333 </v>
   <v>      -0.42307692       0.26666667       0.33333333 </v>
   <v>      -0.38461538       0.26666667       0.33333333 </v>
   <v>      -0.34615385       0.26666667       0.33333333 </v>
   <v>      -0.30769231       0.26666667       0.33333333 </v>
   <v>      -0.26923077       0.26666667       0.33333333 </v>
   <v>      -0.23076923       0.26666667       0.33333333 </v>
   <v>      -0.19230769       0.26666667       0.33333333 </v>
   <v>      -0.15384615       0.26666667       0.33333333 </v>
   <v>      -0.11538462       0.26666667       0.33333333 </v>
   <v>      -0.07692308       0.26666667       0.33333333 </v>
   <v>      -0.03846154       0.26666667       0.33333333 </v>
   <v>       0.00000000       0.33333333       0.33333333 </v>
   <v>       0.03846154       0.33333333       0.33333333 </v>
   <v>       0.07692308       0.33333333       0.33333333 </v>
   <v>       0.11538462       0.33333333       0.33333333 </v>
   <v>       0.15384615       0.33333333       0.33333333 </v>
   <v>       0.19230769       0.33333333       0.33333333 </v>
   <v>       0.23076923       0.33333333       0.33333333 </v>
   <v>       0.26923077       0.33333333       0.33333333 </v>
   <v>       0.30769231       0.33333333       0.33333333 </v>
   <v>       0.34615385       0.33333333       0.33333333 </v>
   <v>       0.38461538       0.33333333       0.33333333 </v>
   <v>       0.42307692       0.33333333       0.33333333 </v>
   <v>       0.46153846       0.33333333       0.33333333 </v>
   <v>       0.50000000       0.33333333       0.33333333 </v>
   <v>      -0.46153846       0.33333333       0.33333333 </v>
   <v>      -0.42307692       0.33333333       0.33333333 </v>
   <v>      -0.38461538       0.33333333       0.33333333 </v>
   <v>      -0.34615385       0.33333333       0.33333333 </v>
   <v>      -0.30769231       0.33333333       0.33333333 </v>
   <v>      -0.26923077       0.33333333       0.33333333 </v>
   <v>      -0.23076923       0.33333333       0.33333333 </v>
   <v>      -0.19230769       0.33333333       0.33333333 </v>
   <v>      -0.15384615       0.33333333       0.33333333 </v>
   <v>      -0.11538462       0.33333333       0.33333333 </v>
   <v>      -0.07692308       0.33333333       0.33333333 </v>
   <v>      -0.03846154       0.33333333       0.33333333 </v>
   <v>       0.00000000       0.40000000       0.33333333 </v>
   <v>       0.03846154       0.40000000       0.33333333 </v>
   <v>       0.07692308       0.40000000       0.33333333 </v>
   <v>       0.11538462       0.40000000       0.33333333 </v>
   <v>       0.15384615       0.40000000       0.33333333 </v>
   <v>       0.19230769       0.40000000       0.33333333 </v>
   <v>       0.23076923       0.40000000       0.33333333 </v>
   <v>       0.26923077       0.40000000       0.33333333 </v>
   <v>       0.30769231       0.40000000       0.33333333 </v>
   <v>       0.34615385       0.40000000       0.33333333 </v>
   <v>       0.38461538       0.40000000       0.33333333 </v>
   <v>       0.42307692       0.40000000       0.33333333 </v>
   <v>       0.46153846       0.40000000       0.33333333 </v>
   <v>       0.50000000       0.40000000       0.33333333 </v>
   <v>      -0.46153846       0.40000000       0.33333333 </v>
   <v>      -0.42307692       0.40000000       0.33333333 </v>
   <v>      -0.38461538       0.40000000       0.33333333 </v>
   <v>      -0.34615385       0.40000000       0.33333333 </v>
   <v>      -0.30769231       0.40000000       0.33333333 </v>
   <v>      -0.26923077       0.40000000       0.33333333 </v>
   <v>      -0.23076923       0.40000000       0.33333333 </v>
   <v>      -0.19230769       0.40000000       0.33333333 </v>
   <v>      -0.15384615       0.40000000       0.33333333 </v>
   <v>      -0.11538462       0.40000000       0.33333333 </v>
   <v>      -0.07692308       0.40000000       0.33333333 </v>
   <v>      -0.03846154       0.40000000       0.33333333 </v>
   <v>       0.00000000       0.46666667       0.33333333 </v>
   <v>       0.03846154       0.46666667       0.33333333 </v>
   <v>       0.07692308       0.46666667       0.33333333 </v>
   <v>       0.11538462       0.46666667       0.33333333 </v>
   <v>       0.15384615       0.46666667       0.33333333 </v>
   <v>       0.19230769       0.46666667       0.33333333 </v>
   <v>       0.23076923       0.46666667       0.33333333 </v>
   <v>       0.26923077       0.46666667       0.33333333 </v>
   <v>       0.30769231       0.46666667       0.33333333 </v>
   <v>       0.34615385       0.46666667       0.33333333 </v>
   <v>       0.38461538       0.46666667       0.33333333 </v>
   <v>       0.42307692       0.46666667       0.33333333 </v>
   <v>       0.46153846       0.46666667       0.33333333 </v>
   <v>       0.50000000       0.46666667       0.33333333 </v>
   <v>      -0.46153846       0.46666667       0.33333333 </v>
   <v>      -0.42307692       0.46666667       0.33333333 </v>
   <v>      -0.38461538       0.46666667       0.33333333 </v>
   <v>      -0.34615385       0.46666667       0.33333333 </v>
   <v>      -0.30769231       0.46666667       0.33333333 </v>
   <v>      -0.26923077       0.46666667       0.33333333 </v>
   <v>      -0.23076923       0.46666667       0.33333333 </v>
   <v>      -0.19230769       0.46666667       0.33333333 </v>
   <v>      -0.15384615       0.46666667       0.33333333 </v>
   <v>      -0.11538462       0.46666667       0.33333333 </v>
   <v>      -0.07692308       0.46666667       0.33333333 </v>
   <v>      -0.03846154       0.46666667       0.33333333 </v>
   <v>       0.00000000      -0.46666667       0.33333333 </v>
   <v>       0.03846154      -0.46666667       0.33333333 </v>
   <v>       0.07692308      -0.46666667       0.33333333 </v>
   <v>       0.11538462      -0.46666667       0.33333333 </v>
   <v>       0.15384615      -0.46666667       0.33333333 </v>
   <v>       0.19230769      -0.46666667       0.33333333 </v>
   <v>       0.23076923      -0.46666667       0.33333333 </v>
   <v>       0.26923077      -0.46666667       0.33333333 </v>
   <v>       0.30769231      -0.46666667       0.33333333 </v>
   <v>       0.34615385      -0.46666667       0.33333333 </v>
   <v>       0.38461538      -0.46666667       0.33333333 </v>
   <v>       0.42307692      -0.46666667       0.33333333 </v>
   <v>       0.46153846      -0.46666667       0.33333333 </v>
   <v>       0.50000000      -0.46666667       0.33333333 </v>
   <v>      -0.46153846      -0.46666667       0.33333333 </v>
   <v>      -0.42307692      -0.46666667       0.33333333 </v>
   <v>      -0.38461538      -0.46666667       0.33333333 </v>
   <v>      -0.34615385      -0.46666667       0.33333333 </v>
   <v>      -0.30769231      -0.46666667       0.33333333 </v>
   <v>      -0.26923077      -0.46666667       0.33333333 </v>
   <v>      -0.23076923      -0.46666667       0.33333333 </v>
   <v>      -0.19230769      -0.46666667       0.33333333 </v>
   <v>      -0.15384615      -0.46666667       0.33333333 </v>
   <v>      -0.11538462      -0.46666667       0.33333333 </v>
   <v>      -0.07692308      -0.46666667       0.33333333 </v>
   <v>      -0.03846154      -0.46666667       0.33333333 </v>
   <v>       0.00000000      -0.40000000       0.33333333 </v>
   <v>       0.03846154      -0.40000000       0.33333333 </v>
   <v>       0.07692308      -0.40000000       0.33333333 </v>
   <v>       0.11538462      -0.40000000       0.33333333 </v>
   <v>       0.15384615      -0.40000000       0.33333333 </v>
   <v>       0.19230769      -0.40000000       0.33333333 </v>
   <v>       0.23076923      -0.40000000       0.33333333 </v>
   <v>       0.26923077      -0.40000000       0.33333333 </v>
   <v>       0.30769231      -0.40000000       0.33333333 </v>
   <v>       0.34615385      -0.40000000       0.33333333 </v>
   <v>       0.38461538      -0.40000000       0.33333333 </v>
   <v>       0.42307692      -0.40000000       0.33333333 </v>
   <v>       0.46153846      -0.40000000       0.33333333 </v>
   <v>       0.50000000      -0.40000000       0.33333333 </v>
   <v>      -0.46153846      -0.40000000       0.33333333 </v>
   <v>      -0.42307692      -0.40000000       0.33333333 </v>
   <v>      -0.38461538      -0.40000000       0.33333333 </v>
   <v>      -0.34615385      -0.40000000       0.33333333 </v>
   <v>      -0.30769231      -0.40000000       0.33333333 </v>
   <v>      -0.26923077      -0.40000000       0.33333333 </v>
   <v>      -0.23076923      -0.40000000       0.33333333 </v>
   <v>      -0.19230769      -0.40000000       0.33333333 </v>
   <v>      -0.15384615      -0.40000000       0.33333333 </v>
   <v>      -0.11538462      -0.40000000       0.33333333 </v>
   <v>      -0.07692308      -0.40000000       0.33333333 </v>
   <v>      -0.03846154      -0.40000000       0.33333333 </v>
   <v>       0.00000000      -0.33333333       0.33333333 </v>
   <v>       0.03846154      -0.33333333       0.33333333 </v>
   <v>       0.07692308      -0.33333333       0.33333333 </v>
   <v>       0.11538462      -0.33333333       0.33333333 </v>
   <v>       0.15384615      -0.33333333       0.33333333 </v>
   <v>       0.19230769      -0.33333333       0.33333333 </v>
[...]
       <r>    4.7445    1.0000 </r>
       <r>    4.7778    1.0000 </r>
       <r>    4.8597    1.0000 </r>
       <r>    4.9418    1.0000 </r>
       <r>    5.2280    1.0000 </r>
       <r>    5.3967    1.0000 </r>
       <r>    5.6478    1.0000 </r>
       <r>    5.7313    1.0000 </r>
       <r>    5.9389    1.0000 </r>
       <r>    6.0073    1.0000 </r>
       <r>    6.2964    1.0000 </r>
       <r>    8.3379    0.6304 </r>
       <r>    8.9292   -0.0139 </r>
       <r>    9.3742    0.0000 </r>
       <r>   10.7140    0.0000 </r>
       <r>   12.2851    0.0000 </r>
       <r>   13.9096    0.0000 </r>
       <r>   14.4102    0.0000 </r>
       <r>   14.6776    0.0000 </r>
      </set>
      <set comment="kpoint 1755">
       <r>    0.0674    1.0000 </r>
       <r>    1.1415    1.0000 </r>
       <r>    2.1796    1.0000 </r>
       <r>    2.3981    1.0000 </r>
       <r>    2.5442    1.0000 </r>
       <r>    2.7685    1.0000 </r>
       <r>    2.9050    1.0000 </r>
       <r>    3.3583    1.0000 </r>
       <r>    3.4605    1.0000 </r>
       <r>    3.5096    1.0000 </r>
       <r>    3.5693    1.0000 </r>
       <r>    3.6868    1.0000 </r>
       <r>    4.0111    1.0000 </r>
       <r>    4.0756    1.0000 </r>
       <r>    4.1016    1.0000 </r>
       <r>    4.1819    1.0000 </r>
       <r>    4.2280    1.0000 </r>
       <r>    4.2737    1.0000 </r>
       <r>    4.4303    1.0000 </r>
       <r>    4.4947    1.0000 </r>
       <r>    4.5496    1.0000 </r>
       <r>    4.6792    1.0000 </r>
       <r>    4.7474    1.0000 </r>
       <r>    4.8584    1.0000 </r>
       <r>    4.9490    1.0000 </r>
       <r>    5.1601    1.0000 </r>
       <r>    5.3585    1.0000 </r>
       <r>    5.5879    1.0000 </r>
       <r>    5.7175    1.0000 </r>
       <r>    6.0779    1.0000 </r>
       <r>    6.1058    1.0000 </r>
       <r>    6.2967    1.0000 </r>
       <r>    8.3118    0.6994 </r>
       <r>    8.9343   -0.0132 </r>
       <r>    9.4004    0.0000 </r>
       <r>   10.3106    0.0000 </r>
       <r>   11.9411    0.0000 </r>
       <r>   13.6197    0.0000 </r>
       <r>   14.1705    0.0000 </r>
       <r>   14.3980    0.0000 </r>
      </set>
      <set comment="kpoint 1756">
       <r>   -0.0243    1.0000 </r>
       <r>    0.9859    1.0000 </r>
       <r>    2.1233    1.0000 </r>
       <r>    2.3267    1.0000 </r>
       <r>    2.4979    1.0000 </r>
       <r>    2.6950    1.0000 </r>
       <r>    2.9416    1.0000 </r>
       <r>    3.3874    1.0000 </r>
       <r>    3.4843    1.0000 </r>
       <r>    3.5119    1.0000 </r>
       <r>    3.5751    1.0000 </r>
       <r>    3.7026    1.0000 </r>
       <r>    3.9983    1.0000 </r>
       <r>    4.0674    1.0000 </r>
       <r>    4.1862    1.0000 </r>
       <r>    4.1963    1.0000 </r>
       <r>    4.2906    1.0000 </r>
       <r>    4.3460    1.0000 </r>
       <r>    4.4108    1.0000 </r>
       <r>    4.5035    1.0000 </r>
       <r>    4.5683    1.0000 </r>
       <r>    4.6221    1.0000 </r>
       <r>    4.6925    1.0000 </r>
       <r>    4.9279    1.0000 </r>
       <r>    4.9666    1.0000 </r>
       <r>    5.0992    1.0000 </r>
       <r>    5.2876    1.0000 </r>
       <r>    5.5393    1.0000 </r>
       <r>    5.6937    1.0000 </r>
       <r>    6.1693    1.0000 </r>
       <r>    6.1878    1.0000 </r>
       <r>    6.3164    1.0000 </r>
       <r>    8.3579    0.5755 </r>
       <r>    8.9941   -0.0072 </r>
       <r>    9.4815    0.0000 </r>
       <r>    9.9888    0.0000 </r>
       <r>   11.6980    0.0000 </r>
       <r>   13.2999    0.0000 </r>
       <r>   13.9893    0.0000 </r>
       <r>   14.2255    0.0000 </r>
      </set>
     </set>
    </set>
   </array>
  </eigenvalues>
  <separator name="orbital magnetization" >
   <v name="MAGDIPOLOUT">      0.00000000      0.00000000      0.00000000</v>
  </separator>
  <dos>
   <i name="efermi">      8.38478322 </i>
   <total>
    <array>
     <dimension dim="1">gridpoints</dimension>
     <dimension dim="2">spin</dimension>
     <field>energy</field>
     <field>total</field>
     <field>integrated</field>
     <set>
      <set comment="spin 1">
       <r>    -3.4721     0.0000     0.0000 </r>
       <r>    -3.3880     0.0000     0.0000 </r>
       <r>    -3.3039     0.0000     0.0000 </r>
       <r>    -3.2197     0.0000     0.0000 </r>
       <r>    -3.1356     0.0000     0.0000 </r>
       <r>    -3.0515     0.0000     0.0000 </r>
       <r>    -2.9674     0.0000     0.0000 </r>
       <r>    -2.8832     0.0000     0.0000 </r>
       <r>    -2.7991     0.0000     0.0000 </r>
       <r>    -2.7150     0.0000     0.0000 </r>
       <r>    -2.6309     0.0000     0.0000 </r>
       <r>    -2.5468     0.0000     0.0000 </r>
       <r>    -2.4626     0.0000     0.0000 </r>
       <r>    -2.3785     0.0000     0.0000 </r>
       <r>    -2.2944     0.0000     0.0000 </r>
       <r>    -2.2103     0.0000     0.0000 </r>
       <r>    -2.1262     0.0000     0.0000 </r>
       <r>    -2.0420     0.0000     0.0000 </r>
       <r>    -1.9579     0.0000     0.0000 </r>
       <r>    -1.8738     0.0000     0.0000 </r>
       <r>    -1.7897     0.0000     0.0000 </r>
       <r>    -1.7056     0.0000     0.0000 </r>
       <r>    -1.6214     0.0000     0.0000 </r>
       <r>    -1.5373     0.0000     0.0000 </r>
       <r>    -1.4532     0.0000     0.0000 </r>
       <r>    -1.3691     0.0000     0.0000 </r>
       <r>    -1.2849     0.0000     0.0000 </r>
       <r>    -1.2008    -0.0001     0.0000 </r>
       <r>    -1.1167    -0.0004     0.0000 </r>
       <r>    -1.0326    -0.0012    -0.0001 </r>
       <r>    -0.9485    -0.0029    -0.0004 </r>
       <r>    -0.8643    -0.0058    -0.0009 </r>
       <r>    -0.7802    -0.0088    -0.0016 </r>
       <r>    -0.6961    -0.0086    -0.0023 </r>
       <r>    -0.6120     0.0009    -0.0023 </r>
       <r>    -0.5279     0.0268     0.0000 </r>
       <r>    -0.4437     0.0734     0.0062 </r>
       <r>    -0.3596     0.1391     0.0179 </r>
       <r>    -0.2755     0.2171     0.0361 </r>
       <r>    -0.1914     0.2978     0.0612 </r>
       <r>    -0.1073     0.3725     0.0925 </r>
       <r>    -0.0231     0.4348     0.1291 </r>
       <r>     0.0610     0.4809     0.1695 </r>
       <r>     0.1451     0.5106     0.2125 </r>
       <r>     0.2292     0.5272     0.2569 </r>
       <r>     0.3134     0.5356     0.3019 </r>
       <r>     0.3975     0.5405     0.3474 </r>
       <r>     0.4816     0.5453     0.3933 </r>
       <r>     0.5657     0.5537     0.4398 </r>
       <r>     0.6498     0.5692     0.4877 </r>
       <r>     0.7340     0.5958     0.5378 </r>
       <r>     0.8181     0.6366     0.5914 </r>
       <r>     0.9022     0.6922     0.6496 </r>
       <r>     0.9863     0.7587     0.7134 </r>
       <r>     1.0704     0.8297     0.7832 </r>
       <r>     1.1546     0.9027     0.8592 </r>
       <r>     1.2387     0.9837     0.9419 </r>
       <r>     1.3228     1.0882     1.0335 </r>
       <r>     1.4069     1.2399     1.1378 </r>
       <r>     1.4910     1.4651     1.2610 </r>
       <r>     1.5752     1.7859     1.4112 </r>
       <r>     1.6593     2.2130     1.5974 </r>
       <r>     1.7434     2.7457     1.8284 </r>
       <r>     1.8275     3.3803     2.1127 </r>
       <r>     1.9117     4.1213     2.4594 </r>
       <r>     1.9958     4.9896     2.8791 </r>
       <r>     2.0799     6.0171     3.3853 </r>
       <r>     2.1640     7.2222     3.9928 </r>
       <r>     2.2481     8.5694     4.7137 </r>
       <r>     2.3323     9.9479     5.5505 </r>
       <r>     2.4164    11.2051     6.4931 </r>
       <r>     2.5005    12.2210     7.5212 </r>
       <r>     2.5846    12.9479     8.6103 </r>
       <r>     2.6687    13.3738     9.7354 </r>
       <r>     2.7529    13.4616    10.8678 </r>
       <r>     2.8370    13.1584    11.9747 </r>
       <r>     2.9211    12.4933    13.0256 </r>
       <r>     3.0052    11.6696    14.0073 </r>
       <r>     3.0893    11.0331    14.9354 </r>
       <r>     3.1735    10.8980    15.8521 </r>
       <r>     3.2576    11.3523    16.8071 </r>
       <r>     3.3417    12.2014    17.8335 </r>
       <r>     3.4258    13.0992    18.9354 </r>
       <r>     3.5100    13.7655    20.0934 </r>
       <r>     3.5941    14.1421    21.2830 </r>
       <r>     3.6782    14.4125    22.4954 </r>
       <r>     3.7623    14.8996    23.7488 </r>
       <r>     3.8464    15.8829    25.0849 </r>
       <r>     3.9306    17.3846    26.5473 </r>
       <r>     4.0147    19.0333    28.1484 </r>
       <r>     4.0988    20.1592    29.8442 </r>
       <r>     4.1829    20.1603    31.5401 </r>
       <r>     4.2670    18.9152    33.1313 </r>
       <r>     4.3512    16.9033    34.5532 </r>
       <r>     4.4353    14.9123    35.8076 </r>
       <r>     4.5194    13.5765    36.9497 </r>
       <r>     4.6035    13.0955    38.0513 </r>
       <r>     4.6876    13.2747    39.1680 </r>
       <r>     4.7718    13.7576    40.3253 </r>
       <r>     4.8559    14.2401    41.5232 </r>
       <r>     4.9400    14.5556    42.7476 </r>
       <r>     5.0241    14.6448    43.9796 </r>
       <r>     5.1082    14.4953    45.1989 </r>
       <r>     5.1924    14.1184    46.3866 </r>
       <r>     5.2765    13.5683    47.5280 </r>
       <r>     5.3606    12.9521    48.6175 </r>
       <r>     5.4447    12.4030    49.6608 </r>
       <r>     5.5289    12.0417    50.6738 </r>
       <r>     5.6130    11.9621    51.6801 </r>
       <r>     5.6971    12.2287    52.7088 </r>
       <r>     5.7812    12.8396    53.7888 </r>
       <r>     5.8653    13.6642    54.9383 </r>
       <r>     5.9495    14.4337    56.1525 </r>
       <r>     6.0336    14.8321    57.4002 </r>
       <r>     6.1177    14.6230    58.6303 </r>
       <r>     6.2018    13.7114    59.7837 </r>
       <r>     6.2859    12.1326    60.8043 </r>
       <r>     6.3701    10.0389    61.6488 </r>
       <r>     6.4542     7.7010    62.2966 </r>
       <r>     6.5383     5.4639    62.7562 </r>
       <r>     6.6224     3.6378    63.0622 </r>
       <r>     6.7065     2.3904    63.2633 </r>
       <r>     6.7907     1.7145    63.4075 </r>
       <r>     6.8748     1.4721    63.5314 </r>
       <r>     6.9589     1.4721    63.6552 </r>
       <r>     7.0430     1.5454    63.7852 </r>
       <r>     7.1272     1.5947    63.9194 </r>
       <r>     7.2113     1.6013    64.0541 </r>
       <r>     7.2954     1.5930    64.1881 </r>
       <r>     7.3795     1.5990    64.3226 </r>
       <r>     7.4636     1.6237    64.4592 </r>
       <r>     7.5478     1.6500    64.5980 </r>
       <r>     7.6319     1.6602    64.7376 </r>
       <r>     7.7160     1.6523    64.8766 </r>
       <r>     7.8001     1.6397    65.0145 </r>
       <r>     7.8842     1.6398    65.1525 </r>
       <r>     7.9684     1.6598    65.2921 </r>
       <r>     8.0525     1.6923    65.4345 </r>
       <r>     8.1366     1.7199    65.5792 </r>
       <r>     8.2207     1.7254    65.7243 </r>
       <r>     8.3048     1.7015    65.8674 </r>
       <r>     8.3890     1.6574    66.0068 </r>
       <r>     8.4731     1.6164    66.1428 </r>
       <r>     8.5572     1.6042    66.2778 </r>
       <r>     8.6413     1.6316    66.4150 </r>
       <r>     8.7255     1.6849    66.5568 </r>
       <r>     8.8096     1.7313    66.7024 </r>
       <r>     8.8937     1.7402    66.8488 </r>
       <r>     8.9778     1.7033    66.9921 </r>
       <r>     9.0619     1.6399    67.1300 </r>
       <r>     9.1461     1.5831    67.2632 </r>
       <r>     9.2302     1.5594    67.3944 </r>
       <r>     9.3143     1.5749    67.5269 </r>
       <r>     9.3984     1.6167    67.6628 </r>
       <r>     9.4825     1.6627    67.8027 </r>
       <r>     9.5667     1.6924    67.9451 </r>
       <r>     9.6508     1.6935    68.0875 </r>
       <r>     9.7349     1.6672    68.2278 </r>
       <r>     9.8190     1.6276    68.3647 </r>
       <r>     9.9031     1.5937    68.4988 </r>
       <r>     9.9873     1.5763    68.6314 </r>
       <r>    10.0714     1.5728    68.7637 </r>
       <r>    10.1555     1.5729    68.8960 </r>
       <r>    10.2396     1.5688    69.0280 </r>
       <r>    10.3238     1.5601    69.1592 </r>
       <r>    10.4079     1.5493    69.2895 </r>
       <r>    10.4920     1.5374    69.4189 </r>
       <r>    10.5761     1.5225    69.5469 </r>
       <r>    10.6602     1.5022    69.6733 </r>
       <r>    10.7444     1.4768    69.7975 </r>
       <r>    10.8285     1.4504    69.9195 </r>
       <r>    10.9126     1.4318    70.0400 </r>
       <r>    10.9967     1.4329    70.1605 </r>
       <r>    11.0808     1.4646    70.2837 </r>
       <r>    11.1650     1.5330    70.4127 </r>
       <r>    11.2491     1.6374    70.5504 </r>
       <r>    11.3332     1.7669    70.6991 </r>
       <r>    11.4173     1.8995    70.8588 </r>
       <r>    11.5014     2.0080    71.0278 </r>
       <r>    11.5856     2.0728    71.2021 </r>
       <r>    11.6697     2.0896    71.3779 </r>
       <r>    11.7538     2.0676    71.5518 </r>
       <r>    11.8379     2.0216    71.7219 </r>
       <r>    11.9221     1.9677    71.8874 </r>
       <r>    12.0062     1.9205    72.0490 </r>
       <r>    12.0903     1.8901    72.2080 </r>
       <r>    12.1744     1.8788    72.3660 </r>
       <r>    12.2585     1.8804    72.5242 </r>
       <r>    12.3427     1.8836    72.6826 </r>
       <r>    12.4268     1.8770    72.8405 </r>
       <r>    12.5109     1.8569    72.9968 </r>
       <r>    12.5950     1.8285    73.1506 </r>
       <r>    12.6791     1.8012    73.3021 </r>
       <r>    12.7633     1.7809    73.4519 </r>
       <r>    12.8474     1.7704    73.6008 </r>
       <r>    12.9315     1.7742    73.7501 </r>
       <r>    13.0156     1.7978    73.9013 </r>
       <r>    13.0997     1.8418    74.0562 </r>
       <r>    13.1839     1.8965    74.2158 </r>
       <r>    13.2680     1.9484    74.3797 </r>
       <r>    13.3521     1.9888    74.5470 </r>
       <r>    13.4362     2.0177    74.7167 </r>
       <r>    13.5204     2.0400    74.8883 </r>
       <r>    13.6045     2.0590    75.0615 </r>
       <r>    13.6886     2.0751    75.2361 </r>
       <r>    13.7727     2.0867    75.4116 </r>
       <r>    13.8568     2.0927    75.5877 </r>
       <r>    13.9410     2.0915    75.7636 </r>
       <r>    14.0251     2.0776    75.9384 </r>
       <r>    14.1092     2.0421    76.1102 </r>
       <r>    14.1933     1.9817    76.2768 </r>
       <r>    14.2774     1.9075    76.4373 </r>
       <r>    14.3616     1.8425    76.5923 </r>
       <r>    14.4457     1.8024    76.7439 </r>
       <r>    14.5298     1.7804    76.8937 </r>
       <r>    14.6139     1.7539    77.0412 </r>
       <r>    14.6980     1.7061    77.1847 </r>
       <r>    14.7822     1.6387    77.3226 </r>
       <r>    14.8663     1.5672    77.4544 </r>
       <r>    14.9504     1.5071    77.5812 </r>
       <r>    15.0345     1.4671    77.7046 </r>
       <r>    15.1187     1.4488    77.8265 </r>
       <r>    15.2028     1.4451    77.9481 </r>
       <r>    15.2869     1.4395    78.0692 </r>
       <r>    15.3710     1.4137    78.1881 </r>
       <r>    15.4551     1.3604    78.3025 </r>
       <r>    15.5393     1.2878    78.4109 </r>
       <r>    15.6234     1.2096    78.5126 </r>
       <r>    15.7075     1.1330    78.6079 </r>
       <r>    15.7916     1.0577    78.6969 </r>
       <r>    15.8757     0.9841    78.7797 </r>
       <r>    15.9599     0.9183    78.8569 </r>
       <r>    16.0440     0.8670    78.9299 </r>
       <r>    16.1281     0.8304    78.9997 </r>
       <r>    16.2122     0.7996    79.0670 </r>
       <r>    16.2963     0.7639    79.1312 </r>
       <r>    16.3805     0.7202    79.1918 </r>
       <r>    16.4646     0.6749    79.2486 </r>
       <r>    16.5487     0.6385    79.3023 </r>
       <r>    16.6328     0.6156    79.3541 </r>
       <r>    16.7170     0.6017    79.4047 </r>
       <r>    16.8011     0.5883    79.4542 </r>
       <r>    16.8852     0.5703    79.5022 </r>
       <r>    16.9693     0.5474    79.5482 </r>
       <r>    17.0534     0.5204    79.5920 </r>
       <r>    17.1376     0.4903    79.6332 </r>
       <r>    17.2217     0.4594    79.6719 </r>
       <r>    17.3058     0.4309    79.7081 </r>
       <r>    17.3899     0.4051    79.7422 </r>
       <r>    17.4740     0.3786    79.7740 </r>
       <r>    17.5582     0.3474    79.8033 </r>
       <r>    17.6423     0.3122    79.8295 </r>
       <r>    17.7264     0.2783    79.8529 </r>
       <r>    17.8105     0.2510    79.8740 </r>
       <r>    17.8946     0.2320    79.8936 </r>
       <r>    17.9788     0.2188    79.9120 </r>
       <r>    18.0629     0.2067    79.9294 </r>
       <r>    18.1470     0.1913    79.9455 </r>
       <r>    18.2311     0.1699    79.9597 </r>
       <r>    18.3153     0.1427    79.9717 </r>
       <r>    18.3994     0.1122    79.9812 </r>
       <r>    18.4835     0.0827    79.9881 </r>
       <r>    18.5676     0.0578    79.9930 </r>
       <r>    18.6517     0.0388    79.9963 </r>
       <r>    18.7359     0.0250    79.9984 </r>
       <r>    18.8200     0.0148    79.9996 </r>
       <r>    18.9041     0.0072    80.0002 </r>
       <r>    18.9882     0.0020    80.0004 </r>
       <r>    19.0723    -0.0007    80.0003 </r>
       <r>    19.1565    -0.0015    80.0002 </r>
       <r>    19.2406    -0.0012    80.0001 </r>
       <r>    19.3247    -0.0007    80.0000 </r>
       <r>    19.4088    -0.0004    80.0000 </r>
       <r>    19.4929    -0.0001    80.0000 </r>
       <r>    19.5771     0.0000    80.0000 </r>
       <r>    19.6612     0.0000    80.0000 </r>
       <r>    19.7453     0.0000    80.0000 </r>
       <r>    19.8294     0.0000    80.0000 </r>
       <r>    19.9136     0.0000    80.0000 </r>
       <r>    19.9977     0.0000    80.0000 </r>
       <r>    20.0818     0.0000    80.0000 </r>
       <r>    20.1659     0.0000    80.0000 </r>
       <r>    20.2500     0.0000    80.0000 </r>
       <r>    20.3342     0.0000    80.0000 </r>
       <r>    20.4183     0.0000    80.0000 </r>
       <r>    20.5024     0.0000    80.0000 </r>
       <r>    20.5865     0.0000    80.0000 </r>
       <r>    20.6706     0.0000    80.0000 </r>
       <r>    20.7548     0.0000    80.0000 </r>
       <r>    20.8389     0.0000    80.0000 </r>
       <r>    20.9230     0.0000    80.0000 </r>
       <r>    21.0071     0.0000    80.0000 </r>
       <r>    21.0912     0.0000    80.0000 </r>
       <r>    21.1754     0.0000    80.0000 </r>
       <r>    21.2595     0.0000    80.0000 </r>
       <r>    21.3436     0.0000    80.0000 </r>
       <r>    21.4277     0.0000    80.0000 </r>
       <r>    21.5119     0.0000    80.0000 </r>
       <r>    21.5960     0.0000    80.0000 </r>
       <r>    21.6801     0.0000    80.0000 </r>
       <r>    21.7642     0.0000    80.0000 </r>
      </set>
     </set>
    </array>
   </total>
  </dos>
 </calculation>
 <structure name="finalpos" >
  <crystal>
   <varray name="basis" >
    <v>       0.00000000      -2.06036966      -2.06036966 </v>
    <v>       2.08402375       4.13792103      -2.07755137 </v>
    <v>       6.27829001      -2.08623703       4.14660669 </v>
   </varray>
   <i name="volume">    107.16380768 </i>
   <varray name="rec_basis" >
    <v>       0.11966789      -0.20235467      -0.28299513 </v>
    <v>       0.11983488       0.12070865      -0.12070865 </v>
    <v>       0.11950089      -0.04006819       0.04006819 </v>
   </varray>
  </crystal>
  <varray name="positions" >
   <v>       0.33173574       0.99688576       0.66658571 </v>
   <v>       0.16826426       0.50311424       0.83341429 </v>
   <v>       0.00167583       0.00554733       0.99780432 </v>
   <v>       0.83429686       0.50302338       0.16557035 </v>
   <v>       0.66570314       0.99697662       0.33442965 </v>
   <v>       0.49832417       0.49445267       0.50219568 </v>
  </varray>
 </structure>
</modeling>
