<?xml version="1.0" encoding="ISO-8859-1"?>
<modeling>
 <generator>
  <i name="program" type="string">vasp </i>
  <i name="version" type="string">5.3.5  </i>
  <i name="subversion" type="string">31Mar14 (build Jun 20 2014 13:15:13) complex                          parallel </i>
  <i name="platform" type="string">LinuxIFC </i>
  <i name="date" type="string">2025 12 16 </i>
  <i name="time" type="string">16:01:44 </i>
 </generator>
 <incar>
  <i type="string" name="PREC">accurate</i>
  <i type="int" name="IALGO">    68</i>
  <i type="logical" name="ADDGRID"> T  </i>
  <i type="int" name="NELM">   100</i>
  <i type="int" name="NELMIN">     4</i>
  <i type="int" name="IBRION">     2</i>
  <i name="EDIFF">      0.00000100</i>
  <i name="EDIFFG">     -0.02000000</i>
  <i type="int" name="NSW">    30</i>
  <i type="int" name="ISIF">     3</i>
  <i name="ENCUT">    600.00000000</i>
  <i type="logical" name="LREAL"> F  </i>
  <i type="int" name="ISMEAR">     0</i>
  <i name="SIGMA">      0.10000000</i>
  <i type="logical" name="LWAVE"> F  </i>
  <i type="logical" name="LCHARG"> F  </i>
  <i type="int" name="NELM">   100</i>
 </incar>
 <kpoints>
  <generation param="Auto">
   <i name="subdivisionlength">     20.00000000 </i>
   <v type="int" name="divisions">       2        6        3 </v>
   <v name="usershift">      0.00000000       0.00000000       0.00000000 </v>
   <v name="genvec1">      0.50000000       0.00000000       0.00000000 </v>
   <v name="genvec2">      0.00000000       0.16666667       0.00000000 </v>
   <v name="genvec3">      0.00000000       0.00000000       0.33333333 </v>
   <v name="shift">      0.00000000       0.00000000       0.00000000 </v>
  </generation>
  <varray name="kpointlist" >
   <v>       0.00000000       0.00000000       0.00000000 </v>
   <v>       0.50000000       0.00000000       0.00000000 </v>
   <v>       0.00000000       0.16666667       0.00000000 </v>
   <v>       0.50000000       0.16666667       0.00000000 </v>
   <v>       0.00000000       0.33333333       0.00000000 </v>
   <v>       0.50000000       0.33333333       0.00000000 </v>
   <v>       0.00000000       0.50000000       0.00000000 </v>
   <v>       0.50000000       0.50000000       0.00000000 </v>
   <v>       0.00000000       0.00000000       0.33333333 </v>
   <v>       0.50000000       0.00000000       0.33333333 </v>
   <v>       0.00000000       0.16666667       0.33333333 </v>
   <v>       0.50000000       0.16666667       0.33333333 </v>
   <v>       0.00000000       0.33333333       0.33333333 </v>
   <v>       0.50000000       0.33333333       0.33333333 </v>
   <v>       0.00000000       0.50000000       0.33333333 </v>
   <v>       0.50000000       0.50000000       0.33333333 </v>
  </varray>
  <varray name="weights" >
   <v>       0.02777778 </v>
   <v>       0.02777778 </v>
   <v>       0.05555556 </v>
   <v>       0.05555556 </v>
   <v>       0.05555556 </v>
   <v>       0.05555556 </v>
   <v>       0.02777778 </v>
   <v>       0.02777778 </v>
   <v>       0.05555556 </v>
   <v>       0.05555556 </v>
   <v>       0.11111111 </v>
   <v>       0.11111111 </v>
   <v>       0.11111111 </v>
   <v>       0.11111111 </v>
   <v>       0.05555556 </v>
   <v>       0.05555556 </v>
  </varray>
 </kpoints>
 <parameters>
  <separator name="general" >
   <i type="string" name="SYSTEM">unknown system</i>
   <i type="logical" name="LCOMPAT"> F  </i>
  </separator>
  <separator name="electronic" >
   <i type="string" name="PREC">accura</i>
   <i name="ENMAX">    600.00000000</i>
   <i name="ENAUG">    644.87300000</i>
   <i name="EDIFF">      0.00000100</i>
   <i type="int" name="IALGO">    68</i>
   <i type="int" name="IWAVPR">    11</i>
   <i type="int" name="NBANDS">    64</i>
   <i name="NELECT">     96.00000000</i>
   <i type="int" name="TURBO">     0</i>
   <i type="int" name="IRESTART">     0</i>
   <i type="int" name="NREBOOT">     0</i>
   <i type="int" name="NMIN">     0</i>
   <i name="EREF">      0.00000000</i>
   <separator name="electronic smearing" >
    <i type="int" name="ISMEAR">     0</i>
    <i name="SIGMA">      0.10000000</i>
    <i name="KSPACING">      0.50000000</i>
    <i type="logical" name="KGAMMA"> T  </i>
   </separator>
   <separator name="electronic projectors" >
    <i type="logical" name="LREAL"> F  </i>
    <v name="ROPT">      0.00000000      0.00000000      0.00000000      0.00000000</v>
    <i type="int" name="LMAXPAW">  -100</i>
    <i type="int" name="LMAXMIX">     2</i>
    <i type="logical" name="NLSPLINE"> F  </i>
   </separator>
   <separator name="electronic startup" >
    <i type="int" name="ISTART">     0</i>
    <i type="int" name="ICHARG">     2</i>
    <i type="int" name="INIWAV">     1</i>
   </separator>
   <separator name="electronic spin" >
    <i type="int" name="ISPIN">     1</i>
    <i type="logical" name="LNONCOLLINEAR"> F  </i>
    <v name="MAGMOM">      1.00000000      1.00000000      1.00000000      1.00000000      1.00000000      1.00000000      1.00000000      1.00000000      1.00000000      1.00000000      1.00000000      1.00000000      1.00000000      1.00000000      1.00000000      1.00000000      1.00000000      1.00000000      1.00000000      1.00000000
      1.00000000      1.00000000      1.00000000      1.00000000</v>
    <i name="NUPDOWN">     -1.00000000</i>
    <i type="logical" name="LSORBIT"> F  </i>
    <v name="SAXIS">      0.00000000      0.00000000      1.00000000</v>
    <i type="logical" name="LSPIRAL"> F  </i>
    <v name="QSPIRAL">      0.00000000      0.00000000      0.00000000</v>
    <i type="logical" name="LZEROZ"> F  </i>
   </separator>
   <separator name="electronic exchange-correlation" >
    <i type="logical" name="LASPH"> F  </i>
    <i type="logical" name="LMETAGGA"> F  </i>
   </separator>
   <separator name="electronic convergence" >
    <i type="int" name="NELM">   100</i>
    <i type="int" name="NELMDL">     0</i>
    <i type="int" name="NELMIN">     4</i>
    <i name="ENINI">    600.00000000</i>
    <separator name="electronic convergence detail" >
     <i type="logical" name="LDIAG"> T  </i>
     <i type="logical" name="LSUBROT"> F  </i>
     <i name="WEIMIN">      0.00100000</i>
     <i name="EBREAK">      0.00000000</i>
     <i name="DEPER">      0.30000000</i>
     <i type="int" name="NRMM">     4</i>
     <i name="TIME">      0.40000000</i>
    </separator>
   </separator>
   <separator name="electronic mixer" >
    <i name="AMIX">      0.40000000</i>
    <i name="BMIX">      1.00000000</i>
    <i name="AMIN">      0.10000000</i>
    <i name="AMIX_MAG">      1.60000000</i>
    <i name="BMIX_MAG">      1.00000000</i>
    <separator name="electronic mixer details" >
     <i type="int" name="IMIX">     4</i>
     <i type="int" name="MAXMIX">   -45</i>
     <i name="WC">    100.00000000</i>
     <i type="int" name="INIMIX">     1</i>
     <i type="int" name="MIXPRE">     1</i>
     <i type="int" name="MREMOVE">     5</i>
    </separator>
   </separator>
   <separator name="electronic dipolcorrection" >
    <i type="logical" name="LDIPOL"> F  </i>
    <i type="logical" name="LMONO"> F  </i>
    <i type="int" name="IDIPOL">     0</i>
    <i name="EPSILON">      1.00000000</i>
    <v name="DIPOL">   -100.00000000   -100.00000000   -100.00000000</v>
    <i name="EFIELD">      0.00000000</i>
   </separator>
  </separator>
  <separator name="grids" >
   <i type="int" name="NGX">    96</i>
   <i type="int" name="NGY">    28</i>
   <i type="int" name="NGZ">    60</i>
   <i type="int" name="NGXF">   192</i>
   <i type="int" name="NGYF">    56</i>
   <i type="int" name="NGZF">   120</i>
   <i type="logical" name="ADDGRID"> T  </i>
  </separator>
  <separator name="ionic" >
   <i type="int" name="NSW">    30</i>
   <i type="int" name="IBRION">     2</i>
   <i type="int" name="ISIF">     3</i>
   <i name="PSTRESS">      0.00000000</i>
   <i name="EDIFFG">     -0.02000000</i>
   <i type="int" name="NFREE">     1</i>
   <i name="POTIM">      0.50000000</i>
   <i name="SMASS">     -3.00000000</i>
   <i name="SCALEE">      1.00000000</i>
  </separator>
  <separator name="ionic md" >
   <i name="TEBEG">      0.00010000</i>
   <i name="TEEND">      0.00010000</i>
   <i type="int" name="NBLOCK">     1</i>
   <i type="int" name="KBLOCK">    30</i>
   <i type="int" name="NPACO">   256</i>
   <i name="APACO">     16.00000000</i>
  </separator>
  <separator name="symmetry" >
   <i type="int" name="ISYM">     2</i>
   <i name="SYMPREC">      0.00001000</i>
  </separator>
  <separator name="dos" >
   <i type="logical" name="LORBIT"> F  </i>
   <v name="RWIGS">     -1.00000000     -1.00000000     -1.00000000     -1.00000000</v>
   <i type="int" name="NEDOS">   301</i>
   <i name="EMIN">     10.00000000</i>
   <i name="EMAX">    -10.00000000</i>
   <i name="EFERMI">      0.00000000</i>
  </separator>
  <separator name="writing" >
   <i type="int" name="NWRITE">     2</i>
   <i type="logical" name="LWAVE"> F  </i>
   <i type="logical" name="LCHARG"> F  </i>
   <i type="logical" name="LPARD"> F  </i>
   <i type="logical" name="LVTOT"> F  </i>
   <i type="logical" name="LVHAR"> F  </i>
   <i type="logical" name="LELF"> F  </i>
   <i type="logical" name="LOPTICS"> F  </i>
   <v name="STM">      0.00000000      0.00000000      0.00000000      0.00000000      0.00000000      0.00000000      0.00000000</v>
  </separator>
  <separator name="performance" >
   <i type="int" name="NPAR">     4</i>
   <i type="int" name="NSIM">     4</i>
   <i type="int" name="NBLK">    -1</i>
   <i type="logical" name="LPLANE"> T  </i>
   <i type="logical" name="LSCALAPACK"> T  </i>
   <i type="logical" name="LSCAAWARE"> F  </i>
   <i type="logical" name="LSCALU"> F  </i>
   <i type="logical" name="LASYNC"> F  </i>
   <i type="logical" name="LORBITALREAL"> F  </i>
  </separator>
  <separator name="miscellaneous" >
   <i type="int" name="IDIOT">     3</i>
   <i type="logical" name="LMUSIC"> F  </i>
   <v name="POMASS">     28.08500000     26.98100000     12.01100000     14.00100000</v>
   <v name="DARWINR">      0.00000000      0.00000000      0.00000000      0.00000000</v>
   <v name="DARWINV">      1.00000000      1.00000000      1.00000000      1.00000000</v>
   <i type="logical" name="LCORR"> T  </i>
  </separator>
  <i type="logical" name="GGA_COMPAT"> T  </i>
  <i type="logical" name="LBERRY"> F  </i>
  <i type="int" name="ICORELEVEL">     0</i>
  <i type="logical" name="LDAU"> F  </i>
  <i type="int" name="I_CONSTRAINED_M">     0</i>
  <separator name="electronic exchange-correlation" >
   <i type="string" name="GGA">--</i>
   <i type="int" name="VOSKOWN">     0</i>
   <i type="logical" name="LHFCALC"> F  </i>
   <i type="string" name="PRECFOCK"></i>
   <i type="logical" name="LSYMGRAD"> F  </i>
   <i type="logical" name="LHFONE"> F  </i>
   <i type="logical" name="LRHFCALC"> F  </i>
   <i type="logical" name="LTHOMAS"> F  </i>
   <i type="logical" name="LMODELHF"> F  </i>
   <i name="ENCUT4O">     -1.00000000</i>
   <i type="int" name="EXXOEP">     0</i>
   <i type="int" name="FOURORBIT">     0</i>
   <i name="AEXX">      0.00000000</i>
   <i name="HFALPHA">      0.00000000</i>
   <i name="MCALPHA">      0.00000000</i>
   <i name="ALDAX">      1.00000000</i>
   <i name="AGGAX">      1.00000000</i>
   <i name="ALDAC">      1.00000000</i>
   <i name="AGGAC">      1.00000000</i>
   <i type="int" name="NKREDX">     1</i>
   <i type="int" name="NKREDY">     1</i>
   <i type="int" name="NKREDZ">     1</i>
   <i type="logical" name="SHIFTRED"> F  </i>
   <i type="logical" name="ODDONLY"> F  </i>
   <i type="logical" name="EVENONLY"> F  </i>
   <i type="int" name="LMAXFOCK">     0</i>
   <i type="int" name="NMAXFOCKAE">     0</i>
   <i type="logical" name="LFOCKAEDFT"> F  </i>
   <i name="HFSCREEN">      0.00000000</i>
   <i name="HFSCREENC">      0.00000000</i>
   <i type="int" name="NBANDSGWLOW">     0</i>
  </separator>
  <separator name="vdW DFT" >
   <i type="logical" name="LUSE_VDW"> F  </i>
   <i name="Zab_VDW">     -0.84910000</i>
   <i name="PARAM1">      0.12340000</i>
   <i name="PARAM2">      1.00000000</i>
   <i name="PARAM3">      0.00000000</i>
  </separator>
  <separator name="model GW" >
   <i type="int" name="MODEL_GW">     0</i>
   <i name="MODEL_EPS0">      6.41267534</i>
   <i name="MODEL_ALPHA">      1.00000000</i>
  </separator>
  <separator name="linear response parameters" >
   <i type="logical" name="LEPSILON"> F  </i>
   <i type="logical" name="LRPA"> F  </i>
   <i type="logical" name="LNABLA"> F  </i>
   <i type="logical" name="LVEL"> F  </i>
   <i type="int" name="KINTER">     0</i>
   <i name="CSHIFT">      0.10000000</i>
   <i name="OMEGAMAX">     -1.00000000</i>
   <i name="DEG_THRESHOLD">      0.00200000</i>
  </separator>
  <separator name="orbital magnetization" >
   <i type="logical" name="NUCIND"> F  </i>
   <v name="MAGPOS">      0.00000000      0.00000000      0.00000000</v>
   <i type="logical" name="LNICSALL"> T  </i>
   <i type="logical" name="ORBITALMAG"> F  </i>
   <i type="logical" name="LMAGBLOCH"> F  </i>
   <i type="logical" name="LCHIMAG"> F  </i>
   <i type="logical" name="LGAUGE"> T  </i>
   <i type="int" name="MAGATOM">     0</i>
   <v name="MAGDIPOL">      0.00000000      0.00000000      0.00000000</v>
   <v name="AVECCONST">      0.00000000      0.00000000      0.00000000</v>
  </separator>
  <separator name="response functions" >
   <i type="logical" name="LADDER"> F  </i>
   <i type="logical" name="LFXC"> F  </i>
   <i type="logical" name="LHARTREE"> T  </i>
   <i type="int" name="IBSE">     0</i>
   <i type="logical" name="LTCTE"> F  </i>
   <i type="logical" name="LTETE"> F  </i>
   <i type="logical" name="LTRIPLET"> F  </i>
   <i type="logical" name="LFXCEPS"> F  </i>
   <i type="logical" name="LFXHEG"> F  </i>
   <i type="logical" name="L2ORDER"> F  </i>
   <i type="logical" name="LUSEW"> F  </i>
   <i name="ENCUTGW">     -2.00000000</i>
   <i name="ENCUTGWSOFT">     -2.00000000</i>
   <i name="ENCUTLF">     -1.00000000</i>
   <i type="int" name="LMAXMP2">    -1</i>
   <i name="SCISSOR">      0.00000000</i>
   <i type="int" name="NOMEGA">     0</i>
   <i type="int" name="NOMEGAR">     0</i>
   <i type="int" name="NBANDSGW">    -1</i>
   <i type="int" name="NBANDSO">    -1</i>
   <i type="int" name="NBANDSV">    -1</i>
   <i type="int" name="NELM">   100</i>
   <i type="int" name="DIM">     3</i>
   <i type="int" name="ANTIRES">     0</i>
   <i name="OMEGAMAX">    -30.00000000</i>
   <i name="OMEGAMIN">    -30.00000000</i>
   <i name="OMEGATL">   -200.00000000</i>
   <i type="int" name="OMEGAGRID">     0</i>
   <i name="CSHIFT">     -0.10000000</i>
   <i type="logical" name="SELFENERGY"> F  </i>
   <i type="logical" name="LSPECTRAL"> F  </i>
   <i type="logical" name="ODDONLYGW"> F  </i>
   <i type="logical" name="EVENONLYGW"> F  </i>
   <i type="int" name="NKREDLFX">     1</i>
   <i type="int" name="NKREDLFY">     1</i>
   <i type="int" name="NKREDLFZ">     1</i>
   <i type="int" name="MAXMEM">  1800</i>
   <i type="int" name="TELESCOPE">     0</i>
   <i type="int" name="TAUPAR">     1</i>
  </separator>
  <separator name="External order field" >
   <i name="OFIELD_KAPPA">      0.00000000</i>
   <v name="OFIELD_K">      0.00000000      0.00000000      0.00000000</v>
   <i name="OFIELD_Q6_NEAR">      0.00000000</i>
   <i name="OFIELD_Q6_FAR">      0.00000000</i>
   <i name="OFIELD_A">      0.00000000</i>
  </separator>
 </parameters>
 <atominfo>
  <atoms>      24 </atoms>
  <types>       4 </types>
  <array name="atoms" >
   <dimension dim="1">ion</dimension>
   <field type="string">element</field>
   <field type="int">atomtype</field>
   <set>
    <rc><c>Si</c><c>   1</c></rc>
    <rc><c>Si</c><c>   1</c></rc>
    <rc><c>Si</c><c>   1</c></rc>
    <rc><c>Si</c><c>   1</c></rc>
    <rc><c>Si</c><c>   1</c></rc>
    <rc><c>Si</c><c>   1</c></rc>
    <rc><c>Al</c><c>   2</c></rc>
    <rc><c>Al</c><c>   2</c></rc>
    <rc><c>Al</c><c>   2</c></rc>
    <rc><c>Al</c><c>   2</c></rc>
    <rc><c>Al</c><c>   2</c></rc>
    <rc><c>Al</c><c>   2</c></rc>
    <rc><c>C </c><c>   3</c></rc>
    <rc><c>C </c><c>   3</c></rc>
    <rc><c>C </c><c>   3</c></rc>
    <rc><c>C </c><c>   3</c></rc>
    <rc><c>C </c><c>   3</c></rc>
    <rc><c>C </c><c>   3</c></rc>
    <rc><c>N </c><c>   4</c></rc>
    <rc><c>N </c><c>   4</c></rc>
    <rc><c>N </c><c>   4</c></rc>
    <rc><c>N </c><c>   4</c></rc>
    <rc><c>N </c><c>   4</c></rc>
    <rc><c>N </c><c>   4</c></rc>
   </set>
  </array>
  <array name="atomtypes" >
   <dimension dim="1">type</dimension>
   <field type="int">atomspertype</field>
   <field type="string">element</field>
   <field>mass</field>
   <field>valence</field>
   <field type="string">pseudopotential</field>
   <set>
    <rc><c>   6</c><c>Si</c><c>     28.08500000</c><c>      4.00000000</c><c>  PAW_PBE Si 05Jan2001                  </c></rc>
    <rc><c>   6</c><c>Al</c><c>     26.98100000</c><c>      3.00000000</c><c>  PAW_PBE Al 04Jan2001                  </c></rc>
    <rc><c>   6</c><c>C </c><c>     12.01100000</c><c>      4.00000000</c><c>  PAW_PBE C 08Apr2002                   </c></rc>
    <rc><c>   6</c><c>N </c><c>     14.00100000</c><c>      5.00000000</c><c>  PAW_PBE N_s 07Sep2000                 </c></rc>
   </set>
  </array>
 </atominfo>
 <structure name="initialpos" >
  <crystal>
   <varray name="basis" >
    <v>      11.41524671       0.00000000      -0.08274624 </v>
    <v>       0.00000000       3.12015088       0.00000000 </v>
    <v>      -1.87991142       0.00000000       7.21538207 </v>
   </varray>
   <i name="volume">    256.50701375 </i>
   <varray name="rec_basis" >
    <v>       0.08776790       0.00000000       0.02286724 </v>
    <v>       0.00000000       0.32049732       0.00000000 </v>
    <v>       0.00100653       0.00000000       0.13885504 </v>
   </varray>
  </crystal>
  <varray name="positions" >
   <v>       0.04999745       0.50000000       0.10915866 </v>
   <v>       0.21845688       0.00000000       0.43905553 </v>
   <v>       0.45141515       0.50000000       0.38840370 </v>
   <v>       0.54999745       0.00000000       0.10915866 </v>
   <v>       0.71845688       0.50000000       0.43905553 </v>
   <v>       0.95141515       0.00000000       0.38840370 </v>
   <v>       0.38956893       0.50000000       0.78829651 </v>
   <v>       0.27987230       0.00000000       0.04615683 </v>
   <v>       0.11145682       0.50000000       0.72368349 </v>
   <v>       0.88956893       0.00000000       0.78829651 </v>
   <v>       0.77987230       0.50000000       0.04615683 </v>
   <v>       0.61145682       0.00000000       0.72368349 </v>
   <v>       0.43330233       0.00000000       0.24609740 </v>
   <v>       0.10034560       0.00000000       0.55898750 </v>
   <v>       0.48774206       0.00000000       0.86283046 </v>
   <v>       0.93330233       0.50000000       0.24609740 </v>
   <v>       0.60034560       0.50000000       0.55898750 </v>
   <v>       0.98774206       0.50000000       0.86283046 </v>
   <v>       0.26044922       0.50000000       0.90481050 </v>
   <v>       0.15138188       0.00000000       0.18730432 </v>
   <v>       0.31601139       0.50000000       0.49521510 </v>
   <v>       0.76044922       0.00000000       0.90481050 </v>
   <v>       0.65138188       0.50000000       0.18730432 </v>
   <v>       0.81601139       0.00000000       0.49521510 </v>
  </varray>
 </structure>
 <calculation>
  <scstep>
   <time name="dav">    0.79    0.79</time>
   <time name="total">    0.86    0.87</time>
   <energy>
    <i name="alphaZ">     95.40612642 </i>
    <i name="ewald">  -3399.73856184 </i>
    <i name="hartreedc">   -542.42731659 </i>
    <i name="XCdc">     -8.62572902 </i>
    <i name="pawpsdc">   2806.70641217 </i>
    <i name="pawaedc">  -2519.94783863 </i>
    <i name="eentropy">     -0.02736238 </i>
    <i name="bandstr">    677.55979112 </i>
    <i name="atom">   3409.81467736 </i>
    <i name="e_fr_energy">    518.72019860 </i>
    <i name="e_wo_entrp">    518.74756098 </i>
    <i name="e_0_energy">    518.73387979 </i>
   </energy>
  </scstep>
  <scstep>
   <time name="dav">    0.92    0.92</time>
   <time name="total">    0.92    0.93</time>
   <energy>
    <i name="e_fr_energy">   -146.06317473 </i>
    <i name="e_wo_entrp">   -146.06317473 </i>
    <i name="e_0_energy">   -146.06317473 </i>
   </energy>
  </scstep>
  <scstep>
   <time name="dav">    0.93    0.93</time>
   <time name="total">    0.93    0.94</time>
   <energy>
    <i name="e_fr_energy">   -200.63105894 </i>
    <i name="e_wo_entrp">   -200.63105894 </i>
    <i name="e_0_energy">   -200.63105894 </i>
   </energy>
  </scstep>
  <scstep>
   <time name="dav">    0.91    0.91</time>
   <time name="total">    0.91    0.93</time>
   <energy>
    <i name="e_fr_energy">   -202.22903979 </i>
    <i name="e_wo_entrp">   -202.22903979 </i>
    <i name="e_0_energy">   -202.22903979 </i>
   </energy>
  </scstep>
  <scstep>
   <time name="dav">    0.90    0.90</time>
   <time name="total">    1.02    1.03</time>
   <energy>
    <i name="e_fr_energy">   -202.28467857 </i>
    <i name="e_wo_entrp">   -202.28467857 </i>
    <i name="e_0_energy">   -202.28467857 </i>
   </energy>
  </scstep>
  <scstep>
   <time name="diag">    0.16    0.16</time>
   <time name="diis">    0.62    0.62</time>
   <time name="orth">    0.03    0.03</time>
   <time name="total">    0.99    1.00</time>
   <energy>
    <i name="e_fr_energy">   -174.57367269 </i>
    <i name="e_wo_entrp">   -174.57367269 </i>
    <i name="e_0_energy">   -174.57367269 </i>
   </energy>
  </scstep>
  <scstep>
   <time name="diag">    0.18    0.18</time>
   <time name="diis">    0.64    0.64</time>
   <time name="orth">    0.03    0.03</time>
   <time name="total">    1.02    1.03</time>
   <energy>
    <i name="e_fr_energy">   -174.37035690 </i>
    <i name="e_wo_entrp">   -174.37035690 </i>
    <i name="e_0_energy">   -174.37035690 </i>
   </energy>
  </scstep>
  <scstep>
   <time name="diag">    0.16    0.16</time>
   <time name="diis">    0.60    0.60</time>
   <time name="orth">    0.03    0.03</time>
   <time name="total">    0.97    0.98</time>
   <energy>
    <i name="e_fr_energy">   -174.99721107 </i>
    <i name="e_wo_entrp">   -174.99721107 </i>
    <i name="e_0_energy">   -174.99721107 </i>
   </energy>
  </scstep>
  <scstep>
   <time name="diag">    0.16    0.16</time>
   <time name="diis">    0.61    0.61</time>
   <time name="orth">    0.03    0.03</time>
   <time name="total">    0.98    0.99</time>
   <energy>
    <i name="e_fr_energy">   -174.17211774 </i>
    <i name="e_wo_entrp">   -174.17211774 </i>
    <i name="e_0_energy">   -174.17211774 </i>
   </energy>
  </scstep>
  <scstep>
   <time name="diag">    0.16    0.16</time>
   <time name="diis">    0.60    0.60</time>
   <time name="orth">    0.03    0.03</time>
   <time name="total">    0.97    0.98</time>
   <energy>
    <i name="e_fr_energy">   -174.17557710 </i>
    <i name="e_wo_entrp">   -174.17557710 </i>
    <i name="e_0_energy">   -174.17557710 </i>
   </energy>
  </scstep>
  <scstep>
   <time name="diag">    0.16    0.16</time>
   <time name="diis">    0.61    0.61</time>
   <time name="orth">    0.03    0.03</time>
   <time name="total">    0.98    0.99</time>
   <energy>
    <i name="e_fr_energy">   -174.17926043 </i>
    <i name="e_wo_entrp">   -174.17926043 </i>
    <i name="e_0_energy">   -174.17926043 </i>
   </energy>
  </scstep>
  <scstep>
   <time name="diag">    0.16    0.16</time>
   <time name="diis">    0.62    0.62</time>
   <time name="orth">    0.09    0.09</time>
   <time name="total">    1.05    1.06</time>
   <energy>
    <i name="e_fr_energy">   -174.17584789 </i>
    <i name="e_wo_entrp">   -174.17584789 </i>
    <i name="e_0_energy">   -174.17584789 </i>
   </energy>
  </scstep>
  <scstep>
   <time name="diag">    0.16    0.16</time>
   <time name="diis">    0.61    0.61</time>
   <time name="orth">    0.03    0.03</time>
   <time name="total">    0.98    0.99</time>
   <energy>
    <i name="e_fr_energy">   -174.17570096 </i>
    <i name="e_wo_entrp">   -174.17570096 </i>
    <i name="e_0_energy">   -174.17570096 </i>
   </energy>
  </scstep>
  <scstep>
   <time name="diag">    0.16    0.16</time>
   <time name="diis">    0.62    0.62</time>
   <time name="orth">    0.03    0.03</time>
   <time name="total">    0.99    1.00</time>
   <energy>
    <i name="e_fr_energy">   -174.17571604 </i>
    <i name="e_wo_entrp">   -174.17571604 </i>
    <i name="e_0_energy">   -174.17571604 </i>
   </energy>
  </scstep>
  <scstep>
   <time name="diag">    0.16    0.16</time>
   <time name="diis">    0.60    0.60</time>
   <time name="orth">    0.03    0.03</time>
   <time name="total">    0.97    0.98</time>
   <energy>
    <i name="e_fr_energy">   -174.17571502 </i>
    <i name="e_wo_entrp">   -174.17571502 </i>
    <i name="e_0_energy">   -174.17571502 </i>
   </energy>
  </scstep>
  <scstep>
   <time name="diag">    0.16    0.16</time>
   <time name="diis">    0.47    0.47</time>
   <time name="orth">    0.03    0.03</time>
   <time name="total">    0.73    0.75</time>
   <energy>
    <i name="alphaZ">     95.40612642 </i>
    <i name="ewald">  -3399.73856184 </i>
    <i name="hartreedc">   -702.33710227 </i>
    <i name="XCdc">      5.74573590 </i>
    <i name="pawpsdc">  14806.69074690 </i>
    <i name="pawaedc"> -14526.12575771 </i>
    <i name="eentropy">      0.00000000 </i>
    <i name="bandstr">    136.36842020 </i>
    <i name="atom">   3409.81467736 </i>
    <i name="e_fr_energy">   -174.17571503 </i>
    <i name="e_wo_entrp">   -174.17571503 </i>
    <i name="e_0_energy">   -174.17571503 </i>
   </energy>
  </scstep>
  <structure>
   <crystal>
    <varray name="basis" >
     <v>      11.41524671       0.00000000      -0.08274624 </v>
     <v>       0.00000000       3.12015088       0.00000000 </v>
     <v>      -1.87991142       0.00000000       7.21538207 </v>
    </varray>
    <i name="volume">    256.50701375 </i>
    <varray name="rec_basis" >
     <v>       0.08776790       0.00000000       0.02286724 </v>
     <v>       0.00000000       0.32049732       0.00000000 </v>
     <v>       0.00100653       0.00000000       0.13885504 </v>
    </varray>
   </crystal>
   <varray name="positions" >
    <v>       0.04999745       0.50000000       0.10915866 </v>
    <v>       0.21845688       0.00000000       0.43905553 </v>
    <v>       0.45141515       0.50000000       0.38840370 </v>
    <v>       0.54999745       0.00000000       0.10915866 </v>
    <v>       0.71845688       0.50000000       0.43905553 </v>
    <v>       0.95141515       0.00000000       0.38840370 </v>
    <v>       0.38956893       0.50000000       0.78829651 </v>
    <v>       0.27987230       0.00000000       0.04615683 </v>
    <v>       0.11145682       0.50000000       0.72368349 </v>
    <v>       0.88956893       0.00000000       0.78829651 </v>
    <v>       0.77987230       0.50000000       0.04615683 </v>
    <v>       0.61145682       0.00000000       0.72368349 </v>
    <v>       0.43330233       0.00000000       0.24609740 </v>
    <v>       0.10034560       0.00000000       0.55898750 </v>
    <v>       0.48774206       0.00000000       0.86283046 </v>
    <v>       0.93330233       0.50000000       0.24609740 </v>
    <v>       0.60034560       0.50000000       0.55898750 </v>
    <v>       0.98774206       0.50000000       0.86283046 </v>
    <v>       0.26044922       0.50000000       0.90481050 </v>
    <v>       0.15138188       0.00000000       0.18730432 </v>
    <v>       0.31601139       0.50000000       0.49521510 </v>
    <v>       0.76044922       0.00000000       0.90481050 </v>
    <v>       0.65138188       0.50000000       0.18730432 </v>
    <v>       0.81601139       0.00000000       0.49521510 </v>
   </varray>
  </structure>
  <varray name="forces" >
   <v>      -0.00548451       0.00000000      -0.01247312 </v>
   <v>      -0.00649547       0.00000000       0.01412482 </v>
   <v>      -0.00150246       0.00000000       0.00968409 </v>
   <v>      -0.00548451       0.00000000      -0.01247312 </v>
   <v>      -0.00649547       0.00000000       0.01412482 </v>
   <v>      -0.00150246       0.00000000       0.00968409 </v>
   <v>      -0.00696987       0.00000000      -0.00720272 </v>
   <v>       0.00101702       0.00000000       0.00731233 </v>
   <v>       0.00763235       0.00000000      -0.00024263 </v>
   <v>      -0.00696987       0.00000000      -0.00720272 </v>
   <v>       0.00101702       0.00000000       0.00731233 </v>
   <v>       0.00763235       0.00000000      -0.00024263 </v>
   <v>       0.00761552       0.00000000      -0.00313084 </v>
   <v>      -0.00126063       0.00000000      -0.00105781 </v>
   <v>       0.00222634       0.00000000       0.00603662 </v>
   <v>       0.00761552       0.00000000      -0.00313084 </v>
   <v>      -0.00126063       0.00000000      -0.00105781 </v>
   <v>       0.00222634       0.00000000       0.00603662 </v>
   <v>      -0.00642858       0.00000000       0.00086754 </v>
   <v>       0.00451725       0.00000000      -0.00525179 </v>
   <v>       0.00513303       0.00000000      -0.00866650 </v>
   <v>      -0.00642858       0.00000000       0.00086754 </v>
   <v>       0.00451725       0.00000000      -0.00525179 </v>
   <v>       0.00513303       0.00000000      -0.00866650 </v>
  </varray>
  <varray name="stress" >
   <v>      -0.10763876       0.00000000      -0.09244664 </v>
   <v>       0.00000000      -0.22059881       0.00000000 </v>
   <v>      -0.09244645       0.00000000       0.02506555 </v>
  </varray>
  <energy>
   <i name="e_fr_energy">   -174.17571503 </i>
   <i name="e_wo_entrp">   -174.17571503 </i>
   <i name="e_0_energy">      0.00000000 </i>
  </energy>
  <time name="totalsc">   17.37   17.61</time>
  <eigenvalues>
   <array>
    <dimension dim="1">band</dimension>
    <dimension dim="2">kpoint</dimension>
    <dimension dim="3">spin</dimension>
    <field>eigene</field>
    <field>occ</field>
    <set>
     <set comment="spin 1">
      <set comment="kpoint 1">
       <r>   -9.5713    1.0000 </r>
       <r>   -9.3828    1.0000 </r>
       <r>   -8.4142    1.0000 </r>
       <r>   -8.2683    1.0000 </r>
       <r>   -6.9936    1.0000 </r>
       <r>   -6.9810    1.0000 </r>
       <r>   -5.5033    1.0000 </r>
       <r>   -5.0019    1.0000 </r>
       <r>   -3.7392    1.0000 </r>
       <r>   -3.7004    1.0000 </r>
       <r>   -3.4637    1.0000 </r>
       <r>   -3.4360    1.0000 </r>
       <r>   -0.7330    1.0000 </r>
       <r>    0.2270    1.0000 </r>
       <r>    0.4016    1.0000 </r>
       <r>    1.0908    1.0000 </r>
       <r>    1.2334    1.0000 </r>
       <r>    1.3035    1.0000 </r>
       <r>    2.1247    1.0000 </r>
       <r>    2.2248    1.0000 </r>
       <r>    2.5381    1.0000 </r>
       <r>    2.9199    1.0000 </r>
       <r>    3.0407    1.0000 </r>
       <r>    3.1813    1.0000 </r>
       <r>    3.4681    1.0000 </r>
       <r>    3.7436    1.0000 </r>
       <r>    3.8906    1.0000 </r>
       <r>    3.9119    1.0000 </r>
       <r>    4.0015    1.0000 </r>
       <r>    4.1871    1.0000 </r>
       <r>    4.6356    1.0000 </r>
       <r>    4.9892    1.0000 </r>
       <r>    4.9958    1.0000 </r>
       <r>    5.1681    1.0000 </r>
       <r>    5.3150    1.0000 </r>
       <r>    5.4429    1.0000 </r>
       <r>    5.4727    1.0000 </r>
       <r>    5.7354    1.0000 </r>
       <r>    5.9424    1.0000 </r>
       <r>    6.0453    1.0000 </r>
       <r>    6.2982    1.0000 </r>
       <r>    6.8284    1.0000 </r>
       <r>    7.2804    1.0000 </r>
       <r>    7.4643    1.0000 </r>
       <r>    7.8055    1.0000 </r>
       <r>    7.8865    1.0000 </r>
       <r>    8.0917    1.0000 </r>
       <r>    8.1431    1.0000 </r>
       <r>    9.8058    0.0000 </r>
       <r>   10.0849    0.0000 </r>
       <r>   10.3683    0.0000 </r>
       <r>   11.5027    0.0000 </r>
       <r>   11.6889    0.0000 </r>
       <r>   11.8000    0.0000 </r>
       <r>   12.1380    0.0000 </r>
       <r>   12.8386    0.0000 </r>
       <r>   12.9840    0.0000 </r>
       <r>   13.1486    0.0000 </r>
       <r>   13.2835    0.0000 </r>
       <r>   13.6709    0.0000 </r>
       <r>   14.0348    0.0000 </r>
       <r>   14.1940    0.0000 </r>
       <r>   14.7644    0.0000 </r>
       <r>   15.2546    0.0000 </r>
      </set>
      <set comment="kpoint 2">
       <r>   -9.4857    1.0000 </r>
       <r>   -9.4857    1.0000 </r>
       <r>   -8.3308    1.0000 </r>
       <r>   -8.3308    1.0000 </r>
       <r>   -6.9846    1.0000 </r>
       <r>   -6.9846    1.0000 </r>
       <r>   -5.3001    1.0000 </r>
       <r>   -5.3001    1.0000 </r>
       <r>   -3.7080    1.0000 </r>
       <r>   -3.7080    1.0000 </r>
       <r>   -3.4004    1.0000 </r>
       <r>   -3.4004    1.0000 </r>
       <r>   -0.2794    1.0000 </r>
       <r>   -0.2794    1.0000 </r>
       <r>    0.3955    1.0000 </r>
       <r>    0.3955    1.0000 </r>
       <r>    1.6709    1.0000 </r>
       <r>    1.6709    1.0000 </r>
       <r>    2.2812    1.0000 </r>
       <r>    2.2812    1.0000 </r>
       <r>    2.6536    1.0000 </r>
       <r>    2.6536    1.0000 </r>
       <r>    3.1049    1.0000 </r>
       <r>    3.1049    1.0000 </r>
       <r>    3.3172    1.0000 </r>
       <r>    3.3172    1.0000 </r>
       <r>    3.9531    1.0000 </r>
       <r>    3.9531    1.0000 </r>
       <r>    4.3178    1.0000 </r>
       <r>    4.3178    1.0000 </r>
       <r>    4.7258    1.0000 </r>
       <r>    4.7258    1.0000 </r>
       <r>    4.9816    1.0000 </r>
       <r>    4.9816    1.0000 </r>
       <r>    5.4597    1.0000 </r>
       <r>    5.4597    1.0000 </r>
       <r>    5.9172    1.0000 </r>
       <r>    5.9172    1.0000 </r>
       <r>    5.9891    1.0000 </r>
       <r>    5.9891    1.0000 </r>
       <r>    6.4233    1.0000 </r>
       <r>    6.4233    1.0000 </r>
       <r>    7.1440    1.0000 </r>
       <r>    7.1440    1.0000 </r>
       <r>    7.8368    1.0000 </r>
       <r>    7.8368    1.0000 </r>
       <r>    8.1292    1.0000 </r>
       <r>    8.1292    1.0000 </r>
       <r>   10.0882    0.0000 </r>
       <r>   10.0882    0.0000 </r>
       <r>   10.8043    0.0000 </r>
       <r>   10.8043    0.0000 </r>
       <r>   11.5380    0.0000 </r>
       <r>   11.5380    0.0000 </r>
       <r>   12.7418    0.0000 </r>
       <r>   12.7419    0.0000 </r>
       <r>   13.0428    0.0000 </r>
       <r>   13.0431    0.0000 </r>
       <r>   13.5265    0.0000 </r>
       <r>   13.5277    0.0000 </r>
       <r>   14.3037    0.0000 </r>
       <r>   14.3196    0.0000 </r>
       <r>   14.8805    0.0000 </r>
       <r>   14.9713    0.0000 </r>
      </set>
      <set comment="kpoint 3">
       <r>   -9.3109    1.0000 </r>
       <r>   -9.1367    1.0000 </r>
       <r>   -8.2258    1.0000 </r>
       <r>   -8.0982    1.0000 </r>
       <r>   -6.8102    1.0000 </r>
       <r>   -6.8082    1.0000 </r>
       <r>   -5.2235    1.0000 </r>
       <r>   -4.7410    1.0000 </r>
       <r>   -3.6054    1.0000 </r>
       <r>   -3.5116    1.0000 </r>
       <r>   -3.2140    1.0000 </r>
       <r>   -3.1975    1.0000 </r>
       <r>   -0.5350    1.0000 </r>
       <r>    0.3211    1.0000 </r>
       <r>    0.4651    1.0000 </r>
       <r>    0.9830    1.0000 </r>
       <r>    1.2842    1.0000 </r>
       <r>    1.3203    1.0000 </r>
       <r>    1.7782    1.0000 </r>
       <r>    1.9276    1.0000 </r>
       <r>    2.3389    1.0000 </r>
       <r>    2.3885    1.0000 </r>
       <r>    2.5425    1.0000 </r>
       <r>    2.6373    1.0000 </r>
       <r>    3.0332    1.0000 </r>
       <r>    3.4235    1.0000 </r>
       <r>    3.5979    1.0000 </r>
       <r>    3.8433    1.0000 </r>
       <r>    4.1014    1.0000 </r>
       <r>    4.1088    1.0000 </r>
       <r>    4.2928    1.0000 </r>
       <r>    4.3587    1.0000 </r>
       <r>    4.5296    1.0000 </r>
       <r>    4.6835    1.0000 </r>
       <r>    4.8819    1.0000 </r>
       <r>    5.0486    1.0000 </r>
       <r>    5.2683    1.0000 </r>
       <r>    5.4038    1.0000 </r>
       <r>    5.5245    1.0000 </r>
       <r>    5.8616    1.0000 </r>
       <r>    6.2237    1.0000 </r>
       <r>    6.5059    1.0000 </r>
       <r>    6.7648    1.0000 </r>
       <r>    6.9223    1.0000 </r>
       <r>    6.9262    1.0000 </r>
       <r>    7.2187    1.0000 </r>
       <r>    7.2883    1.0000 </r>
       <r>    7.4287    1.0000 </r>
       <r>   11.0034    0.0000 </r>
       <r>   11.0172    0.0000 </r>
       <r>   11.5506    0.0000 </r>
       <r>   11.8824    0.0000 </r>
       <r>   12.5219    0.0000 </r>
       <r>   12.5836    0.0000 </r>
       <r>   12.7033    0.0000 </r>
       <r>   12.7337    0.0000 </r>
       <r>   12.9707    0.0000 </r>
       <r>   13.0249    0.0000 </r>
       <r>   13.6802    0.0000 </r>
       <r>   13.6940    0.0000 </r>
       <r>   13.7658    0.0000 </r>
       <r>   13.9488    0.0000 </r>
       <r>   14.4471    0.0000 </r>
       <r>   14.5978    0.0000 </r>
      </set>
      <set comment="kpoint 4">
       <r>   -9.2314    1.0000 </r>
       <r>   -9.2314    1.0000 </r>
       <r>   -8.1533    1.0000 </r>
       <r>   -8.1533    1.0000 </r>
       <r>   -6.8072    1.0000 </r>
       <r>   -6.8072    1.0000 </r>
       <r>   -5.0230    1.0000 </r>
       <r>   -5.0230    1.0000 </r>
       <r>   -3.5398    1.0000 </r>
       <r>   -3.5398    1.0000 </r>
       <r>   -3.1794    1.0000 </r>
       <r>   -3.1794    1.0000 </r>
       <r>   -0.0632    1.0000 </r>
       <r>   -0.0632    1.0000 </r>
       <r>    0.4866    1.0000 </r>
       <r>    0.4866    1.0000 </r>
       <r>    1.3675    1.0000 </r>
       <r>    1.3675    1.0000 </r>
       <r>    1.9612    1.0000 </r>
       <r>    1.9612    1.0000 </r>
       <r>    2.2885    1.0000 </r>
       <r>    2.2885    1.0000 </r>
       <r>    2.7364    1.0000 </r>
       <r>    2.7364    1.0000 </r>
       <r>    3.2586    1.0000 </r>
       <r>    3.2586    1.0000 </r>
       <r>    3.3753    1.0000 </r>
       <r>    3.3753    1.0000 </r>
       <r>    4.3600    1.0000 </r>
       <r>    4.3600    1.0000 </r>
       <r>    4.4412    1.0000 </r>
       <r>    4.4412    1.0000 </r>
       <r>    4.7324    1.0000 </r>
       <r>    4.7324    1.0000 </r>
       <r>    4.9103    1.0000 </r>
       <r>    4.9103    1.0000 </r>
       <r>    5.1614    1.0000 </r>
       <r>    5.1614    1.0000 </r>
       <r>    5.7834    1.0000 </r>
       <r>    5.7834    1.0000 </r>
       <r>    6.4216    1.0000 </r>
       <r>    6.4216    1.0000 </r>
       <r>    6.6882    1.0000 </r>
       <r>    6.6882    1.0000 </r>
       <r>    7.0215    1.0000 </r>
       <r>    7.0215    1.0000 </r>
       <r>    7.3341    1.0000 </r>
       <r>    7.3341    1.0000 </r>
       <r>   11.1256    0.0000 </r>
       <r>   11.1256    0.0000 </r>
       <r>   11.6931    0.0000 </r>
       <r>   11.6931    0.0000 </r>
       <r>   12.3627    0.0000 </r>
       <r>   12.3627    0.0000 </r>
       <r>   12.9174    0.0000 </r>
       <r>   12.9183    0.0000 </r>
       <r>   13.2068    0.0000 </r>
       <r>   13.2076    0.0000 </r>
       <r>   13.4440    0.0000 </r>
       <r>   13.4458    0.0000 </r>
       <r>   13.9548    0.0000 </r>
       <r>   13.9669    0.0000 </r>
       <r>   14.2394    0.0000 </r>
       <r>   14.2482    0.0000 </r>
      </set>
      <set comment="kpoint 5">
       <r>   -8.6272    1.0000 </r>
       <r>   -8.4984    1.0000 </r>
       <r>   -7.8510    1.0000 </r>
       <r>   -7.7711    1.0000 </r>
       <r>   -6.4195    1.0000 </r>
       <r>   -6.4002    1.0000 </r>
       <r>   -4.4920    1.0000 </r>
       <r>   -4.1187    1.0000 </r>
       <r>   -3.4503    1.0000 </r>
       <r>   -3.1919    1.0000 </r>
       <r>   -2.5854    1.0000 </r>
       <r>   -2.5821    1.0000 </r>
       <r>   -0.7598    1.0000 </r>
       <r>   -0.2745    1.0000 </r>
       <r>   -0.2044    1.0000 </r>
       <r>    0.3324    1.0000 </r>
       <r>    0.9439    1.0000 </r>
       <r>    1.0389    1.0000 </r>
       <r>    1.2897    1.0000 </r>
       <r>    1.2947    1.0000 </r>
       <r>    1.7860    1.0000 </r>
       <r>    1.9305    1.0000 </r>
       <r>    1.9752    1.0000 </r>
       <r>    2.4127    1.0000 </r>
       <r>    2.7454    1.0000 </r>
       <r>    2.9324    1.0000 </r>
       <r>    3.2661    1.0000 </r>
       <r>    3.3825    1.0000 </r>
       <r>    3.6049    1.0000 </r>
       <r>    3.6246    1.0000 </r>
       <r>    3.8406    1.0000 </r>
       <r>    3.9880    1.0000 </r>
       <r>    4.1952    1.0000 </r>
       <r>    4.4173    1.0000 </r>
       <r>    4.5358    1.0000 </r>
       <r>    4.6899    1.0000 </r>
       <r>    4.9938    1.0000 </r>
       <r>    5.0450    1.0000 </r>
       <r>    5.2285    1.0000 </r>
       <r>    5.2472    1.0000 </r>
       <r>    5.6518    1.0000 </r>
       <r>    5.6657    1.0000 </r>
       <r>    5.9448    1.0000 </r>
       <r>    6.1063    1.0000 </r>
       <r>    6.5066    1.0000 </r>
       <r>    6.5689    1.0000 </r>
       <r>    6.8003    1.0000 </r>
       <r>    7.1892    1.0000 </r>
       <r>   10.4893    0.0000 </r>
       <r>   10.9918    0.0000 </r>
       <r>   11.2282    0.0000 </r>
       <r>   11.6290    0.0000 </r>
       <r>   11.8374    0.0000 </r>
       <r>   12.0940    0.0000 </r>
       <r>   12.5931    0.0000 </r>
       <r>   12.6729    0.0000 </r>
       <r>   12.8338    0.0000 </r>
       <r>   13.1957    0.0000 </r>
       <r>   13.4250    0.0000 </r>
       <r>   13.6482    0.0000 </r>
       <r>   13.9017    0.0000 </r>
       <r>   14.0552    0.0000 </r>
       <r>   14.3467    0.0000 </r>
       <r>   14.7158    0.0000 </r>
      </set>
      <set comment="kpoint 6">
       <r>   -8.5676    1.0000 </r>
       <r>   -8.5676    1.0000 </r>
       <r>   -7.8062    1.0000 </r>
       <r>   -7.8062    1.0000 </r>
       <r>   -6.4096    1.0000 </r>
       <r>   -6.4096    1.0000 </r>
       <r>   -4.3202    1.0000 </r>
       <r>   -4.3202    1.0000 </r>
       <r>   -3.3287    1.0000 </r>
       <r>   -3.3287    1.0000 </r>
       <r>   -2.5806    1.0000 </r>
       <r>   -2.5806    1.0000 </r>
       <r>   -0.4722    1.0000 </r>
       <r>   -0.4722    1.0000 </r>
       <r>    0.0871    1.0000 </r>
       <r>    0.0871    1.0000 </r>
       <r>    0.9732    1.0000 </r>
       <r>    0.9732    1.0000 </r>
       <r>    1.1973    1.0000 </r>
       <r>    1.1973    1.0000 </r>
       <r>    1.6937    1.0000 </r>
       <r>    1.6937    1.0000 </r>
       <r>    2.4976    1.0000 </r>
       <r>    2.4976    1.0000 </r>
       <r>    2.6893    1.0000 </r>
       <r>    2.6893    1.0000 </r>
       <r>    3.3161    1.0000 </r>
       <r>    3.3161    1.0000 </r>
       <r>    3.5694    1.0000 </r>
       <r>    3.5694    1.0000 </r>
       <r>    4.1177    1.0000 </r>
       <r>    4.1177    1.0000 </r>
       <r>    4.2922    1.0000 </r>
       <r>    4.2922    1.0000 </r>
       <r>    4.7050    1.0000 </r>
       <r>    4.7050    1.0000 </r>
       <r>    4.9754    1.0000 </r>
       <r>    4.9754    1.0000 </r>
       <r>    5.3298    1.0000 </r>
       <r>    5.3298    1.0000 </r>
       <r>    5.5338    1.0000 </r>
       <r>    5.5338    1.0000 </r>
       <r>    5.9268    1.0000 </r>
       <r>    5.9268    1.0000 </r>
       <r>    6.5267    1.0000 </r>
       <r>    6.5267    1.0000 </r>
       <r>    6.9572    1.0000 </r>
       <r>    6.9572    1.0000 </r>
       <r>   11.0700    0.0000 </r>
       <r>   11.0700    0.0000 </r>
       <r>   11.3142    0.0000 </r>
       <r>   11.3142    0.0000 </r>
       <r>   11.9105    0.0000 </r>
       <r>   11.9106    0.0000 </r>
       <r>   12.5269    0.0000 </r>
       <r>   12.5271    0.0000 </r>
       <r>   13.0234    0.0000 </r>
       <r>   13.0240    0.0000 </r>
       <r>   13.6184    0.0000 </r>
       <r>   13.6449    0.0000 </r>
       <r>   13.9966    0.0000 </r>
       <r>   14.0992    0.0000 </r>
       <r>   14.3396    0.0000 </r>
       <r>   14.3907    0.0000 </r>
      </set>
      <set comment="kpoint 7">
       <r>   -7.9500    1.0000 </r>
       <r>   -7.9500    1.0000 </r>
       <r>   -7.8180    1.0000 </r>
       <r>   -7.8180    1.0000 </r>
       <r>   -6.1847    1.0000 </r>
       <r>   -6.1847    1.0000 </r>
       <r>   -3.8661    1.0000 </r>
       <r>   -3.8661    1.0000 </r>
       <r>   -3.2881    1.0000 </r>
       <r>   -3.2881    1.0000 </r>
       <r>   -2.1747    1.0000 </r>
       <r>   -2.1747    1.0000 </r>
       <r>   -1.1318    1.0000 </r>
       <r>   -1.1318    1.0000 </r>
       <r>   -0.2069    1.0000 </r>
       <r>   -0.2069    1.0000 </r>
       <r>    0.3246    1.0000 </r>
       <r>    0.3246    1.0000 </r>
       <r>    1.3691    1.0000 </r>
       <r>    1.3691    1.0000 </r>
       <r>    1.5481    1.0000 </r>
       <r>    1.5481    1.0000 </r>
       <r>    2.1795    1.0000 </r>
       <r>    2.1795    1.0000 </r>
       <r>    2.3777    1.0000 </r>
       <r>    2.3777    1.0000 </r>
       <r>    3.1158    1.0000 </r>
       <r>    3.1158    1.0000 </r>
       <r>    3.6358    1.0000 </r>
       <r>    3.6358    1.0000 </r>
       <r>    3.9341    1.0000 </r>
       <r>    3.9341    1.0000 </r>
       <r>    4.2850    1.0000 </r>
       <r>    4.2850    1.0000 </r>
       <r>    4.7441    1.0000 </r>
       <r>    4.7441    1.0000 </r>
       <r>    4.8596    1.0000 </r>
       <r>    4.8596    1.0000 </r>
       <r>    5.0162    1.0000 </r>
       <r>    5.0162    1.0000 </r>
       <r>    5.4995    1.0000 </r>
       <r>    5.4995    1.0000 </r>
       <r>    5.7473    1.0000 </r>
       <r>    5.7473    1.0000 </r>
       <r>    6.2108    1.0000 </r>
       <r>    6.2108    1.0000 </r>
       <r>    6.8081    1.0000 </r>
       <r>    6.8081    1.0000 </r>
       <r>   10.6845    0.0000 </r>
       <r>   10.6845    0.0000 </r>
       <r>   10.9391    0.0000 </r>
       <r>   10.9391    0.0000 </r>
       <r>   11.5485    0.0000 </r>
       <r>   11.5485    0.0000 </r>
       <r>   11.8056    0.0000 </r>
       <r>   11.8057    0.0000 </r>
       <r>   12.5071    0.0000 </r>
       <r>   12.5074    0.0000 </r>
       <r>   13.7122    0.0000 </r>
       <r>   13.7588    0.0000 </r>
       <r>   14.1204    0.0000 </r>
       <r>   14.1469    0.0000 </r>
       <r>   14.2028    0.0000 </r>
       <r>   14.4341    0.0000 </r>
      </set>
      <set comment="kpoint 8">
       <r>   -7.9489    1.0000 </r>
       <r>   -7.9489    1.0000 </r>
       <r>   -7.8192    1.0000 </r>
       <r>   -7.8192    1.0000 </r>
       <r>   -6.1850    1.0000 </r>
       <r>   -6.1850    1.0000 </r>
       <r>   -3.8694    1.0000 </r>
       <r>   -3.8694    1.0000 </r>
       <r>   -3.2738    1.0000 </r>
       <r>   -3.2738    1.0000 </r>
       <r>   -2.1805    1.0000 </r>
       <r>   -2.1805    1.0000 </r>
       <r>   -1.1742    1.0000 </r>
       <r>   -1.1742    1.0000 </r>
       <r>   -0.1452    1.0000 </r>
       <r>   -0.1452    1.0000 </r>
       <r>    0.2952    1.0000 </r>
       <r>    0.2952    1.0000 </r>
       <r>    1.2950    1.0000 </r>
       <r>    1.2950    1.0000 </r>
       <r>    1.7651    1.0000 </r>
       <r>    1.7651    1.0000 </r>
       <r>    1.8878    1.0000 </r>
       <r>    1.8878    1.0000 </r>
       <r>    2.7816    1.0000 </r>
       <r>    2.7816    1.0000 </r>
       <r>    3.2444    1.0000 </r>
       <r>    3.2444    1.0000 </r>
       <r>    3.2718    1.0000 </r>
       <r>    3.2718    1.0000 </r>
       <r>    3.5885    1.0000 </r>
       <r>    3.5885    1.0000 </r>
       <r>    4.4871    1.0000 </r>
       <r>    4.4871    1.0000 </r>
       <r>    4.6757    1.0000 </r>
       <r>    4.6757    1.0000 </r>
       <r>    5.1029    1.0000 </r>
       <r>    5.1029    1.0000 </r>
       <r>    5.1713    1.0000 </r>
       <r>    5.1713    1.0000 </r>
       <r>    5.4271    1.0000 </r>
       <r>    5.4271    1.0000 </r>
       <r>    5.6844    1.0000 </r>
       <r>    5.6844    1.0000 </r>
       <r>    6.1899    1.0000 </r>
       <r>    6.1899    1.0000 </r>
       <r>    6.7108    1.0000 </r>
       <r>    6.7108    1.0000 </r>
       <r>   10.5355    0.0000 </r>
       <r>   10.5355    0.0000 </r>
       <r>   11.4191    0.0000 </r>
       <r>   11.4191    0.0000 </r>
       <r>   11.5577    0.0000 </r>
       <r>   11.5577    0.0000 </r>
       <r>   11.8949    0.0000 </r>
       <r>   11.8949    0.0000 </r>
       <r>   12.8183    0.0000 </r>
       <r>   12.8204    0.0000 </r>
       <r>   13.2031    0.0000 </r>
       <r>   13.2099    0.0000 </r>
       <r>   13.5675    0.0000 </r>
       <r>   13.5749    0.0000 </r>
       <r>   14.2128    0.0000 </r>
       <r>   14.3835    0.0000 </r>
      </set>
      <set comment="kpoint 9">
       <r>   -9.5326    1.0000 </r>
       <r>   -9.3761    1.0000 </r>
       <r>   -8.4046    1.0000 </r>
       <r>   -8.3629    1.0000 </r>
       <r>   -7.0614    1.0000 </r>
       <r>   -6.9467    1.0000 </r>
       <r>   -5.3367    1.0000 </r>
       <r>   -5.0217    1.0000 </r>
       <r>   -4.3059    1.0000 </r>
       <r>   -3.8168    1.0000 </r>
       <r>   -3.0903    1.0000 </r>
       <r>   -2.8454    1.0000 </r>
       <r>   -0.6216    1.0000 </r>
       <r>   -0.0610    1.0000 </r>
       <r>    0.2472    1.0000 </r>
       <r>    0.9032    1.0000 </r>
       <r>    0.9042    1.0000 </r>
       <r>    1.6252    1.0000 </r>
       <r>    1.6923    1.0000 </r>
       <r>    2.2954    1.0000 </r>
       <r>    2.5431    1.0000 </r>
       <r>    3.0605    1.0000 </r>
       <r>    3.0984    1.0000 </r>
       <r>    3.1800    1.0000 </r>
       <r>    3.1811    1.0000 </r>
       <r>    3.7649    1.0000 </r>
       <r>    3.9001    1.0000 </r>
       <r>    3.9658    1.0000 </r>
       <r>    4.1120    1.0000 </r>
       <r>    4.3134    1.0000 </r>
       <r>    4.4885    1.0000 </r>
       <r>    4.8027    1.0000 </r>
       <r>    5.1772    1.0000 </r>
       <r>    5.2865    1.0000 </r>
       <r>    5.3752    1.0000 </r>
       <r>    5.4820    1.0000 </r>
       <r>    5.7301    1.0000 </r>
       <r>    6.0120    1.0000 </r>
       <r>    6.0310    1.0000 </r>
       <r>    6.0347    1.0000 </r>
       <r>    6.4637    1.0000 </r>
       <r>    6.7158    1.0000 </r>
       <r>    7.0556    1.0000 </r>
       <r>    7.3809    1.0000 </r>
       <r>    7.6170    1.0000 </r>
       <r>    7.8149    1.0000 </r>
       <r>    8.2262    1.0000 </r>
       <r>    8.3019    1.0000 </r>
       <r>   10.0625    0.0000 </r>
       <r>   10.1430    0.0000 </r>
       <r>   10.5421    0.0000 </r>
       <r>   10.9998    0.0000 </r>
       <r>   11.5808    0.0000 </r>
       <r>   11.8473    0.0000 </r>
       <r>   12.7998    0.0000 </r>
       <r>   12.8750    0.0000 </r>
       <r>   12.8987    0.0000 </r>
       <r>   13.3097    0.0000 </r>
       <r>   13.4794    0.0000 </r>
       <r>   13.8397    0.0000 </r>
       <r>   14.2464    0.0000 </r>
       <r>   14.3016    0.0000 </r>
       <r>   14.5376    0.0000 </r>
       <r>   14.8564    0.0000 </r>
      </set>
      <set comment="kpoint 10">
       <r>   -9.4699    1.0000 </r>
       <r>   -9.4505    1.0000 </r>
       <r>   -8.3975    1.0000 </r>
       <r>   -8.3519    1.0000 </r>
       <r>   -7.0178    1.0000 </r>
       <r>   -6.9983    1.0000 </r>
       <r>   -5.2380    1.0000 </r>
       <r>   -5.1556    1.0000 </r>
       <r>   -4.1862    1.0000 </r>
       <r>   -3.9766    1.0000 </r>
       <r>   -2.9444    1.0000 </r>
       <r>   -2.8999    1.0000 </r>
       <r>   -0.4674    1.0000 </r>
       <r>    0.0259    1.0000 </r>
       <r>    0.1561    1.0000 </r>
       <r>    0.3149    1.0000 </r>
       <r>    1.2692    1.0000 </r>
       <r>    1.6121    1.0000 </r>
       <r>    1.8939    1.0000 </r>
       <r>    2.1902    1.0000 </r>
       <r>    2.3485    1.0000 </r>
       <r>    3.1107    1.0000 </r>
       <r>    3.1221    1.0000 </r>
       <r>    3.1459    1.0000 </r>
       <r>    3.4243    1.0000 </r>
       <r>    3.6176    1.0000 </r>
       <r>    3.8783    1.0000 </r>
       <r>    3.9282    1.0000 </r>
       <r>    3.9490    1.0000 </r>
       <r>    4.2081    1.0000 </r>
       <r>    4.8139    1.0000 </r>
       <r>    5.0759    1.0000 </r>
       <r>    5.3511    1.0000 </r>
       <r>    5.3869    1.0000 </r>
       <r>    5.4150    1.0000 </r>
       <r>    5.4380    1.0000 </r>
       <r>    5.6797    1.0000 </r>
       <r>    5.8049    1.0000 </r>
       <r>    6.0101    1.0000 </r>
       <r>    6.0542    1.0000 </r>
       <r>    6.2597    1.0000 </r>
       <r>    6.7656    1.0000 </r>
       <r>    7.0658    1.0000 </r>
       <r>    7.1751    1.0000 </r>
       <r>    7.6792    1.0000 </r>
       <r>    7.7418    1.0000 </r>
       <r>    8.2697    1.0000 </r>
       <r>    8.2721    1.0000 </r>
       <r>    9.9933    0.0000 </r>
       <r>   10.2125    0.0000 </r>
       <r>   10.4803    0.0000 </r>
       <r>   10.9775    0.0000 </r>
       <r>   11.6118    0.0000 </r>
       <r>   11.8591    0.0000 </r>
       <r>   12.5836    0.0000 </r>
       <r>   13.1503    0.0000 </r>
       <r>   13.3245    0.0000 </r>
       <r>   13.3962    0.0000 </r>
       <r>   13.5708    0.0000 </r>
       <r>   13.8519    0.0000 </r>
       <r>   14.0533    0.0000 </r>
       <r>   14.3318    0.0000 </r>
       <r>   14.3978    0.0000 </r>
       <r>   15.0015    0.0000 </r>
      </set>
      <set comment="kpoint 11">
       <r>   -9.2753    1.0000 </r>
       <r>   -9.1302    1.0000 </r>
       <r>   -8.2192    1.0000 </r>
       <r>   -8.1783    1.0000 </r>
       <r>   -6.8635    1.0000 </r>
       <r>   -6.7837    1.0000 </r>
       <r>   -5.0788    1.0000 </r>
       <r>   -4.7540    1.0000 </r>
       <r>   -4.0912    1.0000 </r>
       <r>   -3.6478    1.0000 </r>
       <r>   -2.8619    1.0000 </r>
       <r>   -2.6891    1.0000 </r>
       <r>   -0.4583    1.0000 </r>
       <r>    0.0743    1.0000 </r>
       <r>    0.3756    1.0000 </r>
       <r>    0.9293    1.0000 </r>
       <r>    1.0612    1.0000 </r>
       <r>    1.4976    1.0000 </r>
       <r>    1.7417    1.0000 </r>
       <r>    1.9137    1.0000 </r>
       <r>    2.1043    1.0000 </r>
       <r>    2.3551    1.0000 </r>
       <r>    2.5957    1.0000 </r>
       <r>    2.6844    1.0000 </r>
       <r>    2.9391    1.0000 </r>
       <r>    3.3374    1.0000 </r>
       <r>    3.4846    1.0000 </r>
       <r>    3.7378    1.0000 </r>
       <r>    3.8191    1.0000 </r>
       <r>    4.0985    1.0000 </r>
       <r>    4.1779    1.0000 </r>
       <r>    4.5818    1.0000 </r>
       <r>    4.8016    1.0000 </r>
       <r>    4.9521    1.0000 </r>
       <r>    4.9972    1.0000 </r>
       <r>    5.1258    1.0000 </r>
       <r>    5.2276    1.0000 </r>
       <r>    5.5456    1.0000 </r>
       <r>    5.6381    1.0000 </r>
       <r>    5.9259    1.0000 </r>
       <r>    6.2038    1.0000 </r>
       <r>    6.5093    1.0000 </r>
       <r>    6.7505    1.0000 </r>
       <r>    6.8170    1.0000 </r>
       <r>    6.9051    1.0000 </r>
       <r>    7.2531    1.0000 </r>
       <r>    7.3173    1.0000 </r>
       <r>    7.5687    1.0000 </r>
       <r>   11.0413    0.0000 </r>
       <r>   11.2781    0.0000 </r>
       <r>   11.6558    0.0000 </r>
       <r>   12.0917    0.0000 </r>
       <r>   12.3440    0.0000 </r>
       <r>   12.4343    0.0000 </r>
       <r>   12.6930    0.0000 </r>
       <r>   12.9661    0.0000 </r>
       <r>   13.0666    0.0000 </r>
       <r>   13.2348    0.0000 </r>
       <r>   13.7666    0.0000 </r>
       <r>   13.8263    0.0000 </r>
       <r>   14.0682    0.0000 </r>
       <r>   14.1339    0.0000 </r>
       <r>   14.4367    0.0000 </r>
       <r>   14.5208    0.0000 </r>
      </set>
      <set comment="kpoint 12">
       <r>   -9.2166    1.0000 </r>
       <r>   -9.1991    1.0000 </r>
       <r>   -8.2106    1.0000 </r>
       <r>   -8.1721    1.0000 </r>
       <r>   -6.8336    1.0000 </r>
       <r>   -6.8183    1.0000 </r>
       <r>   -4.9719    1.0000 </r>
       <r>   -4.8977    1.0000 </r>
       <r>   -3.9677    1.0000 </r>
       <r>   -3.8009    1.0000 </r>
       <r>   -2.7593    1.0000 </r>
       <r>   -2.7186    1.0000 </r>
       <r>   -0.2321    1.0000 </r>
       <r>    0.1082    1.0000 </r>
       <r>    0.3394    1.0000 </r>
       <r>    0.3735    1.0000 </r>
       <r>    1.3311    1.0000 </r>
       <r>    1.6219    1.0000 </r>
       <r>    1.6952    1.0000 </r>
       <r>    1.8195    1.0000 </r>
       <r>    2.2188    1.0000 </r>
       <r>    2.2467    1.0000 </r>
       <r>    2.4785    1.0000 </r>
       <r>    2.6456    1.0000 </r>
       <r>    2.8758    1.0000 </r>
       <r>    3.3903    1.0000 </r>
       <r>    3.7314    1.0000 </r>
       <r>    3.8212    1.0000 </r>
       <r>    3.9329    1.0000 </r>
       <r>    4.0860    1.0000 </r>
       <r>    4.2792    1.0000 </r>
       <r>    4.5553    1.0000 </r>
       <r>    4.6713    1.0000 </r>
       <r>    4.7684    1.0000 </r>
       <r>    4.9986    1.0000 </r>
       <r>    5.1081    1.0000 </r>
       <r>    5.3978    1.0000 </r>
       <r>    5.4245    1.0000 </r>
       <r>    5.7579    1.0000 </r>
       <r>    5.9319    1.0000 </r>
       <r>    6.3138    1.0000 </r>
       <r>    6.4511    1.0000 </r>
       <r>    6.7284    1.0000 </r>
       <r>    6.8491    1.0000 </r>
       <r>    6.9521    1.0000 </r>
       <r>    7.0513    1.0000 </r>
       <r>    7.3668    1.0000 </r>
       <r>    7.3738    1.0000 </r>
       <r>   11.0436    0.0000 </r>
       <r>   11.3243    0.0000 </r>
       <r>   11.7405    0.0000 </r>
       <r>   12.0127    0.0000 </r>
       <r>   12.3516    0.0000 </r>
       <r>   12.5179    0.0000 </r>
       <r>   12.9006    0.0000 </r>
       <r>   13.0131    0.0000 </r>
       <r>   13.0164    0.0000 </r>
       <r>   13.2461    0.0000 </r>
       <r>   13.6377    0.0000 </r>
       <r>   13.8673    0.0000 </r>
       <r>   14.0492    0.0000 </r>
       <r>   14.1767    0.0000 </r>
       <r>   14.3676    0.0000 </r>
       <r>   14.6366    0.0000 </r>
      </set>
      <set comment="kpoint 13">
       <r>   -8.6017    1.0000 </r>
       <r>   -8.4933    1.0000 </r>
       <r>   -7.8494    1.0000 </r>
       <r>   -7.8099    1.0000 </r>
       <r>   -6.4233    1.0000 </r>
       <r>   -6.4197    1.0000 </r>
       <r>   -4.4139    1.0000 </r>
       <r>   -4.1007    1.0000 </r>
       <r>   -3.6221    1.0000 </r>
       <r>   -3.3559    1.0000 </r>
       <r>   -2.4516    1.0000 </r>
       <r>   -2.3587    1.0000 </r>
       <r>   -0.7241    1.0000 </r>
       <r>   -0.2206    1.0000 </r>
       <r>   -0.1886    1.0000 </r>
       <r>    0.1680    1.0000 </r>
       <r>    1.0530    1.0000 </r>
       <r>    1.1803    1.0000 </r>
       <r>    1.3180    1.0000 </r>
       <r>    1.4941    1.0000 </r>
       <r>    1.5915    1.0000 </r>
       <r>    1.9092    1.0000 </r>
       <r>    2.3033    1.0000 </r>
       <r>    2.3313    1.0000 </r>
       <r>    2.5416    1.0000 </r>
       <r>    2.7883    1.0000 </r>
       <r>    3.0411    1.0000 </r>
       <r>    3.1723    1.0000 </r>
       <r>    3.2359    1.0000 </r>
       <r>    3.6424    1.0000 </r>
       <r>    3.7429    1.0000 </r>
       <r>    3.9032    1.0000 </r>
       <r>    4.2056    1.0000 </r>
       <r>    4.5622    1.0000 </r>
       <r>    4.7813    1.0000 </r>
       <r>    4.9072    1.0000 </r>
       <r>    4.9082    1.0000 </r>
       <r>    4.9577    1.0000 </r>
       <r>    4.9975    1.0000 </r>
       <r>    5.5315    1.0000 </r>
       <r>    5.6245    1.0000 </r>
       <r>    5.7622    1.0000 </r>
       <r>    5.8152    1.0000 </r>
       <r>    6.2952    1.0000 </r>
       <r>    6.3075    1.0000 </r>
       <r>    6.6825    1.0000 </r>
       <r>    6.8293    1.0000 </r>
       <r>    7.2804    1.0000 </r>
       <r>   10.9979    0.0000 </r>
       <r>   11.0771    0.0000 </r>
       <r>   11.4581    0.0000 </r>
       <r>   11.5583    0.0000 </r>
       <r>   12.1283    0.0000 </r>
       <r>   12.1724    0.0000 </r>
       <r>   12.5837    0.0000 </r>
       <r>   12.6135    0.0000 </r>
       <r>   12.9460    0.0000 </r>
       <r>   13.0977    0.0000 </r>
       <r>   13.4274    0.0000 </r>
       <r>   13.8342    0.0000 </r>
       <r>   13.9503    0.0000 </r>
       <r>   14.1909    0.0000 </r>
       <r>   14.4056    0.0000 </r>
       <r>   14.6686    0.0000 </r>
      </set>
      <set comment="kpoint 14">
       <r>   -8.5566    1.0000 </r>
       <r>   -8.5450    1.0000 </r>
       <r>   -7.8351    1.0000 </r>
       <r>   -7.8169    1.0000 </r>
       <r>   -6.4240    1.0000 </r>
       <r>   -6.4197    1.0000 </r>
       <r>   -4.2884    1.0000 </r>
       <r>   -4.2494    1.0000 </r>
       <r>   -3.5055    1.0000 </r>
       <r>   -3.4840    1.0000 </r>
       <r>   -2.4270    1.0000 </r>
       <r>   -2.3791    1.0000 </r>
       <r>   -0.4945    1.0000 </r>
       <r>   -0.3538    1.0000 </r>
       <r>   -0.0315    1.0000 </r>
       <r>    0.0798    1.0000 </r>
       <r>    0.9539    1.0000 </r>
       <r>    0.9997    1.0000 </r>
       <r>    1.2077    1.0000 </r>
       <r>    1.3796    1.0000 </r>
       <r>    1.7381    1.0000 </r>
       <r>    1.9458    1.0000 </r>
       <r>    2.2425    1.0000 </r>
       <r>    2.4699    1.0000 </r>
       <r>    2.6282    1.0000 </r>
       <r>    2.8533    1.0000 </r>
       <r>    2.9931    1.0000 </r>
       <r>    3.0974    1.0000 </r>
       <r>    3.4959    1.0000 </r>
       <r>    3.5254    1.0000 </r>
       <r>    3.9248    1.0000 </r>
       <r>    3.9766    1.0000 </r>
       <r>    4.2170    1.0000 </r>
       <r>    4.3622    1.0000 </r>
       <r>    4.6432    1.0000 </r>
       <r>    4.6504    1.0000 </r>
       <r>    4.8506    1.0000 </r>
       <r>    5.1657    1.0000 </r>
       <r>    5.3390    1.0000 </r>
       <r>    5.3457    1.0000 </r>
       <r>    5.5686    1.0000 </r>
       <r>    5.5941    1.0000 </r>
       <r>    6.0448    1.0000 </r>
       <r>    6.1920    1.0000 </r>
       <r>    6.3182    1.0000 </r>
       <r>    6.7916    1.0000 </r>
       <r>    6.9055    1.0000 </r>
       <r>    7.0636    1.0000 </r>
       <r>   11.0803    0.0000 </r>
       <r>   11.3955    0.0000 </r>
       <r>   11.4878    0.0000 </r>
       <r>   11.6519    0.0000 </r>
       <r>   11.7945    0.0000 </r>
       <r>   12.3983    0.0000 </r>
       <r>   12.4078    0.0000 </r>
       <r>   12.6730    0.0000 </r>
       <r>   12.8892    0.0000 </r>
       <r>   13.0295    0.0000 </r>
       <r>   13.5166    0.0000 </r>
       <r>   13.5326    0.0000 </r>
       <r>   13.8690    0.0000 </r>
       <r>   14.0629    0.0000 </r>
       <r>   14.3966    0.0000 </r>
       <r>   14.4744    0.0000 </r>
      </set>
      <set comment="kpoint 15">
       <r>   -7.9455    1.0000 </r>
       <r>   -7.9455    1.0000 </r>
       <r>   -7.8167    1.0000 </r>
       <r>   -7.8167    1.0000 </r>
       <r>   -6.1957    1.0000 </r>
       <r>   -6.1957    1.0000 </r>
       <r>   -3.8259    1.0000 </r>
       <r>   -3.8259    1.0000 </r>
       <r>   -3.3250    1.0000 </r>
       <r>   -3.3250    1.0000 </r>
       <r>   -2.3191    1.0000 </r>
       <r>   -2.3191    1.0000 </r>
       <r>   -0.9799    1.0000 </r>
       <r>   -0.9799    1.0000 </r>
       <r>   -0.2339    1.0000 </r>
       <r>   -0.2339    1.0000 </r>
       <r>    0.4451    1.0000 </r>
       <r>    0.4451    1.0000 </r>
       <r>    1.4244    1.0000 </r>
       <r>    1.4244    1.0000 </r>
       <r>    1.6594    1.0000 </r>
       <r>    1.6594    1.0000 </r>
       <r>    2.2269    1.0000 </r>
       <r>    2.2269    1.0000 </r>
       <r>    2.6265    1.0000 </r>
       <r>    2.6265    1.0000 </r>
       <r>    2.8121    1.0000 </r>
       <r>    2.8121    1.0000 </r>
       <r>    3.4931    1.0000 </r>
       <r>    3.4931    1.0000 </r>
       <r>    3.8204    1.0000 </r>
       <r>    3.8204    1.0000 </r>
       <r>    4.1576    1.0000 </r>
       <r>    4.1576    1.0000 </r>
       <r>    4.4601    1.0000 </r>
       <r>    4.4601    1.0000 </r>
       <r>    4.6782    1.0000 </r>
       <r>    4.6782    1.0000 </r>
       <r>    5.1307    1.0000 </r>
       <r>    5.1307    1.0000 </r>
       <r>    5.4398    1.0000 </r>
       <r>    5.4398    1.0000 </r>
       <r>    5.9524    1.0000 </r>
       <r>    5.9524    1.0000 </r>
       <r>    6.3168    1.0000 </r>
       <r>    6.3168    1.0000 </r>
       <r>    6.8777    1.0000 </r>
       <r>    6.8777    1.0000 </r>
       <r>   10.6580    0.0000 </r>
       <r>   10.6580    0.0000 </r>
       <r>   11.2573    0.0000 </r>
       <r>   11.2573    0.0000 </r>
       <r>   11.6674    0.0000 </r>
       <r>   11.6674    0.0000 </r>
       <r>   12.1849    0.0000 </r>
       <r>   12.1849    0.0000 </r>
       <r>   12.7783    0.0000 </r>
       <r>   12.7785    0.0000 </r>
       <r>   12.9906    0.0000 </r>
       <r>   12.9913    0.0000 </r>
       <r>   14.0406    0.0000 </r>
       <r>   14.0674    0.0000 </r>
       <r>   14.5021    0.0000 </r>
       <r>   14.6154    0.0000 </r>
      </set>
      <set comment="kpoint 16">
       <r>   -7.9447    1.0000 </r>
       <r>   -7.9447    1.0000 </r>
       <r>   -7.8177    1.0000 </r>
       <r>   -7.8177    1.0000 </r>
       <r>   -6.1959    1.0000 </r>
       <r>   -6.1959    1.0000 </r>
       <r>   -3.8252    1.0000 </r>
       <r>   -3.8252    1.0000 </r>
       <r>   -3.3200    1.0000 </r>
       <r>   -3.3200    1.0000 </r>
       <r>   -2.3254    1.0000 </r>
       <r>   -2.3254    1.0000 </r>
       <r>   -1.0111    1.0000 </r>
       <r>   -1.0111    1.0000 </r>
       <r>   -0.1711    1.0000 </r>
       <r>   -0.1711    1.0000 </r>
       <r>    0.4239    1.0000 </r>
       <r>    0.4239    1.0000 </r>
       <r>    1.4394    1.0000 </r>
       <r>    1.4394    1.0000 </r>
       <r>    1.6520    1.0000 </r>
       <r>    1.6520    1.0000 </r>
       <r>    2.1006    1.0000 </r>
       <r>    2.1006    1.0000 </r>
       <r>    2.7119    1.0000 </r>
       <r>    2.7119    1.0000 </r>
       <r>    2.9290    1.0000 </r>
       <r>    2.9290    1.0000 </r>
       <r>    3.3756    1.0000 </r>
       <r>    3.3756    1.0000 </r>
       <r>    3.7395    1.0000 </r>
       <r>    3.7395    1.0000 </r>
       <r>    4.2848    1.0000 </r>
       <r>    4.2848    1.0000 </r>
       <r>    4.5317    1.0000 </r>
       <r>    4.5317    1.0000 </r>
       <r>    4.6996    1.0000 </r>
       <r>    4.6996    1.0000 </r>
       <r>    5.1162    1.0000 </r>
       <r>    5.1162    1.0000 </r>
       <r>    5.4951    1.0000 </r>
       <r>    5.4951    1.0000 </r>
       <r>    5.6557    1.0000 </r>
       <r>    5.6557    1.0000 </r>
       <r>    6.3838    1.0000 </r>
       <r>    6.3838    1.0000 </r>
       <r>    6.9162    1.0000 </r>
       <r>    6.9162    1.0000 </r>
       <r>   10.7885    0.0000 </r>
       <r>   10.7885    0.0000 </r>
       <r>   11.2266    0.0000 </r>
       <r>   11.2266    0.0000 </r>
       <r>   11.8816    0.0000 </r>
       <r>   11.8816    0.0000 </r>
       <r>   12.1836    0.0000 </r>
       <r>   12.1837    0.0000 </r>
       <r>   12.4928    0.0000 </r>
       <r>   12.4928    0.0000 </r>
       <r>   13.2488    0.0000 </r>
       <r>   13.2518    0.0000 </r>
       <r>   13.8611    0.0000 </r>
       <r>   13.8750    0.0000 </r>
       <r>   14.1892    0.0000 </r>
       <r>   14.2304    0.0000 </r>
      </set>
     </set>
    </set>
   </array>
  </eigenvalues>
  <separator name="orbital magnetization" >
   <v name="MAGDIPOLOUT">      0.00000000      0.00000000      0.00000000</v>
  </separator>
  <dos>
   <i name="efermi">      8.76132822 </i>
   <total>
    <array>
     <dimension dim="1">gridpoints</dimension>
     <dimension dim="2">spin</dimension>
     <field>energy</field>
     <field>total</field>
     <field>integrated</field>
     <set>
      <set comment="spin 1">
       <r>   -10.8126     0.0000     0.0000 </r>
       <r>   -10.7216     0.0000     0.0000 </r>
       <r>   -10.6305     0.0000     0.0000 </r>
       <r>   -10.5395     0.0000     0.0000 </r>
       <r>   -10.4485     0.0000     0.0000 </r>
       <r>   -10.3575     0.0000     0.0000 </r>
       <r>   -10.2664     0.0000     0.0000 </r>
       <r>   -10.1754     0.0000     0.0000 </r>
       <r>   -10.0844     0.0000     0.0000 </r>
       <r>    -9.9933     0.0000     0.0000 </r>
       <r>    -9.9023     0.0000     0.0000 </r>
       <r>    -9.8113     0.0003     0.0000 </r>
       <r>    -9.7203     0.0162     0.0015 </r>
       <r>    -9.6292     0.2624     0.0254 </r>
       <r>    -9.5382     1.3454     0.1479 </r>
       <r>    -9.4472     2.6630     0.3903 </r>
       <r>    -9.3561     2.9364     0.6576 </r>
       <r>    -9.2651     4.1694     1.0371 </r>
       <r>    -9.1741     5.6504     1.5514 </r>
       <r>    -9.0831     3.7908     1.8965 </r>
       <r>    -8.9920     1.0434     1.9915 </r>
       <r>    -8.9010     0.0917     1.9998 </r>
       <r>    -8.8100     0.0132     2.0010 </r>
       <r>    -8.7189     0.3120     2.0294 </r>
       <r>    -8.6279     2.4200     2.2497 </r>
       <r>    -8.5369     5.9313     2.7896 </r>
       <r>    -8.4459     5.7705     3.3149 </r>
       <r>    -8.3548     4.3628     3.7120 </r>
       <r>    -8.2638     4.5862     4.1295 </r>
       <r>    -8.1728     6.6202     4.7321 </r>
       <r>    -8.0817     5.3038     5.2149 </r>
       <r>    -7.9907     3.3322     5.5183 </r>
       <r>    -7.8997     6.4665     6.1069 </r>
       <r>    -7.8087    11.0072     7.1089 </r>
       <r>    -7.7176     8.0184     7.8388 </r>
       <r>    -7.6266     1.6803     7.9917 </r>
       <r>    -7.5356     0.0898     7.9999 </r>
       <r>    -7.4445     0.0012     8.0000 </r>
       <r>    -7.3535     0.0000     8.0000 </r>
       <r>    -7.2625     0.0033     8.0003 </r>
       <r>    -7.1715     0.1083     8.0102 </r>
       <r>    -7.0804     1.0105     8.1021 </r>
       <r>    -6.9894     3.0626     8.3809 </r>
       <r>    -6.8984     4.5421     8.7944 </r>
       <r>    -6.8073     6.7768     9.4113 </r>
       <r>    -6.7163     5.2313     9.8875 </r>
       <r>    -6.6253     1.1947     9.9962 </r>
       <r>    -6.5343     0.7792    10.0672 </r>
       <r>    -6.4432     4.5324    10.4797 </r>
       <r>    -6.3522     6.8522    11.1035 </r>
       <r>    -6.2612     3.5319    11.4250 </r>
       <r>    -6.1702     3.5441    11.7476 </r>
       <r>    -6.0791     2.3668    11.9630 </r>
       <r>    -5.9881     0.3914    11.9987 </r>
       <r>    -5.8971     0.0145    12.0000 </r>
       <r>    -5.8060     0.0001    12.0000 </r>
       <r>    -5.7150     0.0008    12.0001 </r>
       <r>    -5.6240     0.0260    12.0024 </r>
       <r>    -5.5330     0.1830    12.0191 </r>
       <r>    -5.4419     0.3972    12.0553 </r>
       <r>    -5.3509     0.9098    12.1381 </r>
       <r>    -5.2599     1.9500    12.3156 </r>
       <r>    -5.1688     2.3578    12.5302 </r>
       <r>    -5.0778     2.9767    12.8012 </r>
       <r>    -4.9868     4.2749    13.1903 </r>
       <r>    -4.8958     3.5816    13.5163 </r>
       <r>    -4.8047     2.1954    13.7162 </r>
       <r>    -4.7137     1.9862    13.8970 </r>
       <r>    -4.6227     1.0401    13.9917 </r>
       <r>    -4.5316     0.5607    14.0427 </r>
       <r>    -4.4406     1.5166    14.1808 </r>
       <r>    -4.3496     3.0376    14.4573 </r>
       <r>    -4.2586     4.4740    14.8645 </r>
       <r>    -4.1675     4.0409    15.2324 </r>
       <r>    -4.0765     3.8990    15.5873 </r>
       <r>    -3.9855     3.4876    15.9048 </r>
       <r>    -3.8944     3.8155    16.2521 </r>
       <r>    -3.8034     5.6588    16.7672 </r>
       <r>    -3.7124     5.1656    17.2374 </r>
       <r>    -3.6214     4.6763    17.6631 </r>
       <r>    -3.5303     5.6698    18.1792 </r>
       <r>    -3.4393     6.3131    18.7539 </r>
       <r>    -3.3483     6.6540    19.3596 </r>
       <r>    -3.2572     6.9994    19.9967 </r>
       <r>    -3.1662     5.1175    20.4626 </r>
       <r>    -3.0752     2.6872    20.7072 </r>
       <r>    -2.9842     1.3102    20.8264 </r>
       <r>    -2.8931     2.2553    21.0317 </r>
       <r>    -2.8021     3.4632    21.3470 </r>
       <r>    -2.7111     4.0201    21.7129 </r>
       <r>    -2.6200     3.9672    22.0741 </r>
       <r>    -2.5290     3.5106    22.3936 </r>
       <r>    -2.4380     3.9964    22.7574 </r>
       <r>    -2.3470     5.7835    23.2839 </r>
       <r>    -2.2559     4.5984    23.7025 </r>
       <r>    -2.1649     2.1472    23.8979 </r>
       <r>    -2.0739     0.9461    23.9840 </r>
       <r>    -1.9829     0.1682    23.9993 </r>
       <r>    -1.8918     0.0072    24.0000 </r>
       <r>    -1.8008     0.0001    24.0000 </r>
       <r>    -1.7098     0.0000    24.0000 </r>
       <r>    -1.6187     0.0000    24.0000 </r>
       <r>    -1.5277     0.0000    24.0000 </r>
       <r>    -1.4367     0.0001    24.0000 </r>
       <r>    -1.3457     0.0107    24.0010 </r>
       <r>    -1.2546     0.1960    24.0188 </r>
       <r>    -1.1636     0.9236    24.1029 </r>
       <r>    -1.0726     1.6739    24.2553 </r>
       <r>    -0.9815     2.4270    24.4762 </r>
       <r>    -0.8905     1.8024    24.6403 </r>
       <r>    -0.7995     1.0870    24.7392 </r>
       <r>    -0.7085     2.1075    24.9311 </r>
       <r>    -0.6174     2.1369    25.1256 </r>
       <r>    -0.5264     3.0156    25.4001 </r>
       <r>    -0.4354     4.9129    25.8473 </r>
       <r>    -0.3443     4.2362    26.2329 </r>
       <r>    -0.2533     5.9503    26.7746 </r>
       <r>    -0.1623     8.4647    27.5451 </r>
       <r>    -0.0713     6.3124    28.1197 </r>
       <r>     0.0198     5.4720    28.6178 </r>
       <r>     0.1108     6.7469    29.2320 </r>
       <r>     0.2018     5.9374    29.7724 </r>
       <r>     0.2929     5.6433    30.2861 </r>
       <r>     0.3839     8.5966    31.0687 </r>
       <r>     0.4749     7.9549    31.7928 </r>
       <r>     0.5659     3.4968    32.1111 </r>
       <r>     0.6570     0.5829    32.1641 </r>
       <r>     0.7480     0.0844    32.1718 </r>
       <r>     0.8390     0.9733    32.2604 </r>
       <r>     0.9301     4.7869    32.6962 </r>
       <r>     1.0211     8.1275    33.4360 </r>
       <r>     1.1121     6.6214    34.0387 </r>
       <r>     1.2031     5.9509    34.5804 </r>
       <r>     1.2942     8.6541    35.3682 </r>
       <r>     1.3852    10.1731    36.2942 </r>
       <r>     1.4762     8.2489    37.0451 </r>
       <r>     1.5673     7.0759    37.6892 </r>
       <r>     1.6583     9.5823    38.5615 </r>
       <r>     1.7493    10.8455    39.5487 </r>
       <r>     1.8403     8.3821    40.3117 </r>
       <r>     1.9314     8.2220    41.0602 </r>
       <r>     2.0224     6.8849    41.6869 </r>
       <r>     2.1134     4.8118    42.1249 </r>
       <r>     2.2044     7.2724    42.7869 </r>
       <r>     2.2955    11.0142    43.7895 </r>
       <r>     2.3865    10.4403    44.7399 </r>
       <r>     2.4775     8.1073    45.4779 </r>
       <r>     2.5686     8.8284    46.2815 </r>
       <r>     2.6596    10.6970    47.2552 </r>
       <r>     2.7506    10.5708    48.2175 </r>
       <r>     2.8416     8.4799    48.9894 </r>
       <r>     2.9327     7.6006    49.6812 </r>
       <r>     3.0237     7.7253    50.3845 </r>
       <r>     3.1147     9.0405    51.2074 </r>
       <r>     3.2058     9.5708    52.0786 </r>
       <r>     3.2968     9.5278    52.9459 </r>
       <r>     3.3878    10.1037    53.8656 </r>
       <r>     3.4788     9.6482    54.7439 </r>
       <r>     3.5699     9.1008    55.5723 </r>
       <r>     3.6609     8.6520    56.3599 </r>
       <r>     3.7519     9.3419    57.2103 </r>
       <r>     3.8430    11.2016    58.2299 </r>
       <r>     3.9340    12.3119    59.3507 </r>
       <r>     4.0250    10.3773    60.2953 </r>
       <r>     4.1160     9.1453    61.1278 </r>
       <r>     4.2071    11.0537    62.1340 </r>
       <r>     4.2981    11.4506    63.1763 </r>
       <r>     4.3891     9.9894    64.0856 </r>
       <r>     4.4802     8.5437    64.8633 </r>
       <r>     4.5712     9.8690    65.7617 </r>
       <r>     4.6622    12.3102    66.8823 </r>
       <r>     4.7532    14.0745    68.1634 </r>
       <r>     4.8443    12.2059    69.2745 </r>
       <r>     4.9353    12.6599    70.4269 </r>
       <r>     5.0263    14.5058    71.7474 </r>
       <r>     5.1174    13.2868    72.9569 </r>
       <r>     5.2084    11.7804    74.0292 </r>
       <r>     5.2994     9.7448    74.9163 </r>
       <r>     5.3904    11.7377    75.9847 </r>
       <r>     5.4815    13.7840    77.2395 </r>
       <r>     5.5725    13.0225    78.4249 </r>
       <r>     5.6635    11.4466    79.4668 </r>
       <r>     5.7546    10.0653    80.3831 </r>
       <r>     5.8456     8.7510    81.1796 </r>
       <r>     5.9366     8.9973    81.9987 </r>
       <r>     6.0276     9.6131    82.8737 </r>
       <r>     6.1187     6.8680    83.4989 </r>
       <r>     6.2097     6.4320    84.0844 </r>
       <r>     6.3007     9.1596    84.9182 </r>
       <r>     6.3917     9.4925    85.7823 </r>
       <r>     6.4828     8.1620    86.5252 </r>
       <r>     6.5738     6.3793    87.1059 </r>
       <r>     6.6648     5.2845    87.5870 </r>
       <r>     6.7559     9.2096    88.4253 </r>
       <r>     6.8469    12.4897    89.5622 </r>
       <r>     6.9379    12.4604    90.6965 </r>
       <r>     7.0289     9.6225    91.5724 </r>
       <r>     7.1200     6.6004    92.1732 </r>
       <r>     7.2110     5.2580    92.6518 </r>
       <r>     7.3020     7.1652    93.3041 </r>
       <r>     7.3931     7.6665    94.0020 </r>
       <r>     7.4841     4.2545    94.3892 </r>
       <r>     7.5751     2.2773    94.5965 </r>
       <r>     7.6661     2.2274    94.7993 </r>
       <r>     7.7572     2.0793    94.9886 </r>
       <r>     7.8482     2.1770    95.1867 </r>
       <r>     7.9392     1.3272    95.3075 </r>
       <r>     8.0303     0.5191    95.3548 </r>
       <r>     8.1213     1.0882    95.4539 </r>
       <r>     8.2123     1.9824    95.6343 </r>
       <r>     8.3033     2.4440    95.8568 </r>
       <r>     8.3944     1.3475    95.9794 </r>
       <r>     8.4854     0.2170    95.9992 </r>
       <r>     8.5764     0.0088    96.0000 </r>
       <r>     8.6675     0.0001    96.0000 </r>
       <r>     8.7585     0.0000    96.0000 </r>
       <r>     8.8495     0.0000    96.0000 </r>
       <r>     8.9405     0.0000    96.0000 </r>
       <r>     9.0316     0.0000    96.0000 </r>
       <r>     9.1226     0.0000    96.0000 </r>
       <r>     9.2136     0.0000    96.0000 </r>
       <r>     9.3047     0.0000    96.0000 </r>
       <r>     9.3957     0.0000    96.0000 </r>
       <r>     9.4867     0.0000    96.0000 </r>
       <r>     9.5777     0.0004    96.0000 </r>
       <r>     9.6688     0.0157    96.0015 </r>
       <r>     9.7598     0.1418    96.0144 </r>
       <r>     9.8508     0.3217    96.0437 </r>
       <r>     9.9419     0.4922    96.0885 </r>
       <r>    10.0329     1.4053    96.2164 </r>
       <r>    10.1239     2.2882    96.4247 </r>
       <r>    10.2149     1.8007    96.5886 </r>
       <r>    10.3060     0.8595    96.6668 </r>
       <r>    10.3970     0.7118    96.7316 </r>
       <r>    10.4880     1.7347    96.8895 </r>
       <r>    10.5790     2.5344    97.1202 </r>
       <r>    10.6701     2.4690    97.3450 </r>
       <r>    10.7611     2.5479    97.5769 </r>
       <r>    10.8521     2.3795    97.7935 </r>
       <r>    10.9432     3.5342    98.1152 </r>
       <r>    11.0342     8.4476    98.8842 </r>
       <r>    11.1252     9.3489    99.7352 </r>
       <r>    11.2162     6.1901   100.2987 </r>
       <r>    11.3073     6.4702   100.8877 </r>
       <r>    11.3983     6.0750   101.4407 </r>
       <r>    11.4893     6.2014   102.0052 </r>
       <r>    11.5804     8.0329   102.7364 </r>
       <r>    11.6714     9.0113   103.5567 </r>
       <r>    11.7624     7.8863   104.2746 </r>
       <r>    11.8534     7.2653   104.9359 </r>
       <r>    11.9445     6.3539   105.5143 </r>
       <r>    12.0355     4.2053   105.8971 </r>
       <r>    12.1265     5.3909   106.3878 </r>
       <r>    12.2176     6.1164   106.9446 </r>
       <r>    12.3086     4.6768   107.3703 </r>
       <r>    12.3996     6.9099   107.9993 </r>
       <r>    12.4906     8.6197   108.7839 </r>
       <r>    12.5817     9.2158   109.6228 </r>
       <r>    12.6727     8.5612   110.4022 </r>
       <r>    12.7637     7.4965   111.0845 </r>
       <r>    12.8548     7.7955   111.7942 </r>
       <r>    12.9458    10.9168   112.7879 </r>
       <r>    13.0368    13.1911   113.9887 </r>
       <r>    13.1278     9.9756   114.8967 </r>
       <r>    13.2189     7.7024   115.5978 </r>
       <r>    13.3099     7.1338   116.2472 </r>
       <r>    13.4009     5.3827   116.7372 </r>
       <r>    13.4920     6.4366   117.3231 </r>
       <r>    13.5830     7.1635   117.9752 </r>
       <r>    13.6740     6.9039   118.6036 </r>
       <r>    13.7650     6.8855   119.2304 </r>
       <r>    13.8561     9.2122   120.0690 </r>
       <r>    13.9471     9.9913   120.9785 </r>
       <r>    14.0381     9.7545   121.8664 </r>
       <r>    14.1292    10.5566   122.8274 </r>
       <r>    14.2202     9.6210   123.7032 </r>
       <r>    14.3112     8.6773   124.4930 </r>
       <r>    14.4022     9.9138   125.3955 </r>
       <r>    14.4933     9.4495   126.2556 </r>
       <r>    14.5843     6.3609   126.8347 </r>
       <r>    14.6753     4.7833   127.2701 </r>
       <r>    14.7663     2.9997   127.5431 </r>
       <r>    14.8574     1.5515   127.6844 </r>
       <r>    14.9484     1.3057   127.8032 </r>
       <r>    15.0394     1.0752   127.9011 </r>
       <r>    15.1305     0.4512   127.9422 </r>
       <r>    15.2215     0.2191   127.9621 </r>
       <r>    15.3125     0.2904   127.9885 </r>
       <r>    15.4035     0.1152   127.9990 </r>
       <r>    15.4946     0.0105   128.0000 </r>
       <r>    15.5856     0.0002   128.0000 </r>
       <r>    15.6766     0.0000   128.0000 </r>
       <r>    15.7677     0.0000   128.0000 </r>
       <r>    15.8587     0.0000   128.0000 </r>
       <r>    15.9497     0.0000   128.0000 </r>
       <r>    16.0407     0.0000   128.0000 </r>
       <r>    16.1318     0.0000   128.0000 </r>
       <r>    16.2228     0.0000   128.0000 </r>
       <r>    16.3138     0.0000   128.0000 </r>
       <r>    16.4049     0.0000   128.0000 </r>
       <r>    16.4959     0.0000   128.0000 </r>
      </set>
     </set>
    </array>
   </total>
  </dos>
 </calculation>
 <structure name="finalpos" >
  <crystal>
   <varray name="basis" >
    <v>      11.41524671       0.00000000      -0.08274624 </v>
    <v>       0.00000000       3.12015088       0.00000000 </v>
    <v>      -1.87991142       0.00000000       7.21538207 </v>
   </varray>
   <i name="volume">    256.50701375 </i>
   <varray name="rec_basis" >
    <v>       0.08776790       0.00000000       0.02286724 </v>
    <v>       0.00000000       0.32049732       0.00000000 </v>
    <v>       0.00100653       0.00000000       0.13885504 </v>
   </varray>
  </crystal>
  <varray name="positions" >
   <v>       0.04999745       0.50000000       0.10915866 </v>
   <v>       0.21845688       0.00000000       0.43905553 </v>
   <v>       0.45141515       0.50000000       0.38840370 </v>
   <v>       0.54999745       0.00000000       0.10915866 </v>
   <v>       0.71845688       0.50000000       0.43905553 </v>
   <v>       0.95141515       0.00000000       0.38840370 </v>
   <v>       0.38956893       0.50000000       0.78829651 </v>
   <v>       0.27987230       0.00000000       0.04615683 </v>
   <v>       0.11145682       0.50000000       0.72368349 </v>
   <v>       0.88956893       0.00000000       0.78829651 </v>
   <v>       0.77987230       0.50000000       0.04615683 </v>
   <v>       0.61145682       0.00000000       0.72368349 </v>
   <v>       0.43330233       0.00000000       0.24609740 </v>
   <v>       0.10034560       0.00000000       0.55898750 </v>
   <v>       0.48774206       0.00000000       0.86283046 </v>
   <v>       0.93330233       0.50000000       0.24609740 </v>
   <v>       0.60034560       0.50000000       0.55898750 </v>
   <v>       0.98774206       0.50000000       0.86283046 </v>
   <v>       0.26044922       0.50000000       0.90481050 </v>
   <v>       0.15138188       0.00000000       0.18730432 </v>
   <v>       0.31601139       0.50000000       0.49521510 </v>
   <v>       0.76044922       0.00000000       0.90481050 </v>
   <v>       0.65138188       0.50000000       0.18730432 </v>
   <v>       0.81601139       0.00000000       0.49521510 </v>
  </varray>
 </structure>
</modeling>
