<?xml version="1.0" encoding="ISO-8859-1"?>
<modeling>
 <generator>
  <i name="program" type="string">vasp </i>
  <i name="version" type="string">5.3.5  </i>
  <i name="subversion" type="string">31Mar14 (build Jun 20 2014 13:15:13) complex                          parallel </i>
  <i name="platform" type="string">LinuxIFC </i>
  <i name="date" type="string">2025 12 16 </i>
  <i name="time" type="string">16:06:47 </i>
 </generator>
 <incar>
  <i type="string" name="PREC">accurate</i>
  <i type="int" name="IALGO">    68</i>
  <i type="logical" name="ADDGRID"> T  </i>
  <i type="int" name="NELM">   100</i>
  <i type="int" name="NELMIN">     4</i>
  <i type="int" name="IBRION">     2</i>
  <i name="EDIFF">      0.00000100</i>
  <i name="EDIFFG">     -0.02000000</i>
  <i type="int" name="NSW">    30</i>
  <i type="int" name="ISIF">     3</i>
  <i name="ENCUT">    600.00000000</i>
  <i type="logical" name="LREAL"> F  </i>
  <i type="int" name="ISMEAR">     0</i>
  <i name="SIGMA">      0.10000000</i>
  <i type="logical" name="LWAVE"> F  </i>
  <i type="logical" name="LCHARG"> F  </i>
  <i type="int" name="NELM">   100</i>
 </incar>
 <kpoints>
  <generation param="Auto">
   <i name="subdivisionlength">     20.00000000 </i>
   <v type="int" name="divisions">       2        6        3 </v>
   <v name="usershift">      0.00000000       0.00000000       0.00000000 </v>
   <v name="genvec1">      0.50000000       0.00000000       0.00000000 </v>
   <v name="genvec2">      0.00000000       0.16666667       0.00000000 </v>
   <v name="genvec3">      0.00000000       0.00000000       0.33333333 </v>
   <v name="shift">      0.00000000       0.00000000       0.00000000 </v>
  </generation>
  <varray name="kpointlist" >
   <v>       0.00000000       0.00000000       0.00000000 </v>
   <v>       0.50000000       0.00000000       0.00000000 </v>
   <v>       0.00000000       0.16666667       0.00000000 </v>
   <v>       0.50000000       0.16666667       0.00000000 </v>
   <v>       0.00000000       0.33333333       0.00000000 </v>
   <v>       0.50000000       0.33333333       0.00000000 </v>
   <v>       0.00000000       0.50000000       0.00000000 </v>
   <v>       0.50000000       0.50000000       0.00000000 </v>
   <v>       0.00000000       0.00000000       0.33333333 </v>
   <v>       0.50000000       0.00000000       0.33333333 </v>
   <v>       0.00000000       0.16666667       0.33333333 </v>
   <v>       0.50000000       0.16666667       0.33333333 </v>
   <v>       0.00000000       0.33333333       0.33333333 </v>
   <v>       0.50000000       0.33333333       0.33333333 </v>
   <v>       0.00000000       0.50000000       0.33333333 </v>
   <v>       0.50000000       0.50000000       0.33333333 </v>
  </varray>
  <varray name="weights" >
   <v>       0.02777778 </v>
   <v>       0.02777778 </v>
   <v>       0.05555556 </v>
   <v>       0.05555556 </v>
   <v>       0.05555556 </v>
   <v>       0.05555556 </v>
   <v>       0.02777778 </v>
   <v>       0.02777778 </v>
   <v>       0.05555556 </v>
   <v>       0.05555556 </v>
   <v>       0.11111111 </v>
   <v>       0.11111111 </v>
   <v>       0.11111111 </v>
   <v>       0.11111111 </v>
   <v>       0.05555556 </v>
   <v>       0.05555556 </v>
  </varray>
 </kpoints>
 <parameters>
  <separator name="general" >
   <i type="string" name="SYSTEM">unknown system</i>
   <i type="logical" name="LCOMPAT"> F  </i>
  </separator>
  <separator name="electronic" >
   <i type="string" name="PREC">accura</i>
   <i name="ENMAX">    600.00000000</i>
   <i name="ENAUG">    644.87300000</i>
   <i name="EDIFF">      0.00000100</i>
   <i type="int" name="IALGO">    68</i>
   <i type="int" name="IWAVPR">    11</i>
   <i type="int" name="NBANDS">    64</i>
   <i name="NELECT">     96.00000000</i>
   <i type="int" name="TURBO">     0</i>
   <i type="int" name="IRESTART">     0</i>
   <i type="int" name="NREBOOT">     0</i>
   <i type="int" name="NMIN">     0</i>
   <i name="EREF">      0.00000000</i>
   <separator name="electronic smearing" >
    <i type="int" name="ISMEAR">     0</i>
    <i name="SIGMA">      0.10000000</i>
    <i name="KSPACING">      0.50000000</i>
    <i type="logical" name="KGAMMA"> T  </i>
   </separator>
   <separator name="electronic projectors" >
    <i type="logical" name="LREAL"> F  </i>
    <v name="ROPT">      0.00000000      0.00000000      0.00000000      0.00000000</v>
    <i type="int" name="LMAXPAW">  -100</i>
    <i type="int" name="LMAXMIX">     2</i>
    <i type="logical" name="NLSPLINE"> F  </i>
   </separator>
   <separator name="electronic startup" >
    <i type="int" name="ISTART">     0</i>
    <i type="int" name="ICHARG">     2</i>
    <i type="int" name="INIWAV">     1</i>
   </separator>
   <separator name="electronic spin" >
    <i type="int" name="ISPIN">     1</i>
    <i type="logical" name="LNONCOLLINEAR"> F  </i>
    <v name="MAGMOM">      1.00000000      1.00000000      1.00000000      1.00000000      1.00000000      1.00000000      1.00000000      1.00000000      1.00000000      1.00000000      1.00000000      1.00000000      1.00000000      1.00000000      1.00000000      1.00000000      1.00000000      1.00000000      1.00000000      1.00000000
      1.00000000      1.00000000      1.00000000      1.00000000</v>
    <i name="NUPDOWN">     -1.00000000</i>
    <i type="logical" name="LSORBIT"> F  </i>
    <v name="SAXIS">      0.00000000      0.00000000      1.00000000</v>
    <i type="logical" name="LSPIRAL"> F  </i>
    <v name="QSPIRAL">      0.00000000      0.00000000      0.00000000</v>
    <i type="logical" name="LZEROZ"> F  </i>
   </separator>
   <separator name="electronic exchange-correlation" >
    <i type="logical" name="LASPH"> F  </i>
    <i type="logical" name="LMETAGGA"> F  </i>
   </separator>
   <separator name="electronic convergence" >
    <i type="int" name="NELM">   100</i>
    <i type="int" name="NELMDL">     0</i>
    <i type="int" name="NELMIN">     4</i>
    <i name="ENINI">    600.00000000</i>
    <separator name="electronic convergence detail" >
     <i type="logical" name="LDIAG"> T  </i>
     <i type="logical" name="LSUBROT"> F  </i>
     <i name="WEIMIN">      0.00100000</i>
     <i name="EBREAK">      0.00000000</i>
     <i name="DEPER">      0.30000000</i>
     <i type="int" name="NRMM">     4</i>
     <i name="TIME">      0.40000000</i>
    </separator>
   </separator>
   <separator name="electronic mixer" >
    <i name="AMIX">      0.40000000</i>
    <i name="BMIX">      1.00000000</i>
    <i name="AMIN">      0.10000000</i>
    <i name="AMIX_MAG">      1.60000000</i>
    <i name="BMIX_MAG">      1.00000000</i>
    <separator name="electronic mixer details" >
     <i type="int" name="IMIX">     4</i>
     <i type="int" name="MAXMIX">   -45</i>
     <i name="WC">    100.00000000</i>
     <i type="int" name="INIMIX">     1</i>
     <i type="int" name="MIXPRE">     1</i>
     <i type="int" name="MREMOVE">     5</i>
    </separator>
   </separator>
   <separator name="electronic dipolcorrection" >
    <i type="logical" name="LDIPOL"> F  </i>
    <i type="logical" name="LMONO"> F  </i>
    <i type="int" name="IDIPOL">     0</i>
    <i name="EPSILON">      1.00000000</i>
    <v name="DIPOL">   -100.00000000   -100.00000000   -100.00000000</v>
    <i name="EFIELD">      0.00000000</i>
   </separator>
  </separator>
  <separator name="grids" >
   <i type="int" name="NGX">    96</i>
   <i type="int" name="NGY">    28</i>
   <i type="int" name="NGZ">    60</i>
   <i type="int" name="NGXF">   192</i>
   <i type="int" name="NGYF">    56</i>
   <i type="int" name="NGZF">   120</i>
   <i type="logical" name="ADDGRID"> T  </i>
  </separator>
  <separator name="ionic" >
   <i type="int" name="NSW">    30</i>
   <i type="int" name="IBRION">     2</i>
   <i type="int" name="ISIF">     3</i>
   <i name="PSTRESS">      0.00000000</i>
   <i name="EDIFFG">     -0.02000000</i>
   <i type="int" name="NFREE">     1</i>
   <i name="POTIM">      0.50000000</i>
   <i name="SMASS">     -3.00000000</i>
   <i name="SCALEE">      1.00000000</i>
  </separator>
  <separator name="ionic md" >
   <i name="TEBEG">      0.00010000</i>
   <i name="TEEND">      0.00010000</i>
   <i type="int" name="NBLOCK">     1</i>
   <i type="int" name="KBLOCK">    30</i>
   <i type="int" name="NPACO">   256</i>
   <i name="APACO">     16.00000000</i>
  </separator>
  <separator name="symmetry" >
   <i type="int" name="ISYM">     2</i>
   <i name="SYMPREC">      0.00001000</i>
  </separator>
  <separator name="dos" >
   <i type="logical" name="LORBIT"> F  </i>
   <v name="RWIGS">     -1.00000000     -1.00000000     -1.00000000     -1.00000000</v>
   <i type="int" name="NEDOS">   301</i>
   <i name="EMIN">     10.00000000</i>
   <i name="EMAX">    -10.00000000</i>
   <i name="EFERMI">      0.00000000</i>
  </separator>
  <separator name="writing" >
   <i type="int" name="NWRITE">     2</i>
   <i type="logical" name="LWAVE"> F  </i>
   <i type="logical" name="LCHARG"> F  </i>
   <i type="logical" name="LPARD"> F  </i>
   <i type="logical" name="LVTOT"> F  </i>
   <i type="logical" name="LVHAR"> F  </i>
   <i type="logical" name="LELF"> F  </i>
   <i type="logical" name="LOPTICS"> F  </i>
   <v name="STM">      0.00000000      0.00000000      0.00000000      0.00000000      0.00000000      0.00000000      0.00000000</v>
  </separator>
  <separator name="performance" >
   <i type="int" name="NPAR">     4</i>
   <i type="int" name="NSIM">     4</i>
   <i type="int" name="NBLK">    -1</i>
   <i type="logical" name="LPLANE"> T  </i>
   <i type="logical" name="LSCALAPACK"> T  </i>
   <i type="logical" name="LSCAAWARE"> F  </i>
   <i type="logical" name="LSCALU"> F  </i>
   <i type="logical" name="LASYNC"> F  </i>
   <i type="logical" name="LORBITALREAL"> F  </i>
  </separator>
  <separator name="miscellaneous" >
   <i type="int" name="IDIOT">     3</i>
   <i type="logical" name="LMUSIC"> F  </i>
   <v name="POMASS">     28.08500000     26.98100000     12.01100000     14.00100000</v>
   <v name="DARWINR">      0.00000000      0.00000000      0.00000000      0.00000000</v>
   <v name="DARWINV">      1.00000000      1.00000000      1.00000000      1.00000000</v>
   <i type="logical" name="LCORR"> T  </i>
  </separator>
  <i type="logical" name="GGA_COMPAT"> T  </i>
  <i type="logical" name="LBERRY"> F  </i>
  <i type="int" name="ICORELEVEL">     0</i>
  <i type="logical" name="LDAU"> F  </i>
  <i type="int" name="I_CONSTRAINED_M">     0</i>
  <separator name="electronic exchange-correlation" >
   <i type="string" name="GGA">--</i>
   <i type="int" name="VOSKOWN">     0</i>
   <i type="logical" name="LHFCALC"> F  </i>
   <i type="string" name="PRECFOCK"></i>
   <i type="logical" name="LSYMGRAD"> F  </i>
   <i type="logical" name="LHFONE"> F  </i>
   <i type="logical" name="LRHFCALC"> F  </i>
   <i type="logical" name="LTHOMAS"> F  </i>
   <i type="logical" name="LMODELHF"> F  </i>
   <i name="ENCUT4O">     -1.00000000</i>
   <i type="int" name="EXXOEP">     0</i>
   <i type="int" name="FOURORBIT">     0</i>
   <i name="AEXX">      0.00000000</i>
   <i name="HFALPHA">      0.00000000</i>
   <i name="MCALPHA">      0.00000000</i>
   <i name="ALDAX">      1.00000000</i>
   <i name="AGGAX">      1.00000000</i>
   <i name="ALDAC">      1.00000000</i>
   <i name="AGGAC">      1.00000000</i>
   <i type="int" name="NKREDX">     1</i>
   <i type="int" name="NKREDY">     1</i>
   <i type="int" name="NKREDZ">     1</i>
   <i type="logical" name="SHIFTRED"> F  </i>
   <i type="logical" name="ODDONLY"> F  </i>
   <i type="logical" name="EVENONLY"> F  </i>
   <i type="int" name="LMAXFOCK">     0</i>
   <i type="int" name="NMAXFOCKAE">     0</i>
   <i type="logical" name="LFOCKAEDFT"> F  </i>
   <i name="HFSCREEN">      0.00000000</i>
   <i name="HFSCREENC">      0.00000000</i>
   <i type="int" name="NBANDSGWLOW">     0</i>
  </separator>
  <separator name="vdW DFT" >
   <i type="logical" name="LUSE_VDW"> F  </i>
   <i name="Zab_VDW">     -0.84910000</i>
   <i name="PARAM1">      0.12340000</i>
   <i name="PARAM2">      1.00000000</i>
   <i name="PARAM3">      0.00000000</i>
  </separator>
  <separator name="model GW" >
   <i type="int" name="MODEL_GW">     0</i>
   <i name="MODEL_EPS0">      6.40521771</i>
   <i name="MODEL_ALPHA">      1.00000000</i>
  </separator>
  <separator name="linear response parameters" >
   <i type="logical" name="LEPSILON"> F  </i>
   <i type="logical" name="LRPA"> F  </i>
   <i type="logical" name="LNABLA"> F  </i>
   <i type="logical" name="LVEL"> F  </i>
   <i type="int" name="KINTER">     0</i>
   <i name="CSHIFT">      0.10000000</i>
   <i name="OMEGAMAX">     -1.00000000</i>
   <i name="DEG_THRESHOLD">      0.00200000</i>
  </separator>
  <separator name="orbital magnetization" >
   <i type="logical" name="NUCIND"> F  </i>
   <v name="MAGPOS">      0.00000000      0.00000000      0.00000000</v>
   <i type="logical" name="LNICSALL"> T  </i>
   <i type="logical" name="ORBITALMAG"> F  </i>
   <i type="logical" name="LMAGBLOCH"> F  </i>
   <i type="logical" name="LCHIMAG"> F  </i>
   <i type="logical" name="LGAUGE"> T  </i>
   <i type="int" name="MAGATOM">     0</i>
   <v name="MAGDIPOL">      0.00000000      0.00000000      0.00000000</v>
   <v name="AVECCONST">      0.00000000      0.00000000      0.00000000</v>
  </separator>
  <separator name="response functions" >
   <i type="logical" name="LADDER"> F  </i>
   <i type="logical" name="LFXC"> F  </i>
   <i type="logical" name="LHARTREE"> T  </i>
   <i type="int" name="IBSE">     0</i>
   <i type="logical" name="LTCTE"> F  </i>
   <i type="logical" name="LTETE"> F  </i>
   <i type="logical" name="LTRIPLET"> F  </i>
   <i type="logical" name="LFXCEPS"> F  </i>
   <i type="logical" name="LFXHEG"> F  </i>
   <i type="logical" name="L2ORDER"> F  </i>
   <i type="logical" name="LUSEW"> F  </i>
   <i name="ENCUTGW">     -2.00000000</i>
   <i name="ENCUTGWSOFT">     -2.00000000</i>
   <i name="ENCUTLF">     -1.00000000</i>
   <i type="int" name="LMAXMP2">    -1</i>
   <i name="SCISSOR">      0.00000000</i>
   <i type="int" name="NOMEGA">     0</i>
   <i type="int" name="NOMEGAR">     0</i>
   <i type="int" name="NBANDSGW">    -1</i>
   <i type="int" name="NBANDSO">    -1</i>
   <i type="int" name="NBANDSV">    -1</i>
   <i type="int" name="NELM">   100</i>
   <i type="int" name="DIM">     3</i>
   <i type="int" name="ANTIRES">     0</i>
   <i name="OMEGAMAX">    -30.00000000</i>
   <i name="OMEGAMIN">    -30.00000000</i>
   <i name="OMEGATL">   -200.00000000</i>
   <i type="int" name="OMEGAGRID">     0</i>
   <i name="CSHIFT">     -0.10000000</i>
   <i type="logical" name="SELFENERGY"> F  </i>
   <i type="logical" name="LSPECTRAL"> F  </i>
   <i type="logical" name="ODDONLYGW"> F  </i>
   <i type="logical" name="EVENONLYGW"> F  </i>
   <i type="int" name="NKREDLFX">     1</i>
   <i type="int" name="NKREDLFY">     1</i>
   <i type="int" name="NKREDLFZ">     1</i>
   <i type="int" name="MAXMEM">  1800</i>
   <i type="int" name="TELESCOPE">     0</i>
   <i type="int" name="TAUPAR">     1</i>
  </separator>
  <separator name="External order field" >
   <i name="OFIELD_KAPPA">      0.00000000</i>
   <v name="OFIELD_K">      0.00000000      0.00000000      0.00000000</v>
   <i name="OFIELD_Q6_NEAR">      0.00000000</i>
   <i name="OFIELD_Q6_FAR">      0.00000000</i>
   <i name="OFIELD_A">      0.00000000</i>
  </separator>
 </parameters>
 <atominfo>
  <atoms>      24 </atoms>
  <types>       4 </types>
  <array name="atoms" >
   <dimension dim="1">ion</dimension>
   <field type="string">element</field>
   <field type="int">atomtype</field>
   <set>
    <rc><c>Si</c><c>   1</c></rc>
    <rc><c>Si</c><c>   1</c></rc>
    <rc><c>Si</c><c>   1</c></rc>
    <rc><c>Si</c><c>   1</c></rc>
    <rc><c>Al</c><c>   2</c></rc>
    <rc><c>Al</c><c>   2</c></rc>
    <rc><c>Al</c><c>   2</c></rc>
    <rc><c>Al</c><c>   2</c></rc>
    <rc><c>Al</c><c>   2</c></rc>
    <rc><c>Al</c><c>   2</c></rc>
    <rc><c>Al</c><c>   2</c></rc>
    <rc><c>Al</c><c>   2</c></rc>
    <rc><c>C </c><c>   3</c></rc>
    <rc><c>C </c><c>   3</c></rc>
    <rc><c>C </c><c>   3</c></rc>
    <rc><c>C </c><c>   3</c></rc>
    <rc><c>N </c><c>   4</c></rc>
    <rc><c>N </c><c>   4</c></rc>
    <rc><c>N </c><c>   4</c></rc>
    <rc><c>N </c><c>   4</c></rc>
    <rc><c>N </c><c>   4</c></rc>
    <rc><c>N </c><c>   4</c></rc>
    <rc><c>N </c><c>   4</c></rc>
    <rc><c>N </c><c>   4</c></rc>
   </set>
  </array>
  <array name="atomtypes" >
   <dimension dim="1">type</dimension>
   <field type="int">atomspertype</field>
   <field type="string">element</field>
   <field>mass</field>
   <field>valence</field>
   <field type="string">pseudopotential</field>
   <set>
    <rc><c>   4</c><c>Si</c><c>     28.08500000</c><c>      4.00000000</c><c>  PAW_PBE Si 05Jan2001                  </c></rc>
    <rc><c>   8</c><c>Al</c><c>     26.98100000</c><c>      3.00000000</c><c>  PAW_PBE Al 04Jan2001                  </c></rc>
    <rc><c>   4</c><c>C </c><c>     12.01100000</c><c>      4.00000000</c><c>  PAW_PBE C 08Apr2002                   </c></rc>
    <rc><c>   8</c><c>N </c><c>     14.00100000</c><c>      5.00000000</c><c>  PAW_PBE N_s 07Sep2000                 </c></rc>
   </set>
  </array>
 </atominfo>
 <structure name="initialpos" >
  <crystal>
   <varray name="basis" >
    <v>      11.46703754       0.00000000      -0.06440882 </v>
    <v>       0.00000000       3.12290467       0.00000000 </v>
    <v>      -1.87724354       0.00000000       7.16512063 </v>
   </varray>
   <i name="volume">    256.20870836 </i>
   <varray name="rec_basis" >
    <v>       0.08733500       0.00000000       0.02288155 </v>
    <v>       0.00000000       0.32021471       0.00000000 </v>
    <v>       0.00078507       0.00000000       0.13977068 </v>
   </varray>
  </crystal>
  <varray name="positions" >
   <v>       0.44242409       0.50000000       0.38737438 </v>
   <v>       0.11319770       0.50000000       0.72927135 </v>
   <v>       0.94242409       0.00000000       0.38737438 </v>
   <v>       0.61319770       0.00000000       0.72927135 </v>
   <v>       0.38951255       0.50000000       0.77563235 </v>
   <v>       0.05850779       0.50000000       0.11245647 </v>
   <v>       0.22541124       0.00000000       0.43829790 </v>
   <v>       0.27593768       0.00000000       0.05380974 </v>
   <v>       0.88951255       0.00000000       0.77563235 </v>
   <v>       0.55850779       0.00000000       0.11245647 </v>
   <v>       0.72541124       0.50000000       0.43829790 </v>
   <v>       0.77593768       0.50000000       0.05380974 </v>
   <v>       0.25701749       0.50000000       0.89102772 </v>
   <v>       0.43260448       0.00000000       0.25527340 </v>
   <v>       0.75701749       0.00000000       0.89102772 </v>
   <v>       0.93260448       0.50000000       0.25527340 </v>
   <v>       0.09004058       0.00000000       0.57486653 </v>
   <v>       0.15063512       0.00000000       0.18384098 </v>
   <v>       0.32304680       0.50000000       0.51065040 </v>
   <v>       0.49166447       0.00000000       0.83749880 </v>
   <v>       0.59004058       0.50000000       0.57486653 </v>
   <v>       0.65063512       0.50000000       0.18384098 </v>
   <v>       0.82304680       0.00000000       0.51065040 </v>
   <v>       0.99166447       0.50000000       0.83749880 </v>
  </varray>
 </structure>
 <calculation>
  <scstep>
   <time name="dav">    1.30    1.30</time>
   <time name="total">    1.40    1.41</time>
   <energy>
    <i name="alphaZ">     83.96296241 </i>
    <i name="ewald">  -3420.26101686 </i>
    <i name="hartreedc">   -623.90425569 </i>
    <i name="XCdc">    -29.23385684 </i>
    <i name="pawpsdc">   2955.69183224 </i>
    <i name="pawaedc">  -2641.44257160 </i>
    <i name="eentropy">     -0.02779577 </i>
    <i name="bandstr">    703.66211591 </i>
    <i name="atom">   3545.55218058 </i>
    <i name="e_fr_energy">    573.99959438 </i>
    <i name="e_wo_entrp">    574.02739015 </i>
    <i name="e_0_energy">    574.01349226 </i>
   </energy>
  </scstep>
  <scstep>
   <time name="dav">    1.46    1.46</time>
   <time name="total">    1.46    1.47</time>
   <energy>
    <i name="e_fr_energy">   -145.10367880 </i>
    <i name="e_wo_entrp">   -145.10367880 </i>
    <i name="e_0_energy">   -145.10367880 </i>
   </energy>
  </scstep>
  <scstep>
   <time name="dav">    1.50    1.50</time>
   <time name="total">    1.50    1.52</time>
   <energy>
    <i name="e_fr_energy">   -202.43787938 </i>
    <i name="e_wo_entrp">   -202.43787938 </i>
    <i name="e_0_energy">   -202.43787938 </i>
   </energy>
  </scstep>
  <scstep>
   <time name="dav">    1.46    1.46</time>
   <time name="total">    1.46    1.47</time>
   <energy>
    <i name="e_fr_energy">   -203.89962172 </i>
    <i name="e_wo_entrp">   -203.89962172 </i>
    <i name="e_0_energy">   -203.89962172 </i>
   </energy>
  </scstep>
  <scstep>
   <time name="dav">    1.47    1.48</time>
   <time name="total">    1.64    1.65</time>
   <energy>
    <i name="e_fr_energy">   -203.94237976 </i>
    <i name="e_wo_entrp">   -203.94237976 </i>
    <i name="e_0_energy">   -203.94237976 </i>
   </energy>
  </scstep>
  <scstep>
   <time name="diag">    0.22    0.22</time>
   <time name="diis">    0.89    0.89</time>
   <time name="orth">    0.04    0.04</time>
   <time name="total">    1.40    1.42</time>
   <energy>
    <i name="e_fr_energy">   -176.06598563 </i>
    <i name="e_wo_entrp">   -176.06598563 </i>
    <i name="e_0_energy">   -176.06598563 </i>
   </energy>
  </scstep>
  <scstep>
   <time name="diag">    0.22    0.22</time>
   <time name="diis">    0.88    0.88</time>
   <time name="orth">    0.04    0.04</time>
   <time name="total">    1.40    1.41</time>
   <energy>
    <i name="e_fr_energy">   -176.11423683 </i>
    <i name="e_wo_entrp">   -176.11423683 </i>
    <i name="e_0_energy">   -176.11423683 </i>
   </energy>
  </scstep>
  <scstep>
   <time name="diag">    0.22    0.22</time>
   <time name="diis">    0.87    0.87</time>
   <time name="orth">    0.04    0.04</time>
   <time name="total">    1.39    1.40</time>
   <energy>
    <i name="e_fr_energy">   -179.24304090 </i>
    <i name="e_wo_entrp">   -179.24304090 </i>
    <i name="e_0_energy">   -179.24304090 </i>
   </energy>
  </scstep>
  <scstep>
   <time name="diag">    0.22    0.22</time>
   <time name="diis">    0.88    0.88</time>
   <time name="orth">    0.04    0.04</time>
   <time name="total">    1.39    1.41</time>
   <energy>
    <i name="e_fr_energy">   -175.93158147 </i>
    <i name="e_wo_entrp">   -175.93158147 </i>
    <i name="e_0_energy">   -175.93158147 </i>
   </energy>
  </scstep>
  <scstep>
   <time name="diag">    0.22    0.22</time>
   <time name="diis">    0.88    0.88</time>
   <time name="orth">    0.04    0.04</time>
   <time name="total">    1.40    1.41</time>
   <energy>
    <i name="e_fr_energy">   -175.88848884 </i>
    <i name="e_wo_entrp">   -175.88848884 </i>
    <i name="e_0_energy">   -175.88848884 </i>
   </energy>
  </scstep>
  <scstep>
   <time name="diag">    0.22    0.22</time>
   <time name="diis">    0.89    0.89</time>
   <time name="orth">    0.04    0.04</time>
   <time name="total">    1.41    1.42</time>
   <energy>
    <i name="e_fr_energy">   -175.90304765 </i>
    <i name="e_wo_entrp">   -175.90304765 </i>
    <i name="e_0_energy">   -175.90304765 </i>
   </energy>
  </scstep>
  <scstep>
   <time name="diag">    0.22    0.22</time>
   <time name="diis">    0.88    0.88</time>
   <time name="orth">    0.04    0.04</time>
   <time name="total">    1.39    1.41</time>
   <energy>
    <i name="e_fr_energy">   -175.90125447 </i>
    <i name="e_wo_entrp">   -175.90125447 </i>
    <i name="e_0_energy">   -175.90125447 </i>
   </energy>
  </scstep>
  <scstep>
   <time name="diag">    0.22    0.22</time>
   <time name="diis">    0.87    0.87</time>
   <time name="orth">    0.04    0.04</time>
   <time name="total">    1.38    1.39</time>
   <energy>
    <i name="e_fr_energy">   -175.90097592 </i>
    <i name="e_wo_entrp">   -175.90097592 </i>
    <i name="e_0_energy">   -175.90097592 </i>
   </energy>
  </scstep>
  <scstep>
   <time name="diag">    0.22    0.22</time>
   <time name="diis">    0.86    0.86</time>
   <time name="orth">    0.04    0.04</time>
   <time name="total">    1.38    1.39</time>
   <energy>
    <i name="e_fr_energy">   -175.90069192 </i>
    <i name="e_wo_entrp">   -175.90069192 </i>
    <i name="e_0_energy">   -175.90069192 </i>
   </energy>
  </scstep>
  <scstep>
   <time name="diag">    0.22    0.22</time>
   <time name="diis">    0.88    0.88</time>
   <time name="orth">    0.04    0.04</time>
   <time name="total">    1.40    1.41</time>
   <energy>
    <i name="e_fr_energy">   -175.90069059 </i>
    <i name="e_wo_entrp">   -175.90069059 </i>
    <i name="e_0_energy">   -175.90069059 </i>
   </energy>
  </scstep>
  <scstep>
   <time name="diag">    0.22    0.22</time>
   <time name="diis">    0.66    0.66</time>
   <time name="orth">    0.04    0.04</time>
   <time name="total">    1.01    1.03</time>
   <energy>
    <i name="alphaZ">     83.96296241 </i>
    <i name="ewald">  -3420.26101686 </i>
    <i name="hartreedc">   -801.00315803 </i>
    <i name="XCdc">    -13.91937982 </i>
    <i name="pawpsdc">  16269.42766088 </i>
    <i name="pawaedc"> -15963.03218072 </i>
    <i name="eentropy">      0.00000000 </i>
    <i name="bandstr">    123.37224038 </i>
    <i name="atom">   3545.55218058 </i>
    <i name="e_fr_energy">   -175.90069117 </i>
    <i name="e_wo_entrp">   -175.90069117 </i>
    <i name="e_0_energy">   -175.90069117 </i>
   </energy>
  </scstep>
  <structure>
   <crystal>
    <varray name="basis" >
     <v>      11.46703754       0.00000000      -0.06440882 </v>
     <v>       0.00000000       3.12290467       0.00000000 </v>
     <v>      -1.87724354       0.00000000       7.16512063 </v>
    </varray>
    <i name="volume">    256.20870836 </i>
    <varray name="rec_basis" >
     <v>       0.08733500       0.00000000       0.02288155 </v>
     <v>       0.00000000       0.32021471       0.00000000 </v>
     <v>       0.00078507       0.00000000       0.13977068 </v>
    </varray>
   </crystal>
   <varray name="positions" >
    <v>       0.44242409       0.50000000       0.38737438 </v>
    <v>       0.11319770       0.50000000       0.72927135 </v>
    <v>       0.94242409       0.00000000       0.38737438 </v>
    <v>       0.61319770       0.00000000       0.72927135 </v>
    <v>       0.38951255       0.50000000       0.77563235 </v>
    <v>       0.05850779       0.50000000       0.11245647 </v>
    <v>       0.22541124       0.00000000       0.43829790 </v>
    <v>       0.27593768       0.00000000       0.05380974 </v>
    <v>       0.88951255       0.00000000       0.77563235 </v>
    <v>       0.55850779       0.00000000       0.11245647 </v>
    <v>       0.72541124       0.50000000       0.43829790 </v>
    <v>       0.77593768       0.50000000       0.05380974 </v>
    <v>       0.25701749       0.50000000       0.89102772 </v>
    <v>       0.43260448       0.00000000       0.25527340 </v>
    <v>       0.75701749       0.00000000       0.89102772 </v>
    <v>       0.93260448       0.50000000       0.25527340 </v>
    <v>       0.09004058       0.00000000       0.57486653 </v>
    <v>       0.15063512       0.00000000       0.18384098 </v>
    <v>       0.32304680       0.50000000       0.51065040 </v>
    <v>       0.49166447       0.00000000       0.83749880 </v>
    <v>       0.59004058       0.50000000       0.57486653 </v>
    <v>       0.65063512       0.50000000       0.18384098 </v>
    <v>       0.82304680       0.00000000       0.51065040 </v>
    <v>       0.99166447       0.50000000       0.83749880 </v>
   </varray>
  </structure>
  <varray name="forces" >
   <v>      -0.00430311       0.00000000       0.00771447 </v>
   <v>       0.00309166       0.00000000      -0.00854061 </v>
   <v>      -0.00430311       0.00000000       0.00771447 </v>
   <v>       0.00309166       0.00000000      -0.00854061 </v>
   <v>       0.00535980       0.00000000       0.00495218 </v>
   <v>      -0.00921943       0.00000000      -0.01142716 </v>
   <v>       0.00313152       0.00000000       0.00913279 </v>
   <v>      -0.00555679       0.00000000       0.00874702 </v>
   <v>       0.00535980       0.00000000       0.00495218 </v>
   <v>      -0.00921943       0.00000000      -0.01142716 </v>
   <v>       0.00313152       0.00000000       0.00913279 </v>
   <v>      -0.00555679       0.00000000       0.00874702 </v>
   <v>       0.01422383       0.00000000       0.01034618 </v>
   <v>       0.01382046       0.00000000      -0.00494227 </v>
   <v>       0.01422383       0.00000000       0.01034618 </v>
   <v>       0.01382046       0.00000000      -0.00494227 </v>
   <v>      -0.00295077       0.00000000      -0.00541302 </v>
   <v>      -0.01704940       0.00000000      -0.00388525 </v>
   <v>      -0.01664917       0.00000000      -0.00496801 </v>
   <v>       0.01610138       0.00000000      -0.00171631 </v>
   <v>      -0.00295077       0.00000000      -0.00541302 </v>
   <v>      -0.01704940       0.00000000      -0.00388525 </v>
   <v>      -0.01664917       0.00000000      -0.00496801 </v>
   <v>       0.01610138       0.00000000      -0.00171631 </v>
  </varray>
  <varray name="stress" >
   <v>      -0.59130851       0.00000000       0.24359945 </v>
   <v>       0.00000000      -0.23653554       0.00000000 </v>
   <v>       0.24359949       0.00000000       0.17489690 </v>
  </varray>
  <energy>
   <i name="e_fr_energy">   -175.90069117 </i>
   <i name="e_wo_entrp">   -175.90069117 </i>
   <i name="e_0_energy">      0.00000000 </i>
  </energy>
  <time name="totalsc">   25.42   25.67</time>
  <eigenvalues>
   <array>
    <dimension dim="1">band</dimension>
    <dimension dim="2">kpoint</dimension>
    <dimension dim="3">spin</dimension>
    <field>eigene</field>
    <field>occ</field>
    <set>
     <set comment="spin 1">
      <set comment="kpoint 1">
       <r>   -9.4676    1.0000 </r>
       <r>   -9.1909    1.0000 </r>
       <r>   -8.2074    1.0000 </r>
       <r>   -7.7435    1.0000 </r>
       <r>   -7.5690    1.0000 </r>
       <r>   -7.5604    1.0000 </r>
       <r>   -6.9158    1.0000 </r>
       <r>   -6.8065    1.0000 </r>
       <r>   -4.5318    1.0000 </r>
       <r>   -4.2353    1.0000 </r>
       <r>   -3.4279    1.0000 </r>
       <r>   -3.3870    1.0000 </r>
       <r>   -0.2888    1.0000 </r>
       <r>    0.3176    1.0000 </r>
       <r>    0.5632    1.0000 </r>
       <r>    1.1914    1.0000 </r>
       <r>    1.6125    1.0000 </r>
       <r>    1.6502    1.0000 </r>
       <r>    1.8711    1.0000 </r>
       <r>    1.9384    1.0000 </r>
       <r>    2.1414    1.0000 </r>
       <r>    2.9096    1.0000 </r>
       <r>    3.2995    1.0000 </r>
       <r>    3.3375    1.0000 </r>
       <r>    3.4236    1.0000 </r>
       <r>    3.6597    1.0000 </r>
       <r>    3.7649    1.0000 </r>
       <r>    3.8296    1.0000 </r>
       <r>    4.5902    1.0000 </r>
       <r>    4.6708    1.0000 </r>
       <r>    4.7486    1.0000 </r>
       <r>    4.9214    1.0000 </r>
       <r>    5.0147    1.0000 </r>
       <r>    5.1410    1.0000 </r>
       <r>    5.1719    1.0000 </r>
       <r>    5.4180    1.0000 </r>
       <r>    5.5562    1.0000 </r>
       <r>    5.5623    1.0000 </r>
       <r>    5.5649    1.0000 </r>
       <r>    5.8263    1.0000 </r>
       <r>    6.1783    1.0000 </r>
       <r>    6.3024    1.0000 </r>
       <r>    6.3318    1.0000 </r>
       <r>    6.3414    1.0000 </r>
       <r>    6.9771    1.0000 </r>
       <r>    7.2376    1.0000 </r>
       <r>    8.0913    1.0000 </r>
       <r>    8.1255    1.0000 </r>
       <r>   10.1218    0.0000 </r>
       <r>   10.5789    0.0000 </r>
       <r>   11.3001    0.0000 </r>
       <r>   11.8921    0.0000 </r>
       <r>   11.9674    0.0000 </r>
       <r>   12.2013    0.0000 </r>
       <r>   12.3875    0.0000 </r>
       <r>   12.7857    0.0000 </r>
       <r>   12.9107    0.0000 </r>
       <r>   13.0274    0.0000 </r>
       <r>   13.2990    0.0000 </r>
       <r>   13.7750    0.0000 </r>
       <r>   14.0111    0.0000 </r>
       <r>   14.8338    0.0000 </r>
       <r>   15.0972    0.0000 </r>
       <r>   15.2039    0.0000 </r>
      </set>
      <set comment="kpoint 2">
       <r>   -9.3504    1.0000 </r>
       <r>   -9.3504    1.0000 </r>
       <r>   -7.9544    1.0000 </r>
       <r>   -7.9544    1.0000 </r>
       <r>   -7.5676    1.0000 </r>
       <r>   -7.5676    1.0000 </r>
       <r>   -6.8638    1.0000 </r>
       <r>   -6.8638    1.0000 </r>
       <r>   -4.3881    1.0000 </r>
       <r>   -4.3881    1.0000 </r>
       <r>   -3.3972    1.0000 </r>
       <r>   -3.3972    1.0000 </r>
       <r>    0.0939    1.0000 </r>
       <r>    0.0939    1.0000 </r>
       <r>    0.6100    1.0000 </r>
       <r>    0.6100    1.0000 </r>
       <r>    1.6821    1.0000 </r>
       <r>    1.6821    1.0000 </r>
       <r>    2.0800    1.0000 </r>
       <r>    2.0800    1.0000 </r>
       <r>    2.4967    1.0000 </r>
       <r>    2.4967    1.0000 </r>
       <r>    3.1672    1.0000 </r>
       <r>    3.1672    1.0000 </r>
       <r>    3.3573    1.0000 </r>
       <r>    3.3573    1.0000 </r>
       <r>    4.3087    1.0000 </r>
       <r>    4.3087    1.0000 </r>
       <r>    4.6440    1.0000 </r>
       <r>    4.6440    1.0000 </r>
       <r>    4.6778    1.0000 </r>
       <r>    4.6778    1.0000 </r>
       <r>    5.1531    1.0000 </r>
       <r>    5.1531    1.0000 </r>
       <r>    5.1815    1.0000 </r>
       <r>    5.1815    1.0000 </r>
       <r>    5.5576    1.0000 </r>
       <r>    5.5576    1.0000 </r>
       <r>    5.7376    1.0000 </r>
       <r>    5.7376    1.0000 </r>
       <r>    6.3381    1.0000 </r>
       <r>    6.3381    1.0000 </r>
       <r>    6.4745    1.0000 </r>
       <r>    6.4745    1.0000 </r>
       <r>    6.7466    1.0000 </r>
       <r>    6.7466    1.0000 </r>
       <r>    8.1090    1.0000 </r>
       <r>    8.1090    1.0000 </r>
       <r>   10.4084    0.0000 </r>
       <r>   10.4084    0.0000 </r>
       <r>   11.7103    0.0000 </r>
       <r>   11.7103    0.0000 </r>
       <r>   12.0827    0.0000 </r>
       <r>   12.0827    0.0000 </r>
       <r>   12.4995    0.0000 </r>
       <r>   12.4995    0.0000 </r>
       <r>   12.6987    0.0000 </r>
       <r>   12.6988    0.0000 </r>
       <r>   13.5891    0.0000 </r>
       <r>   13.5893    0.0000 </r>
       <r>   14.5524    0.0000 </r>
       <r>   14.6399    0.0000 </r>
       <r>   15.1688    0.0000 </r>
       <r>   15.2068    0.0000 </r>
      </set>
      <set comment="kpoint 3">
       <r>   -9.2142    1.0000 </r>
       <r>   -8.9520    1.0000 </r>
       <r>   -8.0042    1.0000 </r>
       <r>   -7.5775    1.0000 </r>
       <r>   -7.4361    1.0000 </r>
       <r>   -7.4308    1.0000 </r>
       <r>   -6.7715    1.0000 </r>
       <r>   -6.6758    1.0000 </r>
       <r>   -4.2445    1.0000 </r>
       <r>   -3.9526    1.0000 </r>
       <r>   -3.2172    1.0000 </r>
       <r>   -3.2166    1.0000 </r>
       <r>   -0.0338    1.0000 </r>
       <r>    0.5358    1.0000 </r>
       <r>    0.5573    1.0000 </r>
       <r>    1.1389    1.0000 </r>
       <r>    1.6181    1.0000 </r>
       <r>    1.6690    1.0000 </r>
       <r>    1.8252    1.0000 </r>
       <r>    1.8359    1.0000 </r>
       <r>    1.9140    1.0000 </r>
       <r>    2.4400    1.0000 </r>
       <r>    2.8598    1.0000 </r>
       <r>    3.0481    1.0000 </r>
       <r>    3.2042    1.0000 </r>
       <r>    3.4556    1.0000 </r>
       <r>    3.5197    1.0000 </r>
       <r>    3.5947    1.0000 </r>
       <r>    3.8876    1.0000 </r>
       <r>    4.2025    1.0000 </r>
       <r>    4.2799    1.0000 </r>
       <r>    4.2934    1.0000 </r>
       <r>    4.4546    1.0000 </r>
       <r>    4.6106    1.0000 </r>
       <r>    4.9405    1.0000 </r>
       <r>    4.9424    1.0000 </r>
       <r>    5.1510    1.0000 </r>
       <r>    5.2138    1.0000 </r>
       <r>    5.4186    1.0000 </r>
       <r>    5.4800    1.0000 </r>
       <r>    5.8331    1.0000 </r>
       <r>    5.9794    1.0000 </r>
       <r>    6.2105    1.0000 </r>
       <r>    6.4305    1.0000 </r>
       <r>    6.7185    1.0000 </r>
       <r>    6.9103    1.0000 </r>
       <r>    7.1582    1.0000 </r>
       <r>    7.2894    1.0000 </r>
       <r>   11.2744    0.0000 </r>
       <r>   11.3858    0.0000 </r>
       <r>   12.1648    0.0000 </r>
       <r>   12.2136    0.0000 </r>
       <r>   12.3463    0.0000 </r>
       <r>   12.7808    0.0000 </r>
       <r>   12.9014    0.0000 </r>
       <r>   12.9662    0.0000 </r>
       <r>   13.3114    0.0000 </r>
       <r>   13.5332    0.0000 </r>
       <r>   13.7188    0.0000 </r>
       <r>   14.0081    0.0000 </r>
       <r>   14.0385    0.0000 </r>
       <r>   14.3581    0.0000 </r>
       <r>   14.6673    0.0000 </r>
       <r>   15.1693    0.0000 </r>
      </set>
      <set comment="kpoint 4">
       <r>   -9.1025    1.0000 </r>
       <r>   -9.1025    1.0000 </r>
       <r>   -7.7707    1.0000 </r>
       <r>   -7.7707    1.0000 </r>
       <r>   -7.4368    1.0000 </r>
       <r>   -7.4368    1.0000 </r>
       <r>   -6.7250    1.0000 </r>
       <r>   -6.7250    1.0000 </r>
       <r>   -4.1042    1.0000 </r>
       <r>   -4.1042    1.0000 </r>
       <r>   -3.2099    1.0000 </r>
       <r>   -3.2099    1.0000 </r>
       <r>    0.3118    1.0000 </r>
       <r>    0.3118    1.0000 </r>
       <r>    0.7633    1.0000 </r>
       <r>    0.7633    1.0000 </r>
       <r>    1.4445    1.0000 </r>
       <r>    1.4445    1.0000 </r>
       <r>    1.9238    1.0000 </r>
       <r>    1.9238    1.0000 </r>
       <r>    2.3218    1.0000 </r>
       <r>    2.3218    1.0000 </r>
       <r>    2.8536    1.0000 </r>
       <r>    2.8536    1.0000 </r>
       <r>    3.1298    1.0000 </r>
       <r>    3.1298    1.0000 </r>
       <r>    3.8045    1.0000 </r>
       <r>    3.8045    1.0000 </r>
       <r>    4.1278    1.0000 </r>
       <r>    4.1278    1.0000 </r>
       <r>    4.3548    1.0000 </r>
       <r>    4.3548    1.0000 </r>
       <r>    4.6647    1.0000 </r>
       <r>    4.6647    1.0000 </r>
       <r>    4.8575    1.0000 </r>
       <r>    4.8575    1.0000 </r>
       <r>    5.1262    1.0000 </r>
       <r>    5.1262    1.0000 </r>
       <r>    5.3766    1.0000 </r>
       <r>    5.3766    1.0000 </r>
       <r>    5.8786    1.0000 </r>
       <r>    5.8786    1.0000 </r>
       <r>    6.4192    1.0000 </r>
       <r>    6.4192    1.0000 </r>
       <r>    6.7442    1.0000 </r>
       <r>    6.7442    1.0000 </r>
       <r>    7.1439    1.0000 </r>
       <r>    7.1439    1.0000 </r>
       <r>   11.4658    0.0000 </r>
       <r>   11.4658    0.0000 </r>
       <r>   12.0942    0.0000 </r>
       <r>   12.0942    0.0000 </r>
       <r>   12.6457    0.0000 </r>
       <r>   12.6458    0.0000 </r>
       <r>   12.7216    0.0000 </r>
       <r>   12.7217    0.0000 </r>
       <r>   13.4359    0.0000 </r>
       <r>   13.4363    0.0000 </r>
       <r>   13.8166    0.0000 </r>
       <r>   13.8200    0.0000 </r>
       <r>   14.4514    0.0000 </r>
       <r>   14.5011    0.0000 </r>
       <r>   14.8460    0.0000 </r>
       <r>   14.8843    0.0000 </r>
      </set>
      <set comment="kpoint 5">
       <r>   -8.5499    1.0000 </r>
       <r>   -8.3451    1.0000 </r>
       <r>   -7.5108    1.0000 </r>
       <r>   -7.2655    1.0000 </r>
       <r>   -7.2315    1.0000 </r>
       <r>   -7.1758    1.0000 </r>
       <r>   -6.4566    1.0000 </r>
       <r>   -6.4047    1.0000 </r>
       <r>   -3.4555    1.0000 </r>
       <r>   -3.2118    1.0000 </r>
       <r>   -2.9018    1.0000 </r>
       <r>   -2.7820    1.0000 </r>
       <r>   -0.3058    1.0000 </r>
       <r>    0.2414    1.0000 </r>
       <r>    0.3394    1.0000 </r>
       <r>    0.5798    1.0000 </r>
       <r>    1.0109    1.0000 </r>
       <r>    1.3666    1.0000 </r>
       <r>    1.3905    1.0000 </r>
       <r>    1.4316    1.0000 </r>
       <r>    1.5449    1.0000 </r>
       <r>    1.8624    1.0000 </r>
       <r>    2.5328    1.0000 </r>
       <r>    2.6619    1.0000 </r>
       <r>    2.7944    1.0000 </r>
       <r>    2.8853    1.0000 </r>
       <r>    2.9097    1.0000 </r>
       <r>    3.0001    1.0000 </r>
       <r>    3.4914    1.0000 </r>
       <r>    3.6149    1.0000 </r>
       <r>    3.7109    1.0000 </r>
       <r>    3.8379    1.0000 </r>
       <r>    4.0068    1.0000 </r>
       <r>    4.0998    1.0000 </r>
       <r>    4.4624    1.0000 </r>
       <r>    4.7641    1.0000 </r>
       <r>    4.8385    1.0000 </r>
       <r>    4.8721    1.0000 </r>
       <r>    5.0433    1.0000 </r>
       <r>    5.0588    1.0000 </r>
       <r>    5.1345    1.0000 </r>
       <r>    5.7548    1.0000 </r>
       <r>    5.9404    1.0000 </r>
       <r>    5.9675    1.0000 </r>
       <r>    6.3612    1.0000 </r>
       <r>    6.5685    1.0000 </r>
       <r>    6.6231    1.0000 </r>
       <r>    6.9552    1.0000 </r>
       <r>   10.8548    0.0000 </r>
       <r>   11.4198    0.0000 </r>
       <r>   11.4475    0.0000 </r>
       <r>   11.6986    0.0000 </r>
       <r>   11.9430    0.0000 </r>
       <r>   12.4635    0.0000 </r>
       <r>   12.8553    0.0000 </r>
       <r>   12.8984    0.0000 </r>
       <r>   12.9586    0.0000 </r>
       <r>   13.3482    0.0000 </r>
       <r>   13.5036    0.0000 </r>
       <r>   14.0014    0.0000 </r>
       <r>   14.1225    0.0000 </r>
       <r>   14.2355    0.0000 </r>
       <r>   14.7922    0.0000 </r>
       <r>   14.8548    0.0000 </r>
      </set>
      <set comment="kpoint 6">
       <r>   -8.4607    1.0000 </r>
       <r>   -8.4607    1.0000 </r>
       <r>   -7.3510    1.0000 </r>
       <r>   -7.3510    1.0000 </r>
       <r>   -7.2293    1.0000 </r>
       <r>   -7.2293    1.0000 </r>
       <r>   -6.4300    1.0000 </r>
       <r>   -6.4300    1.0000 </r>
       <r>   -3.3380    1.0000 </r>
       <r>   -3.3380    1.0000 </r>
       <r>   -2.8472    1.0000 </r>
       <r>   -2.8472    1.0000 </r>
       <r>   -0.0272    1.0000 </r>
       <r>   -0.0272    1.0000 </r>
       <r>    0.4956    1.0000 </r>
       <r>    0.4956    1.0000 </r>
       <r>    1.0565    1.0000 </r>
       <r>    1.0565    1.0000 </r>
       <r>    1.4444    1.0000 </r>
       <r>    1.4444    1.0000 </r>
       <r>    1.8774    1.0000 </r>
       <r>    1.8774    1.0000 </r>
       <r>    2.3274    1.0000 </r>
       <r>    2.3274    1.0000 </r>
       <r>    2.7539    1.0000 </r>
       <r>    2.7539    1.0000 </r>
       <r>    3.1303    1.0000 </r>
       <r>    3.1303    1.0000 </r>
       <r>    3.5698    1.0000 </r>
       <r>    3.5698    1.0000 </r>
       <r>    3.7582    1.0000 </r>
       <r>    3.7582    1.0000 </r>
       <r>    4.2505    1.0000 </r>
       <r>    4.2505    1.0000 </r>
       <r>    4.5059    1.0000 </r>
       <r>    4.5059    1.0000 </r>
       <r>    4.8148    1.0000 </r>
       <r>    4.8148    1.0000 </r>
       <r>    5.1285    1.0000 </r>
       <r>    5.1285    1.0000 </r>
       <r>    5.4502    1.0000 </r>
       <r>    5.4502    1.0000 </r>
       <r>    5.9642    1.0000 </r>
       <r>    5.9642    1.0000 </r>
       <r>    6.4155    1.0000 </r>
       <r>    6.4155    1.0000 </r>
       <r>    6.7098    1.0000 </r>
       <r>    6.7098    1.0000 </r>
       <r>   11.3814    0.0000 </r>
       <r>   11.3814    0.0000 </r>
       <r>   11.7520    0.0000 </r>
       <r>   11.7520    0.0000 </r>
       <r>   11.9988    0.0000 </r>
       <r>   11.9988    0.0000 </r>
       <r>   12.4130    0.0000 </r>
       <r>   12.4131    0.0000 </r>
       <r>   13.4288    0.0000 </r>
       <r>   13.4316    0.0000 </r>
       <r>   13.7124    0.0000 </r>
       <r>   13.7219    0.0000 </r>
       <r>   14.4451    0.0000 </r>
       <r>   14.5017    0.0000 </r>
       <r>   14.6033    0.0000 </r>
       <r>   14.7617    0.0000 </r>
      </set>
      <set comment="kpoint 7">
       <r>   -7.9436    1.0000 </r>
       <r>   -7.9436    1.0000 </r>
       <r>   -7.2763    1.0000 </r>
       <r>   -7.2763    1.0000 </r>
       <r>   -7.1038    1.0000 </r>
       <r>   -7.1038    1.0000 </r>
       <r>   -6.2680    1.0000 </r>
       <r>   -6.2680    1.0000 </r>
       <r>   -2.8138    1.0000 </r>
       <r>   -2.8138    1.0000 </r>
       <r>   -2.6112    1.0000 </r>
       <r>   -2.6112    1.0000 </r>
       <r>   -0.4808    1.0000 </r>
       <r>   -0.4808    1.0000 </r>
       <r>   -0.2062    1.0000 </r>
       <r>   -0.2062    1.0000 </r>
       <r>    0.8270    1.0000 </r>
       <r>    0.8270    1.0000 </r>
       <r>    1.0977    1.0000 </r>
       <r>    1.0977    1.0000 </r>
       <r>    1.7398    1.0000 </r>
       <r>    1.7398    1.0000 </r>
       <r>    2.2904    1.0000 </r>
       <r>    2.2904    1.0000 </r>
       <r>    2.4312    1.0000 </r>
       <r>    2.4312    1.0000 </r>
       <r>    2.9585    1.0000 </r>
       <r>    2.9585    1.0000 </r>
       <r>    3.6749    1.0000 </r>
       <r>    3.6749    1.0000 </r>
       <r>    3.9021    1.0000 </r>
       <r>    3.9021    1.0000 </r>
       <r>    4.2032    1.0000 </r>
       <r>    4.2032    1.0000 </r>
       <r>    4.3632    1.0000 </r>
       <r>    4.3632    1.0000 </r>
       <r>    4.4422    1.0000 </r>
       <r>    4.4422    1.0000 </r>
       <r>    4.8965    1.0000 </r>
       <r>    4.8965    1.0000 </r>
       <r>    5.5494    1.0000 </r>
       <r>    5.5494    1.0000 </r>
       <r>    5.7409    1.0000 </r>
       <r>    5.7409    1.0000 </r>
       <r>    6.2711    1.0000 </r>
       <r>    6.2711    1.0000 </r>
       <r>    6.5992    1.0000 </r>
       <r>    6.5992    1.0000 </r>
       <r>   10.9887    0.0000 </r>
       <r>   10.9887    0.0000 </r>
       <r>   11.2389    0.0000 </r>
       <r>   11.2389    0.0000 </r>
       <r>   11.6741    0.0000 </r>
       <r>   11.6741    0.0000 </r>
       <r>   12.0427    0.0000 </r>
       <r>   12.0427    0.0000 </r>
       <r>   12.4765    0.0000 </r>
       <r>   12.4765    0.0000 </r>
       <r>   14.1365    0.0000 </r>
       <r>   14.2332    0.0000 </r>
       <r>   14.2912    0.0000 </r>
       <r>   14.3948    0.0000 </r>
       <r>   14.5191    0.0000 </r>
       <r>   14.7144    0.0000 </r>
      </set>
      <set comment="kpoint 8">
       <r>   -7.9428    1.0000 </r>
       <r>   -7.9428    1.0000 </r>
       <r>   -7.2826    1.0000 </r>
       <r>   -7.2826    1.0000 </r>
       <r>   -7.0981    1.0000 </r>
       <r>   -7.0981    1.0000 </r>
       <r>   -6.2681    1.0000 </r>
       <r>   -6.2681    1.0000 </r>
       <r>   -2.8174    1.0000 </r>
       <r>   -2.8174    1.0000 </r>
       <r>   -2.6048    1.0000 </r>
       <r>   -2.6048    1.0000 </r>
       <r>   -0.5284    1.0000 </r>
       <r>   -0.5284    1.0000 </r>
       <r>   -0.1241    1.0000 </r>
       <r>   -0.1241    1.0000 </r>
       <r>    0.5838    1.0000 </r>
       <r>    0.5838    1.0000 </r>
       <r>    1.4287    1.0000 </r>
       <r>    1.4287    1.0000 </r>
       <r>    1.7483    1.0000 </r>
       <r>    1.7483    1.0000 </r>
       <r>    2.1364    1.0000 </r>
       <r>    2.1364    1.0000 </r>
       <r>    2.4609    1.0000 </r>
       <r>    2.4609    1.0000 </r>
       <r>    3.0126    1.0000 </r>
       <r>    3.0126    1.0000 </r>
       <r>    3.5666    1.0000 </r>
       <r>    3.5666    1.0000 </r>
       <r>    3.7460    1.0000 </r>
       <r>    3.7460    1.0000 </r>
       <r>    4.2285    1.0000 </r>
       <r>    4.2285    1.0000 </r>
       <r>    4.3303    1.0000 </r>
       <r>    4.3303    1.0000 </r>
       <r>    4.6776    1.0000 </r>
       <r>    4.6776    1.0000 </r>
       <r>    5.1292    1.0000 </r>
       <r>    5.1292    1.0000 </r>
       <r>    5.2647    1.0000 </r>
       <r>    5.2647    1.0000 </r>
       <r>    5.8001    1.0000 </r>
       <r>    5.8001    1.0000 </r>
       <r>    6.2857    1.0000 </r>
       <r>    6.2857    1.0000 </r>
       <r>    6.5073    1.0000 </r>
       <r>    6.5073    1.0000 </r>
       <r>   10.9727    0.0000 </r>
       <r>   10.9727    0.0000 </r>
       <r>   11.3600    0.0000 </r>
       <r>   11.3600    0.0000 </r>
       <r>   11.8012    0.0000 </r>
       <r>   11.8013    0.0000 </r>
       <r>   11.9549    0.0000 </r>
       <r>   11.9549    0.0000 </r>
       <r>   13.0301    0.0000 </r>
       <r>   13.0305    0.0000 </r>
       <r>   13.5193    0.0000 </r>
       <r>   13.5270    0.0000 </r>
       <r>   14.0171    0.0000 </r>
       <r>   14.0449    0.0000 </r>
       <r>   14.5497    0.0000 </r>
       <r>   14.6402    0.0000 </r>
      </set>
      <set comment="kpoint 9">
       <r>   -9.4183    1.0000 </r>
       <r>   -9.1689    1.0000 </r>
       <r>   -8.2242    1.0000 </r>
       <r>   -7.9761    1.0000 </r>
       <r>   -7.5923    1.0000 </r>
       <r>   -7.5387    1.0000 </r>
       <r>   -6.8338    1.0000 </r>
       <r>   -6.7397    1.0000 </r>
       <r>   -4.3686    1.0000 </r>
       <r>   -4.3215    1.0000 </r>
       <r>   -3.5256    1.0000 </r>
       <r>   -3.1718    1.0000 </r>
       <r>   -0.1940    1.0000 </r>
       <r>    0.1587    1.0000 </r>
       <r>    0.5805    1.0000 </r>
       <r>    0.9115    1.0000 </r>
       <r>    1.1459    1.0000 </r>
       <r>    1.6040    1.0000 </r>
       <r>    1.6517    1.0000 </r>
       <r>    2.1569    1.0000 </r>
       <r>    2.6877    1.0000 </r>
       <r>    2.9619    1.0000 </r>
       <r>    3.3222    1.0000 </r>
       <r>    3.3474    1.0000 </r>
       <r>    3.4325    1.0000 </r>
       <r>    3.7354    1.0000 </r>
       <r>    3.7429    1.0000 </r>
       <r>    3.9610    1.0000 </r>
       <r>    4.3401    1.0000 </r>
       <r>    4.5846    1.0000 </r>
       <r>    4.7127    1.0000 </r>
       <r>    4.8583    1.0000 </r>
       <r>    5.0560    1.0000 </r>
       <r>    5.0990    1.0000 </r>
       <r>    5.1695    1.0000 </r>
       <r>    5.2823    1.0000 </r>
       <r>    5.4825    1.0000 </r>
       <r>    5.5910    1.0000 </r>
       <r>    5.6869    1.0000 </r>
       <r>    6.0706    1.0000 </r>
       <r>    6.3093    1.0000 </r>
       <r>    6.3342    1.0000 </r>
       <r>    6.3537    1.0000 </r>
       <r>    6.4605    1.0000 </r>
       <r>    6.9333    1.0000 </r>
       <r>    7.0974    1.0000 </r>
       <r>    8.0753    1.0000 </r>
       <r>    8.1638    1.0000 </r>
       <r>   10.4896    0.0000 </r>
       <r>   10.6384    0.0000 </r>
       <r>   11.2914    0.0000 </r>
       <r>   11.8034    0.0000 </r>
       <r>   11.8944    0.0000 </r>
       <r>   12.2167    0.0000 </r>
       <r>   12.3931    0.0000 </r>
       <r>   12.6377    0.0000 </r>
       <r>   13.0755    0.0000 </r>
       <r>   13.1063    0.0000 </r>
       <r>   13.4472    0.0000 </r>
       <r>   13.6652    0.0000 </r>
       <r>   14.3874    0.0000 </r>
       <r>   14.7689    0.0000 </r>
       <r>   14.7930    0.0000 </r>
       <r>   15.0768    0.0000 </r>
      </set>
      <set comment="kpoint 10">
       <r>   -9.3228    1.0000 </r>
       <r>   -9.3000    1.0000 </r>
       <r>   -8.0720    1.0000 </r>
       <r>   -8.0264    1.0000 </r>
       <r>   -7.6382    1.0000 </r>
       <r>   -7.5720    1.0000 </r>
       <r>   -6.8409    1.0000 </r>
       <r>   -6.7297    1.0000 </r>
       <r>   -4.3958    1.0000 </r>
       <r>   -4.2357    1.0000 </r>
       <r>   -3.5428    1.0000 </r>
       <r>   -3.2298    1.0000 </r>
       <r>   -0.1114    1.0000 </r>
       <r>    0.4291    1.0000 </r>
       <r>    0.4705    1.0000 </r>
       <r>    0.7168    1.0000 </r>
       <r>    1.1400    1.0000 </r>
       <r>    1.4104    1.0000 </r>
       <r>    1.8654    1.0000 </r>
       <r>    2.2106    1.0000 </r>
       <r>    2.3328    1.0000 </r>
       <r>    3.1217    1.0000 </r>
       <r>    3.1383    1.0000 </r>
       <r>    3.3697    1.0000 </r>
       <r>    3.3778    1.0000 </r>
       <r>    3.6931    1.0000 </r>
       <r>    3.9838    1.0000 </r>
       <r>    3.9966    1.0000 </r>
       <r>    4.6538    1.0000 </r>
       <r>    4.6726    1.0000 </r>
       <r>    4.7257    1.0000 </r>
       <r>    4.8325    1.0000 </r>
       <r>    4.9897    1.0000 </r>
       <r>    5.0154    1.0000 </r>
       <r>    5.1094    1.0000 </r>
       <r>    5.5122    1.0000 </r>
       <r>    5.6054    1.0000 </r>
       <r>    5.6232    1.0000 </r>
       <r>    5.6764    1.0000 </r>
       <r>    5.9385    1.0000 </r>
       <r>    5.9923    1.0000 </r>
       <r>    6.3393    1.0000 </r>
       <r>    6.3537    1.0000 </r>
       <r>    6.3767    1.0000 </r>
       <r>    6.9989    1.0000 </r>
       <r>    7.0476    1.0000 </r>
       <r>    8.1001    1.0000 </r>
       <r>    8.1372    1.0000 </r>
       <r>   10.5064    0.0000 </r>
       <r>   10.5224    0.0000 </r>
       <r>   11.3167    0.0000 </r>
       <r>   11.4620    0.0000 </r>
       <r>   12.0507    0.0000 </r>
       <r>   12.4547    0.0000 </r>
       <r>   12.4831    0.0000 </r>
       <r>   12.7445    0.0000 </r>
       <r>   12.9862    0.0000 </r>
       <r>   13.2223    0.0000 </r>
       <r>   13.4671    0.0000 </r>
       <r>   14.1854    0.0000 </r>
       <r>   14.2231    0.0000 </r>
       <r>   14.2575    0.0000 </r>
       <r>   14.9706    0.0000 </r>
       <r>   15.0162    0.0000 </r>
      </set>
      <set comment="kpoint 11">
       <r>   -9.1689    1.0000 </r>
       <r>   -8.9314    1.0000 </r>
       <r>   -8.0191    1.0000 </r>
       <r>   -7.7835    1.0000 </r>
       <r>   -7.4589    1.0000 </r>
       <r>   -7.4057    1.0000 </r>
       <r>   -6.6940    1.0000 </r>
       <r>   -6.6290    1.0000 </r>
       <r>   -4.1126    1.0000 </r>
       <r>   -4.0422    1.0000 </r>
       <r>   -3.3247    1.0000 </r>
       <r>   -2.9820    1.0000 </r>
       <r>   -0.0185    1.0000 </r>
       <r>    0.3370    1.0000 </r>
       <r>    0.7321    1.0000 </r>
       <r>    1.1221    1.0000 </r>
       <r>    1.1673    1.0000 </r>
       <r>    1.6694    1.0000 </r>
       <r>    1.6938    1.0000 </r>
       <r>    2.0419    1.0000 </r>
       <r>    2.2489    1.0000 </r>
       <r>    2.4480    1.0000 </r>
       <r>    2.6042    1.0000 </r>
       <r>    2.8630    1.0000 </r>
       <r>    3.1701    1.0000 </r>
       <r>    3.5062    1.0000 </r>
       <r>    3.5965    1.0000 </r>
       <r>    3.6520    1.0000 </r>
       <r>    3.8476    1.0000 </r>
       <r>    3.9090    1.0000 </r>
       <r>    4.1814    1.0000 </r>
       <r>    4.4707    1.0000 </r>
       <r>    4.5618    1.0000 </r>
       <r>    4.6425    1.0000 </r>
       <r>    4.9082    1.0000 </r>
       <r>    5.1307    1.0000 </r>
       <r>    5.2175    1.0000 </r>
       <r>    5.2322    1.0000 </r>
       <r>    5.3942    1.0000 </r>
       <r>    5.4137    1.0000 </r>
       <r>    5.6528    1.0000 </r>
       <r>    6.2192    1.0000 </r>
       <r>    6.2203    1.0000 </r>
       <r>    6.6119    1.0000 </r>
       <r>    6.7291    1.0000 </r>
       <r>    7.0746    1.0000 </r>
       <r>    7.1178    1.0000 </r>
       <r>    7.1998    1.0000 </r>
       <r>   11.4405    0.0000 </r>
       <r>   11.7055    0.0000 </r>
       <r>   11.9602    0.0000 </r>
       <r>   12.2263    0.0000 </r>
       <r>   12.5077    0.0000 </r>
       <r>   12.8324    0.0000 </r>
       <r>   12.9005    0.0000 </r>
       <r>   13.2241    0.0000 </r>
       <r>   13.4413    0.0000 </r>
       <r>   13.5886    0.0000 </r>
       <r>   13.7121    0.0000 </r>
       <r>   13.7578    0.0000 </r>
       <r>   14.1730    0.0000 </r>
       <r>   14.2038    0.0000 </r>
       <r>   14.7157    0.0000 </r>
       <r>   14.8033    0.0000 </r>
      </set>
      <set comment="kpoint 12">
       <r>   -9.0770    1.0000 </r>
       <r>   -9.0565    1.0000 </r>
       <r>   -7.8749    1.0000 </r>
       <r>   -7.8336    1.0000 </r>
       <r>   -7.4918    1.0000 </r>
       <r>   -7.4425    1.0000 </r>
       <r>   -6.7033    1.0000 </r>
       <r>   -6.6184    1.0000 </r>
       <r>   -4.1293    1.0000 </r>
       <r>   -3.9794    1.0000 </r>
       <r>   -3.3236    1.0000 </r>
       <r>   -3.0466    1.0000 </r>
       <r>    0.1144    1.0000 </r>
       <r>    0.5329    1.0000 </r>
       <r>    0.6673    1.0000 </r>
       <r>    0.7952    1.0000 </r>
       <r>    1.3021    1.0000 </r>
       <r>    1.4747    1.0000 </r>
       <r>    1.8705    1.0000 </r>
       <r>    1.9843    1.0000 </r>
       <r>    2.1978    1.0000 </r>
       <r>    2.3394    1.0000 </r>
       <r>    2.4660    1.0000 </r>
       <r>    3.0077    1.0000 </r>
       <r>    3.3765    1.0000 </r>
       <r>    3.5450    1.0000 </r>
       <r>    3.6399    1.0000 </r>
       <r>    3.6401    1.0000 </r>
       <r>    3.7369    1.0000 </r>
       <r>    3.8663    1.0000 </r>
       <r>    4.2539    1.0000 </r>
       <r>    4.4355    1.0000 </r>
       <r>    4.6488    1.0000 </r>
       <r>    4.7094    1.0000 </r>
       <r>    4.8948    1.0000 </r>
       <r>    4.9831    1.0000 </r>
       <r>    5.1627    1.0000 </r>
       <r>    5.2252    1.0000 </r>
       <r>    5.4511    1.0000 </r>
       <r>    5.5220    1.0000 </r>
       <r>    5.8586    1.0000 </r>
       <r>    6.2235    1.0000 </r>
       <r>    6.2774    1.0000 </r>
       <r>    6.3612    1.0000 </r>
       <r>    6.8617    1.0000 </r>
       <r>    6.9067    1.0000 </r>
       <r>    7.0558    1.0000 </r>
       <r>    7.1227    1.0000 </r>
       <r>   11.4086    0.0000 </r>
       <r>   11.6493    0.0000 </r>
       <r>   12.0770    0.0000 </r>
       <r>   12.2736    0.0000 </r>
       <r>   12.6901    0.0000 </r>
       <r>   12.7973    0.0000 </r>
       <r>   12.9234    0.0000 </r>
       <r>   13.0301    0.0000 </r>
       <r>   13.5404    0.0000 </r>
       <r>   13.6074    0.0000 </r>
       <r>   13.7834    0.0000 </r>
       <r>   13.8076    0.0000 </r>
       <r>   14.2682    0.0000 </r>
       <r>   14.3577    0.0000 </r>
       <r>   14.5757    0.0000 </r>
       <r>   14.8150    0.0000 </r>
      </set>
      <set comment="kpoint 13">
       <r>   -8.5194    1.0000 </r>
       <r>   -8.3305    1.0000 </r>
       <r>   -7.5170    1.0000 </r>
       <r>   -7.3713    1.0000 </r>
       <r>   -7.2506    1.0000 </r>
       <r>   -7.1540    1.0000 </r>
       <r>   -6.4104    1.0000 </r>
       <r>   -6.4045    1.0000 </r>
       <r>   -3.4643    1.0000 </r>
       <r>   -3.2998    1.0000 </r>
       <r>   -2.8629    1.0000 </r>
       <r>   -2.6671    1.0000 </r>
       <r>   -0.2238    1.0000 </r>
       <r>    0.0400    1.0000 </r>
       <r>    0.4308    1.0000 </r>
       <r>    0.6131    1.0000 </r>
       <r>    1.0801    1.0000 </r>
       <r>    1.5063    1.0000 </r>
       <r>    1.5095    1.0000 </r>
       <r>    1.6561    1.0000 </r>
       <r>    1.6859    1.0000 </r>
       <r>    1.9913    1.0000 </r>
       <r>    2.2588    1.0000 </r>
       <r>    2.4129    1.0000 </r>
       <r>    2.5498    1.0000 </r>
       <r>    2.6621    1.0000 </r>
       <r>    2.8206    1.0000 </r>
       <r>    3.0625    1.0000 </r>
       <r>    3.0678    1.0000 </r>
       <r>    3.4494    1.0000 </r>
       <r>    3.4828    1.0000 </r>
       <r>    3.9291    1.0000 </r>
       <r>    4.2270    1.0000 </r>
       <r>    4.4650    1.0000 </r>
       <r>    4.5020    1.0000 </r>
       <r>    4.6107    1.0000 </r>
       <r>    4.6901    1.0000 </r>
       <r>    4.7937    1.0000 </r>
       <r>    5.0087    1.0000 </r>
       <r>    5.3052    1.0000 </r>
       <r>    5.5580    1.0000 </r>
       <r>    5.7646    1.0000 </r>
       <r>    5.7749    1.0000 </r>
       <r>    6.0924    1.0000 </r>
       <r>    6.2968    1.0000 </r>
       <r>    6.4418    1.0000 </r>
       <r>    6.6637    1.0000 </r>
       <r>    7.0424    1.0000 </r>
       <r>   11.4187    0.0000 </r>
       <r>   11.4358    0.0000 </r>
       <r>   11.7416    0.0000 </r>
       <r>   12.0290    0.0000 </r>
       <r>   12.1169    0.0000 </r>
       <r>   12.4709    0.0000 </r>
       <r>   12.6293    0.0000 </r>
       <r>   12.6780    0.0000 </r>
       <r>   12.7434    0.0000 </r>
       <r>   13.0266    0.0000 </r>
       <r>   13.4557    0.0000 </r>
       <r>   13.9115    0.0000 </r>
       <r>   14.0726    0.0000 </r>
       <r>   14.2473    0.0000 </r>
       <r>   14.3558    0.0000 </r>
       <r>   14.9021    0.0000 </r>
      </set>
      <set comment="kpoint 14">
       <r>   -8.4427    1.0000 </r>
       <r>   -8.4304    1.0000 </r>
       <r>   -7.4172    1.0000 </r>
       <r>   -7.3879    1.0000 </r>
       <r>   -7.2351    1.0000 </r>
       <r>   -7.2320    1.0000 </r>
       <r>   -6.4169    1.0000 </r>
       <r>   -6.3977    1.0000 </r>
       <r>   -3.4195    1.0000 </r>
       <r>   -3.3423    1.0000 </r>
       <r>   -2.8199    1.0000 </r>
       <r>   -2.7219    1.0000 </r>
       <r>   -0.1642    1.0000 </r>
       <r>    0.0146    1.0000 </r>
       <r>    0.5587    1.0000 </r>
       <r>    0.6014    1.0000 </r>
       <r>    1.0237    1.0000 </r>
       <r>    1.2575    1.0000 </r>
       <r>    1.5370    1.0000 </r>
       <r>    1.5881    1.0000 </r>
       <r>    1.8381    1.0000 </r>
       <r>    1.9803    1.0000 </r>
       <r>    2.1291    1.0000 </r>
       <r>    2.4385    1.0000 </r>
       <r>    2.4872    1.0000 </r>
       <r>    2.7437    1.0000 </r>
       <r>    2.8998    1.0000 </r>
       <r>    3.2007    1.0000 </r>
       <r>    3.2074    1.0000 </r>
       <r>    3.2537    1.0000 </r>
       <r>    3.8057    1.0000 </r>
       <r>    3.8281    1.0000 </r>
       <r>    4.0848    1.0000 </r>
       <r>    4.3073    1.0000 </r>
       <r>    4.3852    1.0000 </r>
       <r>    4.6302    1.0000 </r>
       <r>    4.7583    1.0000 </r>
       <r>    4.9033    1.0000 </r>
       <r>    5.0456    1.0000 </r>
       <r>    5.2181    1.0000 </r>
       <r>    5.5551    1.0000 </r>
       <r>    5.7713    1.0000 </r>
       <r>    5.7841    1.0000 </r>
       <r>    6.2093    1.0000 </r>
       <r>    6.3637    1.0000 </r>
       <r>    6.3769    1.0000 </r>
       <r>    6.7742    1.0000 </r>
       <r>    6.7761    1.0000 </r>
       <r>   11.5089    0.0000 </r>
       <r>   11.7679    0.0000 </r>
       <r>   11.8416    0.0000 </r>
       <r>   11.9893    0.0000 </r>
       <r>   12.0306    0.0000 </r>
       <r>   12.2590    0.0000 </r>
       <r>   12.4379    0.0000 </r>
       <r>   12.7210    0.0000 </r>
       <r>   12.8285    0.0000 </r>
       <r>   13.2181    0.0000 </r>
       <r>   13.4446    0.0000 </r>
       <r>   13.5555    0.0000 </r>
       <r>   14.0938    0.0000 </r>
       <r>   14.2242    0.0000 </r>
       <r>   14.6729    0.0000 </r>
       <r>   14.7617    0.0000 </r>
      </set>
      <set comment="kpoint 15">
       <r>   -7.9387    1.0000 </r>
       <r>   -7.9387    1.0000 </r>
       <r>   -7.2724    1.0000 </r>
       <r>   -7.2724    1.0000 </r>
       <r>   -7.1033    1.0000 </r>
       <r>   -7.1033    1.0000 </r>
       <r>   -6.2808    1.0000 </r>
       <r>   -6.2808    1.0000 </r>
       <r>   -2.9000    1.0000 </r>
       <r>   -2.9000    1.0000 </r>
       <r>   -2.5890    1.0000 </r>
       <r>   -2.5890    1.0000 </r>
       <r>   -0.4057    1.0000 </r>
       <r>   -0.4057    1.0000 </r>
       <r>   -0.1401    1.0000 </r>
       <r>   -0.1401    1.0000 </r>
       <r>    0.9730    1.0000 </r>
       <r>    0.9730    1.0000 </r>
       <r>    1.2101    1.0000 </r>
       <r>    1.2101    1.0000 </r>
       <r>    1.6198    1.0000 </r>
       <r>    1.6198    1.0000 </r>
       <r>    2.2644    1.0000 </r>
       <r>    2.2644    1.0000 </r>
       <r>    2.5048    1.0000 </r>
       <r>    2.5048    1.0000 </r>
       <r>    2.9202    1.0000 </r>
       <r>    2.9202    1.0000 </r>
       <r>    3.5396    1.0000 </r>
       <r>    3.5396    1.0000 </r>
       <r>    3.6324    1.0000 </r>
       <r>    3.6324    1.0000 </r>
       <r>    3.8961    1.0000 </r>
       <r>    3.8961    1.0000 </r>
       <r>    4.3221    1.0000 </r>
       <r>    4.3221    1.0000 </r>
       <r>    4.5748    1.0000 </r>
       <r>    4.5748    1.0000 </r>
       <r>    5.1522    1.0000 </r>
       <r>    5.1522    1.0000 </r>
       <r>    5.4092    1.0000 </r>
       <r>    5.4092    1.0000 </r>
       <r>    5.8218    1.0000 </r>
       <r>    5.8218    1.0000 </r>
       <r>    6.2857    1.0000 </r>
       <r>    6.2857    1.0000 </r>
       <r>    6.6900    1.0000 </r>
       <r>    6.6900    1.0000 </r>
       <r>   10.9856    0.0000 </r>
       <r>   10.9856    0.0000 </r>
       <r>   11.5862    0.0000 </r>
       <r>   11.5862    0.0000 </r>
       <r>   11.7313    0.0000 </r>
       <r>   11.7313    0.0000 </r>
       <r>   12.2040    0.0000 </r>
       <r>   12.2040    0.0000 </r>
       <r>   12.7888    0.0000 </r>
       <r>   12.7889    0.0000 </r>
       <r>   13.0559    0.0000 </r>
       <r>   13.0561    0.0000 </r>
       <r>   14.3912    0.0000 </r>
       <r>   14.4788    0.0000 </r>
       <r>   14.6835    0.0000 </r>
       <r>   14.9296    0.0000 </r>
      </set>
      <set comment="kpoint 16">
       <r>   -7.9382    1.0000 </r>
       <r>   -7.9382    1.0000 </r>
       <r>   -7.2768    1.0000 </r>
       <r>   -7.2768    1.0000 </r>
       <r>   -7.0994    1.0000 </r>
       <r>   -7.0994    1.0000 </r>
       <r>   -6.2807    1.0000 </r>
       <r>   -6.2807    1.0000 </r>
       <r>   -2.8907    1.0000 </r>
       <r>   -2.8907    1.0000 </r>
       <r>   -2.6033    1.0000 </r>
       <r>   -2.6033    1.0000 </r>
       <r>   -0.3644    1.0000 </r>
       <r>   -0.3644    1.0000 </r>
       <r>   -0.1577    1.0000 </r>
       <r>   -0.1577    1.0000 </r>
       <r>    0.8282    1.0000 </r>
       <r>    0.8282    1.0000 </r>
       <r>    1.3550    1.0000 </r>
       <r>    1.3550    1.0000 </r>
       <r>    1.7205    1.0000 </r>
       <r>    1.7205    1.0000 </r>
       <r>    2.0665    1.0000 </r>
       <r>    2.0665    1.0000 </r>
       <r>    2.5234    1.0000 </r>
       <r>    2.5234    1.0000 </r>
       <r>    2.9354    1.0000 </r>
       <r>    2.9354    1.0000 </r>
       <r>    3.4192    1.0000 </r>
       <r>    3.4192    1.0000 </r>
       <r>    3.8048    1.0000 </r>
       <r>    3.8048    1.0000 </r>
       <r>    3.9866    1.0000 </r>
       <r>    3.9866    1.0000 </r>
       <r>    4.3727    1.0000 </r>
       <r>    4.3727    1.0000 </r>
       <r>    4.5546    1.0000 </r>
       <r>    4.5546    1.0000 </r>
       <r>    5.0771    1.0000 </r>
       <r>    5.0771    1.0000 </r>
       <r>    5.3725    1.0000 </r>
       <r>    5.3725    1.0000 </r>
       <r>    5.8048    1.0000 </r>
       <r>    5.8048    1.0000 </r>
       <r>    6.1359    1.0000 </r>
       <r>    6.1359    1.0000 </r>
       <r>    6.8073    1.0000 </r>
       <r>    6.8073    1.0000 </r>
       <r>   11.2544    0.0000 </r>
       <r>   11.2544    0.0000 </r>
       <r>   11.4235    0.0000 </r>
       <r>   11.4235    0.0000 </r>
       <r>   11.9643    0.0000 </r>
       <r>   11.9643    0.0000 </r>
       <r>   12.0947    0.0000 </r>
       <r>   12.0947    0.0000 </r>
       <r>   12.4631    0.0000 </r>
       <r>   12.4631    0.0000 </r>
       <r>   13.4226    0.0000 </r>
       <r>   13.4243    0.0000 </r>
       <r>   14.2130    0.0000 </r>
       <r>   14.2688    0.0000 </r>
       <r>   14.4413    0.0000 </r>
       <r>   14.4548    0.0000 </r>
      </set>
     </set>
    </set>
   </array>
  </eigenvalues>
  <separator name="orbital magnetization" >
   <v name="MAGDIPOLOUT">      0.00000000      0.00000000      0.00000000</v>
  </separator>
  <dos>
   <i name="efermi">      8.66126855 </i>
   <total>
    <array>
     <dimension dim="1">gridpoints</dimension>
     <dimension dim="2">spin</dimension>
     <field>energy</field>
     <field>total</field>
     <field>integrated</field>
     <set>
      <set comment="spin 1">
       <r>   -10.7013     0.0000     0.0000 </r>
       <r>   -10.6108     0.0000     0.0000 </r>
       <r>   -10.5204     0.0000     0.0000 </r>
       <r>   -10.4299     0.0000     0.0000 </r>
       <r>   -10.3394     0.0000     0.0000 </r>
       <r>   -10.2489     0.0000     0.0000 </r>
       <r>   -10.1585     0.0000     0.0000 </r>
       <r>   -10.0680     0.0000     0.0000 </r>
       <r>    -9.9775     0.0000     0.0000 </r>
       <r>    -9.8870     0.0000     0.0000 </r>
       <r>    -9.7966     0.0000     0.0000 </r>
       <r>    -9.7061     0.0003     0.0000 </r>
       <r>    -9.6156     0.0142     0.0013 </r>
       <r>    -9.5252     0.2051     0.0199 </r>
       <r>    -9.4347     0.9483     0.1057 </r>
       <r>    -9.3442     1.9945     0.2861 </r>
       <r>    -9.2537     2.6831     0.5289 </r>
       <r>    -9.1633     3.8434     0.8766 </r>
       <r>    -9.0728     5.0141     1.3302 </r>
       <r>    -8.9823     3.9984     1.6920 </r>
       <r>    -8.8918     2.4158     1.9105 </r>
       <r>    -8.8014     0.8874     1.9908 </r>
       <r>    -8.7109     0.1220     2.0019 </r>
       <r>    -8.6204     0.4162     2.0395 </r>
       <r>    -8.5300     2.2718     2.2450 </r>
       <r>    -8.4395     4.7433     2.6742 </r>
       <r>    -8.3490     4.5272     3.0838 </r>
       <r>    -8.2585     2.7445     3.3321 </r>
       <r>    -8.1681     1.5828     3.4753 </r>
       <r>    -8.0776     2.1170     3.6668 </r>
       <r>    -7.9871     5.4815     4.1627 </r>
       <r>    -7.8966     7.6322     4.8532 </r>
       <r>    -7.8062     6.2071     5.4148 </r>
       <r>    -7.7157     4.2577     5.8000 </r>
       <r>    -7.6252     3.5345     6.1198 </r>
       <r>    -7.5348     6.9665     6.7500 </r>
       <r>    -7.4443    11.3255     7.7747 </r>
       <r>    -7.3538    12.4830     8.9041 </r>
       <r>    -7.2633    11.9370     9.9840 </r>
       <r>    -7.1729    11.2383    11.0008 </r>
       <r>    -7.0824     7.4452    11.6744 </r>
       <r>    -6.9919     3.2816    11.9713 </r>
       <r>    -6.9014     1.6153    12.1174 </r>
       <r>    -6.8110     3.4069    12.4257 </r>
       <r>    -6.7205     6.2507    12.9912 </r>
       <r>    -6.6300     6.9796    13.6226 </r>
       <r>    -6.5396     4.1211    13.9955 </r>
       <r>    -6.4491     4.7648    14.4266 </r>
       <r>    -6.3586     7.7114    15.1242 </r>
       <r>    -6.2681     6.0321    15.6700 </r>
       <r>    -6.1777     3.0379    15.9448 </r>
       <r>    -6.0872     0.5818    15.9975 </r>
       <r>    -5.9967     0.0279    16.0000 </r>
       <r>    -5.9062     0.0003    16.0000 </r>
       <r>    -5.8158     0.0000    16.0000 </r>
       <r>    -5.7253     0.0000    16.0000 </r>
       <r>    -5.6348     0.0000    16.0000 </r>
       <r>    -5.5444     0.0000    16.0000 </r>
       <r>    -5.4539     0.0000    16.0000 </r>
       <r>    -5.3634     0.0000    16.0000 </r>
       <r>    -5.2729     0.0000    16.0000 </r>
       <r>    -5.1825     0.0000    16.0000 </r>
       <r>    -5.0920     0.0000    16.0000 </r>
       <r>    -5.0015     0.0000    16.0000 </r>
       <r>    -4.9110     0.0000    16.0000 </r>
       <r>    -4.8206     0.0000    16.0000 </r>
       <r>    -4.7301     0.0015    16.0001 </r>
       <r>    -4.6396     0.0382    16.0036 </r>
       <r>    -4.5492     0.2476    16.0260 </r>
       <r>    -4.4587     0.8184    16.1000 </r>
       <r>    -4.3682     2.0877    16.2889 </r>
       <r>    -4.2777     2.7362    16.5365 </r>
       <r>    -4.1873     3.1209    16.8188 </r>
       <r>    -4.0968     4.6005    17.2350 </r>
       <r>    -4.0063     4.6873    17.6591 </r>
       <r>    -3.9158     2.8337    17.9155 </r>
       <r>    -3.8254     0.8509    17.9925 </r>
       <r>    -3.7349     0.0874    18.0004 </r>
       <r>    -3.6444     0.1662    18.0154 </r>
       <r>    -3.5540     1.2660    18.1300 </r>
       <r>    -3.4635     3.9148    18.4841 </r>
       <r>    -3.3730     7.0620    19.1231 </r>
       <r>    -3.2825     8.6911    19.9094 </r>
       <r>    -3.1921     7.0039    20.5430 </r>
       <r>    -3.1016     3.8774    20.8938 </r>
       <r>    -3.0111     2.8631    21.1529 </r>
       <r>    -2.9207     4.9551    21.6012 </r>
       <r>    -2.8302     7.7992    22.3068 </r>
       <r>    -2.7397     6.6344    22.9070 </r>
       <r>    -2.6492     5.0706    23.3658 </r>
       <r>    -2.5588     4.7594    23.7964 </r>
       <r>    -2.4683     2.0080    23.9780 </r>
       <r>    -2.3778     0.2362    23.9994 </r>
       <r>    -2.2873     0.0066    24.0000 </r>
       <r>    -2.1969     0.0000    24.0000 </r>
       <r>    -2.1064     0.0000    24.0000 </r>
       <r>    -2.0159     0.0000    24.0000 </r>
       <r>    -1.9255     0.0000    24.0000 </r>
       <r>    -1.8350     0.0000    24.0000 </r>
       <r>    -1.7445     0.0000    24.0000 </r>
       <r>    -1.6540     0.0000    24.0000 </r>
       <r>    -1.5636     0.0000    24.0000 </r>
       <r>    -1.4731     0.0000    24.0000 </r>
       <r>    -1.3826     0.0000    24.0000 </r>
       <r>    -1.2921     0.0000    24.0000 </r>
       <r>    -1.2017     0.0000    24.0000 </r>
       <r>    -1.1112     0.0000    24.0000 </r>
       <r>    -1.0207     0.0000    24.0000 </r>
       <r>    -0.9303     0.0000    24.0000 </r>
       <r>    -0.8398     0.0000    24.0000 </r>
       <r>    -0.7493     0.0012    24.0001 </r>
       <r>    -0.6588     0.0465    24.0043 </r>
       <r>    -0.5684     0.4672    24.0466 </r>
       <r>    -0.4779     1.5786    24.1894 </r>
       <r>    -0.3874     2.8553    24.4477 </r>
       <r>    -0.2969     3.5602    24.7698 </r>
       <r>    -0.2065     5.0973    25.2310 </r>
       <r>    -0.1160     7.2219    25.8844 </r>
       <r>    -0.0255     6.9032    26.5089 </r>
       <r>     0.0649     6.2837    27.0774 </r>
       <r>     0.1554     4.3156    27.4679 </r>
       <r>     0.2459     2.8940    27.7297 </r>
       <r>     0.3364     3.9626    28.0882 </r>
       <r>     0.4268     5.1244    28.5518 </r>
       <r>     0.5173     7.3206    29.2141 </r>
       <r>     0.6078     9.9850    30.1175 </r>
       <r>     0.6983     8.1874    30.8582 </r>
       <r>     0.7887     6.3989    31.4372 </r>
       <r>     0.8792     5.0074    31.8902 </r>
       <r>     0.9697     4.0751    32.2589 </r>
       <r>     1.0601     6.3142    32.8301 </r>
       <r>     1.1506     8.2032    33.5723 </r>
       <r>     1.2411     7.0934    34.2141 </r>
       <r>     1.3316     5.9105    34.7488 </r>
       <r>     1.4220     7.7673    35.4515 </r>
       <r>     1.5125    10.0647    36.3621 </r>
       <r>     1.6030    10.8868    37.3471 </r>
       <r>     1.6935    12.1834    38.4493 </r>
       <r>     1.7839     9.8587    39.3413 </r>
       <r>     1.8744     8.9526    40.1512 </r>
       <r>     1.9649     9.5391    41.0143 </r>
       <r>     2.0553     8.3201    41.7670 </r>
       <r>     2.1458     7.2801    42.4257 </r>
       <r>     2.2363     7.9914    43.1487 </r>
       <r>     2.3268     9.5619    44.0137 </r>
       <r>     2.4172    10.3741    44.9523 </r>
       <r>     2.5077    11.8420    46.0237 </r>
       <r>     2.5982     9.1217    46.8490 </r>
       <r>     2.6887     6.0679    47.3979 </r>
       <r>     2.7791     6.4319    47.9798 </r>
       <r>     2.8696     9.0011    48.7942 </r>
       <r>     2.9601    10.6385    49.7567 </r>
       <r>     3.0505     9.6266    50.6276 </r>
       <r>     3.1410     9.8511    51.5189 </r>
       <r>     3.2315     9.4231    52.3714 </r>
       <r>     3.3220     7.3950    53.0405 </r>
       <r>     3.4124     8.7303    53.8303 </r>
       <r>     3.5029    11.1610    54.8401 </r>
       <r>     3.5934    12.9720    56.0137 </r>
       <r>     3.6839    13.3731    57.2236 </r>
       <r>     3.7743    13.1231    58.4109 </r>
       <r>     3.8648    13.8478    59.6637 </r>
       <r>     3.9553    11.6675    60.7193 </r>
       <r>     4.0457     7.6070    61.4075 </r>
       <r>     4.1362     6.1117    61.9605 </r>
       <r>     4.2267     8.6234    62.7407 </r>
       <r>     4.3172    11.9843    63.8249 </r>
       <r>     4.4076    12.6089    64.9657 </r>
       <r>     4.4981    12.2617    66.0750 </r>
       <r>     4.5886    13.6061    67.3060 </r>
       <r>     4.6791    16.0773    68.7606 </r>
       <r>     4.7695    14.0245    70.0294 </r>
       <r>     4.8600    11.9272    71.1085 </r>
       <r>     4.9505    12.0510    72.1988 </r>
       <r>     5.0409    12.3499    73.3161 </r>
       <r>     5.1314    15.7401    74.7402 </r>
       <r>     5.2219    16.5034    76.2333 </r>
       <r>     5.3124    11.4689    77.2709 </r>
       <r>     5.4028    10.3842    78.2104 </r>
       <r>     5.4933    11.9845    79.2946 </r>
       <r>     5.5838    11.1144    80.3002 </r>
       <r>     5.6743     8.9935    81.1139 </r>
       <r>     5.7647    10.2849    82.0444 </r>
       <r>     5.8552    11.9121    83.1221 </r>
       <r>     5.9457     8.5292    83.8937 </r>
       <r>     6.0361     5.8278    84.4210 </r>
       <r>     6.1266     5.3067    84.9011 </r>
       <r>     6.2171     8.9594    85.7117 </r>
       <r>     6.3076    14.4160    87.0159 </r>
       <r>     6.3980    16.0372    88.4669 </r>
       <r>     6.4885    10.9266    89.4554 </r>
       <r>     6.5790     5.9735    89.9959 </r>
       <r>     6.6695     7.2652    90.6532 </r>
       <r>     6.7599    10.1393    91.5705 </r>
       <r>     6.8504     8.7014    92.3577 </r>
       <r>     6.9409     6.3692    92.9340 </r>
       <r>     7.0313     6.8909    93.5574 </r>
       <r>     7.1218     8.8236    94.3557 </r>
       <r>     7.2123     6.9462    94.9841 </r>
       <r>     7.3028     2.9648    95.2524 </r>
       <r>     7.3932     0.7900    95.3239 </r>
       <r>     7.4837     0.1009    95.3330 </r>
       <r>     7.5742     0.0039    95.3333 </r>
       <r>     7.6647     0.0000    95.3333 </r>
       <r>     7.7551     0.0000    95.3333 </r>
       <r>     7.8456     0.0012    95.3334 </r>
       <r>     7.9361     0.0646    95.3393 </r>
       <r>     8.0265     0.8324    95.4146 </r>
       <r>     8.1170     2.8487    95.6723 </r>
       <r>     8.2075     2.7719    95.9231 </r>
       <r>     8.2980     0.7859    95.9942 </r>
       <r>     8.3884     0.0626    95.9999 </r>
       <r>     8.4789     0.0013    96.0000 </r>
       <r>     8.5694     0.0000    96.0000 </r>
       <r>     8.6599     0.0000    96.0000 </r>
       <r>     8.7503     0.0000    96.0000 </r>
       <r>     8.8408     0.0000    96.0000 </r>
       <r>     8.9313     0.0000    96.0000 </r>
       <r>     9.0217     0.0000    96.0000 </r>
       <r>     9.1122     0.0000    96.0000 </r>
       <r>     9.2027     0.0000    96.0000 </r>
       <r>     9.2932     0.0000    96.0000 </r>
       <r>     9.3836     0.0000    96.0000 </r>
       <r>     9.4741     0.0000    96.0000 </r>
       <r>     9.5646     0.0000    96.0000 </r>
       <r>     9.6551     0.0000    96.0000 </r>
       <r>     9.7455     0.0000    96.0000 </r>
       <r>     9.8360     0.0000    96.0000 </r>
       <r>     9.9265     0.0017    96.0002 </r>
       <r>    10.0169     0.0407    96.0038 </r>
       <r>    10.1074     0.2153    96.0233 </r>
       <r>    10.1979     0.2717    96.0479 </r>
       <r>    10.2884     0.1386    96.0604 </r>
       <r>    10.3788     0.5046    96.1061 </r>
       <r>    10.4693     1.6003    96.2509 </r>
       <r>    10.5598     2.2989    96.4589 </r>
       <r>    10.6503     1.5876    96.6025 </r>
       <r>    10.7407     0.6770    96.6637 </r>
       <r>    10.8312     0.5615    96.7145 </r>
       <r>    10.9217     1.4368    96.8445 </r>
       <r>    11.0121     2.4829    97.0692 </r>
       <r>    11.1026     1.5544    97.2098 </r>
       <r>    11.1931     1.2986    97.3273 </r>
       <r>    11.2836     4.0712    97.6956 </r>
       <r>    11.3740     8.2307    98.4403 </r>
       <r>    11.4645    11.7759    99.5057 </r>
       <r>    11.5550     8.1633   100.2442 </r>
       <r>    11.6455     5.6052   100.7513 </r>
       <r>    11.7359     8.5172   101.5219 </r>
       <r>    11.8264     8.7152   102.3104 </r>
       <r>    11.9169     7.2317   102.9647 </r>
       <r>    12.0073    10.4883   103.9136 </r>
       <r>    12.0978    12.1654   105.0142 </r>
       <r>    12.1883     9.7281   105.8943 </r>
       <r>    12.2788     7.7486   106.5954 </r>
       <r>    12.3692     6.2012   107.1564 </r>
       <r>    12.4597     8.5277   107.9279 </r>
       <r>    12.5502     8.4802   108.6952 </r>
       <r>    12.6407     7.1283   109.3401 </r>
       <r>    12.7311    10.6284   110.3017 </r>
       <r>    12.8216    11.6741   111.3579 </r>
       <r>    12.9121     9.9933   112.2620 </r>
       <r>    13.0025     8.7617   113.0547 </r>
       <r>    13.0930     7.3030   113.7154 </r>
       <r>    13.1835     4.6186   114.1332 </r>
       <r>    13.2740     4.1859   114.5120 </r>
       <r>    13.3644     5.0605   114.9698 </r>
       <r>    13.4549     9.5624   115.8349 </r>
       <r>    13.5454    11.1655   116.8451 </r>
       <r>    13.6359     8.5470   117.6184 </r>
       <r>    13.7263     7.3640   118.2846 </r>
       <r>    13.8168     7.5350   118.9663 </r>
       <r>    13.9073     4.9735   119.4163 </r>
       <r>    13.9977     4.0382   119.7816 </r>
       <r>    14.0882     5.9674   120.3215 </r>
       <r>    14.1787     8.3884   121.0804 </r>
       <r>    14.2692    10.7943   122.0570 </r>
       <r>    14.3596     9.3941   122.9069 </r>
       <r>    14.4501     7.9177   123.6233 </r>
       <r>    14.5406     6.6893   124.2285 </r>
       <r>    14.6311     6.0198   124.7731 </r>
       <r>    14.7215     7.5186   125.4533 </r>
       <r>    14.8120     9.3103   126.2957 </r>
       <r>    14.9025     7.8243   127.0035 </r>
       <r>    14.9929     4.4263   127.4040 </r>
       <r>    15.0834     2.5410   127.6339 </r>
       <r>    15.1739     2.1419   127.8277 </r>
       <r>    15.2644     1.4821   127.9618 </r>
       <r>    15.3548     0.3934   127.9974 </r>
       <r>    15.4453     0.0288   128.0000 </r>
       <r>    15.5358     0.0005   128.0000 </r>
       <r>    15.6263     0.0000   128.0000 </r>
       <r>    15.7167     0.0000   128.0000 </r>
       <r>    15.8072     0.0000   128.0000 </r>
       <r>    15.8977     0.0000   128.0000 </r>
       <r>    15.9881     0.0000   128.0000 </r>
       <r>    16.0786     0.0000   128.0000 </r>
       <r>    16.1691     0.0000   128.0000 </r>
       <r>    16.2596     0.0000   128.0000 </r>
       <r>    16.3500     0.0000   128.0000 </r>
       <r>    16.4405     0.0000   128.0000 </r>
      </set>
     </set>
    </array>
   </total>
  </dos>
 </calculation>
 <structure name="finalpos" >
  <crystal>
   <varray name="basis" >
    <v>      11.46703754       0.00000000      -0.06440882 </v>
    <v>       0.00000000       3.12290467       0.00000000 </v>
    <v>      -1.87724354       0.00000000       7.16512063 </v>
   </varray>
   <i name="volume">    256.20870836 </i>
   <varray name="rec_basis" >
    <v>       0.08733500       0.00000000       0.02288155 </v>
    <v>       0.00000000       0.32021471       0.00000000 </v>
    <v>       0.00078507       0.00000000       0.13977068 </v>
   </varray>
  </crystal>
  <varray name="positions" >
   <v>       0.44242409       0.50000000       0.38737438 </v>
   <v>       0.11319770       0.50000000       0.72927135 </v>
   <v>       0.94242409       0.00000000       0.38737438 </v>
   <v>       0.61319770       0.00000000       0.72927135 </v>
   <v>       0.38951255       0.50000000       0.77563235 </v>
   <v>       0.05850779       0.50000000       0.11245647 </v>
   <v>       0.22541124       0.00000000       0.43829790 </v>
   <v>       0.27593768       0.00000000       0.05380974 </v>
   <v>       0.88951255       0.00000000       0.77563235 </v>
   <v>       0.55850779       0.00000000       0.11245647 </v>
   <v>       0.72541124       0.50000000       0.43829790 </v>
   <v>       0.77593768       0.50000000       0.05380974 </v>
   <v>       0.25701749       0.50000000       0.89102772 </v>
   <v>       0.43260448       0.00000000       0.25527340 </v>
   <v>       0.75701749       0.00000000       0.89102772 </v>
   <v>       0.93260448       0.50000000       0.25527340 </v>
   <v>       0.09004058       0.00000000       0.57486653 </v>
   <v>       0.15063512       0.00000000       0.18384098 </v>
   <v>       0.32304680       0.50000000       0.51065040 </v>
   <v>       0.49166447       0.00000000       0.83749880 </v>
   <v>       0.59004058       0.50000000       0.57486653 </v>
   <v>       0.65063512       0.50000000       0.18384098 </v>
   <v>       0.82304680       0.00000000       0.51065040 </v>
   <v>       0.99166447       0.50000000       0.83749880 </v>
  </varray>
 </structure>
</modeling>
