<?xml version="1.0" encoding="ISO-8859-1"?>
<modeling>
 <generator>
  <i name="program" type="string">vasp </i>
  <i name="version" type="string">5.3.5  </i>
  <i name="subversion" type="string">31Mar14 (build Jun 20 2014 13:15:13) complex                          parallel </i>
  <i name="platform" type="string">LinuxIFC </i>
  <i name="date" type="string">2025 12 16 </i>
  <i name="time" type="string">17:49:28 </i>
 </generator>
 <incar>
  <i type="string" name="PREC">accurate</i>
  <i type="int" name="IALGO">    68</i>
  <i type="logical" name="ADDGRID"> T  </i>
  <i type="int" name="NELM">   100</i>
  <i type="int" name="NELMIN">     4</i>
  <i type="int" name="IBRION">     2</i>
  <i name="EDIFF">      0.00000100</i>
  <i name="EDIFFG">     -0.02000000</i>
  <i type="int" name="NSW">    30</i>
  <i type="int" name="ISIF">     3</i>
  <i name="ENCUT">    600.00000000</i>
  <i type="logical" name="LREAL"> F  </i>
  <i type="int" name="ISMEAR">     0</i>
  <i name="SIGMA">      0.10000000</i>
  <i type="logical" name="LWAVE"> F  </i>
  <i type="logical" name="LCHARG"> F  </i>
  <i type="int" name="NELM">   100</i>
 </incar>
 <kpoints>
  <generation param="Auto">
   <i name="subdivisionlength">     20.00000000 </i>
   <v type="int" name="divisions">       2        3        4 </v>
   <v name="usershift">      0.00000000       0.00000000       0.00000000 </v>
   <v name="genvec1">      0.50000000       0.00000000       0.00000000 </v>
   <v name="genvec2">      0.00000000       0.33333333       0.00000000 </v>
   <v name="genvec3">      0.00000000       0.00000000       0.25000000 </v>
   <v name="shift">      0.00000000       0.00000000       0.00000000 </v>
  </generation>
  <varray name="kpointlist" >
   <v>       0.00000000       0.00000000       0.00000000 </v>
   <v>       0.50000000       0.00000000       0.00000000 </v>
   <v>       0.00000000       0.33333333       0.00000000 </v>
   <v>       0.50000000       0.33333333       0.00000000 </v>
   <v>       0.00000000       0.00000000       0.25000000 </v>
   <v>       0.50000000       0.00000000       0.25000000 </v>
   <v>       0.00000000       0.33333333       0.25000000 </v>
   <v>       0.50000000       0.33333333       0.25000000 </v>
   <v>       0.00000000       0.00000000       0.50000000 </v>
   <v>       0.50000000       0.00000000       0.50000000 </v>
   <v>       0.00000000       0.33333333       0.50000000 </v>
   <v>       0.50000000       0.33333333       0.50000000 </v>
  </varray>
  <varray name="weights" >
   <v>       0.04166667 </v>
   <v>       0.04166667 </v>
   <v>       0.08333333 </v>
   <v>       0.08333333 </v>
   <v>       0.08333333 </v>
   <v>       0.08333333 </v>
   <v>       0.16666667 </v>
   <v>       0.16666667 </v>
   <v>       0.04166667 </v>
   <v>       0.04166667 </v>
   <v>       0.08333333 </v>
   <v>       0.08333333 </v>
  </varray>
 </kpoints>
 <parameters>
  <separator name="general" >
   <i type="string" name="SYSTEM">unknown system</i>
   <i type="logical" name="LCOMPAT"> F  </i>
  </separator>
  <separator name="electronic" >
   <i type="string" name="PREC">accura</i>
   <i name="ENMAX">    600.00000000</i>
   <i name="ENAUG">    644.87300000</i>
   <i name="EDIFF">      0.00000100</i>
   <i type="int" name="IALGO">    68</i>
   <i type="int" name="IWAVPR">    11</i>
   <i type="int" name="NBANDS">    84</i>
   <i name="NELECT">    128.00000000</i>
   <i type="int" name="TURBO">     0</i>
   <i type="int" name="IRESTART">     0</i>
   <i type="int" name="NREBOOT">     0</i>
   <i type="int" name="NMIN">     0</i>
   <i name="EREF">      0.00000000</i>
   <separator name="electronic smearing" >
    <i type="int" name="ISMEAR">     0</i>
    <i name="SIGMA">      0.10000000</i>
    <i name="KSPACING">      0.50000000</i>
    <i type="logical" name="KGAMMA"> T  </i>
   </separator>
   <separator name="electronic projectors" >
    <i type="logical" name="LREAL"> F  </i>
    <v name="ROPT">      0.00000000      0.00000000      0.00000000      0.00000000</v>
    <i type="int" name="LMAXPAW">  -100</i>
    <i type="int" name="LMAXMIX">     2</i>
    <i type="logical" name="NLSPLINE"> F  </i>
   </separator>
   <separator name="electronic startup" >
    <i type="int" name="ISTART">     0</i>
    <i type="int" name="ICHARG">     2</i>
    <i type="int" name="INIWAV">     1</i>
   </separator>
   <separator name="electronic spin" >
    <i type="int" name="ISPIN">     1</i>
    <i type="logical" name="LNONCOLLINEAR"> F  </i>
    <v name="MAGMOM">      1.00000000      1.00000000      1.00000000      1.00000000      1.00000000      1.00000000      1.00000000      1.00000000      1.00000000      1.00000000      1.00000000      1.00000000      1.00000000      1.00000000      1.00000000      1.00000000      1.00000000      1.00000000      1.00000000      1.00000000
      1.00000000      1.00000000      1.00000000      1.00000000      1.00000000      1.00000000      1.00000000      1.00000000      1.00000000      1.00000000      1.00000000      1.00000000</v>
    <i name="NUPDOWN">     -1.00000000</i>
    <i type="logical" name="LSORBIT"> F  </i>
    <v name="SAXIS">      0.00000000      0.00000000      1.00000000</v>
    <i type="logical" name="LSPIRAL"> F  </i>
    <v name="QSPIRAL">      0.00000000      0.00000000      0.00000000</v>
    <i type="logical" name="LZEROZ"> F  </i>
   </separator>
   <separator name="electronic exchange-correlation" >
    <i type="logical" name="LASPH"> F  </i>
    <i type="logical" name="LMETAGGA"> F  </i>
   </separator>
   <separator name="electronic convergence" >
    <i type="int" name="NELM">   100</i>
    <i type="int" name="NELMDL">     0</i>
    <i type="int" name="NELMIN">     4</i>
    <i name="ENINI">    600.00000000</i>
    <separator name="electronic convergence detail" >
     <i type="logical" name="LDIAG"> T  </i>
     <i type="logical" name="LSUBROT"> F  </i>
     <i name="WEIMIN">      0.00100000</i>
     <i name="EBREAK">      0.00000000</i>
     <i name="DEPER">      0.30000000</i>
     <i type="int" name="NRMM">     4</i>
     <i name="TIME">      0.40000000</i>
    </separator>
   </separator>
   <separator name="electronic mixer" >
    <i name="AMIX">      0.40000000</i>
    <i name="BMIX">      1.00000000</i>
    <i name="AMIN">      0.10000000</i>
    <i name="AMIX_MAG">      1.60000000</i>
    <i name="BMIX_MAG">      1.00000000</i>
    <separator name="electronic mixer details" >
     <i type="int" name="IMIX">     4</i>
     <i type="int" name="MAXMIX">   -45</i>
     <i name="WC">    100.00000000</i>
     <i type="int" name="INIMIX">     1</i>
     <i type="int" name="MIXPRE">     1</i>
     <i type="int" name="MREMOVE">     5</i>
    </separator>
   </separator>
   <separator name="electronic dipolcorrection" >
    <i type="logical" name="LDIPOL"> F  </i>
    <i type="logical" name="LMONO"> F  </i>
    <i type="int" name="IDIPOL">     0</i>
    <i name="EPSILON">      1.00000000</i>
    <v name="DIPOL">   -100.00000000   -100.00000000   -100.00000000</v>
    <i name="EFIELD">      0.00000000</i>
   </separator>
  </separator>
  <separator name="grids" >
   <i type="int" name="NGX">    84</i>
   <i type="int" name="NGY">    50</i>
   <i type="int" name="NGZ">    48</i>
   <i type="int" name="NGXF">   168</i>
   <i type="int" name="NGYF">   100</i>
   <i type="int" name="NGZF">    96</i>
   <i type="logical" name="ADDGRID"> T  </i>
  </separator>
  <separator name="ionic" >
   <i type="int" name="NSW">    30</i>
   <i type="int" name="IBRION">     2</i>
   <i type="int" name="ISIF">     3</i>
   <i name="PSTRESS">      0.00000000</i>
   <i name="EDIFFG">     -0.02000000</i>
   <i type="int" name="NFREE">     1</i>
   <i name="POTIM">      0.50000000</i>
   <i name="SMASS">     -3.00000000</i>
   <i name="SCALEE">      1.00000000</i>
  </separator>
  <separator name="ionic md" >
   <i name="TEBEG">      0.00010000</i>
   <i name="TEEND">      0.00010000</i>
   <i type="int" name="NBLOCK">     1</i>
   <i type="int" name="KBLOCK">    30</i>
   <i type="int" name="NPACO">   256</i>
   <i name="APACO">     16.00000000</i>
  </separator>
  <separator name="symmetry" >
   <i type="int" name="ISYM">     2</i>
   <i name="SYMPREC">      0.00001000</i>
  </separator>
  <separator name="dos" >
   <i type="logical" name="LORBIT"> F  </i>
   <v name="RWIGS">     -1.00000000     -1.00000000     -1.00000000     -1.00000000</v>
   <i type="int" name="NEDOS">   301</i>
   <i name="EMIN">     10.00000000</i>
   <i name="EMAX">    -10.00000000</i>
   <i name="EFERMI">      0.00000000</i>
  </separator>
  <separator name="writing" >
   <i type="int" name="NWRITE">     2</i>
   <i type="logical" name="LWAVE"> F  </i>
   <i type="logical" name="LCHARG"> F  </i>
   <i type="logical" name="LPARD"> F  </i>
   <i type="logical" name="LVTOT"> F  </i>
   <i type="logical" name="LVHAR"> F  </i>
   <i type="logical" name="LELF"> F  </i>
   <i type="logical" name="LOPTICS"> F  </i>
   <v name="STM">      0.00000000      0.00000000      0.00000000      0.00000000      0.00000000      0.00000000      0.00000000</v>
  </separator>
  <separator name="performance" >
   <i type="int" name="NPAR">     4</i>
   <i type="int" name="NSIM">     4</i>
   <i type="int" name="NBLK">    -1</i>
   <i type="logical" name="LPLANE"> T  </i>
   <i type="logical" name="LSCALAPACK"> T  </i>
   <i type="logical" name="LSCAAWARE"> F  </i>
   <i type="logical" name="LSCALU"> F  </i>
   <i type="logical" name="LASYNC"> F  </i>
   <i type="logical" name="LORBITALREAL"> F  </i>
  </separator>
  <separator name="miscellaneous" >
   <i type="int" name="IDIOT">     3</i>
   <i type="logical" name="LMUSIC"> F  </i>
   <v name="POMASS">     28.08500000     26.98100000     12.01100000     14.00100000</v>
   <v name="DARWINR">      0.00000000      0.00000000      0.00000000      0.00000000</v>
   <v name="DARWINV">      1.00000000      1.00000000      1.00000000      1.00000000</v>
   <i type="logical" name="LCORR"> T  </i>
  </separator>
  <i type="logical" name="GGA_COMPAT"> T  </i>
  <i type="logical" name="LBERRY"> F  </i>
  <i type="int" name="ICORELEVEL">     0</i>
  <i type="logical" name="LDAU"> F  </i>
  <i type="int" name="I_CONSTRAINED_M">     0</i>
  <separator name="electronic exchange-correlation" >
   <i type="string" name="GGA">--</i>
   <i type="int" name="VOSKOWN">     0</i>
   <i type="logical" name="LHFCALC"> F  </i>
   <i type="string" name="PRECFOCK"></i>
   <i type="logical" name="LSYMGRAD"> F  </i>
   <i type="logical" name="LHFONE"> F  </i>
   <i type="logical" name="LRHFCALC"> F  </i>
   <i type="logical" name="LTHOMAS"> F  </i>
   <i type="logical" name="LMODELHF"> F  </i>
   <i name="ENCUT4O">     -1.00000000</i>
   <i type="int" name="EXXOEP">     0</i>
   <i type="int" name="FOURORBIT">     0</i>
   <i name="AEXX">      0.00000000</i>
   <i name="HFALPHA">      0.00000000</i>
   <i name="MCALPHA">      0.00000000</i>
   <i name="ALDAX">      1.00000000</i>
   <i name="AGGAX">      1.00000000</i>
   <i name="ALDAC">      1.00000000</i>
   <i name="AGGAC">      1.00000000</i>
   <i type="int" name="NKREDX">     1</i>
   <i type="int" name="NKREDY">     1</i>
   <i type="int" name="NKREDZ">     1</i>
   <i type="logical" name="SHIFTRED"> F  </i>
   <i type="logical" name="ODDONLY"> F  </i>
   <i type="logical" name="EVENONLY"> F  </i>
   <i type="int" name="LMAXFOCK">     0</i>
   <i type="int" name="NMAXFOCKAE">     0</i>
   <i type="logical" name="LFOCKAEDFT"> F  </i>
   <i name="HFSCREEN">      0.00000000</i>
   <i name="HFSCREENC">      0.00000000</i>
   <i type="int" name="NBANDSGWLOW">     0</i>
  </separator>
  <separator name="vdW DFT" >
   <i type="logical" name="LUSE_VDW"> F  </i>
   <i name="Zab_VDW">     -0.84910000</i>
   <i name="PARAM1">      0.12340000</i>
   <i name="PARAM2">      1.00000000</i>
   <i name="PARAM3">      0.00000000</i>
  </separator>
  <separator name="model GW" >
   <i type="int" name="MODEL_GW">     0</i>
   <i name="MODEL_EPS0">      6.38733252</i>
   <i name="MODEL_ALPHA">      1.00000000</i>
  </separator>
  <separator name="linear response parameters" >
   <i type="logical" name="LEPSILON"> F  </i>
   <i type="logical" name="LRPA"> F  </i>
   <i type="logical" name="LNABLA"> F  </i>
   <i type="logical" name="LVEL"> F  </i>
   <i type="int" name="KINTER">     0</i>
   <i name="CSHIFT">      0.10000000</i>
   <i name="OMEGAMAX">     -1.00000000</i>
   <i name="DEG_THRESHOLD">      0.00200000</i>
  </separator>
  <separator name="orbital magnetization" >
   <i type="logical" name="NUCIND"> F  </i>
   <v name="MAGPOS">      0.00000000      0.00000000      0.00000000</v>
   <i type="logical" name="LNICSALL"> T  </i>
   <i type="logical" name="ORBITALMAG"> F  </i>
   <i type="logical" name="LMAGBLOCH"> F  </i>
   <i type="logical" name="LCHIMAG"> F  </i>
   <i type="logical" name="LGAUGE"> T  </i>
   <i type="int" name="MAGATOM">     0</i>
   <v name="MAGDIPOL">      0.00000000      0.00000000      0.00000000</v>
   <v name="AVECCONST">      0.00000000      0.00000000      0.00000000</v>
  </separator>
  <separator name="response functions" >
   <i type="logical" name="LADDER"> F  </i>
   <i type="logical" name="LFXC"> F  </i>
   <i type="logical" name="LHARTREE"> T  </i>
   <i type="int" name="IBSE">     0</i>
   <i type="logical" name="LTCTE"> F  </i>
   <i type="logical" name="LTETE"> F  </i>
   <i type="logical" name="LTRIPLET"> F  </i>
   <i type="logical" name="LFXCEPS"> F  </i>
   <i type="logical" name="LFXHEG"> F  </i>
   <i type="logical" name="L2ORDER"> F  </i>
   <i type="logical" name="LUSEW"> F  </i>
   <i name="ENCUTGW">     -2.00000000</i>
   <i name="ENCUTGWSOFT">     -2.00000000</i>
   <i name="ENCUTLF">     -1.00000000</i>
   <i type="int" name="LMAXMP2">    -1</i>
   <i name="SCISSOR">      0.00000000</i>
   <i type="int" name="NOMEGA">     0</i>
   <i type="int" name="NOMEGAR">     0</i>
   <i type="int" name="NBANDSGW">    -1</i>
   <i type="int" name="NBANDSO">    -1</i>
   <i type="int" name="NBANDSV">    -1</i>
   <i type="int" name="NELM">   100</i>
   <i type="int" name="DIM">     3</i>
   <i type="int" name="ANTIRES">     0</i>
   <i name="OMEGAMAX">    -30.00000000</i>
   <i name="OMEGAMIN">    -30.00000000</i>
   <i name="OMEGATL">   -200.00000000</i>
   <i type="int" name="OMEGAGRID">     0</i>
   <i name="CSHIFT">     -0.10000000</i>
   <i type="logical" name="SELFENERGY"> F  </i>
   <i type="logical" name="LSPECTRAL"> F  </i>
   <i type="logical" name="ODDONLYGW"> F  </i>
   <i type="logical" name="EVENONLYGW"> F  </i>
   <i type="int" name="NKREDLFX">     1</i>
   <i type="int" name="NKREDLFY">     1</i>
   <i type="int" name="NKREDLFZ">     1</i>
   <i type="int" name="MAXMEM">  1800</i>
   <i type="int" name="TELESCOPE">     0</i>
   <i type="int" name="TAUPAR">     1</i>
  </separator>
  <separator name="External order field" >
   <i name="OFIELD_KAPPA">      0.00000000</i>
   <v name="OFIELD_K">      0.00000000      0.00000000      0.00000000</v>
   <i name="OFIELD_Q6_NEAR">      0.00000000</i>
   <i name="OFIELD_Q6_FAR">      0.00000000</i>
   <i name="OFIELD_A">      0.00000000</i>
  </separator>
 </parameters>
 <atominfo>
  <atoms>      32 </atoms>
  <types>       4 </types>
  <array name="atoms" >
   <dimension dim="1">ion</dimension>
   <field type="string">element</field>
   <field type="int">atomtype</field>
   <set>
    <rc><c>Si</c><c>   1</c></rc>
    <rc><c>Si</c><c>   1</c></rc>
    <rc><c>Si</c><c>   1</c></rc>
    <rc><c>Si</c><c>   1</c></rc>
    <rc><c>Si</c><c>   1</c></rc>
    <rc><c>Si</c><c>   1</c></rc>
    <rc><c>Si</c><c>   1</c></rc>
    <rc><c>Si</c><c>   1</c></rc>
    <rc><c>Al</c><c>   2</c></rc>
    <rc><c>Al</c><c>   2</c></rc>
    <rc><c>Al</c><c>   2</c></rc>
    <rc><c>Al</c><c>   2</c></rc>
    <rc><c>Al</c><c>   2</c></rc>
    <rc><c>Al</c><c>   2</c></rc>
    <rc><c>Al</c><c>   2</c></rc>
    <rc><c>Al</c><c>   2</c></rc>
    <rc><c>C </c><c>   3</c></rc>
    <rc><c>C </c><c>   3</c></rc>
    <rc><c>C </c><c>   3</c></rc>
    <rc><c>C </c><c>   3</c></rc>
    <rc><c>C </c><c>   3</c></rc>
    <rc><c>C </c><c>   3</c></rc>
    <rc><c>C </c><c>   3</c></rc>
    <rc><c>C </c><c>   3</c></rc>
    <rc><c>N </c><c>   4</c></rc>
    <rc><c>N </c><c>   4</c></rc>
    <rc><c>N </c><c>   4</c></rc>
    <rc><c>N </c><c>   4</c></rc>
    <rc><c>N </c><c>   4</c></rc>
    <rc><c>N </c><c>   4</c></rc>
    <rc><c>N </c><c>   4</c></rc>
    <rc><c>N </c><c>   4</c></rc>
   </set>
  </array>
  <array name="atomtypes" >
   <dimension dim="1">type</dimension>
   <field type="int">atomspertype</field>
   <field type="string">element</field>
   <field>mass</field>
   <field>valence</field>
   <field type="string">pseudopotential</field>
   <set>
    <rc><c>   8</c><c>Si</c><c>     28.08500000</c><c>      4.00000000</c><c>  PAW_PBE Si 05Jan2001                  </c></rc>
    <rc><c>   8</c><c>Al</c><c>     26.98100000</c><c>      3.00000000</c><c>  PAW_PBE Al 04Jan2001                  </c></rc>
    <rc><c>   8</c><c>C </c><c>     12.01100000</c><c>      4.00000000</c><c>  PAW_PBE C 08Apr2002                   </c></rc>
    <rc><c>   8</c><c>N </c><c>     14.00100000</c><c>      5.00000000</c><c>  PAW_PBE N_s 07Sep2000                 </c></rc>
   </set>
  </array>
 </atominfo>
 <structure name="initialpos" >
  <crystal>
   <varray name="basis" >
    <v>      10.11823539       0.00000000       0.00100687 </v>
    <v>       0.00000000       6.24835055       0.00000000 </v>
    <v>       0.00056416       0.00000000       5.38825441 </v>
   </varray>
   <i name="volume">    340.65773414 </i>
   <varray name="rec_basis" >
    <v>       0.09883146       0.00000000      -0.00001035 </v>
    <v>       0.00000000       0.16004224       0.00000000 </v>
    <v>      -0.00001847       0.00000000       0.18558886 </v>
   </varray>
  </crystal>
  <varray name="positions" >
   <v>       0.25652370       0.50000000       0.83469324 </v>
   <v>       0.49010699       0.00000000       0.17171624 </v>
   <v>       0.49677451       0.24984898       0.66662639 </v>
   <v>       0.99677451       0.25015102       0.66662639 </v>
   <v>       0.75652370       0.00000000       0.83469324 </v>
   <v>       0.99010699       0.50000000       0.17171624 </v>
   <v>       0.99677451       0.74984898       0.66662639 </v>
   <v>       0.49677451       0.75015102       0.66662639 </v>
   <v>       0.25304232       0.74482940       0.33386041 </v>
   <v>       0.25682013       0.00000000       0.82866376 </v>
   <v>       0.25304232       0.25517060       0.33386041 </v>
   <v>       0.99953463       0.00000000       0.16203052 </v>
   <v>       0.75304232       0.24482940       0.33386041 </v>
   <v>       0.75682013       0.50000000       0.82866376 </v>
   <v>       0.75304232       0.75517060       0.33386041 </v>
   <v>       0.49953463       0.50000000       0.16203052 </v>
   <v>       0.06576580       0.50000000       0.84055341 </v>
   <v>       0.31220742       0.00000000       0.17154230 </v>
   <v>       0.31760962       0.26404267       0.67276554 </v>
   <v>       0.81760962       0.23595733       0.67276554 </v>
   <v>       0.56576580       0.00000000       0.84055341 </v>
   <v>       0.81220742       0.50000000       0.17154230 </v>
   <v>       0.81760962       0.76404267       0.67276554 </v>
   <v>       0.31760962       0.73595733       0.67276554 </v>
   <v>       0.55647938       0.23882946       0.34009628 </v>
   <v>       0.06035826       0.00000000       0.81167392 </v>
   <v>       0.05647938       0.26117054       0.34009628 </v>
   <v>       0.31087140       0.50000000       0.15242939 </v>
   <v>       0.05647938       0.73882946       0.34009628 </v>
   <v>       0.56035826       0.50000000       0.81167392 </v>
   <v>       0.55647938       0.76117054       0.34009628 </v>
   <v>       0.81087140       0.00000000       0.15242939 </v>
  </varray>
 </structure>
 <calculation>
  <scstep>
   <time name="dav">    1.23    1.23</time>
   <time name="total">    1.31    1.32</time>
   <energy>
    <i name="alphaZ">    127.71288862 </i>
    <i name="ewald">  -4556.37622521 </i>
    <i name="hartreedc">   -704.17334578 </i>
    <i name="XCdc">    -11.09628246 </i>
    <i name="pawpsdc">   3742.27521622 </i>
    <i name="pawaedc">  -3359.93045151 </i>
    <i name="eentropy">     -0.03661690 </i>
    <i name="bandstr">    907.21989826 </i>
    <i name="atom">   4546.41956982 </i>
    <i name="e_fr_energy">    692.01465105 </i>
    <i name="e_wo_entrp">    692.05126795 </i>
    <i name="e_0_energy">    692.03295950 </i>
   </energy>
  </scstep>
  <scstep>
   <time name="dav">    1.38    1.38</time>
   <time name="total">    1.38    1.39</time>
   <energy>
    <i name="e_fr_energy">   -191.52628705 </i>
    <i name="e_wo_entrp">   -191.52628705 </i>
    <i name="e_0_energy">   -191.52628705 </i>
   </energy>
  </scstep>
  <scstep>
   <time name="dav">    1.40    1.40</time>
   <time name="total">    1.40    1.41</time>
   <energy>
    <i name="e_fr_energy">   -268.00217824 </i>
    <i name="e_wo_entrp">   -268.00217824 </i>
    <i name="e_0_energy">   -268.00217824 </i>
   </energy>
  </scstep>
  <scstep>
   <time name="dav">    1.44    1.44</time>
   <time name="total">    1.44    1.45</time>
   <energy>
    <i name="e_fr_energy">   -270.24849573 </i>
    <i name="e_wo_entrp">   -270.24849573 </i>
    <i name="e_0_energy">   -270.24849573 </i>
   </energy>
  </scstep>
  <scstep>
   <time name="dav">    1.41    1.41</time>
   <time name="total">    1.55    1.56</time>
   <energy>
    <i name="e_fr_energy">   -270.32958092 </i>
    <i name="e_wo_entrp">   -270.32958092 </i>
    <i name="e_0_energy">   -270.32958092 </i>
   </energy>
  </scstep>
  <scstep>
   <time name="diag">    0.21    0.21</time>
   <time name="diis">    0.94    0.94</time>
   <time name="orth">    0.04    0.04</time>
   <time name="total">    1.41    1.42</time>
   <energy>
    <i name="e_fr_energy">   -234.46980685 </i>
    <i name="e_wo_entrp">   -234.46980685 </i>
    <i name="e_0_energy">   -234.46980685 </i>
   </energy>
  </scstep>
  <scstep>
   <time name="diag">    0.21    0.21</time>
   <time name="diis">    0.95    0.95</time>
   <time name="orth">    0.04    0.04</time>
   <time name="total">    1.42    1.43</time>
   <energy>
    <i name="e_fr_energy">   -234.24062215 </i>
    <i name="e_wo_entrp">   -234.24062215 </i>
    <i name="e_0_energy">   -234.24062215 </i>
   </energy>
  </scstep>
  <scstep>
   <time name="diag">    0.21    0.21</time>
   <time name="diis">    0.90    0.90</time>
   <time name="orth">    0.04    0.04</time>
   <time name="total">    1.37    1.38</time>
   <energy>
    <i name="e_fr_energy">   -235.40868703 </i>
    <i name="e_wo_entrp">   -235.40868703 </i>
    <i name="e_0_energy">   -235.40868703 </i>
   </energy>
  </scstep>
  <scstep>
   <time name="diag">    0.21    0.21</time>
   <time name="diis">    0.93    0.93</time>
   <time name="orth">    0.04    0.04</time>
   <time name="total">    1.40    1.41</time>
   <energy>
    <i name="e_fr_energy">   -233.98462643 </i>
    <i name="e_wo_entrp">   -233.98462643 </i>
    <i name="e_0_energy">   -233.98462643 </i>
   </energy>
  </scstep>
  <scstep>
   <time name="diag">    0.20    0.20</time>
   <time name="diis">    0.91    0.91</time>
   <time name="orth">    0.04    0.04</time>
   <time name="total">    1.37    1.39</time>
   <energy>
    <i name="e_fr_energy">   -233.98280986 </i>
    <i name="e_wo_entrp">   -233.98280986 </i>
    <i name="e_0_energy">   -233.98280986 </i>
   </energy>
  </scstep>
  <scstep>
   <time name="diag">    0.21    0.21</time>
   <time name="diis">    0.92    0.92</time>
   <time name="orth">    0.04    0.04</time>
   <time name="total">    1.39    1.41</time>
   <energy>
    <i name="e_fr_energy">   -233.98784178 </i>
    <i name="e_wo_entrp">   -233.98784178 </i>
    <i name="e_0_energy">   -233.98784178 </i>
   </energy>
  </scstep>
  <scstep>
   <time name="diag">    0.21    0.21</time>
   <time name="diis">    0.94    0.94</time>
   <time name="orth">    0.04    0.04</time>
   <time name="total">    1.41    1.42</time>
   <energy>
    <i name="e_fr_energy">   -233.98660376 </i>
    <i name="e_wo_entrp">   -233.98660376 </i>
    <i name="e_0_energy">   -233.98660376 </i>
   </energy>
  </scstep>
  <scstep>
   <time name="diag">    0.20    0.20</time>
   <time name="diis">    0.89    0.89</time>
   <time name="orth">    0.04    0.04</time>
   <time name="total">    1.36    1.37</time>
   <energy>
    <i name="e_fr_energy">   -233.98671340 </i>
    <i name="e_wo_entrp">   -233.98671340 </i>
    <i name="e_0_energy">   -233.98671340 </i>
   </energy>
  </scstep>
  <scstep>
   <time name="diag">    0.20    0.20</time>
   <time name="diis">    0.89    0.89</time>
   <time name="orth">    0.04    0.04</time>
   <time name="total">    1.36    1.37</time>
   <energy>
    <i name="e_fr_energy">   -233.98667271 </i>
    <i name="e_wo_entrp">   -233.98667271 </i>
    <i name="e_0_energy">   -233.98667271 </i>
   </energy>
  </scstep>
  <scstep>
   <time name="diag">    0.20    0.20</time>
   <time name="diis">    0.87    0.97</time>
   <time name="orth">    0.04    0.04</time>
   <time name="total">    1.34    1.45</time>
   <energy>
    <i name="e_fr_energy">   -233.98666215 </i>
    <i name="e_wo_entrp">   -233.98666215 </i>
    <i name="e_0_energy">   -233.98666215 </i>
   </energy>
  </scstep>
  <scstep>
   <time name="diag">    0.21    0.21</time>
   <time name="diis">    0.64    0.64</time>
   <time name="orth">    0.04    0.04</time>
   <time name="total">    0.97    0.98</time>
   <energy>
    <i name="alphaZ">    127.71288862 </i>
    <i name="ewald">  -4556.37622521 </i>
    <i name="hartreedc">   -922.32036070 </i>
    <i name="XCdc">      8.17178614 </i>
    <i name="pawpsdc">  20236.80107928 </i>
    <i name="pawaedc"> -19862.88214109 </i>
    <i name="eentropy">      0.00000000 </i>
    <i name="bandstr">    188.48674048 </i>
    <i name="atom">   4546.41956982 </i>
    <i name="e_fr_energy">   -233.98666267 </i>
    <i name="e_wo_entrp">   -233.98666267 </i>
    <i name="e_0_energy">   -233.98666267 </i>
   </energy>
  </scstep>
  <structure>
   <crystal>
    <varray name="basis" >
     <v>      10.11823539       0.00000000       0.00100687 </v>
     <v>       0.00000000       6.24835055       0.00000000 </v>
     <v>       0.00056416       0.00000000       5.38825441 </v>
    </varray>
    <i name="volume">    340.65773414 </i>
    <varray name="rec_basis" >
     <v>       0.09883146       0.00000000      -0.00001035 </v>
     <v>       0.00000000       0.16004224       0.00000000 </v>
     <v>      -0.00001847       0.00000000       0.18558886 </v>
    </varray>
   </crystal>
   <varray name="positions" >
    <v>       0.25652370       0.50000000       0.83469324 </v>
    <v>       0.49010699       0.00000000       0.17171624 </v>
    <v>       0.49677451       0.24984898       0.66662639 </v>
    <v>       0.99677451       0.25015102       0.66662639 </v>
    <v>       0.75652370       0.00000000       0.83469324 </v>
    <v>       0.99010699       0.50000000       0.17171624 </v>
    <v>       0.99677451       0.74984898       0.66662639 </v>
    <v>       0.49677451       0.75015102       0.66662639 </v>
    <v>       0.25304232       0.74482940       0.33386041 </v>
    <v>       0.25682013       0.00000000       0.82866376 </v>
    <v>       0.25304232       0.25517060       0.33386041 </v>
    <v>       0.99953463       0.00000000       0.16203052 </v>
    <v>       0.75304232       0.24482940       0.33386041 </v>
    <v>       0.75682013       0.50000000       0.82866376 </v>
    <v>       0.75304232       0.75517060       0.33386041 </v>
    <v>       0.49953463       0.50000000       0.16203052 </v>
    <v>       0.06576580       0.50000000       0.84055341 </v>
    <v>       0.31220742       0.00000000       0.17154230 </v>
    <v>       0.31760962       0.26404267       0.67276554 </v>
    <v>       0.81760962       0.23595733       0.67276554 </v>
    <v>       0.56576580       0.00000000       0.84055341 </v>
    <v>       0.81220742       0.50000000       0.17154230 </v>
    <v>       0.81760962       0.76404267       0.67276554 </v>
    <v>       0.31760962       0.73595733       0.67276554 </v>
    <v>       0.55647938       0.23882946       0.34009628 </v>
    <v>       0.06035826       0.00000000       0.81167392 </v>
    <v>       0.05647938       0.26117054       0.34009628 </v>
    <v>       0.31087140       0.50000000       0.15242939 </v>
    <v>       0.05647938       0.73882946       0.34009628 </v>
    <v>       0.56035826       0.50000000       0.81167392 </v>
    <v>       0.55647938       0.76117054       0.34009628 </v>
    <v>       0.81087140       0.00000000       0.15242939 </v>
   </varray>
  </structure>
  <varray name="forces" >
   <v>       0.00068186       0.00000000       0.00471114 </v>
   <v>      -0.00956564       0.00000000      -0.00051318 </v>
   <v>      -0.00704471      -0.00866776       0.00320932 </v>
   <v>      -0.00704471       0.00866776       0.00320932 </v>
   <v>       0.00068186       0.00000000       0.00471114 </v>
   <v>      -0.00956564       0.00000000      -0.00051318 </v>
   <v>      -0.00704471      -0.00866776       0.00320932 </v>
   <v>      -0.00704471       0.00866776       0.00320932 </v>
   <v>       0.00934853       0.00728518       0.00208266 </v>
   <v>      -0.01551409       0.00000000       0.00119098 </v>
   <v>       0.00934853      -0.00728518       0.00208266 </v>
   <v>       0.00659880       0.00000000      -0.00237691 </v>
   <v>       0.00934853       0.00728518       0.00208266 </v>
   <v>      -0.01551409       0.00000000       0.00119098 </v>
   <v>       0.00934853      -0.00728518       0.00208266 </v>
   <v>       0.00659880       0.00000000      -0.00237691 </v>
   <v>      -0.00720410       0.00000000       0.00563441 </v>
   <v>       0.00112714       0.00000000       0.00595421 </v>
   <v>       0.00043858      -0.00609602      -0.00641066 </v>
   <v>       0.00043858       0.00609602      -0.00641066 </v>
   <v>      -0.00720410       0.00000000       0.00563441 </v>
   <v>       0.00112714       0.00000000       0.00595421 </v>
   <v>       0.00043858      -0.00609602      -0.00641066 </v>
   <v>       0.00043858       0.00609602      -0.00641066 </v>
   <v>       0.00629363      -0.00169101      -0.00037022 </v>
   <v>      -0.00344144       0.00000000      -0.01253323 </v>
   <v>       0.00629363       0.00169101      -0.00037022 </v>
   <v>       0.00924541       0.00000000       0.00091038 </v>
   <v>       0.00629363      -0.00169101      -0.00037022 </v>
   <v>      -0.00344144       0.00000000      -0.01253323 </v>
   <v>       0.00629363       0.00169101      -0.00037022 </v>
   <v>       0.00924541       0.00000000       0.00091038 </v>
  </varray>
  <varray name="stress" >
   <v>      -0.30327709       0.00000000      -0.00371796 </v>
   <v>       0.00000000       0.14710238       0.00000000 </v>
   <v>      -0.00371780       0.00000000      -0.26306487 </v>
  </varray>
  <energy>
   <i name="e_fr_energy">   -233.98666267 </i>
   <i name="e_wo_entrp">   -233.98666267 </i>
   <i name="e_0_energy">      0.00000000 </i>
  </energy>
  <time name="totalsc">   24.67   25.02</time>
  <eigenvalues>
   <array>
    <dimension dim="1">band</dimension>
    <dimension dim="2">kpoint</dimension>
    <dimension dim="3">spin</dimension>
    <field>eigene</field>
    <field>occ</field>
    <set>
     <set comment="spin 1">
      <set comment="kpoint 1">
       <r>   -9.1336    1.0000 </r>
       <r>   -8.8739    1.0000 </r>
       <r>   -7.6472    1.0000 </r>
       <r>   -7.5641    1.0000 </r>
       <r>   -7.5507    1.0000 </r>
       <r>   -7.5065    1.0000 </r>
       <r>   -7.3021    1.0000 </r>
       <r>   -7.0886    1.0000 </r>
       <r>   -4.5830    1.0000 </r>
       <r>   -4.4705    1.0000 </r>
       <r>   -3.9926    1.0000 </r>
       <r>   -3.0643    1.0000 </r>
       <r>   -2.8855    1.0000 </r>
       <r>   -2.8098    1.0000 </r>
       <r>   -2.7771    1.0000 </r>
       <r>   -2.5502    1.0000 </r>
       <r>   -0.6989    1.0000 </r>
       <r>   -0.4336    1.0000 </r>
       <r>   -0.2811    1.0000 </r>
       <r>   -0.0267    1.0000 </r>
       <r>    0.5915    1.0000 </r>
       <r>    0.7004    1.0000 </r>
       <r>    0.7467    1.0000 </r>
       <r>    1.1759    1.0000 </r>
       <r>    1.4027    1.0000 </r>
       <r>    1.6060    1.0000 </r>
       <r>    1.9767    1.0000 </r>
       <r>    2.1449    1.0000 </r>
       <r>    2.1495    1.0000 </r>
       <r>    2.2749    1.0000 </r>
       <r>    2.4101    1.0000 </r>
       <r>    2.4591    1.0000 </r>
       <r>    2.5464    1.0000 </r>
       <r>    2.9083    1.0000 </r>
       <r>    3.1428    1.0000 </r>
       <r>    3.3826    1.0000 </r>
       <r>    3.4737    1.0000 </r>
       <r>    3.5184    1.0000 </r>
       <r>    3.5915    1.0000 </r>
       <r>    4.0633    1.0000 </r>
       <r>    4.1134    1.0000 </r>
       <r>    4.2294    1.0000 </r>
       <r>    4.4984    1.0000 </r>
       <r>    4.6020    1.0000 </r>
       <r>    4.7904    1.0000 </r>
       <r>    4.9745    1.0000 </r>
       <r>    5.0066    1.0000 </r>
       <r>    5.2262    1.0000 </r>
       <r>    5.3233    1.0000 </r>
       <r>    5.4518    1.0000 </r>
       <r>    5.5682    1.0000 </r>
       <r>    5.6002    1.0000 </r>
       <r>    5.7555    1.0000 </r>
       <r>    5.8327    1.0000 </r>
       <r>    5.8327    1.0000 </r>
       <r>    6.0149    1.0000 </r>
       <r>    6.0919    1.0000 </r>
       <r>    6.6299    1.0000 </r>
       <r>    6.8510    1.0000 </r>
       <r>    7.0763    1.0000 </r>
       <r>    7.7927    1.0000 </r>
       <r>    7.8205    1.0000 </r>
       <r>    7.8234    1.0000 </r>
       <r>    7.9535    1.0000 </r>
       <r>   10.4928    0.0000 </r>
       <r>   10.5565    0.0000 </r>
       <r>   10.8611    0.0000 </r>
       <r>   11.1600    0.0000 </r>
       <r>   11.4382    0.0000 </r>
       <r>   11.6972    0.0000 </r>
       <r>   12.1626    0.0000 </r>
       <r>   12.2012    0.0000 </r>
       <r>   12.3293    0.0000 </r>
       <r>   12.5827    0.0000 </r>
       <r>   12.7374    0.0000 </r>
       <r>   12.9019    0.0000 </r>
       <r>   13.5852    0.0000 </r>
       <r>   13.6829    0.0000 </r>
       <r>   13.9084    0.0000 </r>
       <r>   14.0155    0.0000 </r>
       <r>   14.2569    0.0000 </r>
       <r>   14.5214    0.0000 </r>
       <r>   14.5587    0.0000 </r>
       <r>   14.6439    0.0000 </r>
      </set>
      <set comment="kpoint 2">
       <r>   -9.0168    1.0000 </r>
       <r>   -9.0168    1.0000 </r>
       <r>   -7.5797    1.0000 </r>
       <r>   -7.5797    1.0000 </r>
       <r>   -7.5357    1.0000 </r>
       <r>   -7.5357    1.0000 </r>
       <r>   -7.2001    1.0000 </r>
       <r>   -7.2001    1.0000 </r>
       <r>   -4.5443    1.0000 </r>
       <r>   -4.5443    1.0000 </r>
       <r>   -3.5947    1.0000 </r>
       <r>   -3.5947    1.0000 </r>
       <r>   -2.8476    1.0000 </r>
       <r>   -2.8476    1.0000 </r>
       <r>   -2.6534    1.0000 </r>
       <r>   -2.6534    1.0000 </r>
       <r>   -0.4969    1.0000 </r>
       <r>   -0.4969    1.0000 </r>
       <r>    0.1035    1.0000 </r>
       <r>    0.1035    1.0000 </r>
       <r>    0.5669    1.0000 </r>
       <r>    0.5669    1.0000 </r>
       <r>    1.1071    1.0000 </r>
       <r>    1.1071    1.0000 </r>
       <r>    1.2751    1.0000 </r>
       <r>    1.2751    1.0000 </r>
       <r>    1.7632    1.0000 </r>
       <r>    1.7632    1.0000 </r>
       <r>    1.8999    1.0000 </r>
       <r>    1.8999    1.0000 </r>
       <r>    2.4976    1.0000 </r>
       <r>    2.4976    1.0000 </r>
       <r>    2.7570    1.0000 </r>
       <r>    2.7570    1.0000 </r>
       <r>    3.5446    1.0000 </r>
       <r>    3.5446    1.0000 </r>
       <r>    3.6533    1.0000 </r>
       <r>    3.6533    1.0000 </r>
       <r>    4.0508    1.0000 </r>
       <r>    4.0508    1.0000 </r>
       <r>    4.1086    1.0000 </r>
       <r>    4.1086    1.0000 </r>
       <r>    4.5714    1.0000 </r>
       <r>    4.5714    1.0000 </r>
       <r>    4.9410    1.0000 </r>
       <r>    4.9410    1.0000 </r>
       <r>    5.0683    1.0000 </r>
       <r>    5.0683    1.0000 </r>
       <r>    5.3345    1.0000 </r>
       <r>    5.3345    1.0000 </r>
       <r>    5.5555    1.0000 </r>
       <r>    5.5555    1.0000 </r>
       <r>    5.8115    1.0000 </r>
       <r>    5.8115    1.0000 </r>
       <r>    6.0933    1.0000 </r>
       <r>    6.0933    1.0000 </r>
       <r>    6.1757    1.0000 </r>
       <r>    6.1757    1.0000 </r>
       <r>    6.7035    1.0000 </r>
       <r>    6.7035    1.0000 </r>
       <r>    7.8026    1.0000 </r>
       <r>    7.8026    1.0000 </r>
       <r>    7.8836    1.0000 </r>
       <r>    7.8836    1.0000 </r>
       <r>   10.5372    0.0000 </r>
       <r>   10.5372    0.0000 </r>
       <r>   11.0677    0.0000 </r>
       <r>   11.0677    0.0000 </r>
       <r>   11.9062    0.0000 </r>
       <r>   11.9062    0.0000 </r>
       <r>   11.9693    0.0000 </r>
       <r>   11.9693    0.0000 </r>
       <r>   12.2606    0.0000 </r>
       <r>   12.2607    0.0000 </r>
       <r>   13.4226    0.0000 </r>
       <r>   13.4235    0.0000 </r>
       <r>   13.5211    0.0000 </r>
       <r>   13.5224    0.0000 </r>
       <r>   13.7748    0.0000 </r>
       <r>   13.7775    0.0000 </r>
       <r>   14.3428    0.0000 </r>
       <r>   14.4223    0.0000 </r>
       <r>   14.4699    0.0000 </r>
       <r>   14.6778    0.0000 </r>
      </set>
      <set comment="kpoint 3">
       <r>   -8.8986    1.0000 </r>
       <r>   -8.6658    1.0000 </r>
       <r>   -8.2514    1.0000 </r>
       <r>   -8.0792    1.0000 </r>
       <r>   -7.2497    1.0000 </r>
       <r>   -7.2422    1.0000 </r>
       <r>   -7.2294    1.0000 </r>
       <r>   -7.1203    1.0000 </r>
       <r>   -4.6005    1.0000 </r>
       <r>   -4.5144    1.0000 </r>
       <r>   -3.9999    1.0000 </r>
       <r>   -3.5538    1.0000 </r>
       <r>   -2.9629    1.0000 </r>
       <r>   -2.7993    1.0000 </r>
       <r>   -2.5485    1.0000 </r>
       <r>   -2.4468    1.0000 </r>
       <r>   -0.4044    1.0000 </r>
       <r>   -0.1342    1.0000 </r>
       <r>   -0.1009    1.0000 </r>
       <r>    0.5013    1.0000 </r>
       <r>    0.5500    1.0000 </r>
       <r>    0.9660    1.0000 </r>
       <r>    1.0630    1.0000 </r>
       <r>    1.2086    1.0000 </r>
       <r>    1.2379    1.0000 </r>
       <r>    1.4087    1.0000 </r>
       <r>    1.4636    1.0000 </r>
       <r>    2.0336    1.0000 </r>
       <r>    2.2537    1.0000 </r>
       <r>    2.7271    1.0000 </r>
       <r>    2.7592    1.0000 </r>
       <r>    2.8745    1.0000 </r>
       <r>    2.8755    1.0000 </r>
       <r>    2.9976    1.0000 </r>
       <r>    3.1912    1.0000 </r>
       <r>    3.2501    1.0000 </r>
       <r>    3.4624    1.0000 </r>
       <r>    3.5041    1.0000 </r>
       <r>    3.6234    1.0000 </r>
       <r>    3.6832    1.0000 </r>
       <r>    4.0165    1.0000 </r>
       <r>    4.0205    1.0000 </r>
       <r>    4.0910    1.0000 </r>
       <r>    4.2665    1.0000 </r>
       <r>    4.4707    1.0000 </r>
       <r>    4.6362    1.0000 </r>
       <r>    4.6424    1.0000 </r>
       <r>    4.8600    1.0000 </r>
       <r>    5.1331    1.0000 </r>
       <r>    5.2884    1.0000 </r>
       <r>    5.3651    1.0000 </r>
       <r>    5.7372    1.0000 </r>
       <r>    5.8203    1.0000 </r>
       <r>    5.9403    1.0000 </r>
       <r>    6.0435    1.0000 </r>
       <r>    6.1075    1.0000 </r>
       <r>    6.3537    1.0000 </r>
       <r>    6.3725    1.0000 </r>
       <r>    6.4964    1.0000 </r>
       <r>    6.7444    1.0000 </r>
       <r>    6.8261    1.0000 </r>
       <r>    7.1273    1.0000 </r>
       <r>    7.7163    1.0000 </r>
       <r>    7.7236    1.0000 </r>
       <r>   10.6540    0.0000 </r>
       <r>   11.2284    0.0000 </r>
       <r>   11.6013    0.0000 </r>
       <r>   11.7273    0.0000 </r>
       <r>   12.4074    0.0000 </r>
       <r>   12.4734    0.0000 </r>
       <r>   12.6424    0.0000 </r>
       <r>   12.7862    0.0000 </r>
       <r>   13.0062    0.0000 </r>
       <r>   13.1323    0.0000 </r>
       <r>   13.1366    0.0000 </r>
       <r>   13.2382    0.0000 </r>
       <r>   13.3605    0.0000 </r>
       <r>   13.4775    0.0000 </r>
       <r>   13.7236    0.0000 </r>
       <r>   14.0780    0.0000 </r>
       <r>   14.1180    0.0000 </r>
       <r>   14.2374    0.0000 </r>
       <r>   14.3841    0.0000 </r>
       <r>   14.6138    0.0000 </r>
      </set>
      <set comment="kpoint 4">
       <r>   -8.7940    1.0000 </r>
       <r>   -8.7940    1.0000 </r>
       <r>   -8.1649    1.0000 </r>
       <r>   -8.1649    1.0000 </r>
       <r>   -7.2391    1.0000 </r>
       <r>   -7.2391    1.0000 </r>
       <r>   -7.1674    1.0000 </r>
       <r>   -7.1674    1.0000 </r>
       <r>   -4.5875    1.0000 </r>
       <r>   -4.5875    1.0000 </r>
       <r>   -3.6290    1.0000 </r>
       <r>   -3.6290    1.0000 </r>
       <r>   -3.0845    1.0000 </r>
       <r>   -3.0845    1.0000 </r>
       <r>   -2.5138    1.0000 </r>
       <r>   -2.5138    1.0000 </r>
       <r>   -0.1724    1.0000 </r>
       <r>   -0.1724    1.0000 </r>
       <r>    0.3838    1.0000 </r>
       <r>    0.3838    1.0000 </r>
       <r>    0.8676    1.0000 </r>
       <r>    0.8676    1.0000 </r>
       <r>    1.1634    1.0000 </r>
       <r>    1.1634    1.0000 </r>
       <r>    1.2984    1.0000 </r>
       <r>    1.2984    1.0000 </r>
       <r>    1.4789    1.0000 </r>
       <r>    1.4789    1.0000 </r>
       <r>    2.2742    1.0000 </r>
       <r>    2.2742    1.0000 </r>
       <r>    2.5180    1.0000 </r>
       <r>    2.5180    1.0000 </r>
       <r>    2.6906    1.0000 </r>
       <r>    2.6906    1.0000 </r>
       <r>    3.5163    1.0000 </r>
       <r>    3.5163    1.0000 </r>
       <r>    3.6374    1.0000 </r>
       <r>    3.6374    1.0000 </r>
       <r>    3.9394    1.0000 </r>
       <r>    3.9394    1.0000 </r>
       <r>    4.0434    1.0000 </r>
       <r>    4.0434    1.0000 </r>
       <r>    4.3228    1.0000 </r>
       <r>    4.3228    1.0000 </r>
       <r>    4.6630    1.0000 </r>
       <r>    4.6630    1.0000 </r>
       <r>    5.0041    1.0000 </r>
       <r>    5.0041    1.0000 </r>
       <r>    5.2147    1.0000 </r>
       <r>    5.2147    1.0000 </r>
       <r>    5.3996    1.0000 </r>
       <r>    5.3996    1.0000 </r>
       <r>    5.6283    1.0000 </r>
       <r>    5.6283    1.0000 </r>
       <r>    5.8807    1.0000 </r>
       <r>    5.8807    1.0000 </r>
       <r>    6.2290    1.0000 </r>
       <r>    6.2290    1.0000 </r>
       <r>    6.6494    1.0000 </r>
       <r>    6.6494    1.0000 </r>
       <r>    7.0327    1.0000 </r>
       <r>    7.0327    1.0000 </r>
       <r>    7.7138    1.0000 </r>
       <r>    7.7138    1.0000 </r>
       <r>   11.3476    0.0000 </r>
       <r>   11.3476    0.0000 </r>
       <r>   11.6247    0.0000 </r>
       <r>   11.6247    0.0000 </r>
       <r>   12.1685    0.0000 </r>
       <r>   12.1686    0.0000 </r>
       <r>   12.7865    0.0000 </r>
       <r>   12.7866    0.0000 </r>
       <r>   13.0716    0.0000 </r>
       <r>   13.0721    0.0000 </r>
       <r>   13.1815    0.0000 </r>
       <r>   13.1834    0.0000 </r>
       <r>   13.5009    0.0000 </r>
       <r>   13.5053    0.0000 </r>
       <r>   14.1264    0.0000 </r>
       <r>   14.1431    0.0000 </r>
       <r>   14.3294    0.0000 </r>
       <r>   14.4096    0.0000 </r>
       <r>   14.6535    0.0000 </r>
       <r>   14.6961    0.0000 </r>
      </set>
      <set comment="kpoint 5">
       <r>   -8.9657    1.0000 </r>
       <r>   -8.7347    1.0000 </r>
       <r>   -7.8206    1.0000 </r>
       <r>   -7.7444    1.0000 </r>
       <r>   -7.5402    1.0000 </r>
       <r>   -7.4868    1.0000 </r>
       <r>   -7.3121    1.0000 </r>
       <r>   -7.0089    1.0000 </r>
       <r>   -4.7738    1.0000 </r>
       <r>   -4.5390    1.0000 </r>
       <r>   -4.2300    1.0000 </r>
       <r>   -3.1579    1.0000 </r>
       <r>   -2.9600    1.0000 </r>
       <r>   -2.7892    1.0000 </r>
       <r>   -2.7775    1.0000 </r>
       <r>   -2.5267    1.0000 </r>
       <r>   -0.6160    1.0000 </r>
       <r>   -0.2896    1.0000 </r>
       <r>   -0.1101    1.0000 </r>
       <r>   -0.0909    1.0000 </r>
       <r>    0.3379    1.0000 </r>
       <r>    0.6811    1.0000 </r>
       <r>    0.7015    1.0000 </r>
       <r>    1.3386    1.0000 </r>
       <r>    1.4546    1.0000 </r>
       <r>    1.5557    1.0000 </r>
       <r>    1.9226    1.0000 </r>
       <r>    2.1382    1.0000 </r>
       <r>    2.3956    1.0000 </r>
       <r>    2.6118    1.0000 </r>
       <r>    2.6233    1.0000 </r>
       <r>    2.6794    1.0000 </r>
       <r>    2.7576    1.0000 </r>
       <r>    3.0660    1.0000 </r>
       <r>    3.0905    1.0000 </r>
       <r>    3.3337    1.0000 </r>
       <r>    3.4581    1.0000 </r>
       <r>    3.4914    1.0000 </r>
       <r>    3.8149    1.0000 </r>
       <r>    4.1796    1.0000 </r>
       <r>    4.3190    1.0000 </r>
       <r>    4.5173    1.0000 </r>
       <r>    4.5370    1.0000 </r>
       <r>    4.6992    1.0000 </r>
       <r>    4.7836    1.0000 </r>
       <r>    4.7950    1.0000 </r>
       <r>    4.9414    1.0000 </r>
       <r>    5.0698    1.0000 </r>
       <r>    5.0966    1.0000 </r>
       <r>    5.2284    1.0000 </r>
       <r>    5.4870    1.0000 </r>
       <r>    5.6333    1.0000 </r>
       <r>    5.9302    1.0000 </r>
       <r>    6.0161    1.0000 </r>
       <r>    6.0368    1.0000 </r>
       <r>    6.0496    1.0000 </r>
       <r>    6.2833    1.0000 </r>
       <r>    6.8313    1.0000 </r>
       <r>    6.8708    1.0000 </r>
       <r>    6.9971    1.0000 </r>
       <r>    7.1916    1.0000 </r>
       <r>    7.1958    1.0000 </r>
       <r>    7.6535    1.0000 </r>
       <r>    7.8627    1.0000 </r>
       <r>   10.6992    0.0000 </r>
       <r>   10.8325    0.0000 </r>
       <r>   11.0537    0.0000 </r>
       <r>   11.4194    0.0000 </r>
       <r>   11.4692    0.0000 </r>
       <r>   11.4848    0.0000 </r>
       <r>   12.0230    0.0000 </r>
       <r>   12.1025    0.0000 </r>
       <r>   12.2320    0.0000 </r>
       <r>   12.2867    0.0000 </r>
       <r>   12.3355    0.0000 </r>
       <r>   12.5749    0.0000 </r>
       <r>   12.7206    0.0000 </r>
       <r>   12.7858    0.0000 </r>
       <r>   13.4896    0.0000 </r>
       <r>   13.8435    0.0000 </r>
       <r>   14.3461    0.0000 </r>
       <r>   14.4945    0.0000 </r>
       <r>   14.5491    0.0000 </r>
       <r>   14.7750    0.0000 </r>
      </set>
      <set comment="kpoint 6">
       <r>   -8.8670    1.0000 </r>
       <r>   -8.8529    1.0000 </r>
       <r>   -7.8269    1.0000 </r>
       <r>   -7.7386    1.0000 </r>
       <r>   -7.5140    1.0000 </r>
       <r>   -7.5135    1.0000 </r>
       <r>   -7.1994    1.0000 </r>
       <r>   -7.1020    1.0000 </r>
       <r>   -4.7297    1.0000 </r>
       <r>   -4.7051    1.0000 </r>
       <r>   -3.7860    1.0000 </r>
       <r>   -3.5442    1.0000 </r>
       <r>   -2.8842    1.0000 </r>
       <r>   -2.8654    1.0000 </r>
       <r>   -2.8241    1.0000 </r>
       <r>   -2.5581    1.0000 </r>
       <r>   -0.2854    1.0000 </r>
       <r>   -0.2484    1.0000 </r>
       <r>   -0.1728    1.0000 </r>
       <r>   -0.1027    1.0000 </r>
       <r>    0.3536    1.0000 </r>
       <r>    0.5156    1.0000 </r>
       <r>    1.1184    1.0000 </r>
       <r>    1.1546    1.0000 </r>
       <r>    1.5512    1.0000 </r>
       <r>    1.6664    1.0000 </r>
       <r>    1.8653    1.0000 </r>
       <r>    1.9312    1.0000 </r>
       <r>    1.9759    1.0000 </r>
       <r>    2.2223    1.0000 </r>
       <r>    2.5482    1.0000 </r>
       <r>    2.6660    1.0000 </r>
       <r>    2.8435    1.0000 </r>
       <r>    3.0725    1.0000 </r>
       <r>    3.4775    1.0000 </r>
       <r>    3.4923    1.0000 </r>
       <r>    3.5857    1.0000 </r>
       <r>    3.7901    1.0000 </r>
       <r>    3.9892    1.0000 </r>
       <r>    4.1130    1.0000 </r>
       <r>    4.1498    1.0000 </r>
       <r>    4.2011    1.0000 </r>
       <r>    4.3503    1.0000 </r>
       <r>    4.3888    1.0000 </r>
       <r>    4.9182    1.0000 </r>
       <r>    4.9314    1.0000 </r>
       <r>    4.9353    1.0000 </r>
       <r>    5.0806    1.0000 </r>
       <r>    5.3322    1.0000 </r>
       <r>    5.5154    1.0000 </r>
       <r>    5.5810    1.0000 </r>
       <r>    5.6450    1.0000 </r>
       <r>    5.8293    1.0000 </r>
       <r>    5.9134    1.0000 </r>
       <r>    6.1300    1.0000 </r>
       <r>    6.1874    1.0000 </r>
       <r>    6.2696    1.0000 </r>
       <r>    6.4504    1.0000 </r>
       <r>    6.8638    1.0000 </r>
       <r>    6.9211    1.0000 </r>
       <r>    7.1814    1.0000 </r>
       <r>    7.2225    1.0000 </r>
       <r>    7.7513    1.0000 </r>
       <r>    7.7718    1.0000 </r>
       <r>   10.7106    0.0000 </r>
       <r>   10.8043    0.0000 </r>
       <r>   11.0553    0.0000 </r>
       <r>   11.1073    0.0000 </r>
       <r>   11.2845    0.0000 </r>
       <r>   11.2940    0.0000 </r>
       <r>   11.9159    0.0000 </r>
       <r>   12.0972    0.0000 </r>
       <r>   12.2480    0.0000 </r>
       <r>   12.6240    0.0000 </r>
       <r>   12.7228    0.0000 </r>
       <r>   12.7525    0.0000 </r>
       <r>   12.7792    0.0000 </r>
       <r>   12.9771    0.0000 </r>
       <r>   13.7326    0.0000 </r>
       <r>   13.9070    0.0000 </r>
       <r>   14.4112    0.0000 </r>
       <r>   14.5707    0.0000 </r>
       <r>   14.5986    0.0000 </r>
       <r>   14.7736    0.0000 </r>
      </set>
      <set comment="kpoint 7">
       <r>   -8.7439    1.0000 </r>
       <r>   -8.5390    1.0000 </r>
       <r>   -8.1737    1.0000 </r>
       <r>   -8.0586    1.0000 </r>
       <r>   -7.4904    1.0000 </r>
       <r>   -7.4666    1.0000 </r>
       <r>   -7.1664    1.0000 </r>
       <r>   -7.0273    1.0000 </r>
       <r>   -4.8648    1.0000 </r>
       <r>   -4.7646    1.0000 </r>
       <r>   -4.0927    1.0000 </r>
       <r>   -3.5371    1.0000 </r>
       <r>   -3.0201    1.0000 </r>
       <r>   -2.9395    1.0000 </r>
       <r>   -2.5686    1.0000 </r>
       <r>   -2.3815    1.0000 </r>
       <r>   -0.2230    1.0000 </r>
       <r>    0.0794    1.0000 </r>
       <r>    0.0861    1.0000 </r>
       <r>    0.4515    1.0000 </r>
       <r>    0.6089    1.0000 </r>
       <r>    0.9735    1.0000 </r>
       <r>    1.0990    1.0000 </r>
       <r>    1.3986    1.0000 </r>
       <r>    1.5613    1.0000 </r>
       <r>    1.6121    1.0000 </r>
       <r>    1.9038    1.0000 </r>
       <r>    1.9868    1.0000 </r>
       <r>    2.1966    1.0000 </r>
       <r>    2.4356    1.0000 </r>
       <r>    2.4770    1.0000 </r>
       <r>    2.6591    1.0000 </r>
       <r>    2.7429    1.0000 </r>
       <r>    2.9898    1.0000 </r>
       <r>    3.0878    1.0000 </r>
       <r>    3.2295    1.0000 </r>
       <r>    3.3122    1.0000 </r>
       <r>    3.3252    1.0000 </r>
       <r>    3.8190    1.0000 </r>
       <r>    3.9543    1.0000 </r>
       <r>    4.1604    1.0000 </r>
       <r>    4.3697    1.0000 </r>
       <r>    4.4853    1.0000 </r>
       <r>    4.5611    1.0000 </r>
       <r>    4.6371    1.0000 </r>
       <r>    4.7973    1.0000 </r>
       <r>    4.8362    1.0000 </r>
       <r>    4.9543    1.0000 </r>
       <r>    4.9666    1.0000 </r>
       <r>    5.2139    1.0000 </r>
       <r>    5.4692    1.0000 </r>
       <r>    5.5064    1.0000 </r>
       <r>    5.5770    1.0000 </r>
       <r>    5.8965    1.0000 </r>
       <r>    5.9164    1.0000 </r>
       <r>    6.0283    1.0000 </r>
       <r>    6.1278    1.0000 </r>
       <r>    6.2529    1.0000 </r>
       <r>    6.3382    1.0000 </r>
       <r>    6.7379    1.0000 </r>
       <r>    7.0396    1.0000 </r>
       <r>    7.0773    1.0000 </r>
       <r>    7.6656    1.0000 </r>
       <r>    7.6839    1.0000 </r>
       <r>   11.1773    0.0000 </r>
       <r>   11.2582    0.0000 </r>
       <r>   11.5113    0.0000 </r>
       <r>   11.6519    0.0000 </r>
       <r>   11.9484    0.0000 </r>
       <r>   11.9583    0.0000 </r>
       <r>   12.3097    0.0000 </r>
       <r>   12.5142    0.0000 </r>
       <r>   12.5508    0.0000 </r>
       <r>   12.7482    0.0000 </r>
       <r>   12.9589    0.0000 </r>
       <r>   13.2384    0.0000 </r>
       <r>   13.2520    0.0000 </r>
       <r>   13.3894    0.0000 </r>
       <r>   13.5823    0.0000 </r>
       <r>   13.6771    0.0000 </r>
       <r>   14.2032    0.0000 </r>
       <r>   14.4278    0.0000 </r>
       <r>   14.6602    0.0000 </r>
       <r>   14.8675    0.0000 </r>
      </set>
      <set comment="kpoint 8">
       <r>   -8.6598    1.0000 </r>
       <r>   -8.6400    1.0000 </r>
       <r>   -8.1388    1.0000 </r>
       <r>   -8.0878    1.0000 </r>
       <r>   -7.4956    1.0000 </r>
       <r>   -7.4714    1.0000 </r>
       <r>   -7.0936    1.0000 </r>
       <r>   -7.0779    1.0000 </r>
       <r>   -4.8510    1.0000 </r>
       <r>   -4.8343    1.0000 </r>
       <r>   -3.7691    1.0000 </r>
       <r>   -3.6252    1.0000 </r>
       <r>   -3.1646    1.0000 </r>
       <r>   -3.0510    1.0000 </r>
       <r>   -2.5143    1.0000 </r>
       <r>   -2.4784    1.0000 </r>
       <r>   -0.0166    1.0000 </r>
       <r>   -0.0037    1.0000 </r>
       <r>    0.1640    1.0000 </r>
       <r>    0.3170    1.0000 </r>
       <r>    0.8046    1.0000 </r>
       <r>    0.9339    1.0000 </r>
       <r>    1.2392    1.0000 </r>
       <r>    1.2605    1.0000 </r>
       <r>    1.5686    1.0000 </r>
       <r>    1.6148    1.0000 </r>
       <r>    1.9187    1.0000 </r>
       <r>    1.9904    1.0000 </r>
       <r>    2.2430    1.0000 </r>
       <r>    2.3251    1.0000 </r>
       <r>    2.4358    1.0000 </r>
       <r>    2.5258    1.0000 </r>
       <r>    2.8871    1.0000 </r>
       <r>    2.9189    1.0000 </r>
       <r>    3.2097    1.0000 </r>
       <r>    3.2940    1.0000 </r>
       <r>    3.4064    1.0000 </r>
       <r>    3.5190    1.0000 </r>
       <r>    3.7790    1.0000 </r>
       <r>    3.8518    1.0000 </r>
       <r>    4.1402    1.0000 </r>
       <r>    4.1471    1.0000 </r>
       <r>    4.3429    1.0000 </r>
       <r>    4.4101    1.0000 </r>
       <r>    4.5758    1.0000 </r>
       <r>    4.6592    1.0000 </r>
       <r>    4.7894    1.0000 </r>
       <r>    4.9579    1.0000 </r>
       <r>    5.2138    1.0000 </r>
       <r>    5.2354    1.0000 </r>
       <r>    5.3491    1.0000 </r>
       <r>    5.4372    1.0000 </r>
       <r>    5.5862    1.0000 </r>
       <r>    5.8304    1.0000 </r>
       <r>    5.9889    1.0000 </r>
       <r>    6.0419    1.0000 </r>
       <r>    6.2686    1.0000 </r>
       <r>    6.2729    1.0000 </r>
       <r>    6.6042    1.0000 </r>
       <r>    6.7188    1.0000 </r>
       <r>    7.0333    1.0000 </r>
       <r>    7.0757    1.0000 </r>
       <r>    7.6582    1.0000 </r>
       <r>    7.6710    1.0000 </r>
       <r>   11.2329    0.0000 </r>
       <r>   11.3141    0.0000 </r>
       <r>   11.5795    0.0000 </r>
       <r>   11.6376    0.0000 </r>
       <r>   11.8588    0.0000 </r>
       <r>   11.8679    0.0000 </r>
       <r>   12.3317    0.0000 </r>
       <r>   12.3357    0.0000 </r>
       <r>   12.6665    0.0000 </r>
       <r>   13.0043    0.0000 </r>
       <r>   13.1832    0.0000 </r>
       <r>   13.3454    0.0000 </r>
       <r>   13.4465    0.0000 </r>
       <r>   13.5120    0.0000 </r>
       <r>   13.7110    0.0000 </r>
       <r>   13.7723    0.0000 </r>
       <r>   13.9889    0.0000 </r>
       <r>   14.2374    0.0000 </r>
       <r>   14.4855    0.0000 </r>
       <r>   14.5995    0.0000 </r>
      </set>
      <set comment="kpoint 9">
       <r>   -8.6634    1.0000 </r>
       <r>   -8.5191    1.0000 </r>
       <r>   -8.2080    1.0000 </r>
       <r>   -7.9600    1.0000 </r>
       <r>   -7.5156    1.0000 </r>
       <r>   -7.4668    1.0000 </r>
       <r>   -7.2799    1.0000 </r>
       <r>   -6.9486    1.0000 </r>
       <r>   -4.9085    1.0000 </r>
       <r>   -4.5841    1.0000 </r>
       <r>   -4.4411    1.0000 </r>
       <r>   -3.1950    1.0000 </r>
       <r>   -3.0383    1.0000 </r>
       <r>   -2.9977    1.0000 </r>
       <r>   -2.7488    1.0000 </r>
       <r>   -2.4362    1.0000 </r>
       <r>   -0.8464    1.0000 </r>
       <r>   -0.4029    1.0000 </r>
       <r>    0.0003    1.0000 </r>
       <r>    0.1785    1.0000 </r>
       <r>    0.1933    1.0000 </r>
       <r>    1.0091    1.0000 </r>
       <r>    1.1078    1.0000 </r>
       <r>    1.1678    1.0000 </r>
       <r>    1.5972    1.0000 </r>
       <r>    1.8214    1.0000 </r>
       <r>    2.1060    1.0000 </r>
       <r>    2.1097    1.0000 </r>
       <r>    2.2098    1.0000 </r>
       <r>    2.5419    1.0000 </r>
       <r>    2.5530    1.0000 </r>
       <r>    2.7156    1.0000 </r>
       <r>    2.7718    1.0000 </r>
       <r>    3.1978    1.0000 </r>
       <r>    3.2049    1.0000 </r>
       <r>    3.2595    1.0000 </r>
       <r>    3.8369    1.0000 </r>
       <r>    3.9020    1.0000 </r>
       <r>    4.0892    1.0000 </r>
       <r>    4.2856    1.0000 </r>
       <r>    4.4276    1.0000 </r>
       <r>    4.4538    1.0000 </r>
       <r>    4.5557    1.0000 </r>
       <r>    4.6120    1.0000 </r>
       <r>    4.6632    1.0000 </r>
       <r>    4.7578    1.0000 </r>
       <r>    4.9789    1.0000 </r>
       <r>    5.0451    1.0000 </r>
       <r>    5.1092    1.0000 </r>
       <r>    5.1564    1.0000 </r>
       <r>    5.2712    1.0000 </r>
       <r>    5.4386    1.0000 </r>
       <r>    5.7840    1.0000 </r>
       <r>    5.9076    1.0000 </r>
       <r>    6.1567    1.0000 </r>
       <r>    6.4597    1.0000 </r>
       <r>    6.4820    1.0000 </r>
       <r>    6.5430    1.0000 </r>
       <r>    6.9752    1.0000 </r>
       <r>    7.0705    1.0000 </r>
       <r>    7.0909    1.0000 </r>
       <r>    7.1845    1.0000 </r>
       <r>    7.7054    1.0000 </r>
       <r>    7.7947    1.0000 </r>
       <r>   10.1554    0.0000 </r>
       <r>   10.4424    0.0000 </r>
       <r>   10.5901    0.0000 </r>
       <r>   10.7503    0.0000 </r>
       <r>   11.5832    0.0000 </r>
       <r>   11.5918    0.0000 </r>
       <r>   11.9710    0.0000 </r>
       <r>   12.0038    0.0000 </r>
       <r>   12.1755    0.0000 </r>
       <r>   12.2481    0.0000 </r>
       <r>   12.2877    0.0000 </r>
       <r>   12.4773    0.0000 </r>
       <r>   13.0389    0.0000 </r>
       <r>   13.2896    0.0000 </r>
       <r>   13.4260    0.0000 </r>
       <r>   13.8148    0.0000 </r>
       <r>   13.8811    0.0000 </r>
       <r>   14.0799    0.0000 </r>
       <r>   14.1352    0.0000 </r>
       <r>   14.3919    0.0000 </r>
      </set>
      <set comment="kpoint 10">
       <r>   -8.5936    1.0000 </r>
       <r>   -8.5936    1.0000 </r>
       <r>   -8.1041    1.0000 </r>
       <r>   -8.1041    1.0000 </r>
       <r>   -7.4914    1.0000 </r>
       <r>   -7.4914    1.0000 </r>
       <r>   -7.0943    1.0000 </r>
       <r>   -7.0943    1.0000 </r>
       <r>   -4.8532    1.0000 </r>
       <r>   -4.8532    1.0000 </r>
       <r>   -3.7391    1.0000 </r>
       <r>   -3.7391    1.0000 </r>
       <r>   -2.9095    1.0000 </r>
       <r>   -2.9095    1.0000 </r>
       <r>   -2.7777    1.0000 </r>
       <r>   -2.7777    1.0000 </r>
       <r>   -0.3889    1.0000 </r>
       <r>   -0.3889    1.0000 </r>
       <r>   -0.1562    1.0000 </r>
       <r>   -0.1562    1.0000 </r>
       <r>    0.7918    1.0000 </r>
       <r>    0.7918    1.0000 </r>
       <r>    1.3810    1.0000 </r>
       <r>    1.3810    1.0000 </r>
       <r>    1.5891    1.0000 </r>
       <r>    1.5891    1.0000 </r>
       <r>    1.6010    1.0000 </r>
       <r>    1.6010    1.0000 </r>
       <r>    2.4747    1.0000 </r>
       <r>    2.4747    1.0000 </r>
       <r>    2.8494    1.0000 </r>
       <r>    2.8494    1.0000 </r>
       <r>    3.2197    1.0000 </r>
       <r>    3.2197    1.0000 </r>
       <r>    3.4047    1.0000 </r>
       <r>    3.4047    1.0000 </r>
       <r>    3.6370    1.0000 </r>
       <r>    3.6370    1.0000 </r>
       <r>    4.0187    1.0000 </r>
       <r>    4.0187    1.0000 </r>
       <r>    4.2580    1.0000 </r>
       <r>    4.2580    1.0000 </r>
       <r>    4.4065    1.0000 </r>
       <r>    4.4065    1.0000 </r>
       <r>    4.7373    1.0000 </r>
       <r>    4.7373    1.0000 </r>
       <r>    4.8873    1.0000 </r>
       <r>    4.8873    1.0000 </r>
       <r>    5.2206    1.0000 </r>
       <r>    5.2206    1.0000 </r>
       <r>    5.5000    1.0000 </r>
       <r>    5.5000    1.0000 </r>
       <r>    6.0646    1.0000 </r>
       <r>    6.0646    1.0000 </r>
       <r>    6.3907    1.0000 </r>
       <r>    6.3907    1.0000 </r>
       <r>    6.5424    1.0000 </r>
       <r>    6.5424    1.0000 </r>
       <r>    7.0740    1.0000 </r>
       <r>    7.0740    1.0000 </r>
       <r>    7.0956    1.0000 </r>
       <r>    7.0956    1.0000 </r>
       <r>    7.7208    1.0000 </r>
       <r>    7.7208    1.0000 </r>
       <r>   10.2486    0.0000 </r>
       <r>   10.2486    0.0000 </r>
       <r>   10.5208    0.0000 </r>
       <r>   10.5208    0.0000 </r>
       <r>   11.4871    0.0000 </r>
       <r>   11.4871    0.0000 </r>
       <r>   11.7450    0.0000 </r>
       <r>   11.7450    0.0000 </r>
       <r>   12.1874    0.0000 </r>
       <r>   12.1874    0.0000 </r>
       <r>   12.3475    0.0000 </r>
       <r>   12.3478    0.0000 </r>
       <r>   13.2768    0.0000 </r>
       <r>   13.2773    0.0000 </r>
       <r>   13.5355    0.0000 </r>
       <r>   13.5367    0.0000 </r>
       <r>   14.2615    0.0000 </r>
       <r>   14.2904    0.0000 </r>
       <r>   14.7132    0.0000 </r>
       <r>   14.8298    0.0000 </r>
      </set>
      <set comment="kpoint 11">
       <r>   -8.4694    1.0000 </r>
       <r>   -8.3584    1.0000 </r>
       <r>   -8.1621    1.0000 </r>
       <r>   -8.0576    1.0000 </r>
       <r>   -7.7416    1.0000 </r>
       <r>   -7.6820    1.0000 </r>
       <r>   -7.1317    1.0000 </r>
       <r>   -6.9825    1.0000 </r>
       <r>   -5.0871    1.0000 </r>
       <r>   -4.9987    1.0000 </r>
       <r>   -4.1798    1.0000 </r>
       <r>   -3.5745    1.0000 </r>
       <r>   -3.0185    1.0000 </r>
       <r>   -2.9125    1.0000 </r>
       <r>   -2.6234    1.0000 </r>
       <r>   -2.5262    1.0000 </r>
       <r>   -0.0685    1.0000 </r>
       <r>    0.1629    1.0000 </r>
       <r>    0.2367    1.0000 </r>
       <r>    0.4414    1.0000 </r>
       <r>    0.7158    1.0000 </r>
       <r>    1.2715    1.0000 </r>
       <r>    1.3654    1.0000 </r>
       <r>    1.5565    1.0000 </r>
       <r>    1.7281    1.0000 </r>
       <r>    1.7495    1.0000 </r>
       <r>    1.8330    1.0000 </r>
       <r>    2.0093    1.0000 </r>
       <r>    2.0342    1.0000 </r>
       <r>    2.2114    1.0000 </r>
       <r>    2.5215    1.0000 </r>
       <r>    2.6283    1.0000 </r>
       <r>    2.8612    1.0000 </r>
       <r>    2.9917    1.0000 </r>
       <r>    3.0719    1.0000 </r>
       <r>    3.2606    1.0000 </r>
       <r>    3.4431    1.0000 </r>
       <r>    3.6895    1.0000 </r>
       <r>    3.7011    1.0000 </r>
       <r>    3.9808    1.0000 </r>
       <r>    4.0454    1.0000 </r>
       <r>    4.2253    1.0000 </r>
       <r>    4.4637    1.0000 </r>
       <r>    4.6572    1.0000 </r>
       <r>    4.6821    1.0000 </r>
       <r>    4.8130    1.0000 </r>
       <r>    4.9882    1.0000 </r>
       <r>    5.0891    1.0000 </r>
       <r>    5.1562    1.0000 </r>
       <r>    5.2869    1.0000 </r>
       <r>    5.3587    1.0000 </r>
       <r>    5.5258    1.0000 </r>
       <r>    5.6741    1.0000 </r>
       <r>    5.7102    1.0000 </r>
       <r>    5.7948    1.0000 </r>
       <r>    5.9696    1.0000 </r>
       <r>    6.0781    1.0000 </r>
       <r>    6.4010    1.0000 </r>
       <r>    6.4621    1.0000 </r>
       <r>    6.6509    1.0000 </r>
       <r>    6.9535    1.0000 </r>
       <r>    6.9996    1.0000 </r>
       <r>    7.3600    1.0000 </r>
       <r>    7.3641    1.0000 </r>
       <r>   10.8683    0.0000 </r>
       <r>   11.3053    0.0000 </r>
       <r>   11.3269    0.0000 </r>
       <r>   11.5992    0.0000 </r>
       <r>   12.1721    0.0000 </r>
       <r>   12.1730    0.0000 </r>
       <r>   12.4401    0.0000 </r>
       <r>   12.4587    0.0000 </r>
       <r>   12.7343    0.0000 </r>
       <r>   12.8137    0.0000 </r>
       <r>   12.9880    0.0000 </r>
       <r>   13.0981    0.0000 </r>
       <r>   13.2563    0.0000 </r>
       <r>   13.3047    0.0000 </r>
       <r>   13.4505    0.0000 </r>
       <r>   13.5485    0.0000 </r>
       <r>   13.9394    0.0000 </r>
       <r>   14.0012    0.0000 </r>
       <r>   14.2078    0.0000 </r>
       <r>   14.3362    0.0000 </r>
      </set>
      <set comment="kpoint 12">
       <r>   -8.4142    1.0000 </r>
       <r>   -8.4142    1.0000 </r>
       <r>   -8.1103    1.0000 </r>
       <r>   -8.1103    1.0000 </r>
       <r>   -7.7199    1.0000 </r>
       <r>   -7.7199    1.0000 </r>
       <r>   -7.0510    1.0000 </r>
       <r>   -7.0510    1.0000 </r>
       <r>   -5.0714    1.0000 </r>
       <r>   -5.0714    1.0000 </r>
       <r>   -3.7908    1.0000 </r>
       <r>   -3.7908    1.0000 </r>
       <r>   -2.9723    1.0000 </r>
       <r>   -2.9723    1.0000 </r>
       <r>   -2.6592    1.0000 </r>
       <r>   -2.6592    1.0000 </r>
       <r>   -0.0958    1.0000 </r>
       <r>   -0.0958    1.0000 </r>
       <r>    0.3820    1.0000 </r>
       <r>    0.3820    1.0000 </r>
       <r>    0.9833    1.0000 </r>
       <r>    0.9833    1.0000 </r>
       <r>    1.3270    1.0000 </r>
       <r>    1.3270    1.0000 </r>
       <r>    1.9962    1.0000 </r>
       <r>    1.9962    1.0000 </r>
       <r>    2.1193    1.0000 </r>
       <r>    2.1193    1.0000 </r>
       <r>    2.4812    1.0000 </r>
       <r>    2.4812    1.0000 </r>
       <r>    2.5676    1.0000 </r>
       <r>    2.5676    1.0000 </r>
       <r>    2.9581    1.0000 </r>
       <r>    2.9581    1.0000 </r>
       <r>    3.1744    1.0000 </r>
       <r>    3.1744    1.0000 </r>
       <r>    3.3241    1.0000 </r>
       <r>    3.3241    1.0000 </r>
       <r>    3.8529    1.0000 </r>
       <r>    3.8529    1.0000 </r>
       <r>    3.9961    1.0000 </r>
       <r>    3.9961    1.0000 </r>
       <r>    4.2258    1.0000 </r>
       <r>    4.2258    1.0000 </r>
       <r>    4.3642    1.0000 </r>
       <r>    4.3642    1.0000 </r>
       <r>    4.7107    1.0000 </r>
       <r>    4.7107    1.0000 </r>
       <r>    5.2615    1.0000 </r>
       <r>    5.2615    1.0000 </r>
       <r>    5.5158    1.0000 </r>
       <r>    5.5158    1.0000 </r>
       <r>    5.9774    1.0000 </r>
       <r>    5.9774    1.0000 </r>
       <r>    6.1335    1.0000 </r>
       <r>    6.1335    1.0000 </r>
       <r>    6.3885    1.0000 </r>
       <r>    6.3885    1.0000 </r>
       <r>    6.7414    1.0000 </r>
       <r>    6.7414    1.0000 </r>
       <r>    6.9711    1.0000 </r>
       <r>    6.9711    1.0000 </r>
       <r>    7.3675    1.0000 </r>
       <r>    7.3675    1.0000 </r>
       <r>   10.9942    0.0000 </r>
       <r>   10.9942    0.0000 </r>
       <r>   11.2633    0.0000 </r>
       <r>   11.2633    0.0000 </r>
       <r>   12.2306    0.0000 </r>
       <r>   12.2307    0.0000 </r>
       <r>   12.6096    0.0000 </r>
       <r>   12.6099    0.0000 </r>
       <r>   12.7855    0.0000 </r>
       <r>   12.7858    0.0000 </r>
       <r>   12.9937    0.0000 </r>
       <r>   12.9956    0.0000 </r>
       <r>   13.1735    0.0000 </r>
       <r>   13.1762    0.0000 </r>
       <r>   13.4591    0.0000 </r>
       <r>   13.4776    0.0000 </r>
       <r>   14.1256    0.0000 </r>
       <r>   14.1860    0.0000 </r>
       <r>   14.3566    0.0000 </r>
       <r>   14.5761    0.0000 </r>
      </set>
     </set>
    </set>
   </array>
  </eigenvalues>
  <separator name="orbital magnetization" >
   <v name="MAGDIPOLOUT">      0.00000000      0.00000000      0.00000000</v>
  </separator>
  <dos>
   <i name="efermi">      8.41260496 </i>
   <total>
    <array>
     <dimension dim="1">gridpoints</dimension>
     <dimension dim="2">spin</dimension>
     <field>energy</field>
     <field>total</field>
     <field>integrated</field>
     <set>
      <set comment="spin 1">
       <r>   -10.3337     0.0000     0.0000 </r>
       <r>   -10.2457     0.0000     0.0000 </r>
       <r>   -10.1577     0.0000     0.0000 </r>
       <r>   -10.0697     0.0000     0.0000 </r>
       <r>    -9.9817     0.0000     0.0000 </r>
       <r>    -9.8937     0.0000     0.0000 </r>
       <r>    -9.8057     0.0000     0.0000 </r>
       <r>    -9.7177     0.0000     0.0000 </r>
       <r>    -9.6297     0.0000     0.0000 </r>
       <r>    -9.5416     0.0000     0.0000 </r>
       <r>    -9.4536     0.0000     0.0000 </r>
       <r>    -9.3656     0.0005     0.0000 </r>
       <r>    -9.2776     0.0195     0.0018 </r>
       <r>    -9.1896     0.1981     0.0192 </r>
       <r>    -9.1016     0.6962     0.0805 </r>
       <r>    -9.0136     1.6253     0.2235 </r>
       <r>    -8.9256     3.1693     0.5024 </r>
       <r>    -8.8376     5.0536     0.9471 </r>
       <r>    -8.7496     6.6194     1.5297 </r>
       <r>    -8.6616     7.8468     2.2202 </r>
       <r>    -8.5736     7.3351     2.8658 </r>
       <r>    -8.4856     5.3784     3.3391 </r>
       <r>    -8.3976     4.2425     3.7124 </r>
       <r>    -8.3096     3.2377     3.9974 </r>
       <r>    -8.2216     4.7267     4.4133 </r>
       <r>    -8.1336    10.6761     5.3529 </r>
       <r>    -8.0456    11.9642     6.4058 </r>
       <r>    -7.9576     5.6384     6.9020 </r>
       <r>    -7.8696     2.2411     7.0992 </r>
       <r>    -7.7816     4.1455     7.4640 </r>
       <r>    -7.6936     6.4356     8.0304 </r>
       <r>    -7.6056     6.6703     8.6174 </r>
       <r>    -7.5176    11.7097     9.6479 </r>
       <r>    -7.4295    13.6858    10.8523 </r>
       <r>    -7.3415     6.8688    11.4568 </r>
       <r>    -7.2535     7.3899    12.1071 </r>
       <r>    -7.1655    12.5940    13.2155 </r>
       <r>    -7.0775    14.7928    14.5173 </r>
       <r>    -6.9895    11.4151    15.5219 </r>
       <r>    -6.9015     4.5706    15.9241 </r>
       <r>    -6.8135     0.8074    15.9952 </r>
       <r>    -6.7255     0.0537    15.9999 </r>
       <r>    -6.6375     0.0011    16.0000 </r>
       <r>    -6.5495     0.0000    16.0000 </r>
       <r>    -6.4615     0.0000    16.0000 </r>
       <r>    -6.3735     0.0000    16.0000 </r>
       <r>    -6.2855     0.0000    16.0000 </r>
       <r>    -6.1975     0.0000    16.0000 </r>
       <r>    -6.1095     0.0000    16.0000 </r>
       <r>    -6.0215     0.0000    16.0000 </r>
       <r>    -5.9335     0.0000    16.0000 </r>
       <r>    -5.8455     0.0000    16.0000 </r>
       <r>    -5.7575     0.0000    16.0000 </r>
       <r>    -5.6695     0.0000    16.0000 </r>
       <r>    -5.5815     0.0000    16.0000 </r>
       <r>    -5.4935     0.0000    16.0000 </r>
       <r>    -5.4054     0.0000    16.0000 </r>
       <r>    -5.3174     0.0020    16.0002 </r>
       <r>    -5.2294     0.0890    16.0080 </r>
       <r>    -5.1414     0.9798    16.0942 </r>
       <r>    -5.0534     2.9622    16.3549 </r>
       <r>    -4.9654     3.5390    16.6664 </r>
       <r>    -4.8774     5.6223    17.1612 </r>
       <r>    -4.7894     8.6997    17.9268 </r>
       <r>    -4.7014     7.0434    18.5466 </r>
       <r>    -4.6134     5.5086    19.0314 </r>
       <r>    -4.5254     6.3646    19.5915 </r>
       <r>    -4.4374     4.1865    19.9599 </r>
       <r>    -4.3494     1.3376    20.0777 </r>
       <r>    -4.2614     0.9470    20.1610 </r>
       <r>    -4.1734     2.1240    20.3479 </r>
       <r>    -4.0854     2.9239    20.6052 </r>
       <r>    -3.9974     2.7316    20.8456 </r>
       <r>    -3.9094     1.7920    21.0033 </r>
       <r>    -3.8214     2.9161    21.2599 </r>
       <r>    -3.7334     5.7428    21.7653 </r>
       <r>    -3.6454     6.5503    22.3418 </r>
       <r>    -3.5574     8.0837    23.0532 </r>
       <r>    -3.4694     5.5363    23.5404 </r>
       <r>    -3.3813     1.3476    23.6590 </r>
       <r>    -3.2933     0.3538    23.6901 </r>
       <r>    -3.2053     1.9770    23.8641 </r>
       <r>    -3.1173     5.6579    24.3620 </r>
       <r>    -3.0293     9.9665    25.2391 </r>
       <r>    -2.9413    12.7228    26.3588 </r>
       <r>    -2.8533    11.8618    27.4027 </r>
       <r>    -2.7653     9.6235    28.2496 </r>
       <r>    -2.6773     7.1433    28.8782 </r>
       <r>    -2.5893     8.5497    29.6306 </r>
       <r>    -2.5013    12.1506    30.7000 </r>
       <r>    -2.4133     9.6239    31.5469 </r>
       <r>    -2.3253     4.1048    31.9081 </r>
       <r>    -2.2373     0.9585    31.9925 </r>
       <r>    -2.1493     0.0834    31.9998 </r>
       <r>    -2.0613     0.0020    32.0000 </r>
       <r>    -1.9733     0.0000    32.0000 </r>
       <r>    -1.8853     0.0000    32.0000 </r>
       <r>    -1.7973     0.0000    32.0000 </r>
       <r>    -1.7093     0.0000    32.0000 </r>
       <r>    -1.6213     0.0000    32.0000 </r>
       <r>    -1.5333     0.0000    32.0000 </r>
       <r>    -1.4453     0.0000    32.0000 </r>
       <r>    -1.3572     0.0000    32.0000 </r>
       <r>    -1.2692     0.0000    32.0000 </r>
       <r>    -1.1812     0.0000    32.0000 </r>
       <r>    -1.0932     0.0002    32.0000 </r>
       <r>    -1.0052     0.0115    32.0010 </r>
       <r>    -0.9172     0.1392    32.0133 </r>
       <r>    -0.8292     0.4469    32.0526 </r>
       <r>    -0.7412     0.6175    32.1070 </r>
       <r>    -0.6532     1.0245    32.1971 </r>
       <r>    -0.5652     1.4629    32.3259 </r>
       <r>    -0.4772     2.0912    32.5099 </r>
       <r>    -0.3892     3.4918    32.8172 </r>
       <r>    -0.3012     4.8207    33.2414 </r>
       <r>    -0.2132     7.5965    33.9100 </r>
       <r>    -0.1252    11.1866    34.8944 </r>
       <r>    -0.0372    12.1668    35.9652 </r>
       <r>     0.0508    10.0655    36.8510 </r>
       <r>     0.1388     8.6690    37.6139 </r>
       <r>     0.2268     6.9106    38.2220 </r>
       <r>     0.3148     6.3506    38.7809 </r>
       <r>     0.4028     8.6260    39.5400 </r>
       <r>     0.4908     8.3652    40.2762 </r>
       <r>     0.5788     6.9917    40.8915 </r>
       <r>     0.6669     6.2582    41.4423 </r>
       <r>     0.7549     6.0666    41.9762 </r>
       <r>     0.8429     6.2051    42.5222 </r>
       <r>     0.9309     7.2029    43.1561 </r>
       <r>     1.0189     8.6448    43.9169 </r>
       <r>     1.1069     9.2058    44.7271 </r>
       <r>     1.1949    11.1732    45.7103 </r>
       <r>     1.2829    13.0535    46.8591 </r>
       <r>     1.3709    12.8444    47.9895 </r>
       <r>     1.4589    11.1604    48.9716 </r>
       <r>     1.5469    12.2381    50.0486 </r>
       <r>     1.6349    13.6984    51.2542 </r>
       <r>     1.7229     8.6830    52.0183 </r>
       <r>     1.8109     6.0294    52.5489 </r>
       <r>     1.8989     9.2970    53.3671 </r>
       <r>     1.9869    13.9625    54.5959 </r>
       <r>     2.0749    12.5578    55.7010 </r>
       <r>     2.1629    10.1466    56.5939 </r>
       <r>     2.2509    11.0815    57.5692 </r>
       <r>     2.3389     9.7827    58.4301 </r>
       <r>     2.4269    10.5929    59.3623 </r>
       <r>     2.5149    16.1927    60.7873 </r>
       <r>     2.6029    16.1008    62.2043 </r>
       <r>     2.6909    13.6977    63.4097 </r>
       <r>     2.7790    12.4825    64.5082 </r>
       <r>     2.8670    11.3506    65.5071 </r>
       <r>     2.9550    11.9343    66.5574 </r>
       <r>     3.0430    11.0352    67.5286 </r>
       <r>     3.1310    10.5842    68.4600 </r>
       <r>     3.2190    12.8512    69.5910 </r>
       <r>     3.3070    15.2821    70.9359 </r>
       <r>     3.3950    13.9919    72.1672 </r>
       <r>     3.4830    13.7986    73.3816 </r>
       <r>     3.5710    13.6554    74.5833 </r>
       <r>     3.6590    10.9821    75.5498 </r>
       <r>     3.7470     9.3820    76.3754 </r>
       <r>     3.8350    10.4520    77.2952 </r>
       <r>     3.9230    11.7352    78.3280 </r>
       <r>     4.0110    14.1691    79.5749 </r>
       <r>     4.0990    16.5240    81.0291 </r>
       <r>     4.1870    16.2167    82.4563 </r>
       <r>     4.2750    14.2494    83.7103 </r>
       <r>     4.3630    14.7965    85.0124 </r>
       <r>     4.4510    14.8713    86.3212 </r>
       <r>     4.5390    13.6871    87.5257 </r>
       <r>     4.6270    15.7970    88.9159 </r>
       <r>     4.7150    17.0367    90.4152 </r>
       <r>     4.8031    15.2747    91.7594 </r>
       <r>     4.8911    14.6370    93.0475 </r>
       <r>     4.9791    16.5000    94.4996 </r>
       <r>     5.0671    14.8053    95.8025 </r>
       <r>     5.1551    12.6433    96.9152 </r>
       <r>     5.2431    15.6758    98.2947 </r>
       <r>     5.3311    16.0019    99.7030 </r>
       <r>     5.4191    14.0685   100.9411 </r>
       <r>     5.5071    15.5853   102.3126 </r>
       <r>     5.5951    16.3377   103.7504 </r>
       <r>     5.6831    12.1206   104.8171 </r>
       <r>     5.7711     9.2317   105.6295 </r>
       <r>     5.8591    12.5650   106.7353 </r>
       <r>     5.9471    16.4265   108.1809 </r>
       <r>     6.0351    18.5049   109.8094 </r>
       <r>     6.1231    17.7796   111.3741 </r>
       <r>     6.2111    14.6192   112.6606 </r>
       <r>     6.2991    13.7928   113.8745 </r>
       <r>     6.3871    12.3919   114.9650 </r>
       <r>     6.4751     9.4867   115.7999 </r>
       <r>     6.5631     7.0820   116.4231 </r>
       <r>     6.6511     8.0729   117.1336 </r>
       <r>     6.7391    10.3912   118.0480 </r>
       <r>     6.8272     9.3103   118.8674 </r>
       <r>     6.9152     8.1832   119.5875 </r>
       <r>     7.0032    12.0101   120.6445 </r>
       <r>     7.0912    15.8847   122.0424 </r>
       <r>     7.1792    11.5879   123.0622 </r>
       <r>     7.2672     6.0003   123.5902 </r>
       <r>     7.3552     4.1257   123.9533 </r>
       <r>     7.4432     3.3155   124.2451 </r>
       <r>     7.5312     1.4551   124.3731 </r>
       <r>     7.6192     4.7670   124.7927 </r>
       <r>     7.7072    12.8861   125.9267 </r>
       <r>     7.7952    12.9385   127.0653 </r>
       <r>     7.8832     7.0552   127.6862 </r>
       <r>     7.9712     2.7951   127.9322 </r>
       <r>     8.0592     0.6879   127.9927 </r>
       <r>     8.1472     0.0794   127.9997 </r>
       <r>     8.2352     0.0031   128.0000 </r>
       <r>     8.3232     0.0000   128.0000 </r>
       <r>     8.4112     0.0000   128.0000 </r>
       <r>     8.4992     0.0000   128.0000 </r>
       <r>     8.5872     0.0000   128.0000 </r>
       <r>     8.6752     0.0000   128.0000 </r>
       <r>     8.7632     0.0000   128.0000 </r>
       <r>     8.8513     0.0000   128.0000 </r>
       <r>     8.9393     0.0000   128.0000 </r>
       <r>     9.0273     0.0000   128.0000 </r>
       <r>     9.1153     0.0000   128.0000 </r>
       <r>     9.2033     0.0000   128.0000 </r>
       <r>     9.2913     0.0000   128.0000 </r>
       <r>     9.3793     0.0000   128.0000 </r>
       <r>     9.4673     0.0000   128.0000 </r>
       <r>     9.5553     0.0000   128.0000 </r>
       <r>     9.6433     0.0000   128.0000 </r>
       <r>     9.7313     0.0000   128.0000 </r>
       <r>     9.8193     0.0000   128.0000 </r>
       <r>     9.9073     0.0002   128.0000 </r>
       <r>     9.9953     0.0113   128.0010 </r>
       <r>    10.0833     0.1528   128.0145 </r>
       <r>    10.1713     0.6537   128.0720 </r>
       <r>    10.2593     1.1285   128.1713 </r>
       <r>    10.3473     0.8625   128.2472 </r>
       <r>    10.4353     1.0697   128.3414 </r>
       <r>    10.5233     2.7421   128.5827 </r>
       <r>    10.6113     3.6084   128.9002 </r>
       <r>    10.6993     3.6876   129.2248 </r>
       <r>    10.7873     3.9692   129.5741 </r>
       <r>    10.8754     3.8396   129.9120 </r>
       <r>    10.9634     3.4318   130.2140 </r>
       <r>    11.0514     4.7483   130.6319 </r>
       <r>    11.1394     6.1918   131.1768 </r>
       <r>    11.2274     9.3203   131.9970 </r>
       <r>    11.3154    12.8717   133.1297 </r>
       <r>    11.4034    10.0019   134.0100 </r>
       <r>    11.4914     7.7776   134.6944 </r>
       <r>    11.5794     9.9179   135.5672 </r>
       <r>    11.6674    11.0571   136.5403 </r>
       <r>    11.7554     7.2154   137.1753 </r>
       <r>    11.8434     5.6783   137.6750 </r>
       <r>    11.9314     8.7927   138.4488 </r>
       <r>    12.0194     8.8795   139.2302 </r>
       <r>    12.1074     7.0947   139.8546 </r>
       <r>    12.1954    10.4319   140.7726 </r>
       <r>    12.2834    14.0085   142.0055 </r>
       <r>    12.3714    13.1542   143.1631 </r>
       <r>    12.4594     9.4054   143.9908 </r>
       <r>    12.5474     8.8623   144.7707 </r>
       <r>    12.6354    10.0707   145.6570 </r>
       <r>    12.7234    12.2360   146.7338 </r>
       <r>    12.8114    13.5919   147.9299 </r>
       <r>    12.8994     8.8157   148.7058 </r>
       <r>    12.9875     8.8016   149.4804 </r>
       <r>    13.0755    10.8572   150.4358 </r>
       <r>    13.1635    11.4235   151.4412 </r>
       <r>    13.2515    13.3038   152.6119 </r>
       <r>    13.3395    12.0868   153.6756 </r>
       <r>    13.4275    12.3449   154.7620 </r>
       <r>    13.5155    14.7967   156.0642 </r>
       <r>    13.6035    11.7040   157.0942 </r>
       <r>    13.6915     8.4110   157.8344 </r>
       <r>    13.7795     8.5916   158.5905 </r>
       <r>    13.8675     6.6968   159.1799 </r>
       <r>    13.9555     5.8148   159.6916 </r>
       <r>    14.0435     6.4226   160.2568 </r>
       <r>    14.1315     8.0403   160.9644 </r>
       <r>    14.2195    10.2849   161.8695 </r>
       <r>    14.3075    10.3274   162.7784 </r>
       <r>    14.3955    10.5907   163.7104 </r>
       <r>    14.4835    10.7755   164.6587 </r>
       <r>    14.5715    10.7002   165.6003 </r>
       <r>    14.6595    10.8571   166.5558 </r>
       <r>    14.7475     7.7709   167.2397 </r>
       <r>    14.8355     4.7700   167.6595 </r>
       <r>    14.9235     2.9014   167.9148 </r>
       <r>    15.0116     0.8828   167.9925 </r>
       <r>    15.0996     0.0833   167.9998 </r>
       <r>    15.1876     0.0020   168.0000 </r>
       <r>    15.2756     0.0000   168.0000 </r>
       <r>    15.3636     0.0000   168.0000 </r>
       <r>    15.4516     0.0000   168.0000 </r>
       <r>    15.5396     0.0000   168.0000 </r>
       <r>    15.6276     0.0000   168.0000 </r>
       <r>    15.7156     0.0000   168.0000 </r>
       <r>    15.8036     0.0000   168.0000 </r>
       <r>    15.8916     0.0000   168.0000 </r>
       <r>    15.9796     0.0000   168.0000 </r>
       <r>    16.0676     0.0000   168.0000 </r>
      </set>
     </set>
    </array>
   </total>
  </dos>
 </calculation>
 <structure name="finalpos" >
  <crystal>
   <varray name="basis" >
    <v>      10.11823539       0.00000000       0.00100687 </v>
    <v>       0.00000000       6.24835055       0.00000000 </v>
    <v>       0.00056416       0.00000000       5.38825441 </v>
   </varray>
   <i name="volume">    340.65773414 </i>
   <varray name="rec_basis" >
    <v>       0.09883146       0.00000000      -0.00001035 </v>
    <v>       0.00000000       0.16004224       0.00000000 </v>
    <v>      -0.00001847       0.00000000       0.18558886 </v>
   </varray>
  </crystal>
  <varray name="positions" >
   <v>       0.25652370       0.50000000       0.83469324 </v>
   <v>       0.49010699       0.00000000       0.17171624 </v>
   <v>       0.49677451       0.24984898       0.66662639 </v>
   <v>       0.99677451       0.25015102       0.66662639 </v>
   <v>       0.75652370       0.00000000       0.83469324 </v>
   <v>       0.99010699       0.50000000       0.17171624 </v>
   <v>       0.99677451       0.74984898       0.66662639 </v>
   <v>       0.49677451       0.75015102       0.66662639 </v>
   <v>       0.25304232       0.74482940       0.33386041 </v>
   <v>       0.25682013       0.00000000       0.82866376 </v>
   <v>       0.25304232       0.25517060       0.33386041 </v>
   <v>       0.99953463       0.00000000       0.16203052 </v>
   <v>       0.75304232       0.24482940       0.33386041 </v>
   <v>       0.75682013       0.50000000       0.82866376 </v>
   <v>       0.75304232       0.75517060       0.33386041 </v>
   <v>       0.49953463       0.50000000       0.16203052 </v>
   <v>       0.06576580       0.50000000       0.84055341 </v>
   <v>       0.31220742       0.00000000       0.17154230 </v>
   <v>       0.31760962       0.26404267       0.67276554 </v>
   <v>       0.81760962       0.23595733       0.67276554 </v>
   <v>       0.56576580       0.00000000       0.84055341 </v>
   <v>       0.81220742       0.50000000       0.17154230 </v>
   <v>       0.81760962       0.76404267       0.67276554 </v>
   <v>       0.31760962       0.73595733       0.67276554 </v>
   <v>       0.55647938       0.23882946       0.34009628 </v>
   <v>       0.06035826       0.00000000       0.81167392 </v>
   <v>       0.05647938       0.26117054       0.34009628 </v>
   <v>       0.31087140       0.50000000       0.15242939 </v>
   <v>       0.05647938       0.73882946       0.34009628 </v>
   <v>       0.56035826       0.50000000       0.81167392 </v>
   <v>       0.55647938       0.76117054       0.34009628 </v>
   <v>       0.81087140       0.00000000       0.15242939 </v>
  </varray>
 </structure>
</modeling>
