<?xml version="1.0" encoding="ISO-8859-1"?>
<modeling>
 <generator>
  <i name="program" type="string">vasp </i>
  <i name="version" type="string">5.3.5  </i>
  <i name="subversion" type="string">31Mar14 (build Jun 20 2014 13:15:13) complex                          parallel </i>
  <i name="platform" type="string">LinuxIFC </i>
  <i name="date" type="string">2025 11 28 </i>
  <i name="time" type="string">12:18:46 </i>
 </generator>
 <incar>
  <i type="string" name="PREC">accurate</i>
  <i type="int" name="IALGO">    68</i>
  <i type="logical" name="ADDGRID"> T  </i>
  <i type="int" name="NELM">   200</i>
  <i type="int" name="NELMIN">     4</i>
  <i type="int" name="IBRION">     2</i>
  <i name="EDIFF">      0.00000100</i>
  <i name="EDIFFG">     -0.02000000</i>
  <i type="int" name="NSW">    30</i>
  <i type="int" name="ISIF">     3</i>
  <i name="ENCUT">    500.00000000</i>
  <i type="logical" name="LREAL"> F  </i>
  <i type="int" name="ISMEAR">     1</i>
  <i name="SIGMA">      0.30000000</i>
  <i type="logical" name="LWAVE"> F  </i>
  <i type="logical" name="LCHARG"> F  </i>
  <i type="int" name="NELM">   200</i>
 </incar>
 <kpoints>
  <generation param="Auto">
   <i name="subdivisionlength">     70.00000000 </i>
   <v type="int" name="divisions">      24       24        6 </v>
   <v name="usershift">      0.00000000       0.00000000       0.00000000 </v>
   <v name="genvec1">      0.04166667       0.00000000       0.00000000 </v>
   <v name="genvec2">      0.00000000       0.04166667       0.00000000 </v>
   <v name="genvec3">      0.00000000       0.00000000       0.16666667 </v>
   <v name="shift">      0.00000000       0.00000000       0.00000000 </v>
  </generation>
  <varray name="kpointlist" >
   <v>       0.00000000       0.00000000       0.00000000 </v>
   <v>       0.04166667       0.00000000       0.00000000 </v>
   <v>       0.08333333       0.00000000       0.00000000 </v>
   <v>       0.12500000       0.00000000       0.00000000 </v>
   <v>       0.16666667       0.00000000       0.00000000 </v>
   <v>       0.20833333       0.00000000       0.00000000 </v>
   <v>       0.25000000       0.00000000       0.00000000 </v>
   <v>       0.29166667       0.00000000       0.00000000 </v>
   <v>       0.33333333       0.00000000       0.00000000 </v>
   <v>       0.37500000       0.00000000       0.00000000 </v>
   <v>       0.41666667       0.00000000       0.00000000 </v>
   <v>       0.45833333       0.00000000       0.00000000 </v>
   <v>       0.50000000       0.00000000       0.00000000 </v>
   <v>       0.04166667       0.04166667       0.00000000 </v>
   <v>       0.08333333       0.04166667       0.00000000 </v>
   <v>       0.12500000       0.04166667       0.00000000 </v>
   <v>       0.16666667       0.04166667       0.00000000 </v>
   <v>       0.20833333       0.04166667       0.00000000 </v>
   <v>       0.25000000       0.04166667       0.00000000 </v>
   <v>       0.29166667       0.04166667       0.00000000 </v>
   <v>       0.33333333       0.04166667       0.00000000 </v>
   <v>       0.37500000       0.04166667       0.00000000 </v>
   <v>       0.41666667       0.04166667       0.00000000 </v>
   <v>       0.45833333       0.04166667       0.00000000 </v>
   <v>       0.50000000       0.04166667       0.00000000 </v>
   <v>       0.08333333       0.08333333       0.00000000 </v>
   <v>       0.12500000       0.08333333       0.00000000 </v>
   <v>       0.16666667       0.08333333       0.00000000 </v>
   <v>       0.20833333       0.08333333       0.00000000 </v>
   <v>       0.25000000       0.08333333       0.00000000 </v>
   <v>       0.29166667       0.08333333       0.00000000 </v>
   <v>       0.33333333       0.08333333       0.00000000 </v>
   <v>       0.37500000       0.08333333       0.00000000 </v>
   <v>       0.41666667       0.08333333       0.00000000 </v>
   <v>       0.45833333       0.08333333       0.00000000 </v>
   <v>       0.50000000       0.08333333       0.00000000 </v>
   <v>       0.12500000       0.12500000       0.00000000 </v>
   <v>       0.16666667       0.12500000       0.00000000 </v>
   <v>       0.20833333       0.12500000       0.00000000 </v>
   <v>       0.25000000       0.12500000       0.00000000 </v>
   <v>       0.29166667       0.12500000       0.00000000 </v>
   <v>       0.33333333       0.12500000       0.00000000 </v>
   <v>       0.37500000       0.12500000       0.00000000 </v>
   <v>       0.41666667       0.12500000       0.00000000 </v>
   <v>       0.45833333       0.12500000       0.00000000 </v>
   <v>       0.50000000       0.12500000       0.00000000 </v>
   <v>       0.16666667       0.16666667       0.00000000 </v>
   <v>       0.20833333       0.16666667       0.00000000 </v>
   <v>       0.25000000       0.16666667       0.00000000 </v>
   <v>       0.29166667       0.16666667       0.00000000 </v>
   <v>       0.33333333       0.16666667       0.00000000 </v>
   <v>       0.37500000       0.16666667       0.00000000 </v>
   <v>       0.41666667       0.16666667       0.00000000 </v>
   <v>       0.45833333       0.16666667       0.00000000 </v>
   <v>       0.50000000       0.16666667       0.00000000 </v>
   <v>       0.20833333       0.20833333       0.00000000 </v>
   <v>       0.25000000       0.20833333       0.00000000 </v>
   <v>       0.29166667       0.20833333       0.00000000 </v>
   <v>       0.33333333       0.20833333       0.00000000 </v>
   <v>       0.37500000       0.20833333       0.00000000 </v>
   <v>       0.41666667       0.20833333       0.00000000 </v>
   <v>       0.45833333       0.20833333       0.00000000 </v>
   <v>       0.50000000       0.20833333       0.00000000 </v>
   <v>       0.25000000       0.25000000       0.00000000 </v>
   <v>       0.29166667       0.25000000       0.00000000 </v>
   <v>       0.33333333       0.25000000       0.00000000 </v>
   <v>       0.37500000       0.25000000       0.00000000 </v>
   <v>       0.41666667       0.25000000       0.00000000 </v>
   <v>       0.45833333       0.25000000       0.00000000 </v>
   <v>       0.50000000       0.25000000       0.00000000 </v>
   <v>       0.29166667       0.29166667       0.00000000 </v>
   <v>       0.33333333       0.29166667       0.00000000 </v>
   <v>       0.37500000       0.29166667       0.00000000 </v>
   <v>       0.41666667       0.29166667       0.00000000 </v>
   <v>       0.45833333       0.29166667       0.00000000 </v>
   <v>       0.50000000       0.29166667       0.00000000 </v>
   <v>       0.33333333       0.33333333       0.00000000 </v>
   <v>       0.37500000       0.33333333       0.00000000 </v>
   <v>       0.41666667       0.33333333       0.00000000 </v>
   <v>       0.45833333       0.33333333       0.00000000 </v>
   <v>       0.50000000       0.33333333       0.00000000 </v>
   <v>       0.37500000       0.37500000       0.00000000 </v>
   <v>       0.41666667       0.37500000       0.00000000 </v>
   <v>       0.45833333       0.37500000       0.00000000 </v>
   <v>       0.50000000       0.37500000       0.00000000 </v>
   <v>       0.41666667       0.41666667       0.00000000 </v>
   <v>       0.45833333       0.41666667       0.00000000 </v>
   <v>       0.50000000       0.41666667       0.00000000 </v>
   <v>       0.45833333       0.45833333       0.00000000 </v>
   <v>       0.50000000       0.45833333       0.00000000 </v>
   <v>       0.50000000       0.50000000       0.00000000 </v>
   <v>       0.00000000       0.00000000       0.16666667 </v>
   <v>       0.04166667       0.00000000       0.16666667 </v>
   <v>       0.08333333       0.00000000       0.16666667 </v>
   <v>       0.12500000       0.00000000       0.16666667 </v>
   <v>       0.16666667       0.00000000       0.16666667 </v>
   <v>       0.20833333       0.00000000       0.16666667 </v>
   <v>       0.25000000       0.00000000       0.16666667 </v>
   <v>       0.29166667       0.00000000       0.16666667 </v>
   <v>       0.33333333       0.00000000       0.16666667 </v>
   <v>       0.37500000       0.00000000       0.16666667 </v>
   <v>       0.41666667       0.00000000       0.16666667 </v>
   <v>       0.45833333       0.00000000       0.16666667 </v>
   <v>       0.50000000       0.00000000       0.16666667 </v>
   <v>       0.04166667       0.04166667       0.16666667 </v>
   <v>       0.08333333       0.04166667       0.16666667 </v>
   <v>       0.12500000       0.04166667       0.16666667 </v>
   <v>       0.16666667       0.04166667       0.16666667 </v>
   <v>       0.20833333       0.04166667       0.16666667 </v>
   <v>       0.25000000       0.04166667       0.16666667 </v>
   <v>       0.29166667       0.04166667       0.16666667 </v>
   <v>       0.33333333       0.04166667       0.16666667 </v>
   <v>       0.37500000       0.04166667       0.16666667 </v>
   <v>       0.41666667       0.04166667       0.16666667 </v>
   <v>       0.45833333       0.04166667       0.16666667 </v>
   <v>       0.50000000       0.04166667       0.16666667 </v>
   <v>       0.08333333       0.08333333       0.16666667 </v>
   <v>       0.12500000       0.08333333       0.16666667 </v>
   <v>       0.16666667       0.08333333       0.16666667 </v>
   <v>       0.20833333       0.08333333       0.16666667 </v>
   <v>       0.25000000       0.08333333       0.16666667 </v>
   <v>       0.29166667       0.08333333       0.16666667 </v>
   <v>       0.33333333       0.08333333       0.16666667 </v>
   <v>       0.37500000       0.08333333       0.16666667 </v>
   <v>       0.41666667       0.08333333       0.16666667 </v>
   <v>       0.45833333       0.08333333       0.16666667 </v>
   <v>       0.50000000       0.08333333       0.16666667 </v>
   <v>       0.12500000       0.12500000       0.16666667 </v>
   <v>       0.16666667       0.12500000       0.16666667 </v>
   <v>       0.20833333       0.12500000       0.16666667 </v>
   <v>       0.25000000       0.12500000       0.16666667 </v>
   <v>       0.29166667       0.12500000       0.16666667 </v>
   <v>       0.33333333       0.12500000       0.16666667 </v>
   <v>       0.37500000       0.12500000       0.16666667 </v>
   <v>       0.41666667       0.12500000       0.16666667 </v>
   <v>       0.45833333       0.12500000       0.16666667 </v>
   <v>       0.50000000       0.12500000       0.16666667 </v>
   <v>       0.16666667       0.16666667       0.16666667 </v>
   <v>       0.20833333       0.16666667       0.16666667 </v>
   <v>       0.25000000       0.16666667       0.16666667 </v>
   <v>       0.29166667       0.16666667       0.16666667 </v>
   <v>       0.33333333       0.16666667       0.16666667 </v>
   <v>       0.37500000       0.16666667       0.16666667 </v>
   <v>       0.41666667       0.16666667       0.16666667 </v>
   <v>       0.45833333       0.16666667       0.16666667 </v>
   <v>       0.50000000       0.16666667       0.16666667 </v>
   <v>       0.20833333       0.20833333       0.16666667 </v>
   <v>       0.25000000       0.20833333       0.16666667 </v>
   <v>       0.29166667       0.20833333       0.16666667 </v>
   <v>       0.33333333       0.20833333       0.16666667 </v>
   <v>       0.37500000       0.20833333       0.16666667 </v>
   <v>       0.41666667       0.20833333       0.16666667 </v>
   <v>       0.45833333       0.20833333       0.16666667 </v>
   <v>       0.50000000       0.20833333       0.16666667 </v>
   <v>       0.25000000       0.25000000       0.16666667 </v>
   <v>       0.29166667       0.25000000       0.16666667 </v>
   <v>       0.33333333       0.25000000       0.16666667 </v>
   <v>       0.37500000       0.25000000       0.16666667 </v>
   <v>       0.41666667       0.25000000       0.16666667 </v>
   <v>       0.45833333       0.25000000       0.16666667 </v>
   <v>       0.50000000       0.25000000       0.16666667 </v>
   <v>       0.29166667       0.29166667       0.16666667 </v>
   <v>       0.33333333       0.29166667       0.16666667 </v>
   <v>       0.37500000       0.29166667       0.16666667 </v>
   <v>       0.41666667       0.29166667       0.16666667 </v>
   <v>       0.45833333       0.29166667       0.16666667 </v>
   <v>       0.50000000       0.29166667       0.16666667 </v>
   <v>       0.33333333       0.33333333       0.16666667 </v>
   <v>       0.37500000       0.33333333       0.16666667 </v>
   <v>       0.41666667       0.33333333       0.16666667 </v>
   <v>       0.45833333       0.33333333       0.16666667 </v>
   <v>       0.50000000       0.33333333       0.16666667 </v>
   <v>       0.37500000       0.37500000       0.16666667 </v>
   <v>       0.41666667       0.37500000       0.16666667 </v>
   <v>       0.45833333       0.37500000       0.16666667 </v>
   <v>       0.50000000       0.37500000       0.16666667 </v>
   <v>       0.41666667       0.41666667       0.16666667 </v>
   <v>       0.45833333       0.41666667       0.16666667 </v>
   <v>       0.50000000       0.41666667       0.16666667 </v>
   <v>       0.45833333       0.45833333       0.16666667 </v>
   <v>       0.50000000       0.45833333       0.16666667 </v>
   <v>       0.50000000       0.50000000       0.16666667 </v>
   <v>       0.00000000       0.00000000       0.33333333 </v>
   <v>       0.04166667       0.00000000       0.33333333 </v>
   <v>       0.08333333       0.00000000       0.33333333 </v>
   <v>       0.12500000       0.00000000       0.33333333 </v>
   <v>       0.16666667       0.00000000       0.33333333 </v>
   <v>       0.20833333       0.00000000       0.33333333 </v>
   <v>       0.25000000       0.00000000       0.33333333 </v>
   <v>       0.29166667       0.00000000       0.33333333 </v>
   <v>       0.33333333       0.00000000       0.33333333 </v>
   <v>       0.37500000       0.00000000       0.33333333 </v>
   <v>       0.41666667       0.00000000       0.33333333 </v>
   <v>       0.45833333       0.00000000       0.33333333 </v>
   <v>       0.50000000       0.00000000       0.33333333 </v>
   <v>       0.04166667       0.04166667       0.33333333 </v>
   <v>       0.08333333       0.04166667       0.33333333 </v>
   <v>       0.12500000       0.04166667       0.33333333 </v>
   <v>       0.16666667       0.04166667       0.33333333 </v>
   <v>       0.20833333       0.04166667       0.33333333 </v>
   <v>       0.25000000       0.04166667       0.33333333 </v>
   <v>       0.29166667       0.04166667       0.33333333 </v>
   <v>       0.33333333       0.04166667       0.33333333 </v>
   <v>       0.37500000       0.04166667       0.33333333 </v>
   <v>       0.41666667       0.04166667       0.33333333 </v>
   <v>       0.45833333       0.04166667       0.33333333 </v>
   <v>       0.50000000       0.04166667       0.33333333 </v>
   <v>       0.08333333       0.08333333       0.33333333 </v>
   <v>       0.12500000       0.08333333       0.33333333 </v>
   <v>       0.16666667       0.08333333       0.33333333 </v>
   <v>       0.20833333       0.08333333       0.33333333 </v>
   <v>       0.25000000       0.08333333       0.33333333 </v>
   <v>       0.29166667       0.08333333       0.33333333 </v>
   <v>       0.33333333       0.08333333       0.33333333 </v>
   <v>       0.37500000       0.08333333       0.33333333 </v>
   <v>       0.41666667       0.08333333       0.33333333 </v>
   <v>       0.45833333       0.08333333       0.33333333 </v>
   <v>       0.50000000       0.08333333       0.33333333 </v>
   <v>       0.12500000       0.12500000       0.33333333 </v>
   <v>       0.16666667       0.12500000       0.33333333 </v>
   <v>       0.20833333       0.12500000       0.33333333 </v>
   <v>       0.25000000       0.12500000       0.33333333 </v>
   <v>       0.29166667       0.12500000       0.33333333 </v>
   <v>       0.33333333       0.12500000       0.33333333 </v>
   <v>       0.37500000       0.12500000       0.33333333 </v>
   <v>       0.41666667       0.12500000       0.33333333 </v>
   <v>       0.45833333       0.12500000       0.33333333 </v>
   <v>       0.50000000       0.12500000       0.33333333 </v>
   <v>       0.16666667       0.16666667       0.33333333 </v>
   <v>       0.20833333       0.16666667       0.33333333 </v>
   <v>       0.25000000       0.16666667       0.33333333 </v>
   <v>       0.29166667       0.16666667       0.33333333 </v>
   <v>       0.33333333       0.16666667       0.33333333 </v>
   <v>       0.37500000       0.16666667       0.33333333 </v>
   <v>       0.41666667       0.16666667       0.33333333 </v>
   <v>       0.45833333       0.16666667       0.33333333 </v>
   <v>       0.50000000       0.16666667       0.33333333 </v>
   <v>       0.20833333       0.20833333       0.33333333 </v>
   <v>       0.25000000       0.20833333       0.33333333 </v>
   <v>       0.29166667       0.20833333       0.33333333 </v>
   <v>       0.33333333       0.20833333       0.33333333 </v>
   <v>       0.37500000       0.20833333       0.33333333 </v>
   <v>       0.41666667       0.20833333       0.33333333 </v>
   <v>       0.45833333       0.20833333       0.33333333 </v>
   <v>       0.50000000       0.20833333       0.33333333 </v>
   <v>       0.25000000       0.25000000       0.33333333 </v>
   <v>       0.29166667       0.25000000       0.33333333 </v>
   <v>       0.33333333       0.25000000       0.33333333 </v>
   <v>       0.37500000       0.25000000       0.33333333 </v>
   <v>       0.41666667       0.25000000       0.33333333 </v>
   <v>       0.45833333       0.25000000       0.33333333 </v>
   <v>       0.50000000       0.25000000       0.33333333 </v>
   <v>       0.29166667       0.29166667       0.33333333 </v>
   <v>       0.33333333       0.29166667       0.33333333 </v>
   <v>       0.37500000       0.29166667       0.33333333 </v>
   <v>       0.41666667       0.29166667       0.33333333 </v>
   <v>       0.45833333       0.29166667       0.33333333 </v>
   <v>       0.50000000       0.29166667       0.33333333 </v>
   <v>       0.33333333       0.33333333       0.33333333 </v>
   <v>       0.37500000       0.33333333       0.33333333 </v>
   <v>       0.41666667       0.33333333       0.33333333 </v>
   <v>       0.45833333       0.33333333       0.33333333 </v>
   <v>       0.50000000       0.33333333       0.33333333 </v>
   <v>       0.37500000       0.37500000       0.33333333 </v>
   <v>       0.41666667       0.37500000       0.33333333 </v>
   <v>       0.45833333       0.37500000       0.33333333 </v>
   <v>       0.50000000       0.37500000       0.33333333 </v>
   <v>       0.41666667       0.41666667       0.33333333 </v>
   <v>       0.45833333       0.41666667       0.33333333 </v>
   <v>       0.50000000       0.41666667       0.33333333 </v>
   <v>       0.45833333       0.45833333       0.33333333 </v>
   <v>       0.50000000       0.45833333       0.33333333 </v>
   <v>       0.50000000       0.50000000       0.33333333 </v>
   <v>       0.00000000       0.00000000       0.50000000 </v>
   <v>       0.04166667       0.00000000       0.50000000 </v>
   <v>       0.08333333       0.00000000       0.50000000 </v>
   <v>       0.12500000       0.00000000       0.50000000 </v>
   <v>       0.16666667       0.00000000       0.50000000 </v>
   <v>       0.20833333       0.00000000       0.50000000 </v>
   <v>       0.25000000       0.00000000       0.50000000 </v>
   <v>       0.29166667       0.00000000       0.50000000 </v>
   <v>       0.33333333       0.00000000       0.50000000 </v>
   <v>       0.37500000       0.00000000       0.50000000 </v>
   <v>       0.41666667       0.00000000       0.50000000 </v>
   <v>       0.45833333       0.00000000       0.50000000 </v>
   <v>       0.50000000       0.00000000       0.50000000 </v>
   <v>       0.04166667       0.04166667       0.50000000 </v>
   <v>       0.08333333       0.04166667       0.50000000 </v>
   <v>       0.12500000       0.04166667       0.50000000 </v>
   <v>       0.16666667       0.04166667       0.50000000 </v>
   <v>       0.20833333       0.04166667       0.50000000 </v>
   <v>       0.25000000       0.04166667       0.50000000 </v>
   <v>       0.29166667       0.04166667       0.50000000 </v>
   <v>       0.33333333       0.04166667       0.50000000 </v>
   <v>       0.37500000       0.04166667       0.50000000 </v>
   <v>       0.41666667       0.04166667       0.50000000 </v>
   <v>       0.45833333       0.04166667       0.50000000 </v>
   <v>       0.50000000       0.04166667       0.50000000 </v>
   <v>       0.08333333       0.08333333       0.50000000 </v>
   <v>       0.12500000       0.08333333       0.50000000 </v>
   <v>       0.16666667       0.08333333       0.50000000 </v>
   <v>       0.20833333       0.08333333       0.50000000 </v>
   <v>       0.25000000       0.08333333       0.50000000 </v>
   <v>       0.29166667       0.08333333       0.50000000 </v>
   <v>       0.33333333       0.08333333       0.50000000 </v>
   <v>       0.37500000       0.08333333       0.50000000 </v>
   <v>       0.41666667       0.08333333       0.50000000 </v>
   <v>       0.45833333       0.08333333       0.50000000 </v>
   <v>       0.50000000       0.08333333       0.50000000 </v>
   <v>       0.12500000       0.12500000       0.50000000 </v>
   <v>       0.16666667       0.12500000       0.50000000 </v>
   <v>       0.20833333       0.12500000       0.50000000 </v>
   <v>       0.25000000       0.12500000       0.50000000 </v>
   <v>       0.29166667       0.12500000       0.50000000 </v>
   <v>       0.33333333       0.12500000       0.50000000 </v>
   <v>       0.37500000       0.12500000       0.50000000 </v>
   <v>       0.41666667       0.12500000       0.50000000 </v>
   <v>       0.45833333       0.12500000       0.50000000 </v>
   <v>       0.50000000       0.12500000       0.50000000 </v>
   <v>       0.16666667       0.16666667       0.50000000 </v>
   <v>       0.20833333       0.16666667       0.50000000 </v>
   <v>       0.25000000       0.16666667       0.50000000 </v>
   <v>       0.29166667       0.16666667       0.50000000 </v>
   <v>       0.33333333       0.16666667       0.50000000 </v>
   <v>       0.37500000       0.16666667       0.50000000 </v>
   <v>       0.41666667       0.16666667       0.50000000 </v>
   <v>       0.45833333       0.16666667       0.50000000 </v>
   <v>       0.50000000       0.16666667       0.50000000 </v>
   <v>       0.20833333       0.20833333       0.50000000 </v>
   <v>       0.25000000       0.20833333       0.50000000 </v>
   <v>       0.29166667       0.20833333       0.50000000 </v>
   <v>       0.33333333       0.20833333       0.50000000 </v>
   <v>       0.37500000       0.20833333       0.50000000 </v>
   <v>       0.41666667       0.20833333       0.50000000 </v>
   <v>       0.45833333       0.20833333       0.50000000 </v>
   <v>       0.50000000       0.20833333       0.50000000 </v>
   <v>       0.25000000       0.25000000       0.50000000 </v>
   <v>       0.29166667       0.25000000       0.50000000 </v>
   <v>       0.33333333       0.25000000       0.50000000 </v>
   <v>       0.37500000       0.25000000       0.50000000 </v>
   <v>       0.41666667       0.25000000       0.50000000 </v>
   <v>       0.45833333       0.25000000       0.50000000 </v>
   <v>       0.50000000       0.25000000       0.50000000 </v>
   <v>       0.29166667       0.29166667       0.50000000 </v>
   <v>       0.33333333       0.29166667       0.50000000 </v>
   <v>       0.37500000       0.29166667       0.50000000 </v>
   <v>       0.41666667       0.29166667       0.50000000 </v>
   <v>       0.45833333       0.29166667       0.50000000 </v>
   <v>       0.50000000       0.29166667       0.50000000 </v>
   <v>       0.33333333       0.33333333       0.50000000 </v>
   <v>       0.37500000       0.33333333       0.50000000 </v>
   <v>       0.41666667       0.33333333       0.50000000 </v>
   <v>       0.45833333       0.33333333       0.50000000 </v>
   <v>       0.50000000       0.33333333       0.50000000 </v>
   <v>       0.37500000       0.37500000       0.50000000 </v>
   <v>       0.41666667       0.37500000       0.50000000 </v>
   <v>       0.45833333       0.37500000       0.50000000 </v>
   <v>       0.50000000       0.37500000       0.50000000 </v>
   <v>       0.41666667       0.41666667       0.50000000 </v>
   <v>       0.45833333       0.41666667       0.50000000 </v>
   <v>       0.50000000       0.41666667       0.50000000 </v>
   <v>       0.45833333       0.45833333       0.50000000 </v>
   <v>       0.50000000       0.45833333       0.50000000 </v>
   <v>       0.50000000       0.50000000       0.50000000 </v>
  </varray>
  <varray name="weights" >
   <v>       0.00028935 </v>
   <v>       0.00115741 </v>
   <v>       0.00115741 </v>
   <v>       0.00115741 </v>
   <v>       0.00115741 </v>
   <v>       0.00115741 </v>
   <v>       0.00115741 </v>
   <v>       0.00115741 </v>
   <v>       0.00115741 </v>
   <v>       0.00115741 </v>
   <v>       0.00115741 </v>
   <v>       0.00115741 </v>
   <v>       0.00057870 </v>
   <v>       0.00115741 </v>
   <v>       0.00231481 </v>
   <v>       0.00231481 </v>
   <v>       0.00231481 </v>
   <v>       0.00231481 </v>
   <v>       0.00231481 </v>
   <v>       0.00231481 </v>
   <v>       0.00231481 </v>
   <v>       0.00231481 </v>
   <v>       0.00231481 </v>
   <v>       0.00231481 </v>
   <v>       0.00115741 </v>
   <v>       0.00115741 </v>
   <v>       0.00231481 </v>
   <v>       0.00231481 </v>
   <v>       0.00231481 </v>
   <v>       0.00231481 </v>
   <v>       0.00231481 </v>
   <v>       0.00231481 </v>
   <v>       0.00231481 </v>
   <v>       0.00231481 </v>
   <v>       0.00231481 </v>
   <v>       0.00115741 </v>
   <v>       0.00115741 </v>
   <v>       0.00231481 </v>
   <v>       0.00231481 </v>
   <v>       0.00231481 </v>
   <v>       0.00231481 </v>
   <v>       0.00231481 </v>
   <v>       0.00231481 </v>
   <v>       0.00231481 </v>
   <v>       0.00231481 </v>
   <v>       0.00115741 </v>
   <v>       0.00115741 </v>
   <v>       0.00231481 </v>
   <v>       0.00231481 </v>
   <v>       0.00231481 </v>
   <v>       0.00231481 </v>
   <v>       0.00231481 </v>
   <v>       0.00231481 </v>
   <v>       0.00231481 </v>
   <v>       0.00115741 </v>
   <v>       0.00115741 </v>
   <v>       0.00231481 </v>
   <v>       0.00231481 </v>
   <v>       0.00231481 </v>
   <v>       0.00231481 </v>
   <v>       0.00231481 </v>
   <v>       0.00231481 </v>
   <v>       0.00115741 </v>
   <v>       0.00115741 </v>
   <v>       0.00231481 </v>
   <v>       0.00231481 </v>
   <v>       0.00231481 </v>
   <v>       0.00231481 </v>
   <v>       0.00231481 </v>
   <v>       0.00115741 </v>
   <v>       0.00115741 </v>
   <v>       0.00231481 </v>
   <v>       0.00231481 </v>
   <v>       0.00231481 </v>
   <v>       0.00231481 </v>
   <v>       0.00115741 </v>
   <v>       0.00115741 </v>
   <v>       0.00231481 </v>
   <v>       0.00231481 </v>
   <v>       0.00231481 </v>
   <v>       0.00115741 </v>
   <v>       0.00115741 </v>
   <v>       0.00231481 </v>
   <v>       0.00231481 </v>
   <v>       0.00115741 </v>
   <v>       0.00115741 </v>
   <v>       0.00231481 </v>
   <v>       0.00115741 </v>
   <v>       0.00115741 </v>
   <v>       0.00115741 </v>
   <v>       0.00028935 </v>
   <v>       0.00057870 </v>
   <v>       0.00231481 </v>
   <v>       0.00231481 </v>
   <v>       0.00231481 </v>
   <v>       0.00231481 </v>
   <v>       0.00231481 </v>
   <v>       0.00231481 </v>
   <v>       0.00231481 </v>
   <v>       0.00231481 </v>
   <v>       0.00231481 </v>
   <v>       0.00231481 </v>
   <v>       0.00231481 </v>
   <v>       0.00115741 </v>
   <v>       0.00231481 </v>
   <v>       0.00462963 </v>
   <v>       0.00462963 </v>
   <v>       0.00462963 </v>
   <v>       0.00462963 </v>
   <v>       0.00462963 </v>
   <v>       0.00462963 </v>
   <v>       0.00462963 </v>
   <v>       0.00462963 </v>
   <v>       0.00462963 </v>
   <v>       0.00462963 </v>
   <v>       0.00231481 </v>
   <v>       0.00231481 </v>
   <v>       0.00462963 </v>
   <v>       0.00462963 </v>
   <v>       0.00462963 </v>
   <v>       0.00462963 </v>
   <v>       0.00462963 </v>
   <v>       0.00462963 </v>
   <v>       0.00462963 </v>
   <v>       0.00462963 </v>
   <v>       0.00462963 </v>
   <v>       0.00231481 </v>
   <v>       0.00231481 </v>
   <v>       0.00462963 </v>
   <v>       0.00462963 </v>
   <v>       0.00462963 </v>
   <v>       0.00462963 </v>
   <v>       0.00462963 </v>
   <v>       0.00462963 </v>
   <v>       0.00462963 </v>
   <v>       0.00462963 </v>
   <v>       0.00231481 </v>
   <v>       0.00231481 </v>
   <v>       0.00462963 </v>
   <v>       0.00462963 </v>
   <v>       0.00462963 </v>
   <v>       0.00462963 </v>
   <v>       0.00462963 </v>
   <v>       0.00462963 </v>
   <v>       0.00462963 </v>
   <v>       0.00231481 </v>
   <v>       0.00231481 </v>
   <v>       0.00462963 </v>
   <v>       0.00462963 </v>
   <v>       0.00462963 </v>
   <v>       0.00462963 </v>
   <v>       0.00462963 </v>
   <v>       0.00462963 </v>
   <v>       0.00231481 </v>
   <v>       0.00231481 </v>
   <v>       0.00462963 </v>
   <v>       0.00462963 </v>
   <v>       0.00462963 </v>
   <v>       0.00462963 </v>
   <v>       0.00462963 </v>
   <v>       0.00231481 </v>
   <v>       0.00231481 </v>
   <v>       0.00462963 </v>
   <v>       0.00462963 </v>
   <v>       0.00462963 </v>
   <v>       0.00462963 </v>
   <v>       0.00231481 </v>
   <v>       0.00231481 </v>
   <v>       0.00462963 </v>
   <v>       0.00462963 </v>
   <v>       0.00462963 </v>
   <v>       0.00231481 </v>
   <v>       0.00231481 </v>
   <v>       0.00462963 </v>
   <v>       0.00462963 </v>
   <v>       0.00231481 </v>
   <v>       0.00231481 </v>
   <v>       0.00462963 </v>
   <v>       0.00231481 </v>
   <v>       0.00231481 </v>
   <v>       0.00231481 </v>
   <v>       0.00057870 </v>
   <v>       0.00057870 </v>
   <v>       0.00231481 </v>
   <v>       0.00231481 </v>
   <v>       0.00231481 </v>
   <v>       0.00231481 </v>
   <v>       0.00231481 </v>
   <v>       0.00231481 </v>
   <v>       0.00231481 </v>
   <v>       0.00231481 </v>
   <v>       0.00231481 </v>
   <v>       0.00231481 </v>
   <v>       0.00231481 </v>
   <v>       0.00115741 </v>
   <v>       0.00231481 </v>
   <v>       0.00462963 </v>
   <v>       0.00462963 </v>
   <v>       0.00462963 </v>
   <v>       0.00462963 </v>
   <v>       0.00462963 </v>
   <v>       0.00462963 </v>
   <v>       0.00462963 </v>
   <v>       0.00462963 </v>
   <v>       0.00462963 </v>
   <v>       0.00462963 </v>
   <v>       0.00231481 </v>
   <v>       0.00231481 </v>
   <v>       0.00462963 </v>
   <v>       0.00462963 </v>
   <v>       0.00462963 </v>
   <v>       0.00462963 </v>
   <v>       0.00462963 </v>
   <v>       0.00462963 </v>
   <v>       0.00462963 </v>
   <v>       0.00462963 </v>
   <v>       0.00462963 </v>
   <v>       0.00231481 </v>
   <v>       0.00231481 </v>
   <v>       0.00462963 </v>
   <v>       0.00462963 </v>
   <v>       0.00462963 </v>
   <v>       0.00462963 </v>
   <v>       0.00462963 </v>
   <v>       0.00462963 </v>
   <v>       0.00462963 </v>
   <v>       0.00462963 </v>
   <v>       0.00231481 </v>
   <v>       0.00231481 </v>
   <v>       0.00462963 </v>
   <v>       0.00462963 </v>
   <v>       0.00462963 </v>
   <v>       0.00462963 </v>
   <v>       0.00462963 </v>
   <v>       0.00462963 </v>
   <v>       0.00462963 </v>
   <v>       0.00231481 </v>
   <v>       0.00231481 </v>
   <v>       0.00462963 </v>
   <v>       0.00462963 </v>
   <v>       0.00462963 </v>
   <v>       0.00462963 </v>
   <v>       0.00462963 </v>
   <v>       0.00462963 </v>
   <v>       0.00231481 </v>
   <v>       0.00231481 </v>
   <v>       0.00462963 </v>
   <v>       0.00462963 </v>
   <v>       0.00462963 </v>
   <v>       0.00462963 </v>
   <v>       0.00462963 </v>
   <v>       0.00231481 </v>
   <v>       0.00231481 </v>
   <v>       0.00462963 </v>
   <v>       0.00462963 </v>
   <v>       0.00462963 </v>
   <v>       0.00462963 </v>
   <v>       0.00231481 </v>
   <v>       0.00231481 </v>
   <v>       0.00462963 </v>
   <v>       0.00462963 </v>
   <v>       0.00462963 </v>
   <v>       0.00231481 </v>
   <v>       0.00231481 </v>
   <v>       0.00462963 </v>
   <v>       0.00462963 </v>
   <v>       0.00231481 </v>
   <v>       0.00231481 </v>
   <v>       0.00462963 </v>
   <v>       0.00231481 </v>
   <v>       0.00231481 </v>
   <v>       0.00231481 </v>
   <v>       0.00057870 </v>
   <v>       0.00028935 </v>
   <v>       0.00115741 </v>
   <v>       0.00115741 </v>
   <v>       0.00115741 </v>
   <v>       0.00115741 </v>
   <v>       0.00115741 </v>
   <v>       0.00115741 </v>
   <v>       0.00115741 </v>
   <v>       0.00115741 </v>
   <v>       0.00115741 </v>
   <v>       0.00115741 </v>
   <v>       0.00115741 </v>
   <v>       0.00057870 </v>
   <v>       0.00115741 </v>
   <v>       0.00231481 </v>
   <v>       0.00231481 </v>
   <v>       0.00231481 </v>
   <v>       0.00231481 </v>
   <v>       0.00231481 </v>
   <v>       0.00231481 </v>
   <v>       0.00231481 </v>
   <v>       0.00231481 </v>
   <v>       0.00231481 </v>
   <v>       0.00231481 </v>
   <v>       0.00115741 </v>
   <v>       0.00115741 </v>
   <v>       0.00231481 </v>
   <v>       0.00231481 </v>
   <v>       0.00231481 </v>
   <v>       0.00231481 </v>
   <v>       0.00231481 </v>
   <v>       0.00231481 </v>
   <v>       0.00231481 </v>
   <v>       0.00231481 </v>
   <v>       0.00231481 </v>
   <v>       0.00115741 </v>
   <v>       0.00115741 </v>
   <v>       0.00231481 </v>
   <v>       0.00231481 </v>
   <v>       0.00231481 </v>
   <v>       0.00231481 </v>
   <v>       0.00231481 </v>
   <v>       0.00231481 </v>
   <v>       0.00231481 </v>
   <v>       0.00231481 </v>
   <v>       0.00115741 </v>
   <v>       0.00115741 </v>
   <v>       0.00231481 </v>
   <v>       0.00231481 </v>
   <v>       0.00231481 </v>
   <v>       0.00231481 </v>
   <v>       0.00231481 </v>
   <v>       0.00231481 </v>
   <v>       0.00231481 </v>
   <v>       0.00115741 </v>
   <v>       0.00115741 </v>
   <v>       0.00231481 </v>
   <v>       0.00231481 </v>
   <v>       0.00231481 </v>
   <v>       0.00231481 </v>
   <v>       0.00231481 </v>
   <v>       0.00231481 </v>
   <v>       0.00115741 </v>
   <v>       0.00115741 </v>
   <v>       0.00231481 </v>
   <v>       0.00231481 </v>
   <v>       0.00231481 </v>
   <v>       0.00231481 </v>
   <v>       0.00231481 </v>
   <v>       0.00115741 </v>
   <v>       0.00115741 </v>
   <v>       0.00231481 </v>
   <v>       0.00231481 </v>
   <v>       0.00231481 </v>
   <v>       0.00231481 </v>
   <v>       0.00115741 </v>
   <v>       0.00115741 </v>
   <v>       0.00231481 </v>
   <v>       0.00231481 </v>
   <v>       0.00231481 </v>
   <v>       0.00115741 </v>
   <v>       0.00115741 </v>
   <v>       0.00231481 </v>
   <v>       0.00231481 </v>
   <v>       0.00115741 </v>
   <v>       0.00115741 </v>
   <v>       0.00231481 </v>
   <v>       0.00115741 </v>
   <v>       0.00115741 </v>
   <v>       0.00115741 </v>
   <v>       0.00028935 </v>
  </varray>
 </kpoints>
 <parameters>
  <separator name="general" >
   <i type="string" name="SYSTEM">unknown system</i>
   <i type="logical" name="LCOMPAT"> F  </i>
  </separator>
  <separator name="electronic" >
   <i type="string" name="PREC">accura</i>
   <i name="ENMAX">    500.00000000</i>
   <i name="ENAUG">    586.98000000</i>
   <i name="EDIFF">      0.00000100</i>
   <i type="int" name="IALGO">    68</i>
   <i type="int" name="IWAVPR">    11</i>
   <i type="int" name="NBANDS">    40</i>
   <i name="NELECT">     66.00000000</i>
   <i type="int" name="TURBO">     0</i>
   <i type="int" name="IRESTART">     0</i>
   <i type="int" name="NREBOOT">     0</i>
   <i type="int" name="NMIN">     0</i>
   <i name="EREF">      0.00000000</i>
   <separator name="electronic smearing" >
    <i type="int" name="ISMEAR">     1</i>
    <i name="SIGMA">      0.30000000</i>
    <i name="KSPACING">      0.50000000</i>
    <i type="logical" name="KGAMMA"> T  </i>
   </separator>
   <separator name="electronic projectors" >
    <i type="logical" name="LREAL"> F  </i>
    <v name="ROPT">      0.00000000      0.00000000      0.00000000</v>
    <i type="int" name="LMAXPAW">  -100</i>
    <i type="int" name="LMAXMIX">     2</i>
    <i type="logical" name="NLSPLINE"> F  </i>
   </separator>
   <separator name="electronic startup" >
    <i type="int" name="ISTART">     0</i>
    <i type="int" name="ICHARG">     2</i>
    <i type="int" name="INIWAV">     1</i>
   </separator>
   <separator name="electronic spin" >
    <i type="int" name="ISPIN">     1</i>
    <i type="logical" name="LNONCOLLINEAR"> F  </i>
    <v name="MAGMOM">      1.00000000      1.00000000      1.00000000      1.00000000      1.00000000      1.00000000</v>
    <i name="NUPDOWN">     -1.00000000</i>
    <i type="logical" name="LSORBIT"> F  </i>
    <v name="SAXIS">      0.00000000      0.00000000      1.00000000</v>
    <i type="logical" name="LSPIRAL"> F  </i>
    <v name="QSPIRAL">      0.00000000      0.00000000      0.00000000</v>
    <i type="logical" name="LZEROZ"> F  </i>
   </separator>
   <separator name="electronic exchange-correlation" >
    <i type="logical" name="LASPH"> F  </i>
    <i type="logical" name="LMETAGGA"> F  </i>
   </separator>
   <separator name="electronic convergence" >
    <i type="int" name="NELM">   200</i>
    <i type="int" name="NELMDL">     0</i>
    <i type="int" name="NELMIN">     4</i>
    <i name="ENINI">    500.00000000</i>
    <separator name="electronic convergence detail" >
     <i type="logical" name="LDIAG"> T  </i>
     <i type="logical" name="LSUBROT"> F  </i>
     <i name="WEIMIN">      0.00100000</i>
     <i name="EBREAK">      0.00000001</i>
     <i name="DEPER">      0.30000000</i>
     <i type="int" name="NRMM">     4</i>
     <i name="TIME">      0.40000000</i>
    </separator>
   </separator>
   <separator name="electronic mixer" >
    <i name="AMIX">      0.40000000</i>
    <i name="BMIX">      1.00000000</i>
    <i name="AMIN">      0.10000000</i>
    <i name="AMIX_MAG">      1.60000000</i>
    <i name="BMIX_MAG">      1.00000000</i>
    <separator name="electronic mixer details" >
     <i type="int" name="IMIX">     4</i>
     <i type="int" name="MAXMIX">   -45</i>
     <i name="WC">    100.00000000</i>
     <i type="int" name="INIMIX">     1</i>
     <i type="int" name="MIXPRE">     1</i>
     <i type="int" name="MREMOVE">     5</i>
    </separator>
   </separator>
   <separator name="electronic dipolcorrection" >
    <i type="logical" name="LDIPOL"> F  </i>
    <i type="logical" name="LMONO"> F  </i>
    <i type="int" name="IDIPOL">     0</i>
    <i name="EPSILON">      1.00000000</i>
    <v name="DIPOL">   -100.00000000   -100.00000000   -100.00000000</v>
    <i name="EFIELD">      0.00000000</i>
   </separator>
  </separator>
  <separator name="grids" >
   <i type="int" name="NGX">    24</i>
   <i type="int" name="NGY">    24</i>
   <i type="int" name="NGZ">    84</i>
   <i type="int" name="NGXF">    48</i>
   <i type="int" name="NGYF">    48</i>
   <i type="int" name="NGZF">   168</i>
   <i type="logical" name="ADDGRID"> T  </i>
  </separator>
  <separator name="ionic" >
   <i type="int" name="NSW">    30</i>
   <i type="int" name="IBRION">     2</i>
   <i type="int" name="ISIF">     3</i>
   <i name="PSTRESS">      0.00000000</i>
   <i name="EDIFFG">     -0.02000000</i>
   <i type="int" name="NFREE">     1</i>
   <i name="POTIM">      0.50000000</i>
   <i name="SMASS">     -3.00000000</i>
   <i name="SCALEE">      1.00000000</i>
  </separator>
  <separator name="ionic md" >
   <i name="TEBEG">      0.00010000</i>
   <i name="TEEND">      0.00010000</i>
   <i type="int" name="NBLOCK">     1</i>
   <i type="int" name="KBLOCK">    30</i>
   <i type="int" name="NPACO">   256</i>
   <i name="APACO">     16.00000000</i>
  </separator>
  <separator name="symmetry" >
   <i type="int" name="ISYM">     2</i>
   <i name="SYMPREC">      0.00001000</i>
  </separator>
  <separator name="dos" >
   <i type="logical" name="LORBIT"> F  </i>
   <v name="RWIGS">     -1.00000000     -1.00000000     -1.00000000</v>
   <i type="int" name="NEDOS">   301</i>
   <i name="EMIN">     10.00000000</i>
   <i name="EMAX">    -10.00000000</i>
   <i name="EFERMI">      0.00000000</i>
  </separator>
  <separator name="writing" >
   <i type="int" name="NWRITE">     2</i>
   <i type="logical" name="LWAVE"> F  </i>
   <i type="logical" name="LCHARG"> F  </i>
   <i type="logical" name="LPARD"> F  </i>
   <i type="logical" name="LVTOT"> F  </i>
   <i type="logical" name="LVHAR"> F  </i>
   <i type="logical" name="LELF"> F  </i>
   <i type="logical" name="LOPTICS"> F  </i>
   <v name="STM">      0.00000000      0.00000000      0.00000000      0.00000000      0.00000000      0.00000000      0.00000000</v>
  </separator>
  <separator name="performance" >
   <i type="int" name="NPAR">     4</i>
   <i type="int" name="NSIM">     4</i>
   <i type="int" name="NBLK">    -1</i>
   <i type="logical" name="LPLANE"> T  </i>
   <i type="logical" name="LSCALAPACK"> T  </i>
   <i type="logical" name="LSCAAWARE"> F  </i>
   <i type="logical" name="LSCALU"> F  </i>
   <i type="logical" name="LASYNC"> F  </i>
   <i type="logical" name="LORBITALREAL"> F  </i>
  </separator>
  <separator name="miscellaneous" >
   <i type="int" name="IDIOT">     3</i>
   <i type="logical" name="LMUSIC"> F  </i>
   <v name="POMASS">     63.54600000    107.86800000    196.96600000</v>
   <v name="DARWINR">      0.00000000      0.00000000      0.00000000</v>
   <v name="DARWINV">      1.00000000      1.00000000      1.00000000</v>
   <i type="logical" name="LCORR"> T  </i>
  </separator>
  <i type="logical" name="GGA_COMPAT"> T  </i>
  <i type="logical" name="LBERRY"> F  </i>
  <i type="int" name="ICORELEVEL">     0</i>
  <i type="logical" name="LDAU"> F  </i>
  <i type="int" name="I_CONSTRAINED_M">     0</i>
  <separator name="electronic exchange-correlation" >
   <i type="string" name="GGA">--</i>
   <i type="int" name="VOSKOWN">     0</i>
   <i type="logical" name="LHFCALC"> F  </i>
   <i type="string" name="PRECFOCK"></i>
   <i type="logical" name="LSYMGRAD"> F  </i>
   <i type="logical" name="LHFONE"> F  </i>
   <i type="logical" name="LRHFCALC"> F  </i>
   <i type="logical" name="LTHOMAS"> F  </i>
   <i type="logical" name="LMODELHF"> F  </i>
   <i name="ENCUT4O">     -1.00000000</i>
   <i type="int" name="EXXOEP">     0</i>
   <i type="int" name="FOURORBIT">     0</i>
   <i name="AEXX">      0.00000000</i>
   <i name="HFALPHA">      0.00000000</i>
   <i name="MCALPHA">      0.00000000</i>
   <i name="ALDAX">      1.00000000</i>
   <i name="AGGAX">      1.00000000</i>
   <i name="ALDAC">      1.00000000</i>
   <i name="AGGAC">      1.00000000</i>
   <i type="int" name="NKREDX">     1</i>
   <i type="int" name="NKREDY">     1</i>
   <i type="int" name="NKREDZ">     1</i>
   <i type="logical" name="SHIFTRED"> F  </i>
   <i type="logical" name="ODDONLY"> F  </i>
   <i type="logical" name="EVENONLY"> F  </i>
   <i type="int" name="LMAXFOCK">     0</i>
   <i type="int" name="NMAXFOCKAE">     0</i>
   <i type="logical" name="LFOCKAEDFT"> F  </i>
   <i name="HFSCREEN">      0.00000000</i>
   <i name="HFSCREENC">      0.00000000</i>
   <i type="int" name="NBANDSGWLOW">     0</i>
  </separator>
  <separator name="vdW DFT" >
   <i type="logical" name="LUSE_VDW"> F  </i>
   <i name="Zab_VDW">     -0.84910000</i>
   <i name="PARAM1">      0.12340000</i>
   <i name="PARAM2">      1.00000000</i>
   <i name="PARAM3">      0.00000000</i>
  </separator>
  <separator name="model GW" >
   <i type="int" name="MODEL_GW">     0</i>
   <i name="MODEL_EPS0">      9.54698980</i>
   <i name="MODEL_ALPHA">      1.00000000</i>
  </separator>
  <separator name="linear response parameters" >
   <i type="logical" name="LEPSILON"> F  </i>
   <i type="logical" name="LRPA"> F  </i>
   <i type="logical" name="LNABLA"> F  </i>
   <i type="logical" name="LVEL"> F  </i>
   <i type="int" name="KINTER">     0</i>
   <i name="CSHIFT">      0.10000000</i>
   <i name="OMEGAMAX">     -1.00000000</i>
   <i name="DEG_THRESHOLD">      0.00200000</i>
  </separator>
  <separator name="orbital magnetization" >
   <i type="logical" name="NUCIND"> F  </i>
   <v name="MAGPOS">      0.00000000      0.00000000      0.00000000</v>
   <i type="logical" name="LNICSALL"> T  </i>
   <i type="logical" name="ORBITALMAG"> F  </i>
   <i type="logical" name="LMAGBLOCH"> F  </i>
   <i type="logical" name="LCHIMAG"> F  </i>
   <i type="logical" name="LGAUGE"> T  </i>
   <i type="int" name="MAGATOM">     0</i>
   <v name="MAGDIPOL">      0.00000000      0.00000000      0.00000000</v>
   <v name="AVECCONST">      0.00000000      0.00000000      0.00000000</v>
  </separator>
  <separator name="response functions" >
   <i type="logical" name="LADDER"> F  </i>
   <i type="logical" name="LFXC"> F  </i>
   <i type="logical" name="LHARTREE"> T  </i>
   <i type="int" name="IBSE">     0</i>
   <i type="logical" name="LTCTE"> F  </i>
   <i type="logical" name="LTETE"> F  </i>
   <i type="logical" name="LTRIPLET"> F  </i>
   <i type="logical" name="LFXCEPS"> F  </i>
   <i type="logical" name="LFXHEG"> F  </i>
   <i type="logical" name="L2ORDER"> F  </i>
   <i type="logical" name="LUSEW"> F  </i>
   <i name="ENCUTGW">     -2.00000000</i>
   <i name="ENCUTGWSOFT">     -2.00000000</i>
   <i name="ENCUTLF">     -1.00000000</i>
   <i type="int" name="LMAXMP2">    -1</i>
   <i name="SCISSOR">      0.00000000</i>
   <i type="int" name="NOMEGA">     0</i>
   <i type="int" name="NOMEGAR">     0</i>
   <i type="int" name="NBANDSGW">    -1</i>
   <i type="int" name="NBANDSO">    -1</i>
   <i type="int" name="NBANDSV">    -1</i>
   <i type="int" name="NELM">   200</i>
   <i type="int" name="DIM">     3</i>
   <i type="int" name="ANTIRES">     0</i>
   <i name="OMEGAMAX">    -30.00000000</i>
   <i name="OMEGAMIN">    -30.00000000</i>
   <i name="OMEGATL">   -200.00000000</i>
   <i type="int" name="OMEGAGRID">     0</i>
   <i name="CSHIFT">     -0.10000000</i>
   <i type="logical" name="SELFENERGY"> F  </i>
   <i type="logical" name="LSPECTRAL"> F  </i>
   <i type="logical" name="ODDONLYGW"> F  </i>
   <i type="logical" name="EVENONLYGW"> F  </i>
   <i type="int" name="NKREDLFX">     1</i>
   <i type="int" name="NKREDLFY">     1</i>
   <i type="int" name="NKREDLFZ">     1</i>
   <i type="int" name="MAXMEM">  1800</i>
   <i type="int" name="TELESCOPE">     0</i>
   <i type="int" name="TAUPAR">     1</i>
  </separator>
  <separator name="External order field" >
   <i name="OFIELD_KAPPA">      0.00000000</i>
   <v name="OFIELD_K">      0.00000000      0.00000000      0.00000000</v>
   <i name="OFIELD_Q6_NEAR">      0.00000000</i>
   <i name="OFIELD_Q6_FAR">      0.00000000</i>
   <i name="OFIELD_A">      0.00000000</i>
  </separator>
 </parameters>
 <atominfo>
  <atoms>       6 </atoms>
  <types>       3 </types>
  <array name="atoms" >
   <dimension dim="1">ion</dimension>
   <field type="string">element</field>
   <field type="int">atomtype</field>
   <set>
    <rc><c>Cu</c><c>   1</c></rc>
    <rc><c>Cu</c><c>   1</c></rc>
    <rc><c>Ag</c><c>   2</c></rc>
    <rc><c>Ag</c><c>   2</c></rc>
    <rc><c>Au</c><c>   3</c></rc>
    <rc><c>Au</c><c>   3</c></rc>
   </set>
  </array>
  <array name="atomtypes" >
   <dimension dim="1">type</dimension>
   <field type="int">atomspertype</field>
   <field type="string">element</field>
   <field>mass</field>
   <field>valence</field>
   <field type="string">pseudopotential</field>
   <set>
    <rc><c>   2</c><c>Cu</c><c>     63.54600000</c><c>     11.00000000</c><c>  PAW_PBE Cu 22Jun2005                  </c></rc>
    <rc><c>   2</c><c>Ag</c><c>    107.86800000</c><c>     11.00000000</c><c>  PAW_PBE Ag 02Apr2005                  </c></rc>
    <rc><c>   2</c><c>Au</c><c>    196.96600000</c><c>     11.00000000</c><c>  PAW_PBE Au 04Oct2007                  </c></rc>
   </set>
  </array>
 </atominfo>
 <structure name="initialpos" >
  <crystal>
   <varray name="basis" >
    <v>       0.00000000       2.03860013      -2.03860013 </v>
    <v>       0.00000000      -2.03860013      -2.03860013 </v>
    <v>     -11.48609403       0.00000000       0.00000000 </v>
   </varray>
   <i name="volume">     95.46989799 </i>
   <varray name="rec_basis" >
    <v>       0.00000000       0.24526634      -0.24526634 </v>
    <v>       0.00000000      -0.24526634      -0.24526634 </v>
    <v>      -0.08706180       0.00000000       0.00000000 </v>
   </varray>
  </crystal>
  <varray name="positions" >
   <v>       0.50000000       0.50000000       0.49194910 </v>
   <v>       0.50000000       0.50000000       0.17471757 </v>
   <v>       0.50000000       0.50000000       0.83333333 </v>
   <v>       0.00000000       0.00000000       0.33333333 </v>
   <v>       0.00000000       0.00000000       0.01985123 </v>
   <v>       0.00000000       0.00000000       0.64681544 </v>
  </varray>
 </structure>
 <calculation>
  <scstep>
   <time name="dav">    4.19    4.19</time>
   <time name="total">    4.23    4.25</time>
   <energy>
    <i name="alphaZ">    345.24417189 </i>
    <i name="ewald">  -5928.24015270 </i>
    <i name="hartreedc">  -1530.54853958 </i>
    <i name="XCdc">    101.33730755 </i>
    <i name="pawpsdc">   6211.53262512 </i>
    <i name="pawaedc">  -6284.81575236 </i>
    <i name="eentropy">     -0.00006106 </i>
    <i name="bandstr">    996.69593502 </i>
    <i name="atom">   6708.64263504 </i>
    <i name="e_fr_energy">    619.84816890 </i>
    <i name="e_wo_entrp">    619.84822996 </i>
    <i name="e_0_energy">    619.84818926 </i>
   </energy>
  </scstep>
  <scstep>
   <time name="dav">    4.42    4.42</time>
   <time name="total">    4.44    4.45</time>
   <energy>
    <i name="e_fr_energy">     36.86075593 </i>
    <i name="e_wo_entrp">     36.85807174 </i>
    <i name="e_0_energy">     36.85986120 </i>
   </energy>
  </scstep>
  <scstep>
   <time name="dav">    4.71    4.71</time>
   <time name="total">    4.73    4.74</time>
   <energy>
    <i name="e_fr_energy">    -20.22040440 </i>
    <i name="e_wo_entrp">    -20.22138022 </i>
    <i name="e_0_energy">    -20.22072967 </i>
   </energy>
  </scstep>
  <scstep>
   <time name="dav">    5.01    5.01</time>
   <time name="total">    5.03    5.05</time>
   <energy>
    <i name="e_fr_energy">    -21.83941630 </i>
    <i name="e_wo_entrp">    -21.84025505 </i>
    <i name="e_0_energy">    -21.83969589 </i>
   </energy>
  </scstep>
  <scstep>
   <time name="dav">    5.06    5.06</time>
   <time name="total">    5.36    5.37</time>
   <energy>
    <i name="e_fr_energy">    -21.87770128 </i>
    <i name="e_wo_entrp">    -21.87853709 </i>
    <i name="e_0_energy">    -21.87797989 </i>
   </energy>
  </scstep>
  <scstep>
   <time name="diag">    1.14    1.14</time>
   <time name="diis">    1.85    1.85</time>
   <time name="orth">    0.18    0.18</time>
   <time name="total">    3.51    3.53</time>
   <energy>
    <i name="e_fr_energy">    -20.60471598 </i>
    <i name="e_wo_entrp">    -20.60340596 </i>
    <i name="e_0_energy">    -20.60427931 </i>
   </energy>
  </scstep>
  <scstep>
   <time name="diag">    1.14    1.14</time>
   <time name="diis">    1.98    1.98</time>
   <time name="orth">    0.18    0.18</time>
   <time name="total">    3.63    3.65</time>
   <energy>
    <i name="e_fr_energy">    -19.66358147 </i>
    <i name="e_wo_entrp">    -19.66316223 </i>
    <i name="e_0_energy">    -19.66344172 </i>
   </energy>
  </scstep>
  <scstep>
   <time name="diag">    1.15    1.15</time>
   <time name="diis">    1.91    1.91</time>
   <time name="orth">    0.19    0.19</time>
   <time name="total">    3.58    3.59</time>
   <energy>
    <i name="e_fr_energy">    -19.40068947 </i>
    <i name="e_wo_entrp">    -19.40017720 </i>
    <i name="e_0_energy">    -19.40051871 </i>
   </energy>
  </scstep>
  <scstep>
   <time name="diag">    1.14    1.14</time>
   <time name="diis">    1.89    1.90</time>
   <time name="orth">    0.18    0.18</time>
   <time name="total">    3.55    3.57</time>
   <energy>
    <i name="e_fr_energy">    -19.40648566 </i>
    <i name="e_wo_entrp">    -19.40645821 </i>
    <i name="e_0_energy">    -19.40647651 </i>
   </energy>
  </scstep>
  <scstep>
   <time name="diag">    1.19    1.19</time>
   <time name="diis">    1.94    1.94</time>
   <time name="orth">    0.19    0.19</time>
   <time name="total">    3.65    3.67</time>
   <energy>
    <i name="e_fr_energy">    -19.38694538 </i>
    <i name="e_wo_entrp">    -19.38648146 </i>
    <i name="e_0_energy">    -19.38679074 </i>
   </energy>
  </scstep>
  <scstep>
   <time name="diag">    1.15    1.15</time>
   <time name="diis">    2.00    2.00</time>
   <time name="orth">    0.18    0.18</time>
   <time name="total">    3.67    3.68</time>
   <energy>
    <i name="e_fr_energy">    -19.38688569 </i>
    <i name="e_wo_entrp">    -19.38638247 </i>
    <i name="e_0_energy">    -19.38671795 </i>
   </energy>
  </scstep>
  <scstep>
   <time name="diag">    1.14    1.14</time>
   <time name="diis">    2.18    2.18</time>
   <time name="orth">    0.18    0.18</time>
   <time name="total">    3.85    3.87</time>
   <energy>
    <i name="e_fr_energy">    -19.38686613 </i>
    <i name="e_wo_entrp">    -19.38638329 </i>
    <i name="e_0_energy">    -19.38670519 </i>
   </energy>
  </scstep>
  <scstep>
   <time name="diag">    1.20    1.20</time>
   <time name="diis">    2.08    2.08</time>
   <time name="orth">    0.18    0.18</time>
   <time name="total">    3.80    3.81</time>
   <energy>
    <i name="e_fr_energy">    -19.38686186 </i>
    <i name="e_wo_entrp">    -19.38637596 </i>
    <i name="e_0_energy">    -19.38669989 </i>
   </energy>
  </scstep>
  <scstep>
   <time name="diag">    1.14    1.14</time>
   <time name="diis">    1.79    1.79</time>
   <time name="orth">    0.18    0.18</time>
   <time name="total">    3.46    3.48</time>
   <energy>
    <i name="e_fr_energy">    -19.38686150 </i>
    <i name="e_wo_entrp">    -19.38637757 </i>
    <i name="e_0_energy">    -19.38670019 </i>
   </energy>
  </scstep>
  <scstep>
   <time name="diag">    1.14    1.14</time>
   <time name="diis">    1.23    1.23</time>
   <time name="orth">    0.18    0.18</time>
   <time name="total">    2.61    2.63</time>
   <energy>
    <i name="alphaZ">    345.24417189 </i>
    <i name="ewald">  -5928.24015270 </i>
    <i name="hartreedc">  -1442.63133802 </i>
    <i name="XCdc">     97.53355339 </i>
    <i name="pawpsdc">   6863.64484231 </i>
    <i name="pawaedc">  -6951.25494044 </i>
    <i name="eentropy">     -0.00048512 </i>
    <i name="bandstr">    287.67485196 </i>
    <i name="atom">   6708.64263504 </i>
    <i name="e_fr_energy">    -19.38686169 </i>
    <i name="e_wo_entrp">    -19.38637658 </i>
    <i name="e_0_energy">    -19.38669999 </i>
   </energy>
  </scstep>
  <structure>
   <crystal>
    <varray name="basis" >
     <v>       0.00000000       2.03860013      -2.03860013 </v>
     <v>       0.00000000      -2.03860013      -2.03860013 </v>
     <v>     -11.48609403       0.00000000       0.00000000 </v>
    </varray>
    <i name="volume">     95.46989799 </i>
    <varray name="rec_basis" >
     <v>       0.00000000       0.24526634      -0.24526634 </v>
     <v>       0.00000000      -0.24526634      -0.24526634 </v>
     <v>      -0.08706180       0.00000000       0.00000000 </v>
    </varray>
   </crystal>
   <varray name="positions" >
    <v>       0.50000000       0.50000000       0.49194910 </v>
    <v>       0.50000000       0.50000000       0.17471757 </v>
    <v>       0.50000000       0.50000000       0.83333333 </v>
    <v>       0.00000000       0.00000000       0.33333333 </v>
    <v>       0.00000000       0.00000000       0.01985123 </v>
    <v>       0.00000000       0.00000000       0.64681544 </v>
   </varray>
  </structure>
  <varray name="forces" >
   <v>       0.01907126       0.00000000       0.00000000 </v>
   <v>      -0.01907126       0.00000000       0.00000000 </v>
   <v>       0.00000000       0.00000000       0.00000000 </v>
   <v>       0.00000000       0.00000000       0.00000000 </v>
   <v>       0.01224721       0.00000000       0.00000000 </v>
   <v>      -0.01224721       0.00000000       0.00000000 </v>
  </varray>
  <varray name="stress" >
   <v>      -0.60265751       0.00000000       0.00000000 </v>
   <v>       0.00000000       1.53128737       0.00000000 </v>
   <v>       0.00000000       0.00000000       1.53128737 </v>
  </varray>
  <energy>
   <i name="e_fr_energy">    -19.38686169 </i>
   <i name="e_wo_entrp">    -19.38669999 </i>
   <i name="e_0_energy">     -0.00048512 </i>
  </energy>
  <time name="totalsc">   62.39   62.62</time>
  <eigenvalues>
   <array>
    <dimension dim="1">band</dimension>
    <dimension dim="2">kpoint</dimension>
    <dimension dim="3">spin</dimension>
    <field>eigene</field>
    <field>occ</field>
    <set>
     <set comment="spin 1">
      <set comment="kpoint 1">
       <r>   -0.7310    1.0000 </r>
       <r>    0.0320    1.0000 </r>
       <r>    1.0825    1.0000 </r>
       <r>    1.7931    1.0000 </r>
       <r>    1.8832    1.0000 </r>
       <r>    2.1946    1.0000 </r>
       <r>    2.2917    1.0000 </r>
       <r>    2.3934    1.0000 </r>
       <r>    2.5071    1.0000 </r>
       <r>    2.9624    1.0000 </r>
       <r>    3.7757    1.0000 </r>
       <r>    3.7757    1.0000 </r>
       <r>    3.9150    1.0000 </r>
       <r>    3.9150    1.0000 </r>
       <r>    4.1916    1.0000 </r>
       <r>    4.4992    1.0000 </r>
       <r>    4.4992    1.0000 </r>
       <r>    4.5162    1.0000 </r>
       <r>    4.7583    1.0000 </r>
       <r>    5.1472    1.0000 </r>
       <r>    5.1472    1.0000 </r>
       <r>    5.2288    1.0000 </r>
       <r>    5.3518    1.0000 </r>
       <r>    5.3825    1.0000 </r>
       <r>    5.3982    1.0000 </r>
       <r>    5.4583    1.0000 </r>
       <r>    5.7287    1.0000 </r>
       <r>    6.1195    1.0000 </r>
       <r>    6.1195    1.0000 </r>
       <r>    6.2973    1.0000 </r>
       <r>    6.3080    1.0000 </r>
       <r>    6.3609    1.0000 </r>
       <r>    6.4389    1.0000 </r>
       <r>    6.4389    1.0000 </r>
       <r>    6.5481    1.0000 </r>
       <r>   10.4747    0.0000 </r>
       <r>   15.3223    0.0000 </r>
       <r>   17.7626    0.0000 </r>
       <r>   17.4792    0.0000 </r>
       <r>   16.3630    0.0000 </r>
      </set>
      <set comment="kpoint 2">
       <r>   -0.6929    1.0000 </r>
       <r>    0.0667    1.0000 </r>
       <r>    1.1139    1.0000 </r>
       <r>    1.8153    1.0000 </r>
       <r>    1.9038    1.0000 </r>
       <r>    2.2123    1.0000 </r>
       <r>    2.3057    1.0000 </r>
       <r>    2.4097    1.0000 </r>
       <r>    2.5194    1.0000 </r>
       <r>    2.9749    1.0000 </r>
       <r>    3.7622    1.0000 </r>
       <r>    3.7824    1.0000 </r>
       <r>    3.8976    1.0000 </r>
       <r>    3.9150    1.0000 </r>
       <r>    4.1549    1.0000 </r>
       <r>    4.4542    1.0000 </r>
       <r>    4.5164    1.0000 </r>
       <r>    4.5223    1.0000 </r>
       <r>    4.7726    1.0000 </r>
       <r>    4.9527    1.0000 </r>
       <r>    5.1170    1.0000 </r>
       <r>    5.2490    1.0000 </r>
       <r>    5.3572    1.0000 </r>
       <r>    5.3927    1.0000 </r>
       <r>    5.4232    1.0000 </r>
       <r>    5.5453    1.0000 </r>
       <r>    5.6943    1.0000 </r>
       <r>    6.0629    1.0000 </r>
       <r>    6.1383    1.0000 </r>
       <r>    6.2987    1.0000 </r>
       <r>    6.3525    1.0000 </r>
       <r>    6.3710    1.0000 </r>
       <r>    6.3992    1.0000 </r>
       <r>    6.4372    1.0000 </r>
       <r>    6.6751    1.0000 </r>
       <r>   10.5712    0.0000 </r>
       <r>   15.3092    0.0000 </r>
       <r>   15.8433    0.0000 </r>
       <r>   14.5341    0.0000 </r>
       <r>   16.0255    0.0000 </r>
      </set>
      <set comment="kpoint 3">
       <r>   -0.5799    1.0000 </r>
       <r>    0.1679    1.0000 </r>
       <r>    1.2047    1.0000 </r>
       <r>    1.8684    1.0000 </r>
       <r>    1.9768    1.0000 </r>
       <r>    2.2618    1.0000 </r>
       <r>    2.3389    1.0000 </r>
       <r>    2.4658    1.0000 </r>
       <r>    2.5585    1.0000 </r>
       <r>    3.0147    1.0000 </r>
       <r>    3.7200    1.0000 </r>
       <r>    3.8014    1.0000 </r>
       <r>    3.8527    1.0000 </r>
       <r>    3.9153    1.0000 </r>
       <r>    4.0626    1.0000 </r>
       <r>    4.3772    1.0000 </r>
       <r>    4.4929    1.0000 </r>
       <r>    4.5542    1.0000 </r>
       <r>    4.6725    1.0000 </r>
       <r>    4.8067    1.0000 </r>
       <r>    5.0387    1.0000 </r>
       <r>    5.2932    1.0000 </r>
       <r>    5.3311    1.0000 </r>
       <r>    5.3638    1.0000 </r>
       <r>    5.4203    1.0000 </r>
       <r>    5.6076    1.0000 </r>
       <r>    5.6949    1.0000 </r>
       <r>    5.9959    1.0000 </r>
       <r>    6.1787    1.0000 </r>
       <r>    6.2787    1.0000 </r>
       <r>    6.3025    1.0000 </r>
       <r>    6.3332    1.0000 </r>
       <r>    6.4321    1.0000 </r>
       <r>    6.5785    1.0000 </r>
       <r>    6.9377    1.0000 </r>
       <r>   10.8455    0.0000 </r>
       <r>   15.2529    0.0000 </r>
       <r>   15.9375    0.0000 </r>
       <r>   14.6202    0.0000 </r>
       <r>   14.5655    0.0000 </r>
      </set>
      <set comment="kpoint 4">
       <r>   -0.3956    1.0000 </r>
       <r>    0.3263    1.0000 </r>
       <r>    1.3433    1.0000 </r>
       <r>    1.9329    1.0000 </r>
       <r>    2.1143    1.0000 </r>
       <r>    2.3289    1.0000 </r>
       <r>    2.3760    1.0000 </r>
       <r>    2.5728    1.0000 </r>
       <r>    2.6337    1.0000 </r>
       <r>    3.0892    1.0000 </r>
       <r>    3.6417    1.0000 </r>
       <r>    3.8034    1.0000 </r>
       <r>    3.8285    1.0000 </r>
       <r>    3.9189    1.0000 </r>
       <r>    3.9425    1.0000 </r>
       <r>    4.2853    1.0000 </r>
       <r>    4.4059    1.0000 </r>
       <r>    4.4299    1.0000 </r>
       <r>    4.5961    1.0000 </r>
       <r>    4.8444    1.0000 </r>
       <r>    4.9307    1.0000 </r>
       <r>    5.2060    1.0000 </r>
       <r>    5.3557    1.0000 </r>
       <r>    5.3617    1.0000 </r>
       <r>    5.4545    1.0000 </r>
       <r>    5.5200    1.0000 </r>
       <r>    5.7771    1.0000 </r>
       <r>    5.9603    1.0000 </r>
       <r>    6.1272    1.0000 </r>
       <r>    6.2029    1.0000 </r>
       <r>    6.3069    1.0000 </r>
       <r>    6.3272    1.0000 </r>
       <r>    6.4234    1.0000 </r>
       <r>    6.8874    1.0000 </r>
       <r>    7.2477    1.0002 </r>
       <r>   11.2631    0.0000 </r>
       <r>   15.0606    0.0000 </r>
       <r>   16.1904    0.0000 </r>
       <r>   14.7279    0.0000 </r>
       <r>   14.2550    0.0000 </r>
      </set>
      <set comment="kpoint 5">
       <r>   -0.1465    1.0000 </r>
       <r>    0.5256    1.0000 </r>
       <r>    1.5089    1.0000 </r>
       <r>    2.0066    1.0000 </r>
       <r>    2.3046    1.0000 </r>
       <r>    2.3849    1.0000 </r>
       <r>    2.4086    1.0000 </r>
       <r>    2.7345    1.0000 </r>
       <r>    2.7666    1.0000 </r>
       <r>    3.2099    1.0000 </r>
       <r>    3.5292    1.0000 </r>
       <r>    3.7679    1.0000 </r>
       <r>    3.8188    1.0000 </r>
       <r>    3.8517    1.0000 </r>
       <r>    3.9341    1.0000 </r>
       <r>    4.1785    1.0000 </r>
       <r>    4.1853    1.0000 </r>
       <r>    4.3434    1.0000 </r>
       <r>    4.6367    1.0000 </r>
       <r>    4.8075    1.0000 </r>
       <r>    4.8688    1.0000 </r>
       <r>    5.0718    1.0000 </r>
       <r>    5.3486    1.0000 </r>
       <r>    5.4248    1.0000 </r>
       <r>    5.4426    1.0000 </r>
       <r>    5.5121    1.0000 </r>
       <r>    5.8122    1.0000 </r>
       <r>    5.9465    1.0000 </r>
       <r>    5.9848    1.0000 </r>
       <r>    6.1864    1.0000 </r>
       <r>    6.3099    1.0000 </r>
       <r>    6.3545    1.0000 </r>
       <r>    6.4119    1.0000 </r>
       <r>    7.2561    1.0002 </r>
       <r>    7.5784    1.0145 </r>
       <r>   11.7886    0.0000 </r>
       <r>   14.4792    0.0000 </r>
       <r>   15.7085    0.0000 </r>
       <r>   16.1201    0.0000 </r>
       <r>   15.6013    0.0000 </r>
      </set>
      <set comment="kpoint 6">
       <r>    0.1580    1.0000 </r>
       <r>    0.7431    1.0000 </r>
       <r>    1.6729    1.0000 </r>
       <r>    2.0858    1.0000 </r>
       <r>    2.4011    1.0000 </r>
       <r>    2.4334    1.0000 </r>
       <r>    2.5307    1.0000 </r>
       <r>    2.9498    1.0000 </r>
       <r>    2.9755    1.0000 </r>
       <r>    3.3833    1.0000 </r>
       <r>    3.4095    1.0000 </r>
       <r>    3.7220    1.0000 </r>
       <r>    3.7223    1.0000 </r>
       <r>    3.8581    1.0000 </r>
       <r>    3.9683    1.0000 </r>
       <r>    4.0309    1.0000 </r>
       <r>    4.0821    1.0000 </r>
       <r>    4.2425    1.0000 </r>
       <r>    4.6777    1.0000 </r>
       <r>    4.6837    1.0000 </r>
       <r>    4.8330    1.0000 </r>
       <r>    4.9822    1.0000 </r>
       <r>    5.3251    1.0000 </r>
       <r>    5.4300    1.0000 </r>
       <r>    5.4883    1.0000 </r>
       <r>    5.5399    1.0000 </r>
       <r>    5.7592    1.0000 </r>
       <r>    5.9412    1.0000 </r>
       <r>    5.9549    1.0000 </r>
       <r>    6.1565    1.0000 </r>
       <r>    6.3086    1.0000 </r>
       <r>    6.3902    1.0000 </r>
       <r>    6.3994    1.0000 </r>
       <r>    7.6553    1.0257 </r>
       <r>    7.9173    0.9488 </r>
       <r>   12.3935    0.0000 </r>
       <r>   13.5635    0.0000 </r>
       <r>   15.0280    0.0000 </r>
       <r>   15.2786    0.0000 </r>
       <r>   16.3365    0.0000 </r>
      </set>
      <set comment="kpoint 7">
       <r>    0.5043    1.0000 </r>
       <r>    0.9527    1.0000 </r>
       <r>    1.8064    1.0000 </r>
       <r>    2.1608    1.0000 </r>
       <r>    2.3668    1.0000 </r>
       <r>    2.4585    1.0000 </r>
       <r>    2.7742    1.0000 </r>
       <r>    3.1933    1.0000 </r>
       <r>    3.2027    1.0000 </r>
       <r>    3.3695    1.0000 </r>
       <r>    3.5369    1.0000 </r>
       <r>    3.6192    1.0000 </r>
       <r>    3.7666    1.0000 </r>
       <r>    3.8512    1.0000 </r>
       <r>    3.9804    1.0000 </r>
       <r>    4.0072    1.0000 </r>
       <r>    4.0191    1.0000 </r>
       <r>    4.1359    1.0000 </r>
       <r>    4.5783    1.0000 </r>
       <r>    4.7094    1.0000 </r>
       <r>    4.7307    1.0000 </r>
       <r>    4.9715    1.0000 </r>
       <r>    5.2916    1.0000 </r>
       <r>    5.4555    1.0000 </r>
       <r>    5.5363    1.0000 </r>
       <r>    5.5539    1.0000 </r>
       <r>    5.6550    1.0000 </r>
       <r>    5.9857    1.0000 </r>
       <r>    5.9919    1.0000 </r>
       <r>    6.1341    1.0000 </r>
       <r>    6.3014    1.0000 </r>
       <r>    6.3883    1.0000 </r>
       <r>    6.4176    1.0000 </r>
       <r>    8.0693    0.6356 </r>
       <r>    8.2539    0.1570 </r>
       <r>   12.5704    0.0000 </r>
       <r>   13.0451    0.0000 </r>
       <r>   13.9462    0.0000 </r>
       <r>   14.4844    0.0000 </r>
       <r>   16.1351    0.0000 </r>
      </set>
      <set comment="kpoint 8">
       <r>    0.8735    1.0000 </r>
       <r>    1.1334    1.0000 </r>
       <r>    1.8875    1.0000 </r>
       <r>    2.2247    1.0000 </r>
       <r>    2.2881    1.0000 </r>
       <r>    2.5043    1.0000 </r>
       <r>    3.0172    1.0000 </r>
       <r>    3.1797    1.0000 </r>
       <r>    3.3530    1.0000 </r>
       <r>    3.4406    1.0000 </r>
       <r>    3.6170    1.0000 </r>
       <r>    3.7452    1.0000 </r>
       <r>    3.8362    1.0000 </r>
       <r>    3.8847    1.0000 </r>
       <r>    4.0276    1.0000 </r>
       <r>    4.0318    1.0000 </r>
       <r>    4.0895    1.0000 </r>
       <r>    4.1019    1.0000 </r>
       <r>    4.5159    1.0000 </r>
       <r>    4.5711    1.0000 </r>
       <r>    4.8242    1.0000 </r>
       <r>    4.9743    1.0000 </r>
       <r>    5.2481    1.0000 </r>
       <r>    5.4921    1.0000 </r>
       <r>    5.5607    1.0000 </r>
       <r>    5.5688    1.0000 </r>
       <r>    5.5770    1.0000 </r>
       <r>    6.0567    1.0000 </r>
       <r>    6.0623    1.0000 </r>
       <r>    6.1266    1.0000 </r>
       <r>    6.2890    1.0000 </r>
       <r>    6.3798    1.0000 </r>
       <r>    6.4324    1.0000 </r>
       <r>    8.4816   -0.0354 </r>
       <r>    8.5704   -0.0273 </r>
       <r>   11.5936    0.0000 </r>
       <r>   12.8587    0.0000 </r>
       <r>   13.5392    0.0000 </r>
       <r>   13.8118    0.0000 </r>
       <r>   16.1616    0.0000 </r>
      </set>
      <set comment="kpoint 9">
       <r>    1.2390    1.0000 </r>
       <r>    1.2762    1.0000 </r>
       <r>    1.9088    1.0000 </r>
       <r>    2.1822    1.0000 </r>
       <r>    2.2844    1.0000 </r>
       <r>    2.5858    1.0000 </r>
       <r>    3.1281    1.0000 </r>
       <r>    3.2395    1.0000 </r>
       <r>    3.3199    1.0000 </r>
       <r>    3.3627    1.0000 </r>
       <r>    3.7777    1.0000 </r>
       <r>    3.7991    1.0000 </r>
       <r>    3.8146    1.0000 </r>
       <r>    3.9373    1.0000 </r>
       <r>    4.0156    1.0000 </r>
       <r>    4.1697    1.0000 </r>
       <r>    4.2631    1.0000 </r>
       <r>    4.4440    1.0000 </r>
       <r>    4.5080    1.0000 </r>
       <r>    4.5150    1.0000 </r>
       <r>    4.9737    1.0000 </r>
       <r>    5.0243    1.0000 </r>
       <r>    5.1940    1.0000 </r>
       <r>    5.4877    1.0000 </r>
       <r>    5.5182    1.0000 </r>
       <r>    5.5846    1.0000 </r>
       <r>    5.6260    1.0000 </r>
       <r>    6.1346    1.0000 </r>
       <r>    6.1450    1.0000 </r>
       <r>    6.1731    1.0000 </r>
       <r>    6.2747    1.0000 </r>
       <r>    6.3729    1.0000 </r>
       <r>    6.4344    1.0000 </r>
       <r>    8.8183   -0.0024 </r>
       <r>    8.8521   -0.0015 </r>
       <r>   10.6757    0.0000 </r>
       <r>   11.9552    0.0000 </r>
       <r>   12.6590    0.0000 </r>
       <r>   14.5193    0.0000 </r>
       <r>   15.9868    0.0000 </r>
      </set>
      <set comment="kpoint 10">
       <r>    1.3836    1.0000 </r>
       <r>    1.5647    1.0000 </r>
       <r>    1.8887    1.0000 </r>
       <r>    2.0696    1.0000 </r>
       <r>    2.3456    1.0000 </r>
       <r>    2.7012    1.0000 </r>
       <r>    3.0835    1.0000 </r>
       <r>    3.2259    1.0000 </r>
       <r>    3.3294    1.0000 </r>
       <r>    3.4257    1.0000 </r>
       <r>    3.7278    1.0000 </r>
       <r>    3.7871    1.0000 </r>
       <r>    3.8581    1.0000 </r>
       <r>    3.9089    1.0000 </r>
       <r>    3.9841    1.0000 </r>
       <r>    4.3148    1.0000 </r>
       <r>    4.3374    1.0000 </r>
       <r>    4.5657    1.0000 </r>
       <r>    4.7649    1.0000 </r>
       <r>    4.8587    1.0000 </r>
       <r>    4.9692    1.0000 </r>
       <r>    5.1293    1.0000 </r>
       <r>    5.4139    1.0000 </r>
       <r>    5.4855    1.0000 </r>
       <r>    5.4992    1.0000 </r>
       <r>    5.5934    1.0000 </r>
       <r>    5.7028    1.0000 </r>
       <r>    6.1551    1.0000 </r>
       <r>    6.2608    1.0000 </r>
       <r>    6.2621    1.0000 </r>
       <r>    6.3412    1.0000 </r>
       <r>    6.3666    1.0000 </r>
       <r>    6.4252    1.0000 </r>
       <r>    8.8648   -0.0012 </r>
       <r>    9.0496   -0.0001 </r>
       <r>    9.8615    0.0000 </r>
       <r>   11.2944    0.0000 </r>
       <r>   12.0065    0.0000 </r>
       <r>   14.7624    0.0000 </r>
       <r>   15.1993    0.0000 </r>
      </set>
      <set comment="kpoint 11">
       <r>    1.4631    1.0000 </r>
       <r>    1.8100    1.0000 </r>
       <r>    1.8565    1.0000 </r>
       <r>    1.9673    1.0000 </r>
       <r>    2.4033    1.0000 </r>
       <r>    2.8434    1.0000 </r>
       <r>    3.0358    1.0000 </r>
       <r>    3.1767    1.0000 </r>
       <r>    3.2864    1.0000 </r>
       <r>    3.5541    1.0000 </r>
       <r>    3.6741    1.0000 </r>
       <r>    3.7580    1.0000 </r>
       <r>    3.7986    1.0000 </r>
       <r>    3.9550    1.0000 </r>
       <r>    3.9854    1.0000 </r>
       <r>    4.2572    1.0000 </r>
       <r>    4.4036    1.0000 </r>
       <r>    4.6431    1.0000 </r>
       <r>    4.9634    1.0000 </r>
       <r>    5.0557    1.0000 </r>
       <r>    5.1178    1.0000 </r>
       <r>    5.2656    1.0000 </r>
       <r>    5.4294    1.0000 </r>
       <r>    5.5025    1.0000 </r>
       <r>    5.6067    1.0000 </r>
       <r>    5.6789    1.0000 </r>
       <r>    6.1246    1.0000 </r>
       <r>    6.1824    1.0000 </r>
       <r>    6.2529    1.0000 </r>
       <r>    6.3610    1.0000 </r>
       <r>    6.4084    1.0000 </r>
       <r>    6.4573    1.0000 </r>
       <r>    6.5916    1.0000 </r>
       <r>    8.5311   -0.0326 </r>
       <r>    8.8216   -0.0023 </r>
       <r>    9.1696    0.0000 </r>
       <r>   11.1457    0.0000 </r>
       <r>   11.7843    0.0000 </r>
       <r>   13.9940    0.0000 </r>
       <r>   14.2828    0.0000 </r>
      </set>
      <set comment="kpoint 12">
       <r>    1.5180    1.0000 </r>
       <r>    1.8286    1.0000 </r>
       <r>    1.8910    1.0000 </r>
       <r>    1.9552    1.0000 </r>
       <r>    2.4474    1.0000 </r>
       <r>    2.9953    1.0000 </r>
       <r>    2.9968    1.0000 </r>
       <r>    3.1590    1.0000 </r>
       <r>    3.2231    1.0000 </r>
       <r>    3.6256    1.0000 </r>
       <r>    3.6408    1.0000 </r>
       <r>    3.7354    1.0000 </r>
       <r>    3.7619    1.0000 </r>
       <r>    3.9372    1.0000 </r>
       <r>    4.0219    1.0000 </r>
       <r>    4.2075    1.0000 </r>
       <r>    4.4569    1.0000 </r>
       <r>    4.7253    1.0000 </r>
       <r>    4.9588    1.0000 </r>
       <r>    4.9803    1.0000 </r>
       <r>    5.3183    1.0000 </r>
       <r>    5.4123    1.0000 </r>
       <r>    5.5123    1.0000 </r>
       <r>    5.5368    1.0000 </r>
       <r>    5.6707    1.0000 </r>
       <r>    5.6758    1.0000 </r>
       <r>    6.2076    1.0000 </r>
       <r>    6.2476    1.0000 </r>
       <r>    6.3570    1.0000 </r>
       <r>    6.3905    1.0000 </r>
       <r>    6.8123    1.0000 </r>
       <r>    6.8462    1.0000 </r>
       <r>    6.9635    1.0000 </r>
       <r>    7.9669    0.8724 </r>
       <r>    8.2285    0.2107 </r>
       <r>    8.4700   -0.0350 </r>
       <r>   11.4354    0.0000 </r>
       <r>   11.9976    0.0000 </r>
       <r>   13.2528    0.0000 </r>
       <r>   13.4820    0.0000 </r>
      </set>
      <set comment="kpoint 13">
       <r>    1.5397    1.0000 </r>
       <r>    1.8189    1.0000 </r>
       <r>    1.8609    1.0000 </r>
       <r>    2.0005    1.0000 </r>
       <r>    2.4644    1.0000 </r>
       <r>    2.9823    1.0000 </r>
       <r>    3.1267    1.0000 </r>
       <r>    3.1287    1.0000 </r>
       <r>    3.1548    1.0000 </r>
       <r>    3.6294    1.0000 </r>
       <r>    3.6473    1.0000 </r>
       <r>    3.7269    1.0000 </r>
       <r>    3.7494    1.0000 </r>
       <r>    3.9315    1.0000 </r>
       <r>    4.0325    1.0000 </r>
       <r>    4.1907    1.0000 </r>
       <r>    4.4743    1.0000 </r>
       <r>    4.7715    1.0000 </r>
       <r>    4.9369    1.0000 </r>
       <r>    4.9570    1.0000 </r>
       <r>    5.3972    1.0000 </r>
       <r>    5.4190    1.0000 </r>
       <r>    5.5169    1.0000 </r>
       <r>    5.5680    1.0000 </r>
       <r>    5.6450    1.0000 </r>
       <r>    5.7471    1.0000 </r>
       <r>    6.2186    1.0000 </r>
       <r>    6.2460    1.0000 </r>
       <r>    6.3555    1.0000 </r>
       <r>    6.3821    1.0000 </r>
       <r>    7.2787    1.0003 </r>
       <r>    7.2907    1.0003 </r>
       <r>    7.4157    1.0023 </r>
       <r>    7.5513    1.0112 </r>
       <r>    7.7030    1.0324 </r>
       <r>    7.8755    0.9923 </r>
       <r>   11.6884    0.0000 </r>
       <r>   12.2788    0.0000 </r>
       <r>   12.8713    0.0000 </r>
       <r>   13.0264    0.0000 </r>
      </set>
      <set comment="kpoint 14">
       <r>   -0.6548    1.0000 </r>
       <r>    0.1016    1.0000 </r>
       <r>    1.1456    1.0000 </r>
       <r>    1.8396    1.0000 </r>
       <r>    1.9223    1.0000 </r>
       <r>    2.2304    1.0000 </r>
       <r>    2.3211    1.0000 </r>
       <r>    2.4246    1.0000 </r>
       <r>    2.5314    1.0000 </r>
       <r>    2.9868    1.0000 </r>
       <r>    3.7446    1.0000 </r>
       <r>    3.7909    1.0000 </r>
       <r>    3.8833    1.0000 </r>
       <r>    3.9127    1.0000 </r>
       <r>    4.1252    1.0000 </r>
       <r>    4.4536    1.0000 </r>
       <r>    4.4729    1.0000 </r>
       <r>    4.5313    1.0000 </r>
       <r>    4.7912    1.0000 </r>
       <r>    4.8296    1.0000 </r>
       <r>    5.1086    1.0000 </r>
       <r>    5.2905    1.0000 </r>
       <r>    5.3200    1.0000 </r>
       <r>    5.3842    1.0000 </r>
       <r>    5.4027    1.0000 </r>
       <r>    5.6197    1.0000 </r>
       <r>    5.6767    1.0000 </r>
       <r>    6.0546    1.0000 </r>
       <r>    6.1210    1.0000 </r>
       <r>    6.2753    1.0000 </r>
       <r>    6.3405    1.0000 </r>
       <r>    6.3550    1.0000 </r>
       <r>    6.4406    1.0000 </r>
       <r>    6.4628    1.0000 </r>
       <r>    6.7832    1.0000 </r>
       <r>   10.6645    0.0000 </r>
       <r>   15.2976    0.0000 </r>
       <r>   14.8335    0.0000 </r>
       <r>   14.3000    0.0000 </r>
       <r>   15.8022    0.0000 </r>
      </set>
      <set comment="kpoint 15">
       <r>   -0.5419    1.0000 </r>
       <r>    0.2033    1.0000 </r>
       <r>    1.2369    1.0000 </r>
       <r>    1.8973    1.0000 </r>
       <r>    1.9904    1.0000 </r>
       <r>    2.2813    1.0000 </r>
       <r>    2.3584    1.0000 </r>
       <r>    2.4767    1.0000 </r>
       <r>    2.5691    1.0000 </r>
       <r>    3.0247    1.0000 </r>
       <r>    3.7024    1.0000 </r>
       <r>    3.7928    1.0000 </r>
       <r>    3.8505    1.0000 </r>
       <r>    3.9133    1.0000 </r>
       <r>    4.0453    1.0000 </r>
       <r>    4.3770    1.0000 </r>
       <r>    4.4663    1.0000 </r>
       <r>    4.5232    1.0000 </r>
       <r>    4.5998    1.0000 </r>
       <r>    4.8279    1.0000 </r>
       <r>    5.0531    1.0000 </r>
       <r>    5.2887    1.0000 </r>
       <r>    5.2907    1.0000 </r>
       <r>    5.3512    1.0000 </r>
       <r>    5.4300    1.0000 </r>
       <r>    5.6204    1.0000 </r>
       <r>    5.7229    1.0000 </r>
       <r>    6.0033    1.0000 </r>
       <r>    6.1524    1.0000 </r>
       <r>    6.2263    1.0000 </r>
       <r>    6.2890    1.0000 </r>
       <r>    6.3162    1.0000 </r>
       <r>    6.4373    1.0000 </r>
       <r>    6.6728    1.0000 </r>
       <r>    7.0243    1.0000 </r>
       <r>   10.9309    0.0000 </r>
       <r>   15.2472    0.0000 </r>
       <r>   15.8749    0.0000 </r>
       <r>   14.2588    0.0000 </r>
       <r>   14.5887    0.0000 </r>
      </set>
      <set comment="kpoint 16">
       <r>   -0.3578    1.0000 </r>
       <r>    0.3625    1.0000 </r>
       <r>    1.3765    1.0000 </r>
       <r>    1.9634    1.0000 </r>
       <r>    2.1257    1.0000 </r>
       <r>    2.3507    1.0000 </r>
       <r>    2.3985    1.0000 </r>
       <r>    2.5806    1.0000 </r>
       <r>    2.6420    1.0000 </r>
       <r>    3.0960    1.0000 </r>
       <r>    3.6319    1.0000 </r>
       <r>    3.7420    1.0000 </r>
       <r>    3.8657    1.0000 </r>
       <r>    3.9133    1.0000 </r>
[...]
       <r>    5.9612    1.0000 </r>
       <r>    5.9882    1.0000 </r>
       <r>    6.0471    1.0000 </r>
       <r>    6.2384    1.0000 </r>
       <r>    6.3078    1.0000 </r>
       <r>    6.3111    1.0000 </r>
       <r>    6.4232    1.0000 </r>
       <r>    6.4637    1.0000 </r>
       <r>    6.4675    1.0000 </r>
       <r>    9.4037    0.0000 </r>
       <r>    9.5634    0.0000 </r>
       <r>   10.0915    0.0000 </r>
       <r>   10.3446    0.0000 </r>
       <r>   12.3672    0.0000 </r>
       <r>   13.1167    0.0000 </r>
       <r>   13.4404    0.0000 </r>
       <r>   13.7611    0.0000 </r>
       <r>   13.8503    0.0000 </r>
       <r>   14.0314    0.0000 </r>
      </set>
      <set comment="kpoint 363">
       <r>    1.6334    1.0000 </r>
       <r>    1.7800    1.0000 </r>
       <r>    2.0172    1.0000 </r>
       <r>    2.1166    1.0000 </r>
       <r>    2.1172    1.0000 </r>
       <r>    2.1750    1.0000 </r>
       <r>    2.6894    1.0000 </r>
       <r>    2.7119    1.0000 </r>
       <r>    2.8510    1.0000 </r>
       <r>    2.8877    1.0000 </r>
       <r>    3.0715    1.0000 </r>
       <r>    4.1357    1.0000 </r>
       <r>    4.1644    1.0000 </r>
       <r>    4.1660    1.0000 </r>
       <r>    4.7463    1.0000 </r>
       <r>    4.8130    1.0000 </r>
       <r>    5.1577    1.0000 </r>
       <r>    5.4305    1.0000 </r>
       <r>    5.7192    1.0000 </r>
       <r>    5.7551    1.0000 </r>
       <r>    5.9694    1.0000 </r>
       <r>    5.9721    1.0000 </r>
       <r>    6.0174    1.0000 </r>
       <r>    6.1038    1.0000 </r>
       <r>    6.2412    1.0000 </r>
       <r>    6.3138    1.0000 </r>
       <r>    6.3714    1.0000 </r>
       <r>    6.4246    1.0000 </r>
       <r>    6.4731    1.0000 </r>
       <r>    6.4740    1.0000 </r>
       <r>    9.8106    0.0000 </r>
       <r>    9.8275    0.0000 </r>
       <r>    9.9900    0.0000 </r>
       <r>   10.0634    0.0000 </r>
       <r>   12.7842    0.0000 </r>
       <r>   13.3390    0.0000 </r>
       <r>   13.4451    0.0000 </r>
       <r>   13.4717    0.0000 </r>
       <r>   13.8712    0.0000 </r>
       <r>   13.9126    0.0000 </r>
      </set>
      <set comment="kpoint 364">
       <r>    1.6120    1.0000 </r>
       <r>    1.7622    1.0000 </r>
       <r>    2.0014    1.0000 </r>
       <r>    2.1037    1.0000 </r>
       <r>    2.1037    1.0000 </r>
       <r>    2.1540    1.0000 </r>
       <r>    2.6949    1.0000 </r>
       <r>    2.6949    1.0000 </r>
       <r>    2.8663    1.0000 </r>
       <r>    2.8663    1.0000 </r>
       <r>    3.0709    1.0000 </r>
       <r>    4.1607    1.0000 </r>
       <r>    4.1629    1.0000 </r>
       <r>    4.1629    1.0000 </r>
       <r>    4.7452    1.0000 </r>
       <r>    4.8189    1.0000 </r>
       <r>    5.2304    1.0000 </r>
       <r>    5.4765    1.0000 </r>
       <r>    5.7354    1.0000 </r>
       <r>    5.7354    1.0000 </r>
       <r>    5.9758    1.0000 </r>
       <r>    5.9863    1.0000 </r>
       <r>    6.1065    1.0000 </r>
       <r>    6.1065    1.0000 </r>
       <r>    6.2432    1.0000 </r>
       <r>    6.3213    1.0000 </r>
       <r>    6.4279    1.0000 </r>
       <r>    6.4284    1.0000 </r>
       <r>    6.4834    1.0000 </r>
       <r>    6.4844    1.0000 </r>
       <r>    9.9245    0.0000 </r>
       <r>    9.9245    0.0000 </r>
       <r>   10.1404    0.0000 </r>
       <r>   10.1404    0.0000 </r>
       <r>   12.9998    0.0000 </r>
       <r>   13.1020    0.0000 </r>
       <r>   13.6264    0.0000 </r>
       <r>   13.6511    0.0000 </r>
       <r>   13.6998    0.0000 </r>
       <r>   13.7000    0.0000 </r>
      </set>
     </set>
    </set>
   </array>
  </eigenvalues>
  <separator name="orbital magnetization" >
   <v name="MAGDIPOLOUT">      0.00000000      0.00000000      0.00000000</v>
  </separator>
  <dos>
   <i name="efermi">      8.11812577 </i>
   <total>
    <array>
     <dimension dim="1">gridpoints</dimension>
     <dimension dim="2">spin</dimension>
     <field>energy</field>
     <field>total</field>
     <field>integrated</field>
     <set>
      <set comment="spin 1">
       <r>    -3.7310     0.0000     0.0000 </r>
       <r>    -3.6493     0.0000     0.0000 </r>
       <r>    -3.5677     0.0000     0.0000 </r>
       <r>    -3.4860     0.0000     0.0000 </r>
       <r>    -3.4044     0.0000     0.0000 </r>
       <r>    -3.3227     0.0000     0.0000 </r>
       <r>    -3.2411     0.0000     0.0000 </r>
       <r>    -3.1594     0.0000     0.0000 </r>
       <r>    -3.0778     0.0000     0.0000 </r>
       <r>    -2.9961     0.0000     0.0000 </r>
       <r>    -2.9145     0.0000     0.0000 </r>
       <r>    -2.8329     0.0000     0.0000 </r>
       <r>    -2.7512     0.0000     0.0000 </r>
       <r>    -2.6696     0.0000     0.0000 </r>
       <r>    -2.5879     0.0000     0.0000 </r>
       <r>    -2.5063     0.0000     0.0000 </r>
       <r>    -2.4246     0.0000     0.0000 </r>
       <r>    -2.3430     0.0000     0.0000 </r>
       <r>    -2.2613     0.0000     0.0000 </r>
       <r>    -2.1797     0.0000     0.0000 </r>
       <r>    -2.0980     0.0000     0.0000 </r>
       <r>    -2.0164     0.0000     0.0000 </r>
       <r>    -1.9348     0.0000     0.0000 </r>
       <r>    -1.8531     0.0000     0.0000 </r>
       <r>    -1.7715     0.0000     0.0000 </r>
       <r>    -1.6898     0.0000     0.0000 </r>
       <r>    -1.6082     0.0000     0.0000 </r>
       <r>    -1.5265     0.0000     0.0000 </r>
       <r>    -1.4449    -0.0001     0.0000 </r>
       <r>    -1.3632    -0.0005    -0.0001 </r>
       <r>    -1.2816    -0.0013    -0.0002 </r>
       <r>    -1.1999    -0.0030    -0.0004 </r>
       <r>    -1.1183    -0.0056    -0.0009 </r>
       <r>    -1.0367    -0.0082    -0.0015 </r>
       <r>    -0.9550    -0.0074    -0.0021 </r>
       <r>    -0.8734     0.0022    -0.0020 </r>
       <r>    -0.7917     0.0264     0.0002 </r>
       <r>    -0.7101     0.0677     0.0057 </r>
       <r>    -0.6284     0.1231     0.0158 </r>
       <r>    -0.5468     0.1843     0.0308 </r>
       <r>    -0.4651     0.2432     0.0507 </r>
       <r>    -0.3835     0.2962     0.0749 </r>
       <r>    -0.3019     0.3452     0.1030 </r>
       <r>    -0.2202     0.3946     0.1353 </r>
       <r>    -0.1386     0.4476     0.1718 </r>
       <r>    -0.0569     0.5029     0.2129 </r>
       <r>     0.0247     0.5564     0.2583 </r>
       <r>     0.1064     0.6032     0.3075 </r>
       <r>     0.1880     0.6397     0.3598 </r>
       <r>     0.2697     0.6651     0.4141 </r>
       <r>     0.3513     0.6824     0.4698 </r>
       <r>     0.4330     0.6967     0.5267 </r>
       <r>     0.5146     0.7119     0.5848 </r>
       <r>     0.5962     0.7287     0.6443 </r>
       <r>     0.6779     0.7462     0.7052 </r>
       <r>     0.7595     0.7655     0.7677 </r>
       <r>     0.8412     0.7902     0.8322 </r>
       <r>     0.9228     0.8251     0.8996 </r>
       <r>     1.0045     0.8750     0.9710 </r>
       <r>     1.0861     0.9476     1.0484 </r>
       <r>     1.1678     1.0531     1.1344 </r>
       <r>     1.2494     1.2003     1.2324 </r>
       <r>     1.3311     1.3917     1.3460 </r>
       <r>     1.4127     1.6261     1.4788 </r>
       <r>     1.4943     1.9109     1.6348 </r>
       <r>     1.5760     2.2789     1.8208 </r>
       <r>     1.6576     2.7961     2.0491 </r>
       <r>     1.7393     3.5466     2.3387 </r>
       <r>     1.8209     4.5910     2.7135 </r>
       <r>     1.9026     5.9201     3.1969 </r>
       <r>     1.9842     7.4339     3.8038 </r>
       <r>     2.0659     8.9609     4.5354 </r>
       <r>     2.1475    10.3096     5.3772 </r>
       <r>     2.2292    11.3259     6.3019 </r>
       <r>     2.3108    11.9347     7.2763 </r>
       <r>     2.3924    12.1515     8.2684 </r>
       <r>     2.4741    12.0653     9.2535 </r>
       <r>     2.5557    11.7973    10.2167 </r>
       <r>     2.6374    11.4615    11.1524 </r>
       <r>     2.7190    11.1556    12.0632 </r>
       <r>     2.8007    10.9853    12.9601 </r>
       <r>     2.8823    11.0707    13.8640 </r>
       <r>     2.9640    11.4890    14.8020 </r>
       <r>     3.0456    12.1872    15.7970 </r>
       <r>     3.1273    12.9653    16.8556 </r>
       <r>     3.2089    13.5776    17.9642 </r>
       <r>     3.2905    13.8793    19.0973 </r>
       <r>     3.3722    13.8986    20.2321 </r>
       <r>     3.4538    13.7934    21.3583 </r>
       <r>     3.5355    13.7471    22.4806 </r>
       <r>     3.6171    13.8779    23.6137 </r>
       <r>     3.6988    14.1929    24.7725 </r>
       <r>     3.7804    14.5798    25.9629 </r>
       <r>     3.8621    14.8373    27.1742 </r>
       <r>     3.9437    14.7567    28.3791 </r>
       <r>     4.0253    14.2330    29.5411 </r>
       <r>     4.1070    13.3354    30.6299 </r>
       <r>     4.1886    12.2796    31.6325 </r>
       <r>     4.2703    11.3242    32.5570 </r>
       <r>     4.3519    10.6658    33.4278 </r>
       <r>     4.4336    10.3796    34.2753 </r>
       <r>     4.5152    10.4170    35.1258 </r>
       <r>     4.5969    10.6493    35.9952 </r>
       <r>     4.6785    10.9314    36.8877 </r>
       <r>     4.7602    11.1407    37.7973 </r>
       <r>     4.8418    11.1751    38.7097 </r>
       <r>     4.9234    10.9409    39.6030 </r>
       <r>     5.0051    10.3817    40.4506 </r>
       <r>     5.0867     9.5561    41.2308 </r>
       <r>     5.1684     8.7000    41.9411 </r>
       <r>     5.2500     8.1897    42.6098 </r>
       <r>     5.3317     8.3776    43.2938 </r>
       <r>     5.4133     9.3842    44.0599 </r>
       <r>     5.4950    10.9957    44.9577 </r>
       <r>     5.5766    12.7632    45.9997 </r>
       <r>     5.6583    14.2519    47.1633 </r>
       <r>     5.7399    15.2763    48.4106 </r>
       <r>     5.8215    15.9735    49.7147 </r>
       <r>     5.9032    16.6832    51.0768 </r>
       <r>     5.9848    17.7185    52.5235 </r>
       <r>     6.0665    19.1445    54.0865 </r>
       <r>     6.1481    20.6495    55.7725 </r>
       <r>     6.2298    21.5700    57.5336 </r>
       <r>     6.3114    21.1233    59.2582 </r>
       <r>     6.3931    18.8296    60.7955 </r>
       <r>     6.4747    14.9019    62.0122 </r>
       <r>     6.5564    10.2679    62.8505 </r>
       <r>     6.6380     6.1114    63.3495 </r>
       <r>     6.7196     3.2484    63.6147 </r>
       <r>     6.8013     1.8113    63.7626 </r>
       <r>     6.8829     1.4037    63.8772 </r>
       <r>     6.9646     1.4867    63.9986 </r>
       <r>     7.0462     1.6702    64.1349 </r>
       <r>     7.1279     1.7859    64.2808 </r>
       <r>     7.2095     1.8161    64.4290 </r>
       <r>     7.2912     1.7971    64.5758 </r>
       <r>     7.3728     1.7634    64.7197 </r>
       <r>     7.4544     1.7340    64.8613 </r>
       <r>     7.5361     1.7149    65.0013 </r>
       <r>     7.6177     1.7030    65.1404 </r>
       <r>     7.6994     1.6938    65.2786 </r>
       <r>     7.7810     1.6904    65.4167 </r>
       <r>     7.8627     1.7012    65.5556 </r>
       <r>     7.9443     1.7249    65.6964 </r>
       <r>     8.0260     1.7455    65.8389 </r>
       <r>     8.1076     1.7487    65.9817 </r>
       <r>     8.1893     1.7382    66.1236 </r>
       <r>     8.2709     1.7289    66.2647 </r>
       <r>     8.3525     1.7276    66.4058 </r>
       <r>     8.4342     1.7270    66.5468 </r>
       <r>     8.5158     1.7172    66.6870 </r>
       <r>     8.5975     1.6972    66.8256 </r>
       <r>     8.6791     1.6749    66.9623 </r>
       <r>     8.7608     1.6591    67.0978 </r>
       <r>     8.8424     1.6521    67.2326 </r>
       <r>     8.9241     1.6475    67.3672 </r>
       <r>     9.0057     1.6370    67.5008 </r>
       <r>     9.0874     1.6197    67.6331 </r>
       <r>     9.1690     1.6043    67.7640 </r>
       <r>     9.2506     1.5999    67.8947 </r>
       <r>     9.3323     1.6069    68.0258 </r>
       <r>     9.4139     1.6161    68.1578 </r>
       <r>     9.4956     1.6165    68.2898 </r>
       <r>     9.5772     1.6009    68.4205 </r>
       <r>     9.6589     1.5671    68.5484 </r>
       <r>     9.7405     1.5200    68.6725 </r>
       <r>     9.8222     1.4731    68.7928 </r>
       <r>     9.9038     1.4434    68.9107 </r>
       <r>     9.9855     1.4385    69.0281 </r>
       <r>    10.0671     1.4492    69.1464 </r>
       <r>    10.1487     1.4571    69.2654 </r>
       <r>    10.2304     1.4496    69.3837 </r>
       <r>    10.3120     1.4262    69.5002 </r>
       <r>    10.3937     1.3934    69.6139 </r>
       <r>    10.4753     1.3562    69.7247 </r>
       <r>    10.5570     1.3180    69.8323 </r>
       <r>    10.6386     1.2841    69.9371 </r>
       <r>    10.7203     1.2625    70.0402 </r>
       <r>    10.8019     1.2605    70.1431 </r>
       <r>    10.8835     1.2848    70.2480 </r>
       <r>    10.9652     1.3424    70.3576 </r>
       <r>    11.0468     1.4337    70.4747 </r>
       <r>    11.1285     1.5399    70.6004 </r>
       <r>    11.2101     1.6235    70.7330 </r>
       <r>    11.2918     1.6533    70.8679 </r>
       <r>    11.3734     1.6324    71.0012 </r>
       <r>    11.4551     1.5999    71.1318 </r>
       <r>    11.5367     1.6012    71.2626 </r>
       <r>    11.6184     1.6523    71.3975 </r>
       <r>    11.7000     1.7305    71.5388 </r>
       <r>    11.7816     1.7959    71.6854 </r>
       <r>    11.8633     1.8209    71.8341 </r>
       <r>    11.9449     1.8056    71.9815 </r>
       <r>    12.0266     1.7713    72.1261 </r>
       <r>    12.1082     1.7436    72.2684 </r>
       <r>    12.1899     1.7368    72.4102 </r>
       <r>    12.2715     1.7519    72.5533 </r>
       <r>    12.3532     1.7836    72.6989 </r>
       <r>    12.4348     1.8279    72.8481 </r>
       <r>    12.5165     1.8822    73.0018 </r>
       <r>    12.5981     1.9396    73.1602 </r>
       <r>    12.6797     1.9824    73.3220 </r>
       <r>    12.7614     1.9878    73.4843 </r>
       <r>    12.8430     1.9440    73.6430 </r>
       <r>    12.9247     1.8624    73.7951 </r>
       <r>    13.0063     1.7737    73.9399 </r>
       <r>    13.0880     1.7092    74.0795 </r>
       <r>    13.1696     1.6845    74.2170 </r>
       <r>    13.2513     1.6986    74.3557 </r>
       <r>    13.3329     1.7410    74.4978 </r>
       <r>    13.4146     1.7978    74.6446 </r>
       <r>    13.4962     1.8558    74.7961 </r>
       <r>    13.5778     1.9088    74.9520 </r>
       <r>    13.6595     1.9609    75.1121 </r>
       <r>    13.7411     2.0219    75.2772 </r>
       <r>    13.8228     2.0960    75.4483 </r>
       <r>    13.9044     2.1739    75.6258 </r>
       <r>    13.9861     2.2374    75.8084 </r>
       <r>    14.0677     2.2733    75.9940 </r>
       <r>    14.1494     2.2854    76.1806 </r>
       <r>    14.2310     2.2899    76.3676 </r>
       <r>    14.3126     2.2992    76.5553 </r>
       <r>    14.3943     2.3110    76.7440 </r>
       <r>    14.4759     2.3107    76.9327 </r>
       <r>    14.5576     2.2851    77.1192 </r>
       <r>    14.6392     2.2318    77.3014 </r>
       <r>    14.7209     2.1594    77.4777 </r>
       <r>    14.8025     2.0783    77.6474 </r>
       <r>    14.8842     1.9933    77.8102 </r>
       <r>    14.9658     1.9041    77.9656 </r>
       <r>    15.0475     1.8113    78.1135 </r>
       <r>    15.1291     1.7211    78.2540 </r>
       <r>    15.2107     1.6441    78.3883 </r>
       <r>    15.2924     1.5860    78.5178 </r>
       <r>    15.3740     1.5386    78.6434 </r>
       <r>    15.4557     1.4840    78.7645 </r>
       <r>    15.5373     1.4107    78.8797 </r>
       <r>    15.6190     1.3204    78.9875 </r>
       <r>    15.7006     1.2188    79.0870 </r>
       <r>    15.7823     1.1050    79.1772 </r>
       <r>    15.8639     0.9829    79.2575 </r>
       <r>    15.9456     0.8831    79.3296 </r>
       <r>    16.0272     0.8605    79.3999 </r>
       <r>    16.1088     0.9516    79.4775 </r>
       <r>    16.1905     1.1268    79.5695 </r>
       <r>    16.2721     1.2856    79.6745 </r>
       <r>    16.3538     1.3126    79.7817 </r>
       <r>    16.4354     1.1528    79.8758 </r>
       <r>    16.5171     0.8478    79.9450 </r>
       <r>    16.5987     0.5030    79.9861 </r>
       <r>    16.6804     0.2201    80.0041 </r>
       <r>    16.7620     0.0467    80.0079 </r>
       <r>    16.8437    -0.0270    80.0057 </r>
       <r>    16.9253    -0.0396    80.0024 </r>
       <r>    17.0069    -0.0278    80.0002 </r>
       <r>    17.0886    -0.0133    79.9991 </r>
       <r>    17.1702    -0.0039    79.9987 </r>
       <r>    17.2519     0.0004    79.9988 </r>
       <r>    17.3335     0.0017    79.9989 </r>
       <r>    17.4152     0.0018    79.9991 </r>
       <r>    17.4968     0.0018    79.9992 </r>
       <r>    17.5785     0.0019    79.9994 </r>
       <r>    17.6601     0.0020    79.9995 </r>
       <r>    17.7418     0.0020    79.9997 </r>
       <r>    17.8234     0.0017    79.9998 </r>
       <r>    17.9050     0.0013    79.9999 </r>
       <r>    17.9867     0.0007    80.0000 </r>
       <r>    18.0683     0.0003    80.0000 </r>
       <r>    18.1500     0.0000    80.0000 </r>
       <r>    18.2316    -0.0001    80.0000 </r>
       <r>    18.3133    -0.0001    80.0000 </r>
       <r>    18.3949    -0.0001    80.0000 </r>
       <r>    18.4766     0.0000    80.0000 </r>
       <r>    18.5582     0.0000    80.0000 </r>
       <r>    18.6398     0.0000    80.0000 </r>
       <r>    18.7215     0.0000    80.0000 </r>
       <r>    18.8031     0.0000    80.0000 </r>
       <r>    18.8848     0.0000    80.0000 </r>
       <r>    18.9664     0.0000    80.0000 </r>
       <r>    19.0481     0.0000    80.0000 </r>
       <r>    19.1297     0.0000    80.0000 </r>
       <r>    19.2114     0.0000    80.0000 </r>
       <r>    19.2930     0.0000    80.0000 </r>
       <r>    19.3747     0.0000    80.0000 </r>
       <r>    19.4563     0.0000    80.0000 </r>
       <r>    19.5379     0.0000    80.0000 </r>
       <r>    19.6196     0.0000    80.0000 </r>
       <r>    19.7012     0.0000    80.0000 </r>
       <r>    19.7829     0.0000    80.0000 </r>
       <r>    19.8645     0.0000    80.0000 </r>
       <r>    19.9462     0.0000    80.0000 </r>
       <r>    20.0278     0.0000    80.0000 </r>
       <r>    20.1095     0.0000    80.0000 </r>
       <r>    20.1911     0.0000    80.0000 </r>
       <r>    20.2728     0.0000    80.0000 </r>
       <r>    20.3544     0.0000    80.0000 </r>
       <r>    20.4360     0.0000    80.0000 </r>
       <r>    20.5177     0.0000    80.0000 </r>
       <r>    20.5993     0.0000    80.0000 </r>
       <r>    20.6810     0.0000    80.0000 </r>
       <r>    20.7626     0.0000    80.0000 </r>
      </set>
     </set>
    </array>
   </total>
  </dos>
 </calculation>
 <structure name="finalpos" >
  <crystal>
   <varray name="basis" >
    <v>       0.00000000       2.03860013      -2.03860013 </v>
    <v>       0.00000000      -2.03860013      -2.03860013 </v>
    <v>     -11.48609403       0.00000000       0.00000000 </v>
   </varray>
   <i name="volume">     95.46989799 </i>
   <varray name="rec_basis" >
    <v>       0.00000000       0.24526634      -0.24526634 </v>
    <v>       0.00000000      -0.24526634      -0.24526634 </v>
    <v>      -0.08706180       0.00000000       0.00000000 </v>
   </varray>
  </crystal>
  <varray name="positions" >
   <v>       0.50000000       0.50000000       0.49194910 </v>
   <v>       0.50000000       0.50000000       0.17471757 </v>
   <v>       0.50000000       0.50000000       0.83333333 </v>
   <v>       0.00000000       0.00000000       0.33333333 </v>
   <v>       0.00000000       0.00000000       0.01985123 </v>
   <v>       0.00000000       0.00000000       0.64681544 </v>
  </varray>
 </structure>
</modeling>
