<?xml version="1.0" encoding="ISO-8859-1"?>
<modeling>
 <generator>
  <i name="program" type="string">vasp </i>
  <i name="version" type="string">5.3.5  </i>
  <i name="subversion" type="string">31Mar14 (build Jun 20 2014 13:15:13) complex                          parallel </i>
  <i name="platform" type="string">LinuxIFC </i>
  <i name="date" type="string">2025 11 26 </i>
  <i name="time" type="string">17:33:22 </i>
 </generator>
 <incar>
  <i type="string" name="PREC">accurate</i>
  <i type="int" name="IALGO">    68</i>
  <i type="logical" name="ADDGRID"> T  </i>
  <i type="int" name="NELM">   200</i>
  <i type="int" name="NELMIN">     4</i>
  <i type="int" name="IBRION">     2</i>
  <i name="EDIFF">      0.00000100</i>
  <i name="EDIFFG">     -0.02000000</i>
  <i type="int" name="NSW">    30</i>
  <i type="int" name="ISIF">     3</i>
  <i name="ENCUT">    500.00000000</i>
  <i type="logical" name="LREAL"> F  </i>
  <i type="int" name="ISMEAR">     1</i>
  <i name="SIGMA">      0.30000000</i>
  <i type="logical" name="LWAVE"> F  </i>
  <i type="logical" name="LCHARG"> F  </i>
  <i type="int" name="NELM">   200</i>
 </incar>
 <kpoints>
  <generation param="Auto">
   <i name="subdivisionlength">     70.00000000 </i>
   <v type="int" name="divisions">      30       30        8 </v>
   <v name="usershift">      0.00000000       0.00000000       0.00000000 </v>
   <v name="genvec1">      0.03333333       0.00000000       0.00000000 </v>
   <v name="genvec2">      0.00000000       0.03333333       0.00000000 </v>
   <v name="genvec3">      0.00000000       0.00000000       0.12500000 </v>
   <v name="shift">      0.00000000       0.00000000       0.00000000 </v>
  </generation>
  <varray name="kpointlist" >
   <v>       0.00000000       0.00000000       0.00000000 </v>
   <v>       0.03333333       0.00000000       0.00000000 </v>
   <v>       0.06666667       0.00000000       0.00000000 </v>
   <v>       0.10000000       0.00000000       0.00000000 </v>
   <v>       0.13333333       0.00000000       0.00000000 </v>
   <v>       0.16666667       0.00000000       0.00000000 </v>
   <v>       0.20000000       0.00000000       0.00000000 </v>
   <v>       0.23333333       0.00000000       0.00000000 </v>
   <v>       0.26666667       0.00000000       0.00000000 </v>
   <v>       0.30000000       0.00000000       0.00000000 </v>
   <v>       0.33333333       0.00000000       0.00000000 </v>
   <v>       0.36666667       0.00000000       0.00000000 </v>
   <v>       0.40000000       0.00000000       0.00000000 </v>
   <v>       0.43333333       0.00000000       0.00000000 </v>
   <v>       0.46666667       0.00000000       0.00000000 </v>
   <v>       0.50000000       0.00000000       0.00000000 </v>
   <v>       0.00000000       0.03333333       0.00000000 </v>
   <v>       0.03333333       0.03333333       0.00000000 </v>
   <v>       0.06666667       0.03333333       0.00000000 </v>
   <v>       0.10000000       0.03333333       0.00000000 </v>
   <v>       0.13333333       0.03333333       0.00000000 </v>
   <v>       0.16666667       0.03333333       0.00000000 </v>
   <v>       0.20000000       0.03333333       0.00000000 </v>
   <v>       0.23333333       0.03333333       0.00000000 </v>
   <v>       0.26666667       0.03333333       0.00000000 </v>
   <v>       0.30000000       0.03333333       0.00000000 </v>
   <v>       0.33333333       0.03333333       0.00000000 </v>
   <v>       0.36666667       0.03333333       0.00000000 </v>
   <v>       0.40000000       0.03333333       0.00000000 </v>
   <v>       0.43333333       0.03333333       0.00000000 </v>
   <v>       0.46666667       0.03333333       0.00000000 </v>
   <v>       0.50000000       0.03333333       0.00000000 </v>
   <v>      -0.46666667       0.03333333       0.00000000 </v>
   <v>      -0.43333333       0.03333333       0.00000000 </v>
   <v>      -0.40000000       0.03333333       0.00000000 </v>
   <v>      -0.36666667       0.03333333       0.00000000 </v>
   <v>      -0.33333333       0.03333333       0.00000000 </v>
   <v>      -0.30000000       0.03333333       0.00000000 </v>
   <v>      -0.26666667       0.03333333       0.00000000 </v>
   <v>      -0.23333333       0.03333333       0.00000000 </v>
   <v>      -0.20000000       0.03333333       0.00000000 </v>
   <v>      -0.16666667       0.03333333       0.00000000 </v>
   <v>      -0.13333333       0.03333333       0.00000000 </v>
   <v>      -0.10000000       0.03333333       0.00000000 </v>
   <v>      -0.06666667       0.03333333       0.00000000 </v>
   <v>       0.00000000       0.06666667       0.00000000 </v>
   <v>       0.03333333       0.06666667       0.00000000 </v>
   <v>       0.06666667       0.06666667       0.00000000 </v>
   <v>       0.10000000       0.06666667       0.00000000 </v>
   <v>       0.13333333       0.06666667       0.00000000 </v>
   <v>       0.16666667       0.06666667       0.00000000 </v>
   <v>       0.20000000       0.06666667       0.00000000 </v>
   <v>       0.23333333       0.06666667       0.00000000 </v>
   <v>       0.26666667       0.06666667       0.00000000 </v>
   <v>       0.30000000       0.06666667       0.00000000 </v>
   <v>       0.33333333       0.06666667       0.00000000 </v>
   <v>       0.36666667       0.06666667       0.00000000 </v>
   <v>       0.40000000       0.06666667       0.00000000 </v>
   <v>       0.43333333       0.06666667       0.00000000 </v>
   <v>       0.46666667       0.06666667       0.00000000 </v>
   <v>       0.50000000       0.06666667       0.00000000 </v>
   <v>      -0.46666667       0.06666667       0.00000000 </v>
   <v>      -0.43333333       0.06666667       0.00000000 </v>
   <v>      -0.40000000       0.06666667       0.00000000 </v>
   <v>      -0.36666667       0.06666667       0.00000000 </v>
   <v>      -0.33333333       0.06666667       0.00000000 </v>
   <v>      -0.30000000       0.06666667       0.00000000 </v>
   <v>      -0.26666667       0.06666667       0.00000000 </v>
   <v>      -0.23333333       0.06666667       0.00000000 </v>
   <v>      -0.20000000       0.06666667       0.00000000 </v>
   <v>      -0.16666667       0.06666667       0.00000000 </v>
   <v>      -0.13333333       0.06666667       0.00000000 </v>
   <v>       0.00000000       0.10000000       0.00000000 </v>
   <v>       0.03333333       0.10000000       0.00000000 </v>
   <v>       0.06666667       0.10000000       0.00000000 </v>
   <v>       0.10000000       0.10000000       0.00000000 </v>
   <v>       0.13333333       0.10000000       0.00000000 </v>
   <v>       0.16666667       0.10000000       0.00000000 </v>
   <v>       0.20000000       0.10000000       0.00000000 </v>
   <v>       0.23333333       0.10000000       0.00000000 </v>
   <v>       0.26666667       0.10000000       0.00000000 </v>
   <v>       0.30000000       0.10000000       0.00000000 </v>
   <v>       0.33333333       0.10000000       0.00000000 </v>
   <v>       0.36666667       0.10000000       0.00000000 </v>
   <v>       0.40000000       0.10000000       0.00000000 </v>
   <v>       0.43333333       0.10000000       0.00000000 </v>
   <v>       0.46666667       0.10000000       0.00000000 </v>
   <v>       0.50000000       0.10000000       0.00000000 </v>
   <v>      -0.46666667       0.10000000       0.00000000 </v>
   <v>      -0.43333333       0.10000000       0.00000000 </v>
   <v>      -0.40000000       0.10000000       0.00000000 </v>
   <v>      -0.36666667       0.10000000       0.00000000 </v>
   <v>      -0.33333333       0.10000000       0.00000000 </v>
   <v>      -0.30000000       0.10000000       0.00000000 </v>
   <v>      -0.26666667       0.10000000       0.00000000 </v>
   <v>      -0.23333333       0.10000000       0.00000000 </v>
   <v>      -0.20000000       0.10000000       0.00000000 </v>
   <v>       0.00000000       0.13333333       0.00000000 </v>
   <v>       0.03333333       0.13333333       0.00000000 </v>
   <v>       0.06666667       0.13333333       0.00000000 </v>
   <v>       0.10000000       0.13333333       0.00000000 </v>
   <v>       0.13333333       0.13333333       0.00000000 </v>
   <v>       0.16666667       0.13333333       0.00000000 </v>
   <v>       0.20000000       0.13333333       0.00000000 </v>
   <v>       0.23333333       0.13333333       0.00000000 </v>
   <v>       0.26666667       0.13333333       0.00000000 </v>
   <v>       0.30000000       0.13333333       0.00000000 </v>
   <v>       0.33333333       0.13333333       0.00000000 </v>
   <v>       0.36666667       0.13333333       0.00000000 </v>
   <v>       0.40000000       0.13333333       0.00000000 </v>
   <v>       0.43333333       0.13333333       0.00000000 </v>
   <v>       0.46666667       0.13333333       0.00000000 </v>
   <v>       0.50000000       0.13333333       0.00000000 </v>
   <v>      -0.46666667       0.13333333       0.00000000 </v>
   <v>      -0.43333333       0.13333333       0.00000000 </v>
   <v>      -0.40000000       0.13333333       0.00000000 </v>
   <v>      -0.36666667       0.13333333       0.00000000 </v>
   <v>      -0.33333333       0.13333333       0.00000000 </v>
   <v>      -0.30000000       0.13333333       0.00000000 </v>
   <v>      -0.26666667       0.13333333       0.00000000 </v>
   <v>       0.00000000       0.16666667       0.00000000 </v>
   <v>       0.03333333       0.16666667       0.00000000 </v>
   <v>       0.06666667       0.16666667       0.00000000 </v>
   <v>       0.10000000       0.16666667       0.00000000 </v>
   <v>       0.13333333       0.16666667       0.00000000 </v>
   <v>       0.16666667       0.16666667       0.00000000 </v>
   <v>       0.20000000       0.16666667       0.00000000 </v>
   <v>       0.23333333       0.16666667       0.00000000 </v>
   <v>       0.26666667       0.16666667       0.00000000 </v>
   <v>       0.30000000       0.16666667       0.00000000 </v>
   <v>       0.33333333       0.16666667       0.00000000 </v>
   <v>       0.36666667       0.16666667       0.00000000 </v>
   <v>       0.40000000       0.16666667       0.00000000 </v>
   <v>       0.43333333       0.16666667       0.00000000 </v>
   <v>       0.46666667       0.16666667       0.00000000 </v>
   <v>       0.50000000       0.16666667       0.00000000 </v>
   <v>      -0.46666667       0.16666667       0.00000000 </v>
   <v>      -0.43333333       0.16666667       0.00000000 </v>
   <v>      -0.40000000       0.16666667       0.00000000 </v>
   <v>      -0.36666667       0.16666667       0.00000000 </v>
   <v>      -0.33333333       0.16666667       0.00000000 </v>
   <v>       0.00000000       0.20000000       0.00000000 </v>
   <v>       0.03333333       0.20000000       0.00000000 </v>
   <v>       0.06666667       0.20000000       0.00000000 </v>
   <v>       0.10000000       0.20000000       0.00000000 </v>
   <v>       0.13333333       0.20000000       0.00000000 </v>
   <v>       0.16666667       0.20000000       0.00000000 </v>
   <v>       0.20000000       0.20000000       0.00000000 </v>
   <v>       0.23333333       0.20000000       0.00000000 </v>
   <v>       0.26666667       0.20000000       0.00000000 </v>
   <v>       0.30000000       0.20000000       0.00000000 </v>
   <v>       0.33333333       0.20000000       0.00000000 </v>
   <v>       0.36666667       0.20000000       0.00000000 </v>
   <v>       0.40000000       0.20000000       0.00000000 </v>
   <v>       0.43333333       0.20000000       0.00000000 </v>
   <v>       0.46666667       0.20000000       0.00000000 </v>
   <v>       0.50000000       0.20000000       0.00000000 </v>
   <v>      -0.46666667       0.20000000       0.00000000 </v>
   <v>      -0.43333333       0.20000000       0.00000000 </v>
   <v>      -0.40000000       0.20000000       0.00000000 </v>
   <v>       0.00000000       0.23333333       0.00000000 </v>
   <v>       0.03333333       0.23333333       0.00000000 </v>
   <v>       0.06666667       0.23333333       0.00000000 </v>
   <v>       0.10000000       0.23333333       0.00000000 </v>
   <v>       0.13333333       0.23333333       0.00000000 </v>
   <v>       0.16666667       0.23333333       0.00000000 </v>
   <v>       0.20000000       0.23333333       0.00000000 </v>
   <v>       0.23333333       0.23333333       0.00000000 </v>
   <v>       0.26666667       0.23333333       0.00000000 </v>
   <v>       0.30000000       0.23333333       0.00000000 </v>
   <v>       0.33333333       0.23333333       0.00000000 </v>
   <v>       0.36666667       0.23333333       0.00000000 </v>
   <v>       0.40000000       0.23333333       0.00000000 </v>
   <v>       0.43333333       0.23333333       0.00000000 </v>
   <v>       0.46666667       0.23333333       0.00000000 </v>
   <v>       0.50000000       0.23333333       0.00000000 </v>
   <v>      -0.46666667       0.23333333       0.00000000 </v>
   <v>       0.00000000       0.26666667       0.00000000 </v>
   <v>       0.03333333       0.26666667       0.00000000 </v>
   <v>       0.06666667       0.26666667       0.00000000 </v>
   <v>       0.10000000       0.26666667       0.00000000 </v>
   <v>       0.13333333       0.26666667       0.00000000 </v>
   <v>       0.16666667       0.26666667       0.00000000 </v>
   <v>       0.20000000       0.26666667       0.00000000 </v>
   <v>       0.23333333       0.26666667       0.00000000 </v>
   <v>       0.26666667       0.26666667       0.00000000 </v>
   <v>       0.30000000       0.26666667       0.00000000 </v>
   <v>       0.33333333       0.26666667       0.00000000 </v>
   <v>       0.36666667       0.26666667       0.00000000 </v>
   <v>       0.40000000       0.26666667       0.00000000 </v>
   <v>       0.43333333       0.26666667       0.00000000 </v>
   <v>       0.46666667       0.26666667       0.00000000 </v>
   <v>       0.00000000       0.30000000       0.00000000 </v>
   <v>       0.03333333       0.30000000       0.00000000 </v>
   <v>       0.06666667       0.30000000       0.00000000 </v>
   <v>       0.10000000       0.30000000       0.00000000 </v>
   <v>       0.13333333       0.30000000       0.00000000 </v>
   <v>       0.16666667       0.30000000       0.00000000 </v>
   <v>       0.20000000       0.30000000       0.00000000 </v>
   <v>       0.23333333       0.30000000       0.00000000 </v>
   <v>       0.26666667       0.30000000       0.00000000 </v>
   <v>       0.30000000       0.30000000       0.00000000 </v>
   <v>       0.33333333       0.30000000       0.00000000 </v>
   <v>       0.36666667       0.30000000       0.00000000 </v>
   <v>       0.40000000       0.30000000       0.00000000 </v>
   <v>       0.00000000       0.33333333       0.00000000 </v>
   <v>       0.03333333       0.33333333       0.00000000 </v>
   <v>       0.06666667       0.33333333       0.00000000 </v>
   <v>       0.10000000       0.33333333       0.00000000 </v>
   <v>       0.13333333       0.33333333       0.00000000 </v>
   <v>       0.16666667       0.33333333       0.00000000 </v>
   <v>       0.20000000       0.33333333       0.00000000 </v>
   <v>       0.23333333       0.33333333       0.00000000 </v>
   <v>       0.26666667       0.33333333       0.00000000 </v>
   <v>       0.30000000       0.33333333       0.00000000 </v>
   <v>       0.33333333       0.33333333       0.00000000 </v>
   <v>       0.00000000       0.36666667       0.00000000 </v>
   <v>       0.03333333       0.36666667       0.00000000 </v>
   <v>       0.06666667       0.36666667       0.00000000 </v>
   <v>       0.10000000       0.36666667       0.00000000 </v>
   <v>       0.13333333       0.36666667       0.00000000 </v>
   <v>       0.16666667       0.36666667       0.00000000 </v>
   <v>       0.20000000       0.36666667       0.00000000 </v>
   <v>       0.23333333       0.36666667       0.00000000 </v>
   <v>       0.26666667       0.36666667       0.00000000 </v>
   <v>       0.00000000       0.40000000       0.00000000 </v>
   <v>       0.03333333       0.40000000       0.00000000 </v>
   <v>       0.06666667       0.40000000       0.00000000 </v>
   <v>       0.10000000       0.40000000       0.00000000 </v>
   <v>       0.13333333       0.40000000       0.00000000 </v>
   <v>       0.16666667       0.40000000       0.00000000 </v>
   <v>       0.20000000       0.40000000       0.00000000 </v>
   <v>       0.00000000       0.43333333       0.00000000 </v>
   <v>       0.03333333       0.43333333       0.00000000 </v>
   <v>       0.06666667       0.43333333       0.00000000 </v>
   <v>       0.10000000       0.43333333       0.00000000 </v>
   <v>       0.13333333       0.43333333       0.00000000 </v>
   <v>       0.00000000       0.46666667       0.00000000 </v>
   <v>       0.03333333       0.46666667       0.00000000 </v>
   <v>       0.06666667       0.46666667       0.00000000 </v>
   <v>       0.00000000       0.50000000       0.00000000 </v>
   <v>       0.00000000       0.00000000       0.12500000 </v>
   <v>       0.03333333       0.00000000       0.12500000 </v>
   <v>       0.06666667       0.00000000       0.12500000 </v>
   <v>       0.10000000       0.00000000       0.12500000 </v>
   <v>       0.13333333       0.00000000       0.12500000 </v>
   <v>       0.16666667       0.00000000       0.12500000 </v>
   <v>       0.20000000       0.00000000       0.12500000 </v>
   <v>       0.23333333       0.00000000       0.12500000 </v>
   <v>       0.26666667       0.00000000       0.12500000 </v>
   <v>       0.30000000       0.00000000       0.12500000 </v>
   <v>       0.33333333       0.00000000       0.12500000 </v>
   <v>       0.36666667       0.00000000       0.12500000 </v>
   <v>       0.40000000       0.00000000       0.12500000 </v>
   <v>       0.43333333       0.00000000       0.12500000 </v>
   <v>       0.46666667       0.00000000       0.12500000 </v>
   <v>       0.50000000       0.00000000       0.12500000 </v>
   <v>      -0.46666667       0.00000000       0.12500000 </v>
   <v>      -0.43333333       0.00000000       0.12500000 </v>
   <v>      -0.40000000       0.00000000       0.12500000 </v>
   <v>      -0.36666667       0.00000000       0.12500000 </v>
   <v>      -0.33333333       0.00000000       0.12500000 </v>
   <v>      -0.30000000       0.00000000       0.12500000 </v>
   <v>      -0.26666667       0.00000000       0.12500000 </v>
   <v>      -0.23333333       0.00000000       0.12500000 </v>
   <v>      -0.20000000       0.00000000       0.12500000 </v>
   <v>      -0.16666667       0.00000000       0.12500000 </v>
   <v>      -0.13333333       0.00000000       0.12500000 </v>
   <v>      -0.10000000       0.00000000       0.12500000 </v>
   <v>      -0.06666667       0.00000000       0.12500000 </v>
   <v>      -0.03333333       0.00000000       0.12500000 </v>
   <v>       0.00000000       0.03333333       0.12500000 </v>
   <v>       0.03333333       0.03333333       0.12500000 </v>
   <v>       0.06666667       0.03333333       0.12500000 </v>
   <v>       0.10000000       0.03333333       0.12500000 </v>
   <v>       0.13333333       0.03333333       0.12500000 </v>
   <v>       0.16666667       0.03333333       0.12500000 </v>
   <v>       0.20000000       0.03333333       0.12500000 </v>
   <v>       0.23333333       0.03333333       0.12500000 </v>
   <v>       0.26666667       0.03333333       0.12500000 </v>
   <v>       0.30000000       0.03333333       0.12500000 </v>
   <v>       0.33333333       0.03333333       0.12500000 </v>
   <v>       0.36666667       0.03333333       0.12500000 </v>
   <v>       0.40000000       0.03333333       0.12500000 </v>
   <v>       0.43333333       0.03333333       0.12500000 </v>
   <v>       0.46666667       0.03333333       0.12500000 </v>
   <v>       0.50000000       0.03333333       0.12500000 </v>
   <v>      -0.46666667       0.03333333       0.12500000 </v>
   <v>      -0.43333333       0.03333333       0.12500000 </v>
   <v>      -0.40000000       0.03333333       0.12500000 </v>
   <v>      -0.36666667       0.03333333       0.12500000 </v>
   <v>      -0.33333333       0.03333333       0.12500000 </v>
   <v>      -0.30000000       0.03333333       0.12500000 </v>
   <v>      -0.26666667       0.03333333       0.12500000 </v>
   <v>      -0.23333333       0.03333333       0.12500000 </v>
   <v>      -0.20000000       0.03333333       0.12500000 </v>
   <v>      -0.16666667       0.03333333       0.12500000 </v>
   <v>      -0.13333333       0.03333333       0.12500000 </v>
   <v>      -0.10000000       0.03333333       0.12500000 </v>
   <v>      -0.06666667       0.03333333       0.12500000 </v>
   <v>       0.00000000       0.06666667       0.12500000 </v>
   <v>       0.03333333       0.06666667       0.12500000 </v>
   <v>       0.06666667       0.06666667       0.12500000 </v>
   <v>       0.10000000       0.06666667       0.12500000 </v>
   <v>       0.13333333       0.06666667       0.12500000 </v>
   <v>       0.16666667       0.06666667       0.12500000 </v>
   <v>       0.20000000       0.06666667       0.12500000 </v>
   <v>       0.23333333       0.06666667       0.12500000 </v>
   <v>       0.26666667       0.06666667       0.12500000 </v>
   <v>       0.30000000       0.06666667       0.12500000 </v>
   <v>       0.33333333       0.06666667       0.12500000 </v>
   <v>       0.36666667       0.06666667       0.12500000 </v>
   <v>       0.40000000       0.06666667       0.12500000 </v>
   <v>       0.43333333       0.06666667       0.12500000 </v>
   <v>       0.46666667       0.06666667       0.12500000 </v>
   <v>       0.50000000       0.06666667       0.12500000 </v>
   <v>      -0.46666667       0.06666667       0.12500000 </v>
   <v>      -0.43333333       0.06666667       0.12500000 </v>
   <v>      -0.40000000       0.06666667       0.12500000 </v>
   <v>      -0.36666667       0.06666667       0.12500000 </v>
   <v>      -0.33333333       0.06666667       0.12500000 </v>
   <v>      -0.30000000       0.06666667       0.12500000 </v>
   <v>      -0.26666667       0.06666667       0.12500000 </v>
   <v>      -0.23333333       0.06666667       0.12500000 </v>
   <v>      -0.20000000       0.06666667       0.12500000 </v>
   <v>      -0.16666667       0.06666667       0.12500000 </v>
   <v>      -0.13333333       0.06666667       0.12500000 </v>
   <v>      -0.10000000       0.06666667       0.12500000 </v>
   <v>       0.00000000       0.10000000       0.12500000 </v>
   <v>       0.03333333       0.10000000       0.12500000 </v>
   <v>       0.06666667       0.10000000       0.12500000 </v>
   <v>       0.10000000       0.10000000       0.12500000 </v>
   <v>       0.13333333       0.10000000       0.12500000 </v>
   <v>       0.16666667       0.10000000       0.12500000 </v>
   <v>       0.20000000       0.10000000       0.12500000 </v>
   <v>       0.23333333       0.10000000       0.12500000 </v>
   <v>       0.26666667       0.10000000       0.12500000 </v>
   <v>       0.30000000       0.10000000       0.12500000 </v>
   <v>       0.33333333       0.10000000       0.12500000 </v>
   <v>       0.36666667       0.10000000       0.12500000 </v>
   <v>       0.40000000       0.10000000       0.12500000 </v>
   <v>       0.43333333       0.10000000       0.12500000 </v>
   <v>       0.46666667       0.10000000       0.12500000 </v>
   <v>       0.50000000       0.10000000       0.12500000 </v>
   <v>      -0.46666667       0.10000000       0.12500000 </v>
   <v>      -0.43333333       0.10000000       0.12500000 </v>
   <v>      -0.40000000       0.10000000       0.12500000 </v>
   <v>      -0.36666667       0.10000000       0.12500000 </v>
   <v>      -0.33333333       0.10000000       0.12500000 </v>
   <v>      -0.30000000       0.10000000       0.12500000 </v>
   <v>      -0.26666667       0.10000000       0.12500000 </v>
   <v>      -0.23333333       0.10000000       0.12500000 </v>
   <v>      -0.20000000       0.10000000       0.12500000 </v>
   <v>      -0.16666667       0.10000000       0.12500000 </v>
   <v>      -0.13333333       0.10000000       0.12500000 </v>
   <v>       0.00000000       0.13333333       0.12500000 </v>
   <v>       0.03333333       0.13333333       0.12500000 </v>
   <v>       0.06666667       0.13333333       0.12500000 </v>
   <v>       0.10000000       0.13333333       0.12500000 </v>
   <v>       0.13333333       0.13333333       0.12500000 </v>
   <v>       0.16666667       0.13333333       0.12500000 </v>
   <v>       0.20000000       0.13333333       0.12500000 </v>
   <v>       0.23333333       0.13333333       0.12500000 </v>
   <v>       0.26666667       0.13333333       0.12500000 </v>
   <v>       0.30000000       0.13333333       0.12500000 </v>
   <v>       0.33333333       0.13333333       0.12500000 </v>
   <v>       0.36666667       0.13333333       0.12500000 </v>
   <v>       0.40000000       0.13333333       0.12500000 </v>
   <v>       0.43333333       0.13333333       0.12500000 </v>
   <v>       0.46666667       0.13333333       0.12500000 </v>
   <v>       0.50000000       0.13333333       0.12500000 </v>
   <v>      -0.46666667       0.13333333       0.12500000 </v>
   <v>      -0.43333333       0.13333333       0.12500000 </v>
   <v>      -0.40000000       0.13333333       0.12500000 </v>
   <v>      -0.36666667       0.13333333       0.12500000 </v>
   <v>      -0.33333333       0.13333333       0.12500000 </v>
   <v>      -0.30000000       0.13333333       0.12500000 </v>
   <v>      -0.26666667       0.13333333       0.12500000 </v>
   <v>      -0.23333333       0.13333333       0.12500000 </v>
   <v>      -0.20000000       0.13333333       0.12500000 </v>
   <v>      -0.16666667       0.13333333       0.12500000 </v>
   <v>       0.00000000       0.16666667       0.12500000 </v>
   <v>       0.03333333       0.16666667       0.12500000 </v>
   <v>       0.06666667       0.16666667       0.12500000 </v>
   <v>       0.10000000       0.16666667       0.12500000 </v>
   <v>       0.13333333       0.16666667       0.12500000 </v>
   <v>       0.16666667       0.16666667       0.12500000 </v>
   <v>       0.20000000       0.16666667       0.12500000 </v>
   <v>       0.23333333       0.16666667       0.12500000 </v>
   <v>       0.26666667       0.16666667       0.12500000 </v>
   <v>       0.30000000       0.16666667       0.12500000 </v>
   <v>       0.33333333       0.16666667       0.12500000 </v>
   <v>       0.36666667       0.16666667       0.12500000 </v>
   <v>       0.40000000       0.16666667       0.12500000 </v>
   <v>       0.43333333       0.16666667       0.12500000 </v>
   <v>       0.46666667       0.16666667       0.12500000 </v>
   <v>       0.50000000       0.16666667       0.12500000 </v>
   <v>      -0.46666667       0.16666667       0.12500000 </v>
   <v>      -0.43333333       0.16666667       0.12500000 </v>
   <v>      -0.40000000       0.16666667       0.12500000 </v>
   <v>      -0.36666667       0.16666667       0.12500000 </v>
   <v>      -0.33333333       0.16666667       0.12500000 </v>
   <v>      -0.30000000       0.16666667       0.12500000 </v>
   <v>      -0.26666667       0.16666667       0.12500000 </v>
   <v>      -0.23333333       0.16666667       0.12500000 </v>
   <v>      -0.20000000       0.16666667       0.12500000 </v>
   <v>       0.00000000       0.20000000       0.12500000 </v>
   <v>       0.03333333       0.20000000       0.12500000 </v>
   <v>       0.06666667       0.20000000       0.12500000 </v>
   <v>       0.10000000       0.20000000       0.12500000 </v>
   <v>       0.13333333       0.20000000       0.12500000 </v>
   <v>       0.16666667       0.20000000       0.12500000 </v>
   <v>       0.20000000       0.20000000       0.12500000 </v>
   <v>       0.23333333       0.20000000       0.12500000 </v>
   <v>       0.26666667       0.20000000       0.12500000 </v>
   <v>       0.30000000       0.20000000       0.12500000 </v>
   <v>       0.33333333       0.20000000       0.12500000 </v>
   <v>       0.36666667       0.20000000       0.12500000 </v>
   <v>       0.40000000       0.20000000       0.12500000 </v>
   <v>       0.43333333       0.20000000       0.12500000 </v>
   <v>       0.46666667       0.20000000       0.12500000 </v>
   <v>       0.50000000       0.20000000       0.12500000 </v>
   <v>      -0.46666667       0.20000000       0.12500000 </v>
   <v>      -0.43333333       0.20000000       0.12500000 </v>
   <v>      -0.40000000       0.20000000       0.12500000 </v>
   <v>      -0.36666667       0.20000000       0.12500000 </v>
   <v>      -0.33333333       0.20000000       0.12500000 </v>
   <v>      -0.30000000       0.20000000       0.12500000 </v>
   <v>      -0.26666667       0.20000000       0.12500000 </v>
   <v>      -0.23333333       0.20000000       0.12500000 </v>
   <v>       0.00000000       0.23333333       0.12500000 </v>
   <v>       0.03333333       0.23333333       0.12500000 </v>
   <v>       0.06666667       0.23333333       0.12500000 </v>
   <v>       0.10000000       0.23333333       0.12500000 </v>
   <v>       0.13333333       0.23333333       0.12500000 </v>
   <v>       0.16666667       0.23333333       0.12500000 </v>
   <v>       0.20000000       0.23333333       0.12500000 </v>
   <v>       0.23333333       0.23333333       0.12500000 </v>
   <v>       0.26666667       0.23333333       0.12500000 </v>
   <v>       0.30000000       0.23333333       0.12500000 </v>
   <v>       0.33333333       0.23333333       0.12500000 </v>
   <v>       0.36666667       0.23333333       0.12500000 </v>
   <v>       0.40000000       0.23333333       0.12500000 </v>
   <v>       0.43333333       0.23333333       0.12500000 </v>
   <v>       0.46666667       0.23333333       0.12500000 </v>
   <v>       0.50000000       0.23333333       0.12500000 </v>
   <v>      -0.46666667       0.23333333       0.12500000 </v>
   <v>      -0.43333333       0.23333333       0.12500000 </v>
   <v>      -0.40000000       0.23333333       0.12500000 </v>
   <v>      -0.36666667       0.23333333       0.12500000 </v>
   <v>      -0.33333333       0.23333333       0.12500000 </v>
   <v>      -0.30000000       0.23333333       0.12500000 </v>
   <v>      -0.26666667       0.23333333       0.12500000 </v>
   <v>       0.00000000       0.26666667       0.12500000 </v>
   <v>       0.03333333       0.26666667       0.12500000 </v>
   <v>       0.06666667       0.26666667       0.12500000 </v>
   <v>       0.10000000       0.26666667       0.12500000 </v>
   <v>       0.13333333       0.26666667       0.12500000 </v>
   <v>       0.16666667       0.26666667       0.12500000 </v>
   <v>       0.20000000       0.26666667       0.12500000 </v>
   <v>       0.23333333       0.26666667       0.12500000 </v>
   <v>       0.26666667       0.26666667       0.12500000 </v>
   <v>       0.30000000       0.26666667       0.12500000 </v>
   <v>       0.33333333       0.26666667       0.12500000 </v>
   <v>       0.36666667       0.26666667       0.12500000 </v>
   <v>       0.40000000       0.26666667       0.12500000 </v>
   <v>       0.43333333       0.26666667       0.12500000 </v>
   <v>       0.46666667       0.26666667       0.12500000 </v>
   <v>       0.50000000       0.26666667       0.12500000 </v>
   <v>      -0.46666667       0.26666667       0.12500000 </v>
   <v>      -0.43333333       0.26666667       0.12500000 </v>
   <v>      -0.40000000       0.26666667       0.12500000 </v>
   <v>      -0.36666667       0.26666667       0.12500000 </v>
   <v>      -0.33333333       0.26666667       0.12500000 </v>
   <v>      -0.30000000       0.26666667       0.12500000 </v>
   <v>       0.00000000       0.30000000       0.12500000 </v>
   <v>       0.03333333       0.30000000       0.12500000 </v>
   <v>       0.06666667       0.30000000       0.12500000 </v>
   <v>       0.10000000       0.30000000       0.12500000 </v>
   <v>       0.13333333       0.30000000       0.12500000 </v>
   <v>       0.16666667       0.30000000       0.12500000 </v>
   <v>       0.20000000       0.30000000       0.12500000 </v>
   <v>       0.23333333       0.30000000       0.12500000 </v>
   <v>       0.26666667       0.30000000       0.12500000 </v>
   <v>       0.30000000       0.30000000       0.12500000 </v>
   <v>       0.33333333       0.30000000       0.12500000 </v>
   <v>       0.36666667       0.30000000       0.12500000 </v>
   <v>       0.40000000       0.30000000       0.12500000 </v>
   <v>       0.43333333       0.30000000       0.12500000 </v>
   <v>       0.46666667       0.30000000       0.12500000 </v>
   <v>       0.50000000       0.30000000       0.12500000 </v>
   <v>      -0.46666667       0.30000000       0.12500000 </v>
   <v>      -0.43333333       0.30000000       0.12500000 </v>
   <v>      -0.40000000       0.30000000       0.12500000 </v>
   <v>      -0.36666667       0.30000000       0.12500000 </v>
   <v>      -0.33333333       0.30000000       0.12500000 </v>
   <v>       0.00000000       0.33333333       0.12500000 </v>
   <v>       0.03333333       0.33333333       0.12500000 </v>
   <v>       0.06666667       0.33333333       0.12500000 </v>
   <v>       0.10000000       0.33333333       0.12500000 </v>
   <v>       0.13333333       0.33333333       0.12500000 </v>
   <v>       0.16666667       0.33333333       0.12500000 </v>
   <v>       0.20000000       0.33333333       0.12500000 </v>
   <v>       0.23333333       0.33333333       0.12500000 </v>
   <v>       0.26666667       0.33333333       0.12500000 </v>
   <v>       0.30000000       0.33333333       0.12500000 </v>
   <v>       0.33333333       0.33333333       0.12500000 </v>
   <v>       0.36666667       0.33333333       0.12500000 </v>
   <v>       0.40000000       0.33333333       0.12500000 </v>
   <v>       0.43333333       0.33333333       0.12500000 </v>
   <v>       0.46666667       0.33333333       0.12500000 </v>
   <v>       0.50000000       0.33333333       0.12500000 </v>
   <v>      -0.46666667       0.33333333       0.12500000 </v>
   <v>      -0.43333333       0.33333333       0.12500000 </v>
   <v>      -0.40000000       0.33333333       0.12500000 </v>
   <v>      -0.36666667       0.33333333       0.12500000 </v>
   <v>       0.00000000       0.36666667       0.12500000 </v>
   <v>       0.03333333       0.36666667       0.12500000 </v>
   <v>       0.06666667       0.36666667       0.12500000 </v>
   <v>       0.10000000       0.36666667       0.12500000 </v>
   <v>       0.13333333       0.36666667       0.12500000 </v>
   <v>       0.16666667       0.36666667       0.12500000 </v>
   <v>       0.20000000       0.36666667       0.12500000 </v>
   <v>       0.23333333       0.36666667       0.12500000 </v>
   <v>       0.26666667       0.36666667       0.12500000 </v>
   <v>       0.30000000       0.36666667       0.12500000 </v>
   <v>       0.33333333       0.36666667       0.12500000 </v>
   <v>       0.36666667       0.36666667       0.12500000 </v>
   <v>       0.40000000       0.36666667       0.12500000 </v>
   <v>       0.43333333       0.36666667       0.12500000 </v>
   <v>       0.46666667       0.36666667       0.12500000 </v>
   <v>       0.50000000       0.36666667       0.12500000 </v>
   <v>      -0.46666667       0.36666667       0.12500000 </v>
   <v>      -0.43333333       0.36666667       0.12500000 </v>
   <v>      -0.40000000       0.36666667       0.12500000 </v>
   <v>       0.00000000       0.40000000       0.12500000 </v>
   <v>       0.03333333       0.40000000       0.12500000 </v>
   <v>       0.06666667       0.40000000       0.12500000 </v>
   <v>       0.10000000       0.40000000       0.12500000 </v>
   <v>       0.13333333       0.40000000       0.12500000 </v>
   <v>       0.16666667       0.40000000       0.12500000 </v>
   <v>       0.20000000       0.40000000       0.12500000 </v>
   <v>       0.23333333       0.40000000       0.12500000 </v>
   <v>       0.26666667       0.40000000       0.12500000 </v>
   <v>       0.30000000       0.40000000       0.12500000 </v>
   <v>       0.33333333       0.40000000       0.12500000 </v>
   <v>       0.36666667       0.40000000       0.12500000 </v>
   <v>       0.40000000       0.40000000       0.12500000 </v>
   <v>       0.43333333       0.40000000       0.12500000 </v>
   <v>       0.46666667       0.40000000       0.12500000 </v>
   <v>       0.50000000       0.40000000       0.12500000 </v>
   <v>      -0.46666667       0.40000000       0.12500000 </v>
   <v>      -0.43333333       0.40000000       0.12500000 </v>
   <v>       0.00000000       0.43333333       0.12500000 </v>
   <v>       0.03333333       0.43333333       0.12500000 </v>
   <v>       0.06666667       0.43333333       0.12500000 </v>
   <v>       0.10000000       0.43333333       0.12500000 </v>
   <v>       0.13333333       0.43333333       0.12500000 </v>
   <v>       0.16666667       0.43333333       0.12500000 </v>
   <v>       0.20000000       0.43333333       0.12500000 </v>
   <v>       0.23333333       0.43333333       0.12500000 </v>
   <v>       0.26666667       0.43333333       0.12500000 </v>
   <v>       0.30000000       0.43333333       0.12500000 </v>
   <v>       0.33333333       0.43333333       0.12500000 </v>
   <v>       0.36666667       0.43333333       0.12500000 </v>
   <v>       0.40000000       0.43333333       0.12500000 </v>
   <v>       0.43333333       0.43333333       0.12500000 </v>
   <v>       0.46666667       0.43333333       0.12500000 </v>
   <v>       0.50000000       0.43333333       0.12500000 </v>
   <v>      -0.46666667       0.43333333       0.12500000 </v>
   <v>       0.00000000       0.46666667       0.12500000 </v>
   <v>       0.03333333       0.46666667       0.12500000 </v>
   <v>       0.06666667       0.46666667       0.12500000 </v>
   <v>       0.10000000       0.46666667       0.12500000 </v>
   <v>       0.13333333       0.46666667       0.12500000 </v>
   <v>       0.16666667       0.46666667       0.12500000 </v>
   <v>       0.20000000       0.46666667       0.12500000 </v>
   <v>       0.23333333       0.46666667       0.12500000 </v>
   <v>       0.26666667       0.46666667       0.12500000 </v>
   <v>       0.30000000       0.46666667       0.12500000 </v>
   <v>       0.33333333       0.46666667       0.12500000 </v>
   <v>       0.36666667       0.46666667       0.12500000 </v>
   <v>       0.40000000       0.46666667       0.12500000 </v>
   <v>       0.43333333       0.46666667       0.12500000 </v>
   <v>       0.46666667       0.46666667       0.12500000 </v>
   <v>       0.50000000       0.46666667       0.12500000 </v>
   <v>       0.00000000       0.50000000       0.12500000 </v>
   <v>       0.03333333       0.50000000       0.12500000 </v>
   <v>       0.06666667       0.50000000       0.12500000 </v>
   <v>       0.10000000       0.50000000       0.12500000 </v>
   <v>       0.13333333       0.50000000       0.12500000 </v>
   <v>       0.16666667       0.50000000       0.12500000 </v>
   <v>       0.20000000       0.50000000       0.12500000 </v>
   <v>       0.23333333       0.50000000       0.12500000 </v>
   <v>       0.26666667       0.50000000       0.12500000 </v>
   <v>       0.30000000       0.50000000       0.12500000 </v>
   <v>       0.33333333       0.50000000       0.12500000 </v>
   <v>       0.36666667       0.50000000       0.12500000 </v>
   <v>       0.40000000       0.50000000       0.12500000 </v>
   <v>       0.43333333       0.50000000       0.12500000 </v>
   <v>       0.46666667       0.50000000       0.12500000 </v>
   <v>       0.00000000      -0.46666667       0.12500000 </v>
   <v>       0.03333333      -0.46666667       0.12500000 </v>
   <v>       0.06666667      -0.46666667       0.12500000 </v>
   <v>       0.10000000      -0.46666667       0.12500000 </v>
   <v>       0.13333333      -0.46666667       0.12500000 </v>
   <v>       0.16666667      -0.46666667       0.12500000 </v>
   <v>       0.20000000      -0.46666667       0.12500000 </v>
   <v>       0.23333333      -0.46666667       0.12500000 </v>
   <v>       0.26666667      -0.46666667       0.12500000 </v>
   <v>       0.30000000      -0.46666667       0.12500000 </v>
   <v>       0.33333333      -0.46666667       0.12500000 </v>
   <v>       0.36666667      -0.46666667       0.12500000 </v>
   <v>       0.40000000      -0.46666667       0.12500000 </v>
   <v>       0.43333333      -0.46666667       0.12500000 </v>
   <v>       0.00000000      -0.43333333       0.12500000 </v>
   <v>       0.03333333      -0.43333333       0.12500000 </v>
   <v>       0.06666667      -0.43333333       0.12500000 </v>
   <v>       0.10000000      -0.43333333       0.12500000 </v>
   <v>       0.13333333      -0.43333333       0.12500000 </v>
   <v>       0.16666667      -0.43333333       0.12500000 </v>
   <v>       0.20000000      -0.43333333       0.12500000 </v>
   <v>       0.23333333      -0.43333333       0.12500000 </v>
   <v>       0.26666667      -0.43333333       0.12500000 </v>
   <v>       0.30000000      -0.43333333       0.12500000 </v>
   <v>       0.33333333      -0.43333333       0.12500000 </v>
   <v>       0.36666667      -0.43333333       0.12500000 </v>
   <v>       0.40000000      -0.43333333       0.12500000 </v>
   <v>       0.00000000      -0.40000000       0.12500000 </v>
   <v>       0.03333333      -0.40000000       0.12500000 </v>
   <v>       0.06666667      -0.40000000       0.12500000 </v>
   <v>       0.10000000      -0.40000000       0.12500000 </v>
   <v>       0.13333333      -0.40000000       0.12500000 </v>
   <v>       0.16666667      -0.40000000       0.12500000 </v>
   <v>       0.20000000      -0.40000000       0.12500000 </v>
   <v>       0.23333333      -0.40000000       0.12500000 </v>
   <v>       0.26666667      -0.40000000       0.12500000 </v>
   <v>       0.30000000      -0.40000000       0.12500000 </v>
   <v>       0.33333333      -0.40000000       0.12500000 </v>
   <v>       0.36666667      -0.40000000       0.12500000 </v>
   <v>       0.00000000      -0.36666667       0.12500000 </v>
   <v>       0.03333333      -0.36666667       0.12500000 </v>
   <v>       0.06666667      -0.36666667       0.12500000 </v>
   <v>       0.10000000      -0.36666667       0.12500000 </v>
   <v>       0.13333333      -0.36666667       0.12500000 </v>
   <v>       0.16666667      -0.36666667       0.12500000 </v>
   <v>       0.20000000      -0.36666667       0.12500000 </v>
   <v>       0.23333333      -0.36666667       0.12500000 </v>
   <v>       0.26666667      -0.36666667       0.12500000 </v>
   <v>       0.30000000      -0.36666667       0.12500000 </v>
   <v>       0.33333333      -0.36666667       0.12500000 </v>
   <v>       0.00000000      -0.33333333       0.12500000 </v>
   <v>       0.03333333      -0.33333333       0.12500000 </v>
   <v>       0.06666667      -0.33333333       0.12500000 </v>
   <v>       0.10000000      -0.33333333       0.12500000 </v>
   <v>       0.13333333      -0.33333333       0.12500000 </v>
   <v>       0.16666667      -0.33333333       0.12500000 </v>
   <v>       0.20000000      -0.33333333       0.12500000 </v>
   <v>       0.23333333      -0.33333333       0.12500000 </v>
   <v>       0.26666667      -0.33333333       0.12500000 </v>
   <v>       0.30000000      -0.33333333       0.12500000 </v>
   <v>       0.00000000      -0.30000000       0.12500000 </v>
   <v>       0.03333333      -0.30000000       0.12500000 </v>
   <v>       0.06666667      -0.30000000       0.12500000 </v>
   <v>       0.10000000      -0.30000000       0.12500000 </v>
   <v>       0.13333333      -0.30000000       0.12500000 </v>
   <v>       0.16666667      -0.30000000       0.12500000 </v>
   <v>       0.20000000      -0.30000000       0.12500000 </v>
   <v>       0.23333333      -0.30000000       0.12500000 </v>
   <v>       0.26666667      -0.30000000       0.12500000 </v>
   <v>       0.00000000      -0.26666667       0.12500000 </v>
   <v>       0.03333333      -0.26666667       0.12500000 </v>
   <v>       0.06666667      -0.26666667       0.12500000 </v>
   <v>       0.10000000      -0.26666667       0.12500000 </v>
   <v>       0.13333333      -0.26666667       0.12500000 </v>
   <v>       0.16666667      -0.26666667       0.12500000 </v>
   <v>       0.20000000      -0.26666667       0.12500000 </v>
   <v>       0.23333333      -0.26666667       0.12500000 </v>
   <v>       0.00000000      -0.23333333       0.12500000 </v>
   <v>       0.03333333      -0.23333333       0.12500000 </v>
   <v>       0.06666667      -0.23333333       0.12500000 </v>
   <v>       0.10000000      -0.23333333       0.12500000 </v>
   <v>       0.13333333      -0.23333333       0.12500000 </v>
   <v>       0.16666667      -0.23333333       0.12500000 </v>
   <v>       0.20000000      -0.23333333       0.12500000 </v>
   <v>       0.00000000      -0.20000000       0.12500000 </v>
   <v>       0.03333333      -0.20000000       0.12500000 </v>
   <v>       0.06666667      -0.20000000       0.12500000 </v>
   <v>       0.10000000      -0.20000000       0.12500000 </v>
   <v>       0.13333333      -0.20000000       0.12500000 </v>
   <v>       0.16666667      -0.20000000       0.12500000 </v>
   <v>       0.00000000      -0.16666667       0.12500000 </v>
   <v>       0.03333333      -0.16666667       0.12500000 </v>
   <v>       0.06666667      -0.16666667       0.12500000 </v>
   <v>       0.10000000      -0.16666667       0.12500000 </v>
   <v>       0.13333333      -0.16666667       0.12500000 </v>
   <v>       0.00000000      -0.13333333       0.12500000 </v>
   <v>       0.03333333      -0.13333333       0.12500000 </v>
   <v>       0.06666667      -0.13333333       0.12500000 </v>
   <v>       0.10000000      -0.13333333       0.12500000 </v>
   <v>       0.00000000      -0.10000000       0.12500000 </v>
   <v>       0.03333333      -0.10000000       0.12500000 </v>
   <v>       0.06666667      -0.10000000       0.12500000 </v>
   <v>       0.00000000      -0.06666667       0.12500000 </v>
   <v>       0.03333333      -0.06666667       0.12500000 </v>
   <v>       0.00000000      -0.03333333       0.12500000 </v>
   <v>       0.00000000       0.00000000       0.25000000 </v>
   <v>       0.03333333       0.00000000       0.25000000 </v>
   <v>       0.06666667       0.00000000       0.25000000 </v>
   <v>       0.10000000       0.00000000       0.25000000 </v>
   <v>       0.13333333       0.00000000       0.25000000 </v>
   <v>       0.16666667       0.00000000       0.25000000 </v>
   <v>       0.20000000       0.00000000       0.25000000 </v>
   <v>       0.23333333       0.00000000       0.25000000 </v>
   <v>       0.26666667       0.00000000       0.25000000 </v>
   <v>       0.30000000       0.00000000       0.25000000 </v>
   <v>       0.33333333       0.00000000       0.25000000 </v>
   <v>       0.36666667       0.00000000       0.25000000 </v>
   <v>       0.40000000       0.00000000       0.25000000 </v>
   <v>       0.43333333       0.00000000       0.25000000 </v>
   <v>       0.46666667       0.00000000       0.25000000 </v>
   <v>       0.50000000       0.00000000       0.25000000 </v>
   <v>      -0.46666667       0.00000000       0.25000000 </v>
   <v>      -0.43333333       0.00000000       0.25000000 </v>
   <v>      -0.40000000       0.00000000       0.25000000 </v>
   <v>      -0.36666667       0.00000000       0.25000000 </v>
   <v>      -0.33333333       0.00000000       0.25000000 </v>
   <v>      -0.30000000       0.00000000       0.25000000 </v>
   <v>      -0.26666667       0.00000000       0.25000000 </v>
   <v>      -0.23333333       0.00000000       0.25000000 </v>
   <v>      -0.20000000       0.00000000       0.25000000 </v>
   <v>      -0.16666667       0.00000000       0.25000000 </v>
   <v>      -0.13333333       0.00000000       0.25000000 </v>
   <v>      -0.10000000       0.00000000       0.25000000 </v>
   <v>      -0.06666667       0.00000000       0.25000000 </v>
   <v>      -0.03333333       0.00000000       0.25000000 </v>
   <v>       0.00000000       0.03333333       0.25000000 </v>
   <v>       0.03333333       0.03333333       0.25000000 </v>
   <v>       0.06666667       0.03333333       0.25000000 </v>
   <v>       0.10000000       0.03333333       0.25000000 </v>
   <v>       0.13333333       0.03333333       0.25000000 </v>
   <v>       0.16666667       0.03333333       0.25000000 </v>
   <v>       0.20000000       0.03333333       0.25000000 </v>
   <v>       0.23333333       0.03333333       0.25000000 </v>
   <v>       0.26666667       0.03333333       0.25000000 </v>
   <v>       0.30000000       0.03333333       0.25000000 </v>
   <v>       0.33333333       0.03333333       0.25000000 </v>
   <v>       0.36666667       0.03333333       0.25000000 </v>
   <v>       0.40000000       0.03333333       0.25000000 </v>
   <v>       0.43333333       0.03333333       0.25000000 </v>
   <v>       0.46666667       0.03333333       0.25000000 </v>
   <v>       0.50000000       0.03333333       0.25000000 </v>
   <v>      -0.46666667       0.03333333       0.25000000 </v>
   <v>      -0.43333333       0.03333333       0.25000000 </v>
   <v>      -0.40000000       0.03333333       0.25000000 </v>
   <v>      -0.36666667       0.03333333       0.25000000 </v>
   <v>      -0.33333333       0.03333333       0.25000000 </v>
   <v>      -0.30000000       0.03333333       0.25000000 </v>
   <v>      -0.26666667       0.03333333       0.25000000 </v>
   <v>      -0.23333333       0.03333333       0.25000000 </v>
   <v>      -0.20000000       0.03333333       0.25000000 </v>
   <v>      -0.16666667       0.03333333       0.25000000 </v>
   <v>      -0.13333333       0.03333333       0.25000000 </v>
   <v>      -0.10000000       0.03333333       0.25000000 </v>
   <v>      -0.06666667       0.03333333       0.25000000 </v>
   <v>       0.00000000       0.06666667       0.25000000 </v>
   <v>       0.03333333       0.06666667       0.25000000 </v>
   <v>       0.06666667       0.06666667       0.25000000 </v>
   <v>       0.10000000       0.06666667       0.25000000 </v>
   <v>       0.13333333       0.06666667       0.25000000 </v>
   <v>       0.16666667       0.06666667       0.25000000 </v>
   <v>       0.20000000       0.06666667       0.25000000 </v>
   <v>       0.23333333       0.06666667       0.25000000 </v>
   <v>       0.26666667       0.06666667       0.25000000 </v>
   <v>       0.30000000       0.06666667       0.25000000 </v>
   <v>       0.33333333       0.06666667       0.25000000 </v>
   <v>       0.36666667       0.06666667       0.25000000 </v>
   <v>       0.40000000       0.06666667       0.25000000 </v>
   <v>       0.43333333       0.06666667       0.25000000 </v>
   <v>       0.46666667       0.06666667       0.25000000 </v>
   <v>       0.50000000       0.06666667       0.25000000 </v>
   <v>      -0.46666667       0.06666667       0.25000000 </v>
   <v>      -0.43333333       0.06666667       0.25000000 </v>
   <v>      -0.40000000       0.06666667       0.25000000 </v>
   <v>      -0.36666667       0.06666667       0.25000000 </v>
   <v>      -0.33333333       0.06666667       0.25000000 </v>
   <v>      -0.30000000       0.06666667       0.25000000 </v>
   <v>      -0.26666667       0.06666667       0.25000000 </v>
   <v>      -0.23333333       0.06666667       0.25000000 </v>
   <v>      -0.20000000       0.06666667       0.25000000 </v>
   <v>      -0.16666667       0.06666667       0.25000000 </v>
   <v>      -0.13333333       0.06666667       0.25000000 </v>
   <v>      -0.10000000       0.06666667       0.25000000 </v>
   <v>       0.00000000       0.10000000       0.25000000 </v>
   <v>       0.03333333       0.10000000       0.25000000 </v>
   <v>       0.06666667       0.10000000       0.25000000 </v>
   <v>       0.10000000       0.10000000       0.25000000 </v>
   <v>       0.13333333       0.10000000       0.25000000 </v>
   <v>       0.16666667       0.10000000       0.25000000 </v>
   <v>       0.20000000       0.10000000       0.25000000 </v>
   <v>       0.23333333       0.10000000       0.25000000 </v>
   <v>       0.26666667       0.10000000       0.25000000 </v>
   <v>       0.30000000       0.10000000       0.25000000 </v>
   <v>       0.33333333       0.10000000       0.25000000 </v>
   <v>       0.36666667       0.10000000       0.25000000 </v>
   <v>       0.40000000       0.10000000       0.25000000 </v>
   <v>       0.43333333       0.10000000       0.25000000 </v>
   <v>       0.46666667       0.10000000       0.25000000 </v>
   <v>       0.50000000       0.10000000       0.25000000 </v>
   <v>      -0.46666667       0.10000000       0.25000000 </v>
   <v>      -0.43333333       0.10000000       0.25000000 </v>
   <v>      -0.40000000       0.10000000       0.25000000 </v>
   <v>      -0.36666667       0.10000000       0.25000000 </v>
   <v>      -0.33333333       0.10000000       0.25000000 </v>
   <v>      -0.30000000       0.10000000       0.25000000 </v>
   <v>      -0.26666667       0.10000000       0.25000000 </v>
   <v>      -0.23333333       0.10000000       0.25000000 </v>
   <v>      -0.20000000       0.10000000       0.25000000 </v>
   <v>      -0.16666667       0.10000000       0.25000000 </v>
   <v>      -0.13333333       0.10000000       0.25000000 </v>
   <v>       0.00000000       0.13333333       0.25000000 </v>
   <v>       0.03333333       0.13333333       0.25000000 </v>
   <v>       0.06666667       0.13333333       0.25000000 </v>
   <v>       0.10000000       0.13333333       0.25000000 </v>
   <v>       0.13333333       0.13333333       0.25000000 </v>
   <v>       0.16666667       0.13333333       0.25000000 </v>
   <v>       0.20000000       0.13333333       0.25000000 </v>
   <v>       0.23333333       0.13333333       0.25000000 </v>
   <v>       0.26666667       0.13333333       0.25000000 </v>
   <v>       0.30000000       0.13333333       0.25000000 </v>
   <v>       0.33333333       0.13333333       0.25000000 </v>
   <v>       0.36666667       0.13333333       0.25000000 </v>
   <v>       0.40000000       0.13333333       0.25000000 </v>
   <v>       0.43333333       0.13333333       0.25000000 </v>
   <v>       0.46666667       0.13333333       0.25000000 </v>
   <v>       0.50000000       0.13333333       0.25000000 </v>
   <v>      -0.46666667       0.13333333       0.25000000 </v>
   <v>      -0.43333333       0.13333333       0.25000000 </v>
   <v>      -0.40000000       0.13333333       0.25000000 </v>
   <v>      -0.36666667       0.13333333       0.25000000 </v>
   <v>      -0.33333333       0.13333333       0.25000000 </v>
   <v>      -0.30000000       0.13333333       0.25000000 </v>
   <v>      -0.26666667       0.13333333       0.25000000 </v>
   <v>      -0.23333333       0.13333333       0.25000000 </v>
   <v>      -0.20000000       0.13333333       0.25000000 </v>
   <v>      -0.16666667       0.13333333       0.25000000 </v>
   <v>       0.00000000       0.16666667       0.25000000 </v>
   <v>       0.03333333       0.16666667       0.25000000 </v>
   <v>       0.06666667       0.16666667       0.25000000 </v>
   <v>       0.10000000       0.16666667       0.25000000 </v>
   <v>       0.13333333       0.16666667       0.25000000 </v>
   <v>       0.16666667       0.16666667       0.25000000 </v>
   <v>       0.20000000       0.16666667       0.25000000 </v>
   <v>       0.23333333       0.16666667       0.25000000 </v>
   <v>       0.26666667       0.16666667       0.25000000 </v>
   <v>       0.30000000       0.16666667       0.25000000 </v>
   <v>       0.33333333       0.16666667       0.25000000 </v>
   <v>       0.36666667       0.16666667       0.25000000 </v>
   <v>       0.40000000       0.16666667       0.25000000 </v>
   <v>       0.43333333       0.16666667       0.25000000 </v>
   <v>       0.46666667       0.16666667       0.25000000 </v>
   <v>       0.50000000       0.16666667       0.25000000 </v>
   <v>      -0.46666667       0.16666667       0.25000000 </v>
   <v>      -0.43333333       0.16666667       0.25000000 </v>
   <v>      -0.40000000       0.16666667       0.25000000 </v>
   <v>      -0.36666667       0.16666667       0.25000000 </v>
   <v>      -0.33333333       0.16666667       0.25000000 </v>
   <v>      -0.30000000       0.16666667       0.25000000 </v>
   <v>      -0.26666667       0.16666667       0.25000000 </v>
   <v>      -0.23333333       0.16666667       0.25000000 </v>
   <v>      -0.20000000       0.16666667       0.25000000 </v>
   <v>       0.00000000       0.20000000       0.25000000 </v>
   <v>       0.03333333       0.20000000       0.25000000 </v>
   <v>       0.06666667       0.20000000       0.25000000 </v>
   <v>       0.10000000       0.20000000       0.25000000 </v>
   <v>       0.13333333       0.20000000       0.25000000 </v>
   <v>       0.16666667       0.20000000       0.25000000 </v>
   <v>       0.20000000       0.20000000       0.25000000 </v>
   <v>       0.23333333       0.20000000       0.25000000 </v>
   <v>       0.26666667       0.20000000       0.25000000 </v>
   <v>       0.30000000       0.20000000       0.25000000 </v>
   <v>       0.33333333       0.20000000       0.25000000 </v>
   <v>       0.36666667       0.20000000       0.25000000 </v>
   <v>       0.40000000       0.20000000       0.25000000 </v>
   <v>       0.43333333       0.20000000       0.25000000 </v>
   <v>       0.46666667       0.20000000       0.25000000 </v>
   <v>       0.50000000       0.20000000       0.25000000 </v>
   <v>      -0.46666667       0.20000000       0.25000000 </v>
   <v>      -0.43333333       0.20000000       0.25000000 </v>
   <v>      -0.40000000       0.20000000       0.25000000 </v>
   <v>      -0.36666667       0.20000000       0.25000000 </v>
   <v>      -0.33333333       0.20000000       0.25000000 </v>
   <v>      -0.30000000       0.20000000       0.25000000 </v>
   <v>      -0.26666667       0.20000000       0.25000000 </v>
   <v>      -0.23333333       0.20000000       0.25000000 </v>
   <v>       0.00000000       0.23333333       0.25000000 </v>
   <v>       0.03333333       0.23333333       0.25000000 </v>
   <v>       0.06666667       0.23333333       0.25000000 </v>
   <v>       0.10000000       0.23333333       0.25000000 </v>
   <v>       0.13333333       0.23333333       0.25000000 </v>
   <v>       0.16666667       0.23333333       0.25000000 </v>
   <v>       0.20000000       0.23333333       0.25000000 </v>
   <v>       0.23333333       0.23333333       0.25000000 </v>
   <v>       0.26666667       0.23333333       0.25000000 </v>
   <v>       0.30000000       0.23333333       0.25000000 </v>
   <v>       0.33333333       0.23333333       0.25000000 </v>
   <v>       0.36666667       0.23333333       0.25000000 </v>
   <v>       0.40000000       0.23333333       0.25000000 </v>
   <v>       0.43333333       0.23333333       0.25000000 </v>
   <v>       0.46666667       0.23333333       0.25000000 </v>
   <v>       0.50000000       0.23333333       0.25000000 </v>
   <v>      -0.46666667       0.23333333       0.25000000 </v>
   <v>      -0.43333333       0.23333333       0.25000000 </v>
   <v>      -0.40000000       0.23333333       0.25000000 </v>
   <v>      -0.36666667       0.23333333       0.25000000 </v>
   <v>      -0.33333333       0.23333333       0.25000000 </v>
   <v>      -0.30000000       0.23333333       0.25000000 </v>
   <v>      -0.26666667       0.23333333       0.25000000 </v>
   <v>       0.00000000       0.26666667       0.25000000 </v>
   <v>       0.03333333       0.26666667       0.25000000 </v>
   <v>       0.06666667       0.26666667       0.25000000 </v>
   <v>       0.10000000       0.26666667       0.25000000 </v>
   <v>       0.13333333       0.26666667       0.25000000 </v>
   <v>       0.16666667       0.26666667       0.25000000 </v>
   <v>       0.20000000       0.26666667       0.25000000 </v>
   <v>       0.26666667       0.26666667       0.25000000 </v>
   <v>       0.30000000       0.26666667       0.25000000 </v>
   <v>       0.33333333       0.26666667       0.25000000 </v>
   <v>       0.36666667       0.26666667       0.25000000 </v>
   <v>       0.40000000       0.26666667       0.25000000 </v>
   <v>       0.43333333       0.26666667       0.25000000 </v>
   <v>       0.46666667       0.26666667       0.25000000 </v>
   <v>       0.50000000       0.26666667       0.25000000 </v>
   <v>      -0.46666667       0.26666667       0.25000000 </v>
   <v>      -0.43333333       0.26666667       0.25000000 </v>
   <v>      -0.40000000       0.26666667       0.25000000 </v>
   <v>      -0.36666667       0.26666667       0.25000000 </v>
   <v>      -0.33333333       0.26666667       0.25000000 </v>
   <v>      -0.30000000       0.26666667       0.25000000 </v>
   <v>       0.00000000       0.30000000       0.25000000 </v>
   <v>       0.03333333       0.30000000       0.25000000 </v>
   <v>       0.06666667       0.30000000       0.25000000 </v>
   <v>       0.10000000       0.30000000       0.25000000 </v>
   <v>       0.13333333       0.30000000       0.25000000 </v>
   <v>       0.16666667       0.30000000       0.25000000 </v>
   <v>       0.23333333       0.30000000       0.25000000 </v>
   <v>       0.26666667       0.30000000       0.25000000 </v>
   <v>       0.30000000       0.30000000       0.25000000 </v>
   <v>       0.33333333       0.30000000       0.25000000 </v>
   <v>       0.36666667       0.30000000       0.25000000 </v>
   <v>       0.40000000       0.30000000       0.25000000 </v>
   <v>       0.43333333       0.30000000       0.25000000 </v>
   <v>       0.46666667       0.30000000       0.25000000 </v>
   <v>       0.50000000       0.30000000       0.25000000 </v>
   <v>      -0.46666667       0.30000000       0.25000000 </v>
   <v>      -0.43333333       0.30000000       0.25000000 </v>
   <v>      -0.40000000       0.30000000       0.25000000 </v>
   <v>      -0.36666667       0.30000000       0.25000000 </v>
   <v>      -0.33333333       0.30000000       0.25000000 </v>
   <v>       0.00000000       0.33333333       0.25000000 </v>
   <v>       0.03333333       0.33333333       0.25000000 </v>
   <v>       0.06666667       0.33333333       0.25000000 </v>
   <v>       0.10000000       0.33333333       0.25000000 </v>
   <v>       0.13333333       0.33333333       0.25000000 </v>
   <v>       0.20000000       0.33333333       0.25000000 </v>
   <v>       0.23333333       0.33333333       0.25000000 </v>
   <v>       0.26666667       0.33333333       0.25000000 </v>
   <v>       0.30000000       0.33333333       0.25000000 </v>
   <v>       0.33333333       0.33333333       0.25000000 </v>
   <v>       0.36666667       0.33333333       0.25000000 </v>
   <v>       0.40000000       0.33333333       0.25000000 </v>
   <v>       0.43333333       0.33333333       0.25000000 </v>
   <v>       0.46666667       0.33333333       0.25000000 </v>
   <v>       0.50000000       0.33333333       0.25000000 </v>
   <v>      -0.46666667       0.33333333       0.25000000 </v>
   <v>      -0.43333333       0.33333333       0.25000000 </v>
   <v>      -0.40000000       0.33333333       0.25000000 </v>
   <v>      -0.36666667       0.33333333       0.25000000 </v>
   <v>       0.00000000       0.36666667       0.25000000 </v>
   <v>       0.03333333       0.36666667       0.25000000 </v>
   <v>       0.06666667       0.36666667       0.25000000 </v>
   <v>       0.10000000       0.36666667       0.25000000 </v>
   <v>       0.16666667       0.36666667       0.25000000 </v>
   <v>       0.20000000       0.36666667       0.25000000 </v>
   <v>       0.23333333       0.36666667       0.25000000 </v>
   <v>       0.26666667       0.36666667       0.25000000 </v>
   <v>       0.30000000       0.36666667       0.25000000 </v>
   <v>       0.33333333       0.36666667       0.25000000 </v>
   <v>       0.36666667       0.36666667       0.25000000 </v>
   <v>       0.40000000       0.36666667       0.25000000 </v>
   <v>       0.43333333       0.36666667       0.25000000 </v>
   <v>       0.46666667       0.36666667       0.25000000 </v>
   <v>       0.50000000       0.36666667       0.25000000 </v>
   <v>      -0.46666667       0.36666667       0.25000000 </v>
   <v>      -0.43333333       0.36666667       0.25000000 </v>
   <v>      -0.40000000       0.36666667       0.25000000 </v>
   <v>       0.00000000       0.40000000       0.25000000 </v>
   <v>       0.03333333       0.40000000       0.25000000 </v>
   <v>       0.06666667       0.40000000       0.25000000 </v>
   <v>       0.13333333       0.40000000       0.25000000 </v>
   <v>       0.16666667       0.40000000       0.25000000 </v>
   <v>       0.20000000       0.40000000       0.25000000 </v>
   <v>       0.23333333       0.40000000       0.25000000 </v>
   <v>       0.26666667       0.40000000       0.25000000 </v>
   <v>       0.30000000       0.40000000       0.25000000 </v>
   <v>       0.33333333       0.40000000       0.25000000 </v>
   <v>       0.36666667       0.40000000       0.25000000 </v>
   <v>       0.40000000       0.40000000       0.25000000 </v>
   <v>       0.43333333       0.40000000       0.25000000 </v>
   <v>       0.46666667       0.40000000       0.25000000 </v>
   <v>       0.50000000       0.40000000       0.25000000 </v>
   <v>      -0.46666667       0.40000000       0.25000000 </v>
   <v>      -0.43333333       0.40000000       0.25000000 </v>
   <v>       0.00000000       0.43333333       0.25000000 </v>
   <v>       0.03333333       0.43333333       0.25000000 </v>
   <v>       0.10000000       0.43333333       0.25000000 </v>
   <v>       0.13333333       0.43333333       0.25000000 </v>
   <v>       0.16666667       0.43333333       0.25000000 </v>
   <v>       0.20000000       0.43333333       0.25000000 </v>
   <v>       0.23333333       0.43333333       0.25000000 </v>
   <v>       0.26666667       0.43333333       0.25000000 </v>
   <v>       0.30000000       0.43333333       0.25000000 </v>
   <v>       0.33333333       0.43333333       0.25000000 </v>
   <v>       0.36666667       0.43333333       0.25000000 </v>
   <v>       0.40000000       0.43333333       0.25000000 </v>
   <v>       0.43333333       0.43333333       0.25000000 </v>
   <v>       0.46666667       0.43333333       0.25000000 </v>
   <v>       0.50000000       0.43333333       0.25000000 </v>
   <v>      -0.46666667       0.43333333       0.25000000 </v>
   <v>       0.00000000       0.46666667       0.25000000 </v>
   <v>       0.06666667       0.46666667       0.25000000 </v>
   <v>       0.10000000       0.46666667       0.25000000 </v>
   <v>       0.13333333       0.46666667       0.25000000 </v>
   <v>       0.16666667       0.46666667       0.25000000 </v>
   <v>       0.20000000       0.46666667       0.25000000 </v>
   <v>       0.23333333       0.46666667       0.25000000 </v>
   <v>       0.26666667       0.46666667       0.25000000 </v>
   <v>       0.30000000       0.46666667       0.25000000 </v>
   <v>       0.33333333       0.46666667       0.25000000 </v>
   <v>       0.36666667       0.46666667       0.25000000 </v>
   <v>       0.40000000       0.46666667       0.25000000 </v>
   <v>       0.43333333       0.46666667       0.25000000 </v>
   <v>       0.46666667       0.46666667       0.25000000 </v>
   <v>       0.50000000       0.46666667       0.25000000 </v>
   <v>       0.03333333       0.50000000       0.25000000 </v>
   <v>       0.06666667       0.50000000       0.25000000 </v>
   <v>       0.10000000       0.50000000       0.25000000 </v>
   <v>       0.13333333       0.50000000       0.25000000 </v>
   <v>       0.16666667       0.50000000       0.25000000 </v>
   <v>       0.20000000       0.50000000       0.25000000 </v>
   <v>       0.23333333       0.50000000       0.25000000 </v>
   <v>       0.00000000      -0.46666667       0.25000000 </v>
   <v>       0.03333333      -0.46666667       0.25000000 </v>
   <v>       0.06666667      -0.46666667       0.25000000 </v>
   <v>       0.10000000      -0.46666667       0.25000000 </v>
   <v>       0.13333333      -0.46666667       0.25000000 </v>
   <v>       0.16666667      -0.46666667       0.25000000 </v>
   <v>       0.20000000      -0.46666667       0.25000000 </v>
   <v>       0.23333333      -0.46666667       0.25000000 </v>
   <v>       0.26666667      -0.46666667       0.25000000 </v>
   <v>       0.30000000      -0.46666667       0.25000000 </v>
   <v>       0.33333333      -0.46666667       0.25000000 </v>
   <v>       0.36666667      -0.46666667       0.25000000 </v>
   <v>       0.40000000      -0.46666667       0.25000000 </v>
   <v>       0.43333333      -0.46666667       0.25000000 </v>
   <v>       0.00000000      -0.43333333       0.25000000 </v>
   <v>       0.03333333      -0.43333333       0.25000000 </v>
   <v>       0.06666667      -0.43333333       0.25000000 </v>
   <v>       0.10000000      -0.43333333       0.25000000 </v>
   <v>       0.13333333      -0.43333333       0.25000000 </v>
   <v>       0.16666667      -0.43333333       0.25000000 </v>
   <v>       0.20000000      -0.43333333       0.25000000 </v>
   <v>       0.23333333      -0.43333333       0.25000000 </v>
   <v>       0.26666667      -0.43333333       0.25000000 </v>
   <v>       0.30000000      -0.43333333       0.25000000 </v>
   <v>       0.33333333      -0.43333333       0.25000000 </v>
   <v>       0.36666667      -0.43333333       0.25000000 </v>
   <v>       0.40000000      -0.43333333       0.25000000 </v>
   <v>       0.00000000      -0.40000000       0.25000000 </v>
   <v>       0.03333333      -0.40000000       0.25000000 </v>
   <v>       0.06666667      -0.40000000       0.25000000 </v>
   <v>       0.10000000      -0.40000000       0.25000000 </v>
   <v>       0.13333333      -0.40000000       0.25000000 </v>
   <v>       0.16666667      -0.40000000       0.25000000 </v>
   <v>       0.20000000      -0.40000000       0.25000000 </v>
   <v>       0.23333333      -0.40000000       0.25000000 </v>
   <v>       0.26666667      -0.40000000       0.25000000 </v>
   <v>       0.30000000      -0.40000000       0.25000000 </v>
   <v>       0.33333333      -0.40000000       0.25000000 </v>
   <v>       0.36666667      -0.40000000       0.25000000 </v>
   <v>       0.00000000      -0.36666667       0.25000000 </v>
   <v>       0.03333333      -0.36666667       0.25000000 </v>
   <v>       0.06666667      -0.36666667       0.25000000 </v>
   <v>       0.10000000      -0.36666667       0.25000000 </v>
   <v>       0.13333333      -0.36666667       0.25000000 </v>
   <v>       0.16666667      -0.36666667       0.25000000 </v>
   <v>       0.20000000      -0.36666667       0.25000000 </v>
   <v>       0.23333333      -0.36666667       0.25000000 </v>
   <v>       0.26666667      -0.36666667       0.25000000 </v>
   <v>       0.30000000      -0.36666667       0.25000000 </v>
   <v>       0.33333333      -0.36666667       0.25000000 </v>
   <v>       0.00000000      -0.33333333       0.25000000 </v>
   <v>       0.03333333      -0.33333333       0.25000000 </v>
   <v>       0.06666667      -0.33333333       0.25000000 </v>
   <v>       0.10000000      -0.33333333       0.25000000 </v>
   <v>       0.13333333      -0.33333333       0.25000000 </v>
   <v>       0.16666667      -0.33333333       0.25000000 </v>
   <v>       0.20000000      -0.33333333       0.25000000 </v>
   <v>       0.23333333      -0.33333333       0.25000000 </v>
   <v>       0.26666667      -0.33333333       0.25000000 </v>
   <v>       0.30000000      -0.33333333       0.25000000 </v>
   <v>       0.00000000      -0.30000000       0.25000000 </v>
   <v>       0.03333333      -0.30000000       0.25000000 </v>
   <v>       0.06666667      -0.30000000       0.25000000 </v>
   <v>       0.10000000      -0.30000000       0.25000000 </v>
   <v>       0.13333333      -0.30000000       0.25000000 </v>
   <v>       0.16666667      -0.30000000       0.25000000 </v>
   <v>       0.20000000      -0.30000000       0.25000000 </v>
   <v>       0.23333333      -0.30000000       0.25000000 </v>
   <v>       0.26666667      -0.30000000       0.25000000 </v>
   <v>       0.00000000      -0.26666667       0.25000000 </v>
   <v>       0.03333333      -0.26666667       0.25000000 </v>
   <v>       0.06666667      -0.26666667       0.25000000 </v>
   <v>       0.10000000      -0.26666667       0.25000000 </v>
   <v>       0.13333333      -0.26666667       0.25000000 </v>
   <v>       0.16666667      -0.26666667       0.25000000 </v>
   <v>       0.20000000      -0.26666667       0.25000000 </v>
   <v>       0.23333333      -0.26666667       0.25000000 </v>
   <v>       0.00000000      -0.23333333       0.25000000 </v>
   <v>       0.03333333      -0.23333333       0.25000000 </v>
   <v>       0.06666667      -0.23333333       0.25000000 </v>
   <v>       0.10000000      -0.23333333       0.25000000 </v>
   <v>       0.13333333      -0.23333333       0.25000000 </v>
   <v>       0.16666667      -0.23333333       0.25000000 </v>
   <v>       0.20000000      -0.23333333       0.25000000 </v>
   <v>       0.00000000      -0.20000000       0.25000000 </v>
   <v>       0.03333333      -0.20000000       0.25000000 </v>
   <v>       0.06666667      -0.20000000       0.25000000 </v>
   <v>       0.10000000      -0.20000000       0.25000000 </v>
   <v>       0.13333333      -0.20000000       0.25000000 </v>
   <v>       0.16666667      -0.20000000       0.25000000 </v>
   <v>       0.00000000      -0.16666667       0.25000000 </v>
   <v>       0.03333333      -0.16666667       0.25000000 </v>
   <v>       0.06666667      -0.16666667       0.25000000 </v>
   <v>       0.10000000      -0.16666667       0.25000000 </v>
   <v>       0.13333333      -0.16666667       0.25000000 </v>
   <v>       0.00000000      -0.13333333       0.25000000 </v>
   <v>       0.03333333      -0.13333333       0.25000000 </v>
   <v>       0.06666667      -0.13333333       0.25000000 </v>
   <v>       0.10000000      -0.13333333       0.25000000 </v>
   <v>       0.00000000      -0.10000000       0.25000000 </v>
   <v>       0.03333333      -0.10000000       0.25000000 </v>
   <v>       0.06666667      -0.10000000       0.25000000 </v>
   <v>       0.00000000      -0.06666667       0.25000000 </v>
   <v>       0.03333333      -0.06666667       0.25000000 </v>
   <v>       0.00000000      -0.03333333       0.25000000 </v>
   <v>       0.00000000       0.00000000       0.37500000 </v>
   <v>       0.03333333       0.00000000       0.37500000 </v>
   <v>       0.06666667       0.00000000       0.37500000 </v>
   <v>       0.10000000       0.00000000       0.37500000 </v>
   <v>       0.13333333       0.00000000       0.37500000 </v>
   <v>       0.16666667       0.00000000       0.37500000 </v>
   <v>       0.20000000       0.00000000       0.37500000 </v>
   <v>       0.23333333       0.00000000       0.37500000 </v>
   <v>       0.26666667       0.00000000       0.37500000 </v>
   <v>       0.30000000       0.00000000       0.37500000 </v>
   <v>       0.33333333       0.00000000       0.37500000 </v>
   <v>       0.36666667       0.00000000       0.37500000 </v>
   <v>       0.40000000       0.00000000       0.37500000 </v>
   <v>       0.43333333       0.00000000       0.37500000 </v>
   <v>       0.46666667       0.00000000       0.37500000 </v>
   <v>      -0.46666667       0.00000000       0.37500000 </v>
   <v>      -0.43333333       0.00000000       0.37500000 </v>
   <v>      -0.40000000       0.00000000       0.37500000 </v>
   <v>      -0.36666667       0.00000000       0.37500000 </v>
   <v>      -0.33333333       0.00000000       0.37500000 </v>
   <v>      -0.30000000       0.00000000       0.37500000 </v>
   <v>      -0.26666667       0.00000000       0.37500000 </v>
   <v>      -0.23333333       0.00000000       0.37500000 </v>
   <v>      -0.20000000       0.00000000       0.37500000 </v>
   <v>      -0.16666667       0.00000000       0.37500000 </v>
   <v>      -0.13333333       0.00000000       0.37500000 </v>
   <v>      -0.10000000       0.00000000       0.37500000 </v>
   <v>      -0.06666667       0.00000000       0.37500000 </v>
   <v>      -0.03333333       0.00000000       0.37500000 </v>
   <v>       0.00000000       0.03333333       0.37500000 </v>
   <v>       0.03333333       0.03333333       0.37500000 </v>
   <v>       0.06666667       0.03333333       0.37500000 </v>
   <v>       0.10000000       0.03333333       0.37500000 </v>
   <v>       0.13333333       0.03333333       0.37500000 </v>
   <v>       0.16666667       0.03333333       0.37500000 </v>
   <v>       0.20000000       0.03333333       0.37500000 </v>
   <v>       0.23333333       0.03333333       0.37500000 </v>
   <v>       0.26666667       0.03333333       0.37500000 </v>
   <v>       0.30000000       0.03333333       0.37500000 </v>
   <v>       0.33333333       0.03333333       0.37500000 </v>
   <v>       0.36666667       0.03333333       0.37500000 </v>
   <v>       0.40000000       0.03333333       0.37500000 </v>
   <v>       0.43333333       0.03333333       0.37500000 </v>
   <v>       0.50000000       0.03333333       0.37500000 </v>
   <v>      -0.46666667       0.03333333       0.37500000 </v>
   <v>      -0.43333333       0.03333333       0.37500000 </v>
   <v>      -0.40000000       0.03333333       0.37500000 </v>
   <v>      -0.36666667       0.03333333       0.37500000 </v>
   <v>      -0.33333333       0.03333333       0.37500000 </v>
   <v>      -0.30000000       0.03333333       0.37500000 </v>
   <v>      -0.26666667       0.03333333       0.37500000 </v>
   <v>      -0.23333333       0.03333333       0.37500000 </v>
   <v>      -0.20000000       0.03333333       0.37500000 </v>
   <v>      -0.16666667       0.03333333       0.37500000 </v>
   <v>      -0.13333333       0.03333333       0.37500000 </v>
   <v>      -0.10000000       0.03333333       0.37500000 </v>
   <v>      -0.06666667       0.03333333       0.37500000 </v>
   <v>       0.00000000       0.06666667       0.37500000 </v>
   <v>       0.03333333       0.06666667       0.37500000 </v>
   <v>       0.06666667       0.06666667       0.37500000 </v>
   <v>       0.10000000       0.06666667       0.37500000 </v>
   <v>       0.13333333       0.06666667       0.37500000 </v>
   <v>       0.16666667       0.06666667       0.37500000 </v>
   <v>       0.20000000       0.06666667       0.37500000 </v>
   <v>       0.23333333       0.06666667       0.37500000 </v>
   <v>       0.26666667       0.06666667       0.37500000 </v>
   <v>       0.30000000       0.06666667       0.37500000 </v>
   <v>       0.33333333       0.06666667       0.37500000 </v>
   <v>       0.36666667       0.06666667       0.37500000 </v>
   <v>       0.40000000       0.06666667       0.37500000 </v>
   <v>       0.46666667       0.06666667       0.37500000 </v>
   <v>       0.50000000       0.06666667       0.37500000 </v>
   <v>      -0.46666667       0.06666667       0.37500000 </v>
   <v>      -0.43333333       0.06666667       0.37500000 </v>
   <v>      -0.40000000       0.06666667       0.37500000 </v>
   <v>      -0.36666667       0.06666667       0.37500000 </v>
   <v>      -0.33333333       0.06666667       0.37500000 </v>
   <v>      -0.30000000       0.06666667       0.37500000 </v>
   <v>      -0.26666667       0.06666667       0.37500000 </v>
   <v>      -0.23333333       0.06666667       0.37500000 </v>
   <v>      -0.20000000       0.06666667       0.37500000 </v>
   <v>      -0.16666667       0.06666667       0.37500000 </v>
   <v>      -0.13333333       0.06666667       0.37500000 </v>
   <v>      -0.10000000       0.06666667       0.37500000 </v>
   <v>       0.00000000       0.10000000       0.37500000 </v>
   <v>       0.03333333       0.10000000       0.37500000 </v>
[...]
       <r>    5.0693    1.0000 </r>
       <r>    5.1783    1.0000 </r>
       <r>    5.1892    1.0000 </r>
       <r>    5.5850    1.0000 </r>
       <r>    5.8167    1.0000 </r>
       <r>    5.8455    1.0000 </r>
       <r>    5.8960    1.0000 </r>
       <r>    5.9973    1.0000 </r>
       <r>    6.0759    1.0000 </r>
       <r>    7.6877    0.2417 </r>
       <r>    8.3299   -0.0014 </r>
       <r>    8.7098    0.0000 </r>
       <r>    9.5786    0.0000 </r>
       <r>   11.2043    0.0000 </r>
       <r>   11.9511    0.0000 </r>
       <r>   15.4153    0.0000 </r>
       <r>   14.5813    0.0000 </r>
      </set>
      <set comment="kpoint 1814">
       <r>    0.6121    1.0000 </r>
       <r>    1.3090    1.0000 </r>
       <r>    2.6743    1.0000 </r>
       <r>    3.1863    1.0000 </r>
       <r>    3.4508    1.0000 </r>
       <r>    3.5476    1.0000 </r>
       <r>    3.8797    1.0000 </r>
       <r>    4.2497    1.0000 </r>
       <r>    4.3860    1.0000 </r>
       <r>    4.6660    1.0000 </r>
       <r>    4.7390    1.0000 </r>
       <r>    5.0469    1.0000 </r>
       <r>    5.0881    1.0000 </r>
       <r>    5.1309    1.0000 </r>
       <r>    5.5387    1.0000 </r>
       <r>    5.7743    1.0000 </r>
       <r>    5.8268    1.0000 </r>
       <r>    5.8945    1.0000 </r>
       <r>    6.0241    1.0000 </r>
       <r>    6.0712    1.0000 </r>
       <r>    8.2343   -0.0049 </r>
       <r>    8.2420   -0.0044 </r>
       <r>    9.3561    0.0000 </r>
       <r>    9.5052    0.0000 </r>
       <r>   11.5257    0.0000 </r>
       <r>   11.7620    0.0000 </r>
       <r>   15.7376    0.0000 </r>
       <r>   15.7830    0.0000 </r>
      </set>
      <set comment="kpoint 1815">
       <r>    0.1340    1.0000 </r>
       <r>    1.1465    1.0000 </r>
       <r>    2.5637    1.0000 </r>
       <r>    3.2143    1.0000 </r>
       <r>    3.4027    1.0000 </r>
       <r>    3.7606    1.0000 </r>
       <r>    3.8000    1.0000 </r>
       <r>    4.2266    1.0000 </r>
       <r>    4.7249    1.0000 </r>
       <r>    4.7324    1.0000 </r>
       <r>    4.8854    1.0000 </r>
       <r>    5.1532    1.0000 </r>
       <r>    5.3567    1.0000 </r>
       <r>    5.5622    1.0000 </r>
       <r>    5.5910    1.0000 </r>
       <r>    5.8376    1.0000 </r>
       <r>    5.8594    1.0000 </r>
       <r>    5.8953    1.0000 </r>
       <r>    5.9686    1.0000 </r>
       <r>    6.0540    1.0000 </r>
       <r>    6.9739    1.0066 </r>
       <r>    7.7649    0.0888 </r>
       <r>    8.3361   -0.0012 </r>
       <r>    9.5617    0.0000 </r>
       <r>   10.9095    0.0000 </r>
       <r>   12.2181    0.0000 </r>
       <r>   14.9505    0.0000 </r>
       <r>   15.6499    0.0000 </r>
      </set>
      <set comment="kpoint 1816">
       <r>    0.2495    1.0000 </r>
       <r>    1.1779    1.0000 </r>
       <r>    2.6215    1.0000 </r>
       <r>    3.2384    1.0000 </r>
       <r>    3.4353    1.0000 </r>
       <r>    3.6450    1.0000 </r>
       <r>    3.8191    1.0000 </r>
       <r>    4.2399    1.0000 </r>
       <r>    4.7173    1.0000 </r>
       <r>    4.7329    1.0000 </r>
       <r>    4.8425    1.0000 </r>
       <r>    5.0705    1.0000 </r>
       <r>    5.2801    1.0000 </r>
       <r>    5.3321    1.0000 </r>
       <r>    5.6271    1.0000 </r>
       <r>    5.8543    1.0000 </r>
       <r>    5.8661    1.0000 </r>
       <r>    5.8955    1.0000 </r>
       <r>    5.9937    1.0000 </r>
       <r>    6.0580    1.0000 </r>
       <r>    7.7411    0.1292 </r>
       <r>    7.8857   -0.0233 </r>
       <r>    8.6785    0.0000 </r>
       <r>    9.1632    0.0000 </r>
       <r>   11.2799    0.0000 </r>
       <r>   11.6980    0.0000 </r>
       <r>   15.6706    0.0000 </r>
       <r>   15.7517    0.0000 </r>
      </set>
     </set>
    </set>
   </array>
  </eigenvalues>
  <separator name="orbital magnetization" >
   <v name="MAGDIPOLOUT">      0.00000000      0.00000000      0.00000000</v>
  </separator>
  <dos>
   <i name="efermi">      7.59072292 </i>
   <total>
    <array>
     <dimension dim="1">gridpoints</dimension>
     <dimension dim="2">spin</dimension>
     <field>energy</field>
     <field>total</field>
     <field>integrated</field>
     <set>
      <set comment="spin 1">
       <r>    -5.0003     0.0000     0.0000 </r>
       <r>    -4.8918     0.0000     0.0000 </r>
       <r>    -4.7834     0.0000     0.0000 </r>
       <r>    -4.6749     0.0000     0.0000 </r>
       <r>    -4.5665     0.0000     0.0000 </r>
       <r>    -4.4580     0.0000     0.0000 </r>
       <r>    -4.3496     0.0000     0.0000 </r>
       <r>    -4.2411     0.0000     0.0000 </r>
       <r>    -4.1327     0.0000     0.0000 </r>
       <r>    -4.0242     0.0000     0.0000 </r>
       <r>    -3.9157     0.0000     0.0000 </r>
       <r>    -3.8073     0.0000     0.0000 </r>
       <r>    -3.6988     0.0000     0.0000 </r>
       <r>    -3.5904     0.0000     0.0000 </r>
       <r>    -3.4819     0.0000     0.0000 </r>
       <r>    -3.3735     0.0000     0.0000 </r>
       <r>    -3.2650     0.0000     0.0000 </r>
       <r>    -3.1565     0.0000     0.0000 </r>
       <r>    -3.0481     0.0000     0.0000 </r>
       <r>    -2.9396     0.0000     0.0000 </r>
       <r>    -2.8312     0.0000     0.0000 </r>
       <r>    -2.7227    -0.0001     0.0000 </r>
       <r>    -2.6143    -0.0004    -0.0001 </r>
       <r>    -2.5058    -0.0015    -0.0002 </r>
       <r>    -2.3973    -0.0039    -0.0006 </r>
       <r>    -2.2889    -0.0064    -0.0013 </r>
       <r>    -2.1804    -0.0027    -0.0016 </r>
       <r>    -2.0720     0.0180     0.0003 </r>
       <r>    -1.9635     0.0621     0.0071 </r>
       <r>    -1.8551     0.1210     0.0202 </r>
       <r>    -1.7466     0.1742     0.0391 </r>
       <r>    -1.6381     0.2065     0.0615 </r>
       <r>    -1.5297     0.2187     0.0852 </r>
       <r>    -1.4212     0.2212     0.1092 </r>
       <r>    -1.3128     0.2221     0.1333 </r>
       <r>    -1.2043     0.2243     0.1576 </r>
       <r>    -1.0959     0.2277     0.1823 </r>
       <r>    -0.9874     0.2316     0.2074 </r>
       <r>    -0.8790     0.2349     0.2329 </r>
       <r>    -0.7705     0.2376     0.2586 </r>
       <r>    -0.6620     0.2450     0.2852 </r>
       <r>    -0.5536     0.2636     0.3138 </r>
       <r>    -0.4451     0.2973     0.3461 </r>
       <r>    -0.3367     0.3469     0.3837 </r>
       <r>    -0.2282     0.4107     0.4282 </r>
       <r>    -0.1198     0.5104     0.4836 </r>
       <r>    -0.0113     0.7161     0.5612 </r>
       <r>     0.0972     1.0767     0.6780 </r>
       <r>     0.2056     1.4970     0.8404 </r>
       <r>     0.3141     1.7678     1.0321 </r>
       <r>     0.4225     1.7635     1.2234 </r>
       <r>     0.5310     1.5526     1.3917 </r>
       <r>     0.6394     1.3010     1.5329 </r>
       <r>     0.7479     1.1329     1.6557 </r>
       <r>     0.8564     1.1092     1.7760 </r>
       <r>     0.9648     1.3010     1.9171 </r>
       <r>     1.0733     1.8037     2.1127 </r>
       <r>     1.1817     2.6103     2.3959 </r>
       <r>     1.2902     3.4952     2.7749 </r>
       <r>     1.3986     4.1142     3.2211 </r>
       <r>     1.5071     4.2359     3.6805 </r>
       <r>     1.6156     3.8568     4.0988 </r>
       <r>     1.7240     3.1487     4.4403 </r>
       <r>     1.8325     2.3703     4.6974 </r>
       <r>     1.9409     1.7949     4.8921 </r>
       <r>     2.0494     1.6111     5.0668 </r>
       <r>     2.1578     1.8553     5.2680 </r>
       <r>     2.2663     2.4620     5.5351 </r>
       <r>     2.3747     3.3318     5.8964 </r>
       <r>     2.4832     4.2748     6.3601 </r>
       <r>     2.5917     4.9666     6.8987 </r>
       <r>     2.7001     5.1151     7.4535 </r>
       <r>     2.8086     4.6905     7.9622 </r>
       <r>     2.9170     3.9412     8.3896 </r>
       <r>     3.0255     3.2064     8.7374 </r>
       <r>     3.1339     2.7391     9.0345 </r>
       <r>     3.2424     2.6718     9.3242 </r>
       <r>     3.3509     3.0641     9.6566 </r>
       <r>     3.4593     3.9088    10.0805 </r>
       <r>     3.5678     5.1462    10.6386 </r>
       <r>     3.6762     6.7228    11.3678 </r>
       <r>     3.7847     8.4765    12.2871 </r>
       <r>     3.8931     9.9295    13.3640 </r>
       <r>     4.0016    10.5410    14.5073 </r>
       <r>     4.1101    10.3005    15.6244 </r>
       <r>     4.2185     9.7453    16.6813 </r>
       <r>     4.3270     9.3619    17.6967 </r>
       <r>     4.4354     9.2896    18.7042 </r>
       <r>     4.5439     9.5134    19.7360 </r>
       <r>     4.6523    10.0047    20.8211 </r>
       <r>     4.7608    10.7208    21.9838 </r>
       <r>     4.8693    11.6691    23.2494 </r>
       <r>     4.9777    12.8542    24.6435 </r>
       <r>     5.0862    13.9708    26.1588 </r>
       <r>     5.1946    14.4477    27.7257 </r>
       <r>     5.3031    14.1545    29.2609 </r>
       <r>     5.4115    13.7098    30.7478 </r>
       <r>     5.5200    13.7649    32.2407 </r>
       <r>     5.6284    14.4505    33.8079 </r>
       <r>     5.7369    15.6035    35.5002 </r>
       <r>     5.8454    16.7303    37.3147 </r>
       <r>     5.9538    16.6533    39.1209 </r>
       <r>     6.0623    14.2100    40.6621 </r>
       <r>     6.1707     9.7303    41.7174 </r>
       <r>     6.2792     5.1256    42.2733 </r>
       <r>     6.3876     2.1555    42.5071 </r>
       <r>     6.4961     1.0730    42.6235 </r>
       <r>     6.6046     1.0334    42.7355 </r>
       <r>     6.7130     1.2097    42.8667 </r>
       <r>     6.8215     1.2893    43.0066 </r>
       <r>     6.9299     1.3094    43.1486 </r>
       <r>     7.0384     1.3445    43.2944 </r>
       <r>     7.1468     1.3611    43.4420 </r>
       <r>     7.2553     1.3029    43.5833 </r>
       <r>     7.3638     1.2211    43.7158 </r>
       <r>     7.4722     1.2171    43.8478 </r>
       <r>     7.5807     1.2823    43.9868 </r>
       <r>     7.6891     1.3007    44.1279 </r>
       <r>     7.7976     1.2199    44.2602 </r>
       <r>     7.9060     1.1275    44.3825 </r>
       <r>     8.0145     1.1271    44.5047 </r>
       <r>     8.1230     1.1982    44.6347 </r>
       <r>     8.2314     1.2258    44.7676 </r>
       <r>     8.3399     1.1486    44.8922 </r>
       <r>     8.4483     1.0319    45.0041 </r>
       <r>     8.5568     0.9878    45.1113 </r>
       <r>     8.6652     1.0510    45.2252 </r>
       <r>     8.7737     1.1432    45.3492 </r>
       <r>     8.8821     1.1591    45.4749 </r>
       <r>     8.9906     1.0811    45.5922 </r>
       <r>     9.0991     0.9908    45.6996 </r>
       <r>     9.2075     0.9740    45.8053 </r>
       <r>     9.3160     1.0344    45.9175 </r>
       <r>     9.4244     1.0992    46.0367 </r>
       <r>     9.5329     1.0975    46.1557 </r>
       <r>     9.6413     1.0263    46.2670 </r>
       <r>     9.7498     0.9390    46.3689 </r>
       <r>     9.8583     0.8874    46.4651 </r>
       <r>     9.9667     0.8829    46.5609 </r>
       <r>    10.0752     0.9012    46.6586 </r>
       <r>    10.1836     0.9079    46.7571 </r>
       <r>    10.2921     0.8830    46.8529 </r>
       <r>    10.4005     0.8319    46.9431 </r>
       <r>    10.5090     0.7831    47.0280 </r>
       <r>    10.6175     0.7801    47.1126 </r>
       <r>    10.7259     0.8654    47.2065 </r>
       <r>    10.8344     1.0398    47.3193 </r>
       <r>    10.9428     1.2349    47.4532 </r>
       <r>    11.0513     1.3546    47.6001 </r>
       <r>    11.1597     1.3546    47.7470 </r>
       <r>    11.2682     1.2662    47.8843 </r>
       <r>    11.3767     1.1541    48.0095 </r>
       <r>    11.4851     1.0739    48.1260 </r>
       <r>    11.5936     1.0585    48.2408 </r>
       <r>    11.7020     1.1059    48.3607 </r>
       <r>    11.8105     1.1691    48.4875 </r>
       <r>    11.9189     1.1910    48.6167 </r>
       <r>    12.0274     1.1640    48.7429 </r>
       <r>    12.1358     1.1327    48.8658 </r>
       <r>    12.2443     1.1334    48.9887 </r>
       <r>    12.3528     1.1548    49.1140 </r>
       <r>    12.4612     1.1630    49.2401 </r>
       <r>    12.5697     1.1474    49.3645 </r>
       <r>    12.6781     1.1262    49.4867 </r>
       <r>    12.7866     1.1113    49.6072 </r>
       <r>    12.8950     1.0940    49.7258 </r>
       <r>    13.0035     1.0708    49.8420 </r>
       <r>    13.1120     1.0561    49.9565 </r>
       <r>    13.2204     1.0568    50.0711 </r>
       <r>    13.3289     1.0596    50.1861 </r>
       <r>    13.4373     1.0491    50.2998 </r>
       <r>    13.5458     1.0216    50.4106 </r>
       <r>    13.6542     0.9884    50.5178 </r>
       <r>    13.7627     0.9771    50.6238 </r>
       <r>    13.8712     1.0146    50.7339 </r>
       <r>    13.9796     1.1073    50.8540 </r>
       <r>    14.0881     1.2499    50.9895 </r>
       <r>    14.1965     1.4383    51.1455 </r>
       <r>    14.3050     1.6603    51.3256 </r>
       <r>    14.4134     1.8949    51.5311 </r>
       <r>    14.5219     2.1255    51.7616 </r>
       <r>    14.6304     2.3339    52.0147 </r>
       <r>    14.7388     2.4862    52.2844 </r>
       <r>    14.8473     2.5456    52.5605 </r>
       <r>    14.9557     2.4983    52.8314 </r>
       <r>    15.0642     2.3685    53.0883 </r>
       <r>    15.1726     2.2111    53.3281 </r>
       <r>    15.2811     2.0873    53.5545 </r>
       <r>    15.3895     2.0473    53.7765 </r>
       <r>    15.4980     2.1270    54.0072 </r>
       <r>    15.6065     2.3099    54.2578 </r>
       <r>    15.7149     2.4598    54.5245 </r>
       <r>    15.8234     2.3536    54.7798 </r>
       <r>    15.9318     1.8813    54.9838 </r>
       <r>    16.0403     1.1995    55.1139 </r>
       <r>    16.1487     0.6077    55.1798 </r>
       <r>    16.2572     0.2820    55.2104 </r>
       <r>    16.3657     0.1826    55.2302 </r>
       <r>    16.4741     0.1780    55.2495 </r>
       <r>    16.5826     0.1809    55.2691 </r>
       <r>    16.6910     0.1766    55.2883 </r>
       <r>    16.7995     0.1856    55.3084 </r>
       <r>    16.9079     0.2186    55.3321 </r>
       <r>    17.0164     0.2597    55.3603 </r>
       <r>    17.1249     0.2806    55.3907 </r>
       <r>    17.2333     0.2665    55.4196 </r>
       <r>    17.3418     0.2266    55.4442 </r>
       <r>    17.4502     0.1842    55.4642 </r>
       <r>    17.5587     0.1600    55.4816 </r>
       <r>    17.6671     0.1611    55.4990 </r>
       <r>    17.7756     0.1799    55.5185 </r>
       <r>    17.8841     0.2000    55.5402 </r>
       <r>    17.9925     0.2032    55.5623 </r>
       <r>    18.1010     0.1816    55.5820 </r>
       <r>    18.2094     0.1443    55.5976 </r>
       <r>    18.3179     0.1091    55.6095 </r>
       <r>    18.4263     0.0858    55.6188 </r>
       <r>    18.5348     0.0732    55.6267 </r>
       <r>    18.6432     0.0725    55.6346 </r>
       <r>    18.7517     0.0911    55.6445 </r>
       <r>    18.8602     0.1269    55.6582 </r>
       <r>    18.9686     0.1581    55.6754 </r>
       <r>    19.0771     0.1618    55.6929 </r>
       <r>    19.1855     0.1354    55.7076 </r>
       <r>    19.2940     0.0958    55.7180 </r>
       <r>    19.4024     0.0622    55.7247 </r>
       <r>    19.5109     0.0446    55.7296 </r>
       <r>    19.6194     0.0425    55.7342 </r>
       <r>    19.7278     0.0481    55.7394 </r>
       <r>    19.8363     0.0536    55.7452 </r>
       <r>    19.9447     0.0581    55.7515 </r>
       <r>    20.0532     0.0661    55.7587 </r>
       <r>    20.1616     0.0793    55.7673 </r>
       <r>    20.2701     0.0918    55.7772 </r>
       <r>    20.3786     0.0932    55.7873 </r>
       <r>    20.4870     0.0785    55.7959 </r>
       <r>    20.5955     0.0549    55.8018 </r>
       <r>    20.7039     0.0360    55.8057 </r>
       <r>    20.8124     0.0296    55.8089 </r>
       <r>    20.9208     0.0332    55.8125 </r>
       <r>    21.0293     0.0396    55.8168 </r>
       <r>    21.1378     0.0448    55.8217 </r>
       <r>    21.2462     0.0486    55.8269 </r>
       <r>    21.3547     0.0529    55.8327 </r>
       <r>    21.4631     0.0602    55.8392 </r>
       <r>    21.5716     0.0707    55.8469 </r>
       <r>    21.6800     0.0796    55.8555 </r>
       <r>    21.7885     0.0794    55.8641 </r>
       <r>    21.8969     0.0707    55.8718 </r>
       <r>    22.0054     0.0646    55.8788 </r>
       <r>    22.1139     0.0706    55.8864 </r>
       <r>    22.2223     0.0853    55.8957 </r>
       <r>    22.3308     0.0990    55.9064 </r>
       <r>    22.4392     0.1069    55.9180 </r>
       <r>    22.5477     0.1094    55.9299 </r>
       <r>    22.6561     0.1046    55.9412 </r>
       <r>    22.7646     0.0891    55.9509 </r>
       <r>    22.8731     0.0659    55.9581 </r>
       <r>    22.9815     0.0443    55.9629 </r>
       <r>    23.0900     0.0326    55.9664 </r>
       <r>    23.1984     0.0321    55.9699 </r>
       <r>    23.3069     0.0373    55.9739 </r>
       <r>    23.4153     0.0403    55.9783 </r>
       <r>    23.5238     0.0364    55.9822 </r>
       <r>    23.6323     0.0276    55.9852 </r>
       <r>    23.7407     0.0203    55.9874 </r>
       <r>    23.8492     0.0179    55.9894 </r>
       <r>    23.9576     0.0187    55.9914 </r>
       <r>    24.0661     0.0183    55.9934 </r>
       <r>    24.1745     0.0151    55.9950 </r>
       <r>    24.2830     0.0110    55.9962 </r>
       <r>    24.3915     0.0093    55.9972 </r>
       <r>    24.4999     0.0096    55.9983 </r>
       <r>    24.6084     0.0090    55.9992 </r>
       <r>    24.7168     0.0059    55.9999 </r>
       <r>    24.8253     0.0022    56.0001 </r>
       <r>    24.9337     0.0000    56.0001 </r>
       <r>    25.0422    -0.0005    56.0001 </r>
       <r>    25.1506    -0.0004    56.0000 </r>
       <r>    25.2591    -0.0001    56.0000 </r>
       <r>    25.3676     0.0000    56.0000 </r>
       <r>    25.4760     0.0000    56.0000 </r>
       <r>    25.5845     0.0000    56.0000 </r>
       <r>    25.6929     0.0000    56.0000 </r>
       <r>    25.8014     0.0000    56.0000 </r>
       <r>    25.9098     0.0000    56.0000 </r>
       <r>    26.0183     0.0000    56.0000 </r>
       <r>    26.1268     0.0000    56.0000 </r>
       <r>    26.2352     0.0000    56.0000 </r>
       <r>    26.3437     0.0000    56.0000 </r>
       <r>    26.4521     0.0000    56.0000 </r>
       <r>    26.5606     0.0000    56.0000 </r>
       <r>    26.6690     0.0000    56.0000 </r>
       <r>    26.7775     0.0000    56.0000 </r>
       <r>    26.8860     0.0000    56.0000 </r>
       <r>    26.9944     0.0000    56.0000 </r>
       <r>    27.1029     0.0000    56.0000 </r>
       <r>    27.2113     0.0000    56.0000 </r>
       <r>    27.3198     0.0000    56.0000 </r>
       <r>    27.4282     0.0000    56.0000 </r>
       <r>    27.5367     0.0000    56.0000 </r>
      </set>
     </set>
    </array>
   </total>
  </dos>
 </calculation>
 <structure name="finalpos" >
  <crystal>
   <varray name="basis" >
    <v>      -1.94143111       0.00000000      -1.94143111 </v>
    <v>       1.94143111      -1.94143111       0.00000000 </v>
    <v>      -5.55620168      -3.61477056       5.55620168 </v>
   </varray>
   <i name="volume">     55.50899771 </i>
   <varray name="rec_basis" >
    <v>      -0.19432855      -0.19432855      -0.32075540 </v>
    <v>       0.12642686      -0.38865709      -0.12642686 </v>
    <v>      -0.06790169      -0.06790169       0.06790169 </v>
   </varray>
  </crystal>
  <varray name="positions" >
   <v>       0.24445497       0.48890994       0.73336490 </v>
   <v>       0.50000000       0.00000000       0.50000000 </v>
   <v>       0.75554503       0.51109006       0.26663510 </v>
   <v>       0.00000000       0.00000000       0.00000000 </v>
  </varray>
 </structure>
</modeling>
