<?xml version="1.0" encoding="ISO-8859-1"?>
<modeling>
 <generator>
  <i name="program" type="string">vasp </i>
  <i name="version" type="string">5.3.5  </i>
  <i name="subversion" type="string">31Mar14 (build Jun 20 2014 13:15:13) complex                          parallel </i>
  <i name="platform" type="string">LinuxIFC </i>
  <i name="date" type="string">2025 12 12 </i>
  <i name="time" type="string">12:49:16 </i>
 </generator>
 <incar>
  <i type="string" name="PREC">accurate</i>
  <i type="int" name="IALGO">    38</i>
  <i type="logical" name="ADDGRID"> T  </i>
  <i type="int" name="ISPIN">     2</i>
  <i type="int" name="NELM">   100</i>
  <i type="int" name="NELMIN">     4</i>
  <i name="EDIFF">      0.00000100</i>
  <i name="ENCUT">    500.00000000</i>
  <i type="logical" name="LREAL"> F  </i>
  <i type="int" name="ISMEAR">     0</i>
  <i name="SIGMA">      0.05000000</i>
  <i type="logical" name="LWAVE"> F  </i>
  <i type="logical" name="LCHARG"> F  </i>
  <i type="int" name="NELM">   100</i>
  <i type="logical" name="LDAU"> T  </i>
  <v name="LDAUU">      0.00000000      4.00000000      0.00000000</v>
  <v name="LDAUJ">      0.00000000      0.00000000      0.00000000</v>
 </incar>
 <kpoints>
  <generation param="Auto">
   <i name="subdivisionlength">     20.00000000 </i>
   <v type="int" name="divisions">       2        3        4 </v>
   <v name="usershift">      0.00000000       0.00000000       0.00000000 </v>
   <v name="genvec1">      0.50000000       0.00000000       0.00000000 </v>
   <v name="genvec2">      0.00000000       0.33333333       0.00000000 </v>
   <v name="genvec3">      0.00000000       0.00000000       0.25000000 </v>
   <v name="shift">      0.00000000       0.00000000       0.00000000 </v>
  </generation>
  <varray name="kpointlist" >
   <v>       0.00000000       0.00000000       0.00000000 </v>
   <v>       0.50000000       0.00000000       0.00000000 </v>
   <v>       0.00000000       0.33333333       0.00000000 </v>
   <v>       0.50000000       0.33333333       0.00000000 </v>
   <v>       0.00000000       0.00000000       0.25000000 </v>
   <v>       0.50000000       0.00000000       0.25000000 </v>
   <v>       0.00000000       0.33333333       0.25000000 </v>
   <v>       0.50000000       0.33333333       0.25000000 </v>
   <v>       0.00000000       0.00000000       0.50000000 </v>
   <v>       0.50000000       0.00000000       0.50000000 </v>
   <v>       0.00000000       0.33333333       0.50000000 </v>
   <v>       0.50000000       0.33333333       0.50000000 </v>
  </varray>
  <varray name="weights" >
   <v>       0.04166667 </v>
   <v>       0.04166667 </v>
   <v>       0.08333333 </v>
   <v>       0.08333333 </v>
   <v>       0.08333333 </v>
   <v>       0.08333333 </v>
   <v>       0.16666667 </v>
   <v>       0.16666667 </v>
   <v>       0.04166667 </v>
   <v>       0.04166667 </v>
   <v>       0.08333333 </v>
   <v>       0.08333333 </v>
  </varray>
 </kpoints>
 <parameters>
  <separator name="general" >
   <i type="string" name="SYSTEM">unknown system</i>
   <i type="logical" name="LCOMPAT"> F  </i>
  </separator>
  <separator name="electronic" >
   <i type="string" name="PREC">accura</i>
   <i name="ENMAX">    500.00000000</i>
   <i name="ENAUG">    586.98000000</i>
   <i name="EDIFF">      0.00000100</i>
   <i type="int" name="IALGO">    38</i>
   <i type="int" name="IWAVPR">    10</i>
   <i type="int" name="NBANDS">   184</i>
   <i name="NELECT">    276.00000000</i>
   <i type="int" name="TURBO">     0</i>
   <i type="int" name="IRESTART">     0</i>
   <i type="int" name="NREBOOT">     0</i>
   <i type="int" name="NMIN">     0</i>
   <i name="EREF">      0.00000000</i>
   <separator name="electronic smearing" >
    <i type="int" name="ISMEAR">     0</i>
    <i name="SIGMA">      0.05000000</i>
    <i name="KSPACING">      0.50000000</i>
    <i type="logical" name="KGAMMA"> T  </i>
   </separator>
   <separator name="electronic projectors" >
    <i type="logical" name="LREAL"> F  </i>
    <v name="ROPT">      0.00000000      0.00000000      0.00000000</v>
    <i type="int" name="LMAXPAW">  -100</i>
    <i type="int" name="LMAXMIX">     2</i>
    <i type="logical" name="NLSPLINE"> F  </i>
   </separator>
   <separator name="electronic startup" >
    <i type="int" name="ISTART">     0</i>
    <i type="int" name="ICHARG">     2</i>
    <i type="int" name="INIWAV">     1</i>
   </separator>
   <separator name="electronic spin" >
    <i type="int" name="ISPIN">     2</i>
    <i type="logical" name="LNONCOLLINEAR"> F  </i>
    <v name="MAGMOM">      1.00000000      1.00000000      1.00000000      1.00000000      1.00000000      1.00000000      1.00000000      1.00000000      1.00000000      1.00000000      1.00000000      1.00000000      1.00000000      1.00000000      1.00000000      1.00000000      1.00000000      1.00000000      1.00000000      1.00000000
      1.00000000      1.00000000      1.00000000      1.00000000      1.00000000      1.00000000      1.00000000      1.00000000      1.00000000      1.00000000      1.00000000      1.00000000      1.00000000      1.00000000</v>
    <i name="NUPDOWN">     -1.00000000</i>
    <i type="logical" name="LSORBIT"> F  </i>
    <v name="SAXIS">      0.00000000      0.00000000      1.00000000</v>
    <i type="logical" name="LSPIRAL"> F  </i>
    <v name="QSPIRAL">      0.00000000      0.00000000      0.00000000</v>
    <i type="logical" name="LZEROZ"> F  </i>
   </separator>
   <separator name="electronic exchange-correlation" >
    <i type="logical" name="LASPH"> F  </i>
    <i type="logical" name="LMETAGGA"> F  </i>
   </separator>
   <separator name="electronic convergence" >
    <i type="int" name="NELM">   100</i>
    <i type="int" name="NELMDL">    -5</i>
    <i type="int" name="NELMIN">     4</i>
    <i name="ENINI">    500.00000000</i>
    <separator name="electronic convergence detail" >
     <i type="logical" name="LDIAG"> T  </i>
     <i type="logical" name="LSUBROT"> F  </i>
     <i name="WEIMIN">      0.00000000</i>
     <i name="EBREAK">      0.00000000</i>
     <i name="DEPER">      0.30000000</i>
     <i type="int" name="NRMM">     4</i>
     <i name="TIME">      0.40000000</i>
    </separator>
   </separator>
   <separator name="electronic mixer" >
    <i name="AMIX">      0.40000000</i>
    <i name="BMIX">      1.00000000</i>
    <i name="AMIN">      0.10000000</i>
    <i name="AMIX_MAG">      1.60000000</i>
    <i name="BMIX_MAG">      1.00000000</i>
    <separator name="electronic mixer details" >
     <i type="int" name="IMIX">     4</i>
     <i type="int" name="MAXMIX">   -45</i>
     <i name="WC">    100.00000000</i>
     <i type="int" name="INIMIX">     1</i>
     <i type="int" name="MIXPRE">     1</i>
     <i type="int" name="MREMOVE">     5</i>
    </separator>
   </separator>
   <separator name="electronic dipolcorrection" >
    <i type="logical" name="LDIPOL"> F  </i>
    <i type="logical" name="LMONO"> F  </i>
    <i type="int" name="IDIPOL">     0</i>
    <i name="EPSILON">      1.00000000</i>
    <v name="DIPOL">   -100.00000000   -100.00000000   -100.00000000</v>
    <i name="EFIELD">      0.00000000</i>
   </separator>
  </separator>
  <separator name="grids" >
   <i type="int" name="NGX">    84</i>
   <i type="int" name="NGY">    60</i>
   <i type="int" name="NGZ">    42</i>
   <i type="int" name="NGXF">   168</i>
   <i type="int" name="NGYF">   120</i>
   <i type="int" name="NGZF">    84</i>
   <i type="logical" name="ADDGRID"> T  </i>
  </separator>
  <separator name="ionic" >
   <i type="int" name="NSW">     0</i>
   <i type="int" name="IBRION">    -1</i>
   <i type="int" name="ISIF">     2</i>
   <i name="PSTRESS">      0.00000000</i>
   <i name="EDIFFG">      0.00001000</i>
   <i type="int" name="NFREE">     0</i>
   <i name="POTIM">      0.50000000</i>
   <i name="SMASS">     -3.00000000</i>
   <i name="SCALEE">      1.00000000</i>
  </separator>
  <separator name="ionic md" >
   <i name="TEBEG">      0.00010000</i>
   <i name="TEEND">      0.00010000</i>
   <i type="int" name="NBLOCK">     1</i>
   <i type="int" name="KBLOCK">     1</i>
   <i type="int" name="NPACO">   256</i>
   <i name="APACO">     16.00000000</i>
  </separator>
  <separator name="symmetry" >
   <i type="int" name="ISYM">     2</i>
   <i name="SYMPREC">      0.00001000</i>
  </separator>
  <separator name="dos" >
   <i type="logical" name="LORBIT"> F  </i>
   <v name="RWIGS">     -1.00000000     -1.00000000     -1.00000000</v>
   <i type="int" name="NEDOS">   301</i>
   <i name="EMIN">     10.00000000</i>
   <i name="EMAX">    -10.00000000</i>
   <i name="EFERMI">      0.00000000</i>
  </separator>
  <separator name="writing" >
   <i type="int" name="NWRITE">     2</i>
   <i type="logical" name="LWAVE"> F  </i>
   <i type="logical" name="LCHARG"> F  </i>
   <i type="logical" name="LPARD"> F  </i>
   <i type="logical" name="LVTOT"> F  </i>
   <i type="logical" name="LVHAR"> F  </i>
   <i type="logical" name="LELF"> F  </i>
   <i type="logical" name="LOPTICS"> F  </i>
   <v name="STM">      0.00000000      0.00000000      0.00000000      0.00000000      0.00000000      0.00000000      0.00000000</v>
  </separator>
  <separator name="performance" >
   <i type="int" name="NPAR">     4</i>
   <i type="int" name="NSIM">     4</i>
   <i type="int" name="NBLK">    -1</i>
   <i type="logical" name="LPLANE"> T  </i>
   <i type="logical" name="LSCALAPACK"> T  </i>
   <i type="logical" name="LSCAAWARE"> F  </i>
   <i type="logical" name="LSCALU"> F  </i>
   <i type="logical" name="LASYNC"> F  </i>
   <i type="logical" name="LORBITALREAL"> F  </i>
  </separator>
  <separator name="miscellaneous" >
   <i type="int" name="IDIOT">     3</i>
   <i type="logical" name="LMUSIC"> F  </i>
   <v name="POMASS">     87.62000000     63.54600000     16.00000000</v>
   <v name="DARWINR">      0.00000000      0.00000000      0.00000000</v>
   <v name="DARWINV">      1.00000000      1.00000000      1.00000000</v>
   <i type="logical" name="LCORR"> T  </i>
  </separator>
  <i type="logical" name="GGA_COMPAT"> T  </i>
  <i type="logical" name="LBERRY"> F  </i>
  <i type="int" name="ICORELEVEL">     0</i>
  <i type="logical" name="LDAU"> T  </i>
  <v type="int" name="LDAUTYPE">     2</v>
  <v type="int" name="LDAUL">     2</v>
  <v name="LDAUU">      0.00000000</v>
  <v name="LDAUJ">      0.00000000</v>
  <i type="int" name="LDAUPRINT">     0</i>
  <i type="int" name="I_CONSTRAINED_M">     0</i>
  <separator name="electronic exchange-correlation" >
   <i type="string" name="GGA">--</i>
   <i type="int" name="VOSKOWN">     0</i>
   <i type="logical" name="LHFCALC"> F  </i>
   <i type="string" name="PRECFOCK"></i>
   <i type="logical" name="LSYMGRAD"> F  </i>
   <i type="logical" name="LHFONE"> F  </i>
   <i type="logical" name="LRHFCALC"> F  </i>
   <i type="logical" name="LTHOMAS"> F  </i>
   <i type="logical" name="LMODELHF"> F  </i>
   <i name="ENCUT4O">     -1.00000000</i>
   <i type="int" name="EXXOEP">     0</i>
   <i type="int" name="FOURORBIT">     0</i>
   <i name="AEXX">      0.00000000</i>
   <i name="HFALPHA">      0.00000000</i>
   <i name="MCALPHA">      0.00000000</i>
   <i name="ALDAX">      1.00000000</i>
   <i name="AGGAX">      1.00000000</i>
   <i name="ALDAC">      1.00000000</i>
   <i name="AGGAC">      1.00000000</i>
   <i type="int" name="NKREDX">     1</i>
   <i type="int" name="NKREDY">     1</i>
   <i type="int" name="NKREDZ">     1</i>
   <i type="logical" name="SHIFTRED"> F  </i>
   <i type="logical" name="ODDONLY"> F  </i>
   <i type="logical" name="EVENONLY"> F  </i>
   <i type="int" name="LMAXFOCK">     0</i>
   <i type="int" name="NMAXFOCKAE">     0</i>
   <i type="logical" name="LFOCKAEDFT"> F  </i>
   <i name="HFSCREEN">      0.00000000</i>
   <i name="HFSCREENC">      0.00000000</i>
   <i type="int" name="NBANDSGWLOW">     0</i>
  </separator>
  <separator name="vdW DFT" >
   <i type="logical" name="LUSE_VDW"> F  </i>
   <i name="Zab_VDW">     -0.84910000</i>
   <i name="PARAM1">      0.12340000</i>
   <i name="PARAM2">      1.00000000</i>
   <i name="PARAM3">      0.00000000</i>
  </separator>
  <separator name="model GW" >
   <i type="int" name="MODEL_GW">     0</i>
   <i name="MODEL_EPS0">      9.03529412</i>
   <i name="MODEL_ALPHA">      1.00000000</i>
  </separator>
  <separator name="linear response parameters" >
   <i type="logical" name="LEPSILON"> F  </i>
   <i type="logical" name="LRPA"> F  </i>
   <i type="logical" name="LNABLA"> F  </i>
   <i type="logical" name="LVEL"> F  </i>
   <i type="int" name="KINTER">     0</i>
   <i name="CSHIFT">      0.10000000</i>
   <i name="OMEGAMAX">     -1.00000000</i>
   <i name="DEG_THRESHOLD">      0.00200000</i>
  </separator>
  <separator name="orbital magnetization" >
   <i type="logical" name="NUCIND"> F  </i>
   <v name="MAGPOS">      0.00000000      0.00000000      0.00000000</v>
   <i type="logical" name="LNICSALL"> T  </i>
   <i type="logical" name="ORBITALMAG"> F  </i>
   <i type="logical" name="LMAGBLOCH"> F  </i>
   <i type="logical" name="LCHIMAG"> F  </i>
   <i type="logical" name="LGAUGE"> T  </i>
   <i type="int" name="MAGATOM">     0</i>
   <v name="MAGDIPOL">      0.00000000      0.00000000      0.00000000</v>
   <v name="AVECCONST">      0.00000000      0.00000000      0.00000000</v>
  </separator>
  <separator name="response functions" >
   <i type="logical" name="LADDER"> F  </i>
   <i type="logical" name="LFXC"> F  </i>
   <i type="logical" name="LHARTREE"> T  </i>
   <i type="int" name="IBSE">     0</i>
   <i type="logical" name="LTCTE"> F  </i>
   <i type="logical" name="LTETE"> F  </i>
   <i type="logical" name="LTRIPLET"> F  </i>
   <i type="logical" name="LFXCEPS"> F  </i>
   <i type="logical" name="LFXHEG"> F  </i>
   <i type="logical" name="L2ORDER"> F  </i>
   <i type="logical" name="LUSEW"> F  </i>
   <i name="ENCUTGW">     -2.00000000</i>
   <i name="ENCUTGWSOFT">     -2.00000000</i>
   <i name="ENCUTLF">     -1.00000000</i>
   <i type="int" name="LMAXMP2">    -1</i>
   <i name="SCISSOR">      0.00000000</i>
   <i type="int" name="NOMEGA">     0</i>
   <i type="int" name="NOMEGAR">     0</i>
   <i type="int" name="NBANDSGW">    -1</i>
   <i type="int" name="NBANDSO">    -1</i>
   <i type="int" name="NBANDSV">    -1</i>
   <i type="int" name="NELM">   100</i>
   <i type="int" name="DIM">     3</i>
   <i type="int" name="ANTIRES">     0</i>
   <i name="OMEGAMAX">    -30.00000000</i>
   <i name="OMEGAMIN">    -30.00000000</i>
   <i name="OMEGATL">   -200.00000000</i>
   <i type="int" name="OMEGAGRID">     0</i>
   <i name="CSHIFT">     -0.10000000</i>
   <i type="logical" name="SELFENERGY"> F  </i>
   <i type="logical" name="LSPECTRAL"> F  </i>
   <i type="logical" name="ODDONLYGW"> F  </i>
   <i type="logical" name="EVENONLYGW"> F  </i>
   <i type="int" name="NKREDLFX">     1</i>
   <i type="int" name="NKREDLFY">     1</i>
   <i type="int" name="NKREDLFZ">     1</i>
   <i type="int" name="MAXMEM">  1800</i>
   <i type="int" name="TELESCOPE">     0</i>
   <i type="int" name="TAUPAR">     1</i>
  </separator>
  <separator name="External order field" >
   <i name="OFIELD_KAPPA">      0.00000000</i>
   <v name="OFIELD_K">      0.00000000      0.00000000      0.00000000</v>
   <i name="OFIELD_Q6_NEAR">      0.00000000</i>
   <i name="OFIELD_Q6_FAR">      0.00000000</i>
   <i name="OFIELD_A">      0.00000000</i>
  </separator>
 </parameters>
 <atominfo>
  <atoms>      34 </atoms>
  <types>       3 </types>
  <array name="atoms" >
   <dimension dim="1">ion</dimension>
   <field type="string">element</field>
   <field type="int">atomtype</field>
   <set>
    <rc><c>Sr</c><c>   1</c></rc>
    <rc><c>Sr</c><c>   1</c></rc>
    <rc><c>Sr</c><c>   1</c></rc>
    <rc><c>Sr</c><c>   1</c></rc>
    <rc><c>Sr</c><c>   1</c></rc>
    <rc><c>Sr</c><c>   1</c></rc>
    <rc><c>Sr</c><c>   1</c></rc>
    <rc><c>Sr</c><c>   1</c></rc>
    <rc><c>Cu</c><c>   2</c></rc>
    <rc><c>Cu</c><c>   2</c></rc>
    <rc><c>Cu</c><c>   2</c></rc>
    <rc><c>Cu</c><c>   2</c></rc>
    <rc><c>Cu</c><c>   2</c></rc>
    <rc><c>Cu</c><c>   2</c></rc>
    <rc><c>Cu</c><c>   2</c></rc>
    <rc><c>Cu</c><c>   2</c></rc>
    <rc><c>O </c><c>   3</c></rc>
    <rc><c>O </c><c>   3</c></rc>
    <rc><c>O </c><c>   3</c></rc>
    <rc><c>O </c><c>   3</c></rc>
    <rc><c>O </c><c>   3</c></rc>
    <rc><c>O </c><c>   3</c></rc>
    <rc><c>O </c><c>   3</c></rc>
    <rc><c>O </c><c>   3</c></rc>
    <rc><c>O </c><c>   3</c></rc>
    <rc><c>O </c><c>   3</c></rc>
    <rc><c>O </c><c>   3</c></rc>
    <rc><c>O </c><c>   3</c></rc>
    <rc><c>O </c><c>   3</c></rc>
    <rc><c>O </c><c>   3</c></rc>
    <rc><c>O </c><c>   3</c></rc>
    <rc><c>O </c><c>   3</c></rc>
    <rc><c>O </c><c>   3</c></rc>
    <rc><c>O </c><c>   3</c></rc>
   </set>
  </array>
  <array name="atomtypes" >
   <dimension dim="1">type</dimension>
   <field type="int">atomspertype</field>
   <field type="string">element</field>
   <field>mass</field>
   <field>valence</field>
   <field type="string">pseudopotential</field>
   <set>
    <rc><c>   8</c><c>Sr</c><c>     87.62000000</c><c>     10.00000000</c><c>  PAW_PBE Sr_sv 07Sep2000               </c></rc>
    <rc><c>   8</c><c>Cu</c><c>     63.54600000</c><c>     11.00000000</c><c>  PAW_PBE Cu 22Jun2005                  </c></rc>
    <rc><c>  18</c><c>O </c><c>     16.00000000</c><c>      6.00000000</c><c>  PAW_PBE O_s 07Sep2000                 </c></rc>
   </set>
  </array>
 </atominfo>
 <structure name="initialpos" >
  <crystal>
   <varray name="basis" >
    <v>      11.31370850       0.00000000       0.00000000 </v>
    <v>       0.00000000       8.00000000       0.00000000 </v>
    <v>       0.00000000       0.00000000       5.65685425 </v>
   </varray>
   <i name="volume">    512.00000000 </i>
   <varray name="rec_basis" >
    <v>       0.08838835       0.00000000       0.00000000 </v>
    <v>       0.00000000       0.12500000       0.00000000 </v>
    <v>       0.00000000       0.00000000       0.17677670 </v>
   </varray>
  </crystal>
  <varray name="positions" >
   <v>       0.25000000       0.75000000       0.00000000 </v>
   <v>       0.50000000       0.25000000       0.50000000 </v>
   <v>       0.25000000       0.25000000       0.00000000 </v>
   <v>       0.00000000       0.25000000       0.50000000 </v>
   <v>       0.75000000       0.25000000       0.00000000 </v>
   <v>       0.00000000       0.75000000       0.50000000 </v>
   <v>       0.75000000       0.75000000       0.00000000 </v>
   <v>       0.50000000       0.75000000       0.50000000 </v>
   <v>       0.25000000       0.50000000       0.50000000 </v>
   <v>       0.50000000       0.00000000       0.00000000 </v>
   <v>       0.25000000       0.00000000       0.50000000 </v>
   <v>       0.00000000       0.00000000       0.00000000 </v>
   <v>       0.75000000       0.00000000       0.50000000 </v>
   <v>       0.00000000       0.50000000       0.00000000 </v>
   <v>       0.75000000       0.50000000       0.50000000 </v>
   <v>       0.50000000       0.50000000       0.00000000 </v>
   <v>       0.12500000       0.50000000       0.25000000 </v>
   <v>       0.37500000       0.00000000       0.75000000 </v>
   <v>       0.12500000       0.00000000       0.25000000 </v>
   <v>       0.12500000       0.50000000       0.75000000 </v>
   <v>       0.37500000       0.00000000       0.25000000 </v>
   <v>       0.12500000       0.00000000       0.75000000 </v>
   <v>       0.37500000       0.50000000       0.25000000 </v>
   <v>       0.50000000       0.25000000       0.00000000 </v>
   <v>       0.00000000       0.25000000       0.00000000 </v>
   <v>       0.62500000       0.00000000       0.25000000 </v>
   <v>       0.87500000       0.50000000       0.75000000 </v>
   <v>       0.62500000       0.50000000       0.25000000 </v>
   <v>       0.62500000       0.00000000       0.75000000 </v>
   <v>       0.87500000       0.50000000       0.25000000 </v>
   <v>       0.62500000       0.50000000       0.75000000 </v>
   <v>       0.87500000       0.00000000       0.25000000 </v>
   <v>       0.00000000       0.75000000       0.00000000 </v>
   <v>       0.50000000       0.75000000       0.00000000 </v>
  </varray>
 </structure>
 <calculation>
  <scstep>
   <time name="dav">   11.82   11.83</time>
   <time name="total">   12.12   12.14</time>
   <energy>
    <i name="alphaZ">   1271.29833366 </i>
    <i name="ewald"> -18222.71066101 </i>
    <i name="hartreedc">  -7649.68796317 </i>
    <i name="XCdc">   1142.43037248 </i>
    <i name="pawpsdc">  21065.97634094 </i>
    <i name="pawaedc"> -21731.86537179 </i>
    <i name="eentropy">     -0.00855716 </i>
    <i name="bandstr">   2145.42895186 </i>
    <i name="atom">  25654.75912617 </i>
    <i name="e_fr_energy">   3675.62057199 </i>
    <i name="e_wo_entrp">   3675.62912914 </i>
    <i name="e_0_energy">   3675.62485056 </i>
   </energy>
  </scstep>
  <scstep>
   <time name="dav">   11.98   11.98</time>
   <time name="total">   11.98   12.00</time>
   <energy>
    <i name="e_fr_energy">    423.12726383 </i>
    <i name="e_wo_entrp">    423.14083981 </i>
    <i name="e_0_energy">    423.13405182 </i>
   </energy>
  </scstep>
  <scstep>
   <time name="dav">   11.89   11.89</time>
   <time name="total">   11.89   11.91</time>
   <energy>
    <i name="e_fr_energy">   -157.25189719 </i>
    <i name="e_wo_entrp">   -157.22336612 </i>
    <i name="e_0_energy">   -157.23763166 </i>
   </energy>
  </scstep>
  <scstep>
   <time name="dav">   15.76   15.77</time>
   <time name="total">   15.76   15.78</time>
   <energy>
    <i name="e_fr_energy">   -210.76070395 </i>
    <i name="e_wo_entrp">   -210.71663011 </i>
    <i name="e_0_energy">   -210.73866703 </i>
   </energy>
  </scstep>
  <scstep>
   <time name="dav">   19.01   19.02</time>
   <time name="total">   19.64   19.66</time>
   <energy>
    <i name="e_fr_energy">   -213.87710933 </i>
    <i name="e_wo_entrp">   -213.83162878 </i>
    <i name="e_0_energy">   -213.85436906 </i>
   </energy>
  </scstep>
  <scstep>
   <time name="dav">   17.00   17.01</time>
   <time name="total">   17.92   17.94</time>
   <energy>
    <i name="e_fr_energy">   -193.31832108 </i>
    <i name="e_wo_entrp">   -193.28342461 </i>
    <i name="e_0_energy">   -193.30087285 </i>
   </energy>
  </scstep>
  <scstep>
   <time name="dav">   15.80   15.81</time>
   <time name="total">   16.71   16.73</time>
   <energy>
    <i name="e_fr_energy">   -171.85237650 </i>
    <i name="e_wo_entrp">   -171.81954335 </i>
    <i name="e_0_energy">   -171.83595992 </i>
   </energy>
  </scstep>
  <scstep>
   <time name="dav">   16.60   16.61</time>
   <time name="total">   17.51   17.53</time>
   <energy>
    <i name="e_fr_energy">   -172.23687890 </i>
    <i name="e_wo_entrp">   -172.21377586 </i>
    <i name="e_0_energy">   -172.22532738 </i>
   </energy>
  </scstep>
  <scstep>
   <time name="dav">   17.28   17.29</time>
   <time name="total">   18.19   18.22</time>
   <energy>
    <i name="e_fr_energy">   -172.45453111 </i>
    <i name="e_wo_entrp">   -172.44386835 </i>
    <i name="e_0_energy">   -172.44919973 </i>
   </energy>
  </scstep>
  <scstep>
   <time name="dav">   16.23   16.24</time>
   <time name="total">   17.15   17.17</time>
   <energy>
    <i name="e_fr_energy">   -169.97477919 </i>
    <i name="e_wo_entrp">   -169.95544303 </i>
    <i name="e_0_energy">   -169.96511111 </i>
   </energy>
  </scstep>
  <scstep>
   <time name="dav">   16.69   16.70</time>
   <time name="total">   17.60   17.62</time>
   <energy>
    <i name="e_fr_energy">   -169.72226759 </i>
    <i name="e_wo_entrp">   -169.69717836 </i>
    <i name="e_0_energy">   -169.70972297 </i>
   </energy>
  </scstep>
  <scstep>
   <time name="dav">   16.64   16.64</time>
   <time name="total">   17.55   17.57</time>
   <energy>
    <i name="e_fr_energy">   -169.72535040 </i>
    <i name="e_wo_entrp">   -169.70340438 </i>
    <i name="e_0_energy">   -169.71437739 </i>
   </energy>
  </scstep>
  <scstep>
   <time name="dav">   16.26   16.27</time>
   <time name="total">   17.18   17.20</time>
   <energy>
    <i name="e_fr_energy">   -169.80181116 </i>
    <i name="e_wo_entrp">   -169.78272874 </i>
    <i name="e_0_energy">   -169.79226995 </i>
   </energy>
  </scstep>
  <scstep>
   <time name="dav">   16.08   16.08</time>
   <time name="total">   16.99   17.01</time>
   <energy>
    <i name="e_fr_energy">   -169.86855658 </i>
    <i name="e_wo_entrp">   -169.85029509 </i>
    <i name="e_0_energy">   -169.85942584 </i>
   </energy>
  </scstep>
  <scstep>
   <time name="dav">   16.62   16.63</time>
   <time name="total">   17.53   17.56</time>
   <energy>
    <i name="e_fr_energy">   -169.88140675 </i>
    <i name="e_wo_entrp">   -169.86335999 </i>
    <i name="e_0_energy">   -169.87238337 </i>
   </energy>
  </scstep>
  <scstep>
   <time name="dav">   17.00   17.01</time>
   <time name="total">   17.91   17.94</time>
   <energy>
    <i name="e_fr_energy">   -169.89276427 </i>
    <i name="e_wo_entrp">   -169.87338054 </i>
    <i name="e_0_energy">   -169.88307240 </i>
   </energy>
  </scstep>
  <scstep>
   <time name="dav">   15.84   15.85</time>
   <time name="total">   16.75   16.78</time>
   <energy>
    <i name="e_fr_energy">   -169.89561105 </i>
    <i name="e_wo_entrp">   -169.87657094 </i>
    <i name="e_0_energy">   -169.88609099 </i>
   </energy>
  </scstep>
  <scstep>
   <time name="dav">   16.63   16.63</time>
   <time name="total">   17.54   17.56</time>
   <energy>
    <i name="e_fr_energy">   -169.89746362 </i>
    <i name="e_wo_entrp">   -169.87866872 </i>
    <i name="e_0_energy">   -169.88806617 </i>
   </energy>
  </scstep>
  <scstep>
   <time name="dav">   17.46   17.47</time>
   <time name="total">   18.38   18.40</time>
   <energy>
    <i name="e_fr_energy">   -169.89869106 </i>
    <i name="e_wo_entrp">   -169.87949155 </i>
    <i name="e_0_energy">   -169.88909130 </i>
   </energy>
  </scstep>
  <scstep>
   <time name="dav">   17.71   17.72</time>
   <time name="total">   18.62   18.64</time>
   <energy>
    <i name="e_fr_energy">   -169.89998087 </i>
    <i name="e_wo_entrp">   -169.88038609 </i>
    <i name="e_0_energy">   -169.89018348 </i>
   </energy>
  </scstep>
  <scstep>
   <time name="dav">   17.46   17.46</time>
   <time name="total">   18.37   18.39</time>
   <energy>
    <i name="e_fr_energy">   -169.90089319 </i>
    <i name="e_wo_entrp">   -169.88121272 </i>
    <i name="e_0_energy">   -169.89105295 </i>
   </energy>
  </scstep>
  <scstep>
   <time name="dav">   14.85   14.85</time>
   <time name="total">   15.76   15.78</time>
   <energy>
    <i name="e_fr_energy">   -169.90074423 </i>
    <i name="e_wo_entrp">   -169.88096568 </i>
    <i name="e_0_energy">   -169.89085496 </i>
   </energy>
  </scstep>
  <scstep>
   <time name="dav">   16.04   16.05</time>
   <time name="total">   16.95   16.97</time>
   <energy>
    <i name="e_fr_energy">   -169.90128327 </i>
    <i name="e_wo_entrp">   -169.88150129 </i>
    <i name="e_0_energy">   -169.89139228 </i>
   </energy>
  </scstep>
  <scstep>
   <time name="dav">   17.55   17.56</time>
   <time name="total">   18.46   18.49</time>
   <energy>
    <i name="e_fr_energy">   -169.90189687 </i>
    <i name="e_wo_entrp">   -169.88203032 </i>
    <i name="e_0_energy">   -169.89196360 </i>
   </energy>
  </scstep>
  <scstep>
   <time name="dav">   18.14   18.15</time>
   <time name="total">   19.05   19.07</time>
   <energy>
    <i name="e_fr_energy">   -169.90254092 </i>
    <i name="e_wo_entrp">   -169.88253476 </i>
    <i name="e_0_energy">   -169.89253784 </i>
   </energy>
  </scstep>
  <scstep>
   <time name="dav">   18.28   18.29</time>
   <time name="total">   19.20   19.22</time>
   <energy>
    <i name="e_fr_energy">   -169.90291003 </i>
    <i name="e_wo_entrp">   -169.88279046 </i>
    <i name="e_0_energy">   -169.89285025 </i>
   </energy>
  </scstep>
  <scstep>
   <time name="dav">   14.03   14.03</time>
   <time name="total">   14.94   14.96</time>
   <energy>
    <i name="e_fr_energy">   -169.90272135 </i>
    <i name="e_wo_entrp">   -169.88262969 </i>
    <i name="e_0_energy">   -169.89267552 </i>
   </energy>
  </scstep>
  <scstep>
   <time name="dav">   14.53   14.54</time>
   <time name="total">   15.44   15.46</time>
   <energy>
    <i name="e_fr_energy">   -169.90317841 </i>
    <i name="e_wo_entrp">   -169.88298443 </i>
    <i name="e_0_energy">   -169.89308142 </i>
   </energy>
  </scstep>
  <scstep>
   <time name="dav">   17.45   17.46</time>
   <time name="total">   18.36   18.38</time>
   <energy>
    <i name="e_fr_energy">   -169.90365115 </i>
    <i name="e_wo_entrp">   -169.88329694 </i>
    <i name="e_0_energy">   -169.89347405 </i>
   </energy>
  </scstep>
  <scstep>
   <time name="dav">   16.81   16.81</time>
   <time name="total">   17.72   17.74</time>
   <energy>
    <i name="e_fr_energy">   -169.90438976 </i>
    <i name="e_wo_entrp">   -169.88372219 </i>
    <i name="e_0_energy">   -169.89405598 </i>
   </energy>
  </scstep>
  <scstep>
   <time name="dav">   18.05   18.06</time>
   <time name="total">   18.96   18.98</time>
   <energy>
    <i name="e_fr_energy">   -169.90492944 </i>
    <i name="e_wo_entrp">   -169.88398934 </i>
    <i name="e_0_energy">   -169.89445939 </i>
   </energy>
  </scstep>
  <scstep>
   <time name="dav">   17.39   17.39</time>
   <time name="total">   18.30   18.32</time>
   <energy>
    <i name="e_fr_energy">   -169.90517213 </i>
    <i name="e_wo_entrp">   -169.88409913 </i>
    <i name="e_0_energy">   -169.89463563 </i>
   </energy>
  </scstep>
  <scstep>
   <time name="dav">   15.35   15.35</time>
   <time name="total">   16.26   16.28</time>
   <energy>
    <i name="e_fr_energy">   -169.90570559 </i>
    <i name="e_wo_entrp">   -169.88437039 </i>
    <i name="e_0_energy">   -169.89503799 </i>
   </energy>
  </scstep>
  <scstep>
   <time name="dav">   17.52   17.53</time>
   <time name="total">   18.43   18.46</time>
   <energy>
    <i name="e_fr_energy">   -169.90596631 </i>
    <i name="e_wo_entrp">   -169.88446990 </i>
    <i name="e_0_energy">   -169.89521811 </i>
   </energy>
  </scstep>
  <scstep>
   <time name="dav">   14.30   14.31</time>
   <time name="total">   15.22   15.24</time>
   <energy>
    <i name="e_fr_energy">   -169.90572597 </i>
    <i name="e_wo_entrp">   -169.88429393 </i>
    <i name="e_0_energy">   -169.89500995 </i>
   </energy>
  </scstep>
  <scstep>
   <time name="dav">   14.30   14.30</time>
   <time name="total">   15.21   15.23</time>
   <energy>
    <i name="e_fr_energy">   -169.90652592 </i>
    <i name="e_wo_entrp">   -169.88472891 </i>
    <i name="e_0_energy">   -169.89562741 </i>
   </energy>
  </scstep>
  <scstep>
   <time name="dav">   16.31   16.32</time>
   <time name="total">   17.22   17.25</time>
   <energy>
    <i name="e_fr_energy">   -169.90658399 </i>
    <i name="e_wo_entrp">   -169.88472175 </i>
    <i name="e_0_energy">   -169.89565287 </i>
   </energy>
  </scstep>
  <scstep>
   <time name="dav">   15.57   15.57</time>
   <time name="total">   16.48   16.50</time>
   <energy>
    <i name="e_fr_energy">   -169.90614289 </i>
    <i name="e_wo_entrp">   -169.88446735 </i>
    <i name="e_0_energy">   -169.89530512 </i>
   </energy>
  </scstep>
  <scstep>
   <time name="dav">   16.56   16.57</time>
   <time name="total">   17.48   17.50</time>
   <energy>
    <i name="e_fr_energy">   -169.90578165 </i>
    <i name="e_wo_entrp">   -169.88428687 </i>
    <i name="e_0_energy">   -169.89503426 </i>
   </energy>
  </scstep>
  <scstep>
   <time name="dav">   14.06   14.07</time>
   <time name="total">   14.97   15.00</time>
   <energy>
    <i name="e_fr_energy">   -169.90580616 </i>
    <i name="e_wo_entrp">   -169.88436643 </i>
    <i name="e_0_energy">   -169.89508630 </i>
   </energy>
  </scstep>
  <scstep>
   <time name="dav">   12.43   12.44</time>
   <time name="total">   13.35   13.37</time>
   <energy>
    <i name="e_fr_energy">   -169.90590703 </i>
    <i name="e_wo_entrp">   -169.88446438 </i>
    <i name="e_0_energy">   -169.89518570 </i>
   </energy>
  </scstep>
  <scstep>
   <time name="dav">   13.84   13.84</time>
   <time name="total">   14.75   14.78</time>
   <energy>
    <i name="e_fr_energy">   -169.90574234 </i>
    <i name="e_wo_entrp">   -169.88437239 </i>
    <i name="e_0_energy">   -169.89505737 </i>
   </energy>
  </scstep>
  <scstep>
   <time name="dav">   12.50   12.51</time>
   <time name="total">   13.42   13.44</time>
   <energy>
    <i name="e_fr_energy">   -169.90582791 </i>
    <i name="e_wo_entrp">   -169.88443198 </i>
    <i name="e_0_energy">   -169.89512995 </i>
   </energy>
  </scstep>
  <scstep>
   <time name="dav">   14.08   14.09</time>
   <time name="total">   15.00   15.02</time>
   <energy>
    <i name="e_fr_energy">   -169.90610772 </i>
    <i name="e_wo_entrp">   -169.88458541 </i>
    <i name="e_0_energy">   -169.89534657 </i>
   </energy>
  </scstep>
  <scstep>
   <time name="dav">   12.99   13.00</time>
   <time name="total">   13.91   13.93</time>
   <energy>
    <i name="e_fr_energy">   -169.90618741 </i>
    <i name="e_wo_entrp">   -169.88460068 </i>
    <i name="e_0_energy">   -169.89539405 </i>
   </energy>
  </scstep>
  <scstep>
   <time name="dav">    9.49    9.50</time>
   <time name="total">   10.42   10.43</time>
   <energy>
    <i name="e_fr_energy">   -169.90619094 </i>
    <i name="e_wo_entrp">   -169.88458429 </i>
    <i name="e_0_energy">   -169.89538761 </i>
   </energy>
  </scstep>
  <scstep>
   <time name="dav">    9.99   10.00</time>
   <time name="total">   10.92   10.94</time>
   <energy>
    <i name="e_fr_energy">   -169.90614670 </i>
    <i name="e_wo_entrp">   -169.88455163 </i>
    <i name="e_0_energy">   -169.89534917 </i>
   </energy>
  </scstep>
  <scstep>
   <time name="dav">    8.41    8.42</time>
   <time name="total">    9.33    9.35</time>
   <energy>
    <i name="e_fr_energy">   -169.90616917 </i>
    <i name="e_wo_entrp">   -169.88456651 </i>
    <i name="e_0_energy">   -169.89536784 </i>
   </energy>
  </scstep>
  <scstep>
   <time name="dav">   10.19   10.19</time>
   <time name="total">   11.11   11.13</time>
   <energy>
    <i name="e_fr_energy">   -169.90632342 </i>
    <i name="e_wo_entrp">   -169.88464393 </i>
    <i name="e_0_energy">   -169.89548368 </i>
   </energy>
  </scstep>
  <scstep>
   <time name="dav">   15.30   15.30</time>
   <time name="total">   16.22   16.24</time>
   <energy>
    <i name="e_fr_energy">   -169.90691244 </i>
    <i name="e_wo_entrp">   -169.88490863 </i>
    <i name="e_0_energy">   -169.89591054 </i>
   </energy>
  </scstep>
  <scstep>
   <time name="dav">   15.93   15.93</time>
   <time name="total">   16.85   16.87</time>
   <energy>
    <i name="e_fr_energy">   -169.90700169 </i>
    <i name="e_wo_entrp">   -169.88490725 </i>
    <i name="e_0_energy">   -169.89595447 </i>
   </energy>
  </scstep>
  <scstep>
   <time name="dav">   13.18   13.19</time>
   <time name="total">   14.11   14.12</time>
   <energy>
    <i name="e_fr_energy">   -169.90698179 </i>
    <i name="e_wo_entrp">   -169.88487365 </i>
    <i name="e_0_energy">   -169.89592772 </i>
   </energy>
  </scstep>
  <scstep>
   <time name="dav">   10.66   10.67</time>
   <time name="total">   11.59   11.60</time>
   <energy>
    <i name="e_fr_energy">   -169.90697552 </i>
    <i name="e_wo_entrp">   -169.88486148 </i>
    <i name="e_0_energy">   -169.89591850 </i>
   </energy>
  </scstep>
  <scstep>
   <time name="dav">    8.92    8.92</time>
   <time name="total">    9.21    9.23</time>
   <energy>
    <i name="alphaZ">   1271.29833366 </i>
    <i name="ewald"> -18222.71066101 </i>
    <i name="hartreedc">  -7622.93254872 </i>
    <i name="XCdc">   1142.62431227 </i>
    <i name="pawpsdc">  32625.80567909 </i>
    <i name="pawaedc"> -33368.09831391 </i>
    <i name="eentropy">     -0.02211686 </i>
    <i name="bandstr">  -1650.63078592 </i>
    <i name="atom">  25654.75912617 </i>
    <i name="e_fr_energy">   -169.90697523 </i>
    <i name="e_wo_entrp">   -169.88485837 </i>
    <i name="e_0_energy">   -169.89591680 </i>
   </energy>
  </scstep>
  <structure>
   <crystal>
    <varray name="basis" >
     <v>      11.31370850       0.00000000       0.00000000 </v>
     <v>       0.00000000       8.00000000       0.00000000 </v>
     <v>       0.00000000       0.00000000       5.65685425 </v>
    </varray>
    <i name="volume">    512.00000000 </i>
    <varray name="rec_basis" >
     <v>       0.08838835       0.00000000       0.00000000 </v>
     <v>       0.00000000       0.12500000       0.00000000 </v>
     <v>       0.00000000       0.00000000       0.17677670 </v>
    </varray>
   </crystal>
   <varray name="positions" >
    <v>       0.25000000       0.75000000       0.00000000 </v>
    <v>       0.50000000       0.25000000       0.50000000 </v>
    <v>       0.25000000       0.25000000       0.00000000 </v>
    <v>       0.00000000       0.25000000       0.50000000 </v>
    <v>       0.75000000       0.25000000       0.00000000 </v>
    <v>       0.00000000       0.75000000       0.50000000 </v>
    <v>       0.75000000       0.75000000       0.00000000 </v>
    <v>       0.50000000       0.75000000       0.50000000 </v>
    <v>       0.25000000       0.50000000       0.50000000 </v>
    <v>       0.50000000       0.00000000       0.00000000 </v>
    <v>       0.25000000       0.00000000       0.50000000 </v>
    <v>       0.00000000       0.00000000       0.00000000 </v>
    <v>       0.75000000       0.00000000       0.50000000 </v>
    <v>       0.00000000       0.50000000       0.00000000 </v>
    <v>       0.75000000       0.50000000       0.50000000 </v>
    <v>       0.50000000       0.50000000       0.00000000 </v>
    <v>       0.12500000       0.50000000       0.25000000 </v>
    <v>       0.37500000       0.00000000       0.75000000 </v>
    <v>       0.12500000       0.00000000       0.25000000 </v>
    <v>       0.12500000       0.50000000       0.75000000 </v>
    <v>       0.37500000       0.00000000       0.25000000 </v>
    <v>       0.12500000       0.00000000       0.75000000 </v>
    <v>       0.37500000       0.50000000       0.25000000 </v>
    <v>       0.50000000       0.25000000       0.00000000 </v>
    <v>       0.00000000       0.25000000       0.00000000 </v>
    <v>       0.62500000       0.00000000       0.25000000 </v>
    <v>       0.87500000       0.50000000       0.75000000 </v>
    <v>       0.62500000       0.50000000       0.25000000 </v>
    <v>       0.62500000       0.00000000       0.75000000 </v>
    <v>       0.87500000       0.50000000       0.25000000 </v>
    <v>       0.62500000       0.50000000       0.75000000 </v>
    <v>       0.87500000       0.00000000       0.25000000 </v>
    <v>       0.00000000       0.75000000       0.00000000 </v>
    <v>       0.50000000       0.75000000       0.00000000 </v>
   </varray>
  </structure>
  <varray name="forces" >
   <v>      -0.45788951       0.69998125       0.44701572 </v>
   <v>       0.46812302      -0.64287934      -0.42780563 </v>
   <v>      -0.45788951      -0.69998125       0.44701572 </v>
   <v>       0.46812302       0.64287934      -0.42780563 </v>
   <v>      -0.45788951       0.69998125       0.44701572 </v>
   <v>       0.46812302      -0.64287934      -0.42780563 </v>
   <v>      -0.45788951      -0.69998125       0.44701572 </v>
   <v>       0.46812302       0.64287934      -0.42780563 </v>
   <v>      -0.92690837       0.00000000      -0.78746864 </v>
   <v>       0.06378978       0.00000000       0.21266899 </v>
   <v>      -0.18836752       0.00000000      -0.22651202 </v>
   <v>       0.66526213       0.00000000       0.51042733 </v>
   <v>      -0.92690837       0.00000000      -0.78746864 </v>
   <v>       0.06378978       0.00000000       0.21266899 </v>
   <v>      -0.18836752       0.00000000      -0.22651202 </v>
   <v>       0.66526213       0.00000000       0.51042733 </v>
   <v>       0.33882627       0.00000000       0.37107409 </v>
   <v>      -0.88188745       0.00000000      -0.91688900 </v>
   <v>       1.56566317       0.00000000       1.49559765 </v>
   <v>       1.92964070       0.00000000      -1.18393900 </v>
   <v>      -0.90321385       0.00000000       0.89460947 </v>
   <v>       0.12167408       0.00000000      -0.74880306 </v>
   <v>      -1.03494333       0.00000000       1.09084321 </v>
   <v>      -0.38500132       0.69038616      -0.37501460 </v>
   <v>      -0.38500132      -0.69038616      -0.37501460 </v>
   <v>       0.33882627       0.00000000       0.37107409 </v>
   <v>      -0.88188745       0.00000000      -0.91688900 </v>
   <v>       1.56566317       0.00000000       1.49559765 </v>
   <v>       1.92964070       0.00000000      -1.18393900 </v>
   <v>      -0.90321385       0.00000000       0.89460947 </v>
   <v>       0.12167408       0.00000000      -0.74880306 </v>
   <v>      -1.03494333       0.00000000       1.09084321 </v>
   <v>      -0.38500132       0.69038616      -0.37501460 </v>
   <v>      -0.38500132      -0.69038616      -0.37501460 </v>
  </varray>
  <varray name="stress" >
   <v>     -92.49926211       0.00000000       5.99475802 </v>
   <v>       0.00000000    -113.99924384       0.00000000 </v>
   <v>       5.99475817       0.00000000     -90.80993569 </v>
  </varray>
  <energy>
   <i name="e_fr_energy">   -169.90697523 </i>
   <i name="e_wo_entrp">   -169.89591680 </i>
   <i name="e_0_energy">     -0.02211686 </i>
  </energy>
  <time name="totalsc">  873.36  874.56</time>
  <eigenvalues>
   <array>
    <dimension dim="1">band</dimension>
    <dimension dim="2">kpoint</dimension>
    <dimension dim="3">spin</dimension>
    <field>eigene</field>
    <field>occ</field>
    <set>
     <set comment="spin 1">
      <set comment="kpoint 1">
       <r>  -31.0479    1.0000 </r>
       <r>  -31.0353    1.0000 </r>
       <r>  -31.0336    1.0000 </r>
       <r>  -31.0329    1.0000 </r>
       <r>  -31.0222    1.0000 </r>
       <r>  -31.0207    1.0000 </r>
       <r>  -31.0198    1.0000 </r>
       <r>  -31.0087    1.0000 </r>
       <r>  -14.9869    1.0000 </r>
       <r>  -14.7585    1.0000 </r>
       <r>  -14.7218    1.0000 </r>
       <r>  -14.6016    1.0000 </r>
       <r>  -14.5135    1.0000 </r>
       <r>  -14.4444    1.0000 </r>
       <r>  -14.4018    1.0000 </r>
       <r>  -14.1526    1.0000 </r>
       <r>  -14.0846    1.0000 </r>
       <r>  -13.9863    1.0000 </r>
       <r>  -13.9824    1.0000 </r>
       <r>  -13.9285    1.0000 </r>
       <r>  -13.7462    1.0000 </r>
       <r>  -13.6951    1.0000 </r>
       <r>  -13.6805    1.0000 </r>
       <r>  -13.6784    1.0000 </r>
       <r>  -13.6401    1.0000 </r>
       <r>  -13.5765    1.0000 </r>
       <r>  -13.2617    1.0000 </r>
       <r>  -13.2152    1.0000 </r>
       <r>  -13.2105    1.0000 </r>
       <r>  -13.1949    1.0000 </r>
       <r>  -13.1126    1.0000 </r>
       <r>  -13.0633    1.0000 </r>
       <r>  -13.0180    1.0000 </r>
       <r>  -12.9907    1.0000 </r>
       <r>  -12.9802    1.0000 </r>
       <r>  -12.9792    1.0000 </r>
       <r>  -12.9159    1.0000 </r>
       <r>  -12.9125    1.0000 </r>
       <r>  -12.8767    1.0000 </r>
       <r>  -12.8620    1.0000 </r>
       <r>  -12.8525    1.0000 </r>
       <r>  -12.8492    1.0000 </r>
       <r>  -12.8442    1.0000 </r>
       <r>  -12.6684    1.0000 </r>
       <r>  -12.6248    1.0000 </r>
       <r>  -12.5933    1.0000 </r>
       <r>  -12.5860    1.0000 </r>
       <r>  -12.5609    1.0000 </r>
       <r>  -12.5496    1.0000 </r>
       <r>  -12.4039    1.0000 </r>
       <r>   -3.1697    1.0000 </r>
       <r>   -3.1522    1.0000 </r>
       <r>   -2.8297    1.0000 </r>
       <r>   -2.8261    1.0000 </r>
       <r>   -2.6729    1.0000 </r>
       <r>   -2.6636    1.0000 </r>
       <r>   -2.3306    1.0000 </r>
       <r>   -2.2544    1.0000 </r>
       <r>   -2.1713    1.0000 </r>
       <r>   -2.1237    1.0000 </r>
       <r>   -2.1098    1.0000 </r>
       <r>   -2.1000    1.0000 </r>
       <r>   -1.9985    1.0000 </r>
       <r>   -1.9546    1.0000 </r>
       <r>   -1.9397    1.0000 </r>
       <r>   -1.9356    1.0000 </r>
       <r>   -1.8522    1.0000 </r>
       <r>   -1.8095    1.0000 </r>
       <r>   -1.6332    1.0000 </r>
       <r>   -1.5932    1.0000 </r>
       <r>   -1.5606    1.0000 </r>
       <r>   -1.4176    1.0000 </r>
       <r>   -1.4044    1.0000 </r>
       <r>   -1.3800    1.0000 </r>
       <r>   -1.3550    1.0000 </r>
       <r>   -1.2834    1.0000 </r>
       <r>   -1.2589    1.0000 </r>
       <r>   -1.2398    1.0000 </r>
       <r>   -1.1533    1.0000 </r>
       <r>   -1.1380    1.0000 </r>
       <r>   -1.0070    1.0000 </r>
       <r>   -0.9948    1.0000 </r>
       <r>   -0.8696    1.0000 </r>
       <r>   -0.8679    1.0000 </r>
       <r>   -0.8648    1.0000 </r>
       <r>   -0.8499    1.0000 </r>
       <r>   -0.8231    1.0000 </r>
       <r>   -0.8033    1.0000 </r>
       <r>   -0.7629    1.0000 </r>
       <r>   -0.7542    1.0000 </r>
       <r>   -0.6200    1.0000 </r>
       <r>   -0.5740    1.0000 </r>
       <r>   -0.5237    1.0000 </r>
       <r>   -0.3868    1.0000 </r>
       <r>   -0.2868    1.0000 </r>
       <r>   -0.1887    1.0000 </r>
       <r>   -0.0756    1.0000 </r>
       <r>   -0.0443    1.0000 </r>
       <r>   -0.0084    1.0000 </r>
       <r>    0.3311    1.0000 </r>
       <r>    0.3649    1.0000 </r>
       <r>    0.4136    1.0000 </r>
       <r>    0.6307    1.0000 </r>
       <r>    0.6540    1.0000 </r>
       <r>    0.6914    1.0000 </r>
       <r>    0.8110    1.0000 </r>
       <r>    0.8541    1.0000 </r>
       <r>    0.9744    1.0000 </r>
       <r>    1.0393    1.0000 </r>
       <r>    1.0449    1.0000 </r>
       <r>    1.0955    1.0000 </r>
       <r>    1.1142    1.0000 </r>
       <r>    1.1216    1.0000 </r>
       <r>    1.1680    1.0000 </r>
       <r>    1.2709    1.0000 </r>
       <r>    1.2883    1.0000 </r>
       <r>    1.3374    1.0000 </r>
       <r>    1.3427    1.0000 </r>
       <r>    1.3658    1.0000 </r>
       <r>    1.3918    1.0000 </r>
       <r>    1.4064    1.0000 </r>
       <r>    1.4181    1.0000 </r>
       <r>    1.4773    1.0000 </r>
       <r>    1.5049    1.0000 </r>
       <r>    1.5145    1.0000 </r>
       <r>    1.5213    1.0000 </r>
       <r>    1.5602    1.0000 </r>
       <r>    1.7311    1.0000 </r>
       <r>    1.7710    1.0000 </r>
       <r>    1.7764    1.0000 </r>
       <r>    1.7916    1.0000 </r>
       <r>    2.1243    1.0000 </r>
       <r>    2.2114    1.0000 </r>
       <r>    2.2270    1.0000 </r>
       <r>    2.2495    0.9998 </r>
       <r>    2.3303    0.8879 </r>
       <r>    2.3610    0.6364 </r>
       <r>    2.3612    0.6334 </r>
       <r>    2.6500    0.0000 </r>
       <r>    2.7052    0.0000 </r>
       <r>    3.0377    0.0000 </r>
       <r>    3.3551    0.0000 </r>
       <r>    3.7353    0.0000 </r>
       <r>    3.8520    0.0000 </r>
       <r>    4.2137    0.0000 </r>
       <r>    4.7440    0.0000 </r>
       <r>    4.7460    0.0000 </r>
       <r>    5.3731    0.0000 </r>
       <r>    5.9198    0.0000 </r>
       <r>    6.1698    0.0000 </r>
       <r>    7.5096    0.0000 </r>
       <r>    7.7144    0.0000 </r>
       <r>    7.9792    0.0000 </r>
       <r>    8.0299    0.0000 </r>
       <r>    8.1953    0.0000 </r>
       <r>    8.2385    0.0000 </r>
       <r>    8.3849    0.0000 </r>
       <r>    8.4594    0.0000 </r>
       <r>    8.7186    0.0000 </r>
       <r>    8.8230    0.0000 </r>
       <r>    8.8963    0.0000 </r>
       <r>    8.9360    0.0000 </r>
       <r>    9.0948    0.0000 </r>
       <r>    9.1396    0.0000 </r>
       <r>    9.2671    0.0000 </r>
       <r>    9.3717    0.0000 </r>
       <r>    9.5057    0.0000 </r>
       <r>    9.6515    0.0000 </r>
       <r>    9.8378    0.0000 </r>
       <r>    9.8510    0.0000 </r>
       <r>    9.8770    0.0000 </r>
       <r>    9.9061    0.0000 </r>
       <r>   10.0276    0.0000 </r>
       <r>   10.0298    0.0000 </r>
       <r>   10.0625    0.0000 </r>
       <r>   10.1447    0.0000 </r>
       <r>   10.2656    0.0000 </r>
       <r>   10.4023    0.0000 </r>
       <r>   10.4851    0.0000 </r>
       <r>   10.5775    0.0000 </r>
       <r>   10.6015    0.0000 </r>
       <r>   10.6932    0.0000 </r>
       <r>   10.7749    0.0000 </r>
       <r>   10.9318    0.0000 </r>
      </set>
      <set comment="kpoint 2">
       <r>  -31.0438    1.0000 </r>
       <r>  -31.0438    1.0000 </r>
       <r>  -31.0299    1.0000 </r>
       <r>  -31.0299    1.0000 </r>
       <r>  -31.0245    1.0000 </r>
       <r>  -31.0245    1.0000 </r>
       <r>  -31.0123    1.0000 </r>
       <r>  -31.0123    1.0000 </r>
       <r>  -14.8807    1.0000 </r>
       <r>  -14.8807    1.0000 </r>
       <r>  -14.7173    1.0000 </r>
       <r>  -14.7173    1.0000 </r>
       <r>  -14.4298    1.0000 </r>
       <r>  -14.4298    1.0000 </r>
       <r>  -14.2242    1.0000 </r>
       <r>  -14.2242    1.0000 </r>
       <r>  -14.0977    1.0000 </r>
       <r>  -14.0977    1.0000 </r>
       <r>  -13.8663    1.0000 </r>
       <r>  -13.8663    1.0000 </r>
       <r>  -13.8060    1.0000 </r>
       <r>  -13.8060    1.0000 </r>
       <r>  -13.6968    1.0000 </r>
       <r>  -13.6968    1.0000 </r>
       <r>  -13.6215    1.0000 </r>
       <r>  -13.6215    1.0000 </r>
       <r>  -13.2296    1.0000 </r>
       <r>  -13.2296    1.0000 </r>
       <r>  -13.2023    1.0000 </r>
       <r>  -13.2023    1.0000 </r>
       <r>  -13.0364    1.0000 </r>
       <r>  -13.0364    1.0000 </r>
       <r>  -12.9699    1.0000 </r>
       <r>  -12.9699    1.0000 </r>
       <r>  -12.9645    1.0000 </r>
       <r>  -12.9645    1.0000 </r>
       <r>  -12.9054    1.0000 </r>
       <r>  -12.9054    1.0000 </r>
       <r>  -12.8930    1.0000 </r>
       <r>  -12.8930    1.0000 </r>
       <r>  -12.8586    1.0000 </r>
       <r>  -12.8586    1.0000 </r>
       <r>  -12.7399    1.0000 </r>
       <r>  -12.7399    1.0000 </r>
       <r>  -12.6829    1.0000 </r>
       <r>  -12.6829    1.0000 </r>
       <r>  -12.5781    1.0000 </r>
       <r>  -12.5781    1.0000 </r>
       <r>  -12.4525    1.0000 </r>
       <r>  -12.4525    1.0000 </r>
       <r>   -3.0381    1.0000 </r>
       <r>   -3.0381    1.0000 </r>
       <r>   -2.9218    1.0000 </r>
       <r>   -2.9218    1.0000 </r>
       <r>   -2.6698    1.0000 </r>
       <r>   -2.6698    1.0000 </r>
       <r>   -2.4487    1.0000 </r>
       <r>   -2.4487    1.0000 </r>
       <r>   -2.1863    1.0000 </r>
       <r>   -2.1863    1.0000 </r>
       <r>   -2.0346    1.0000 </r>
       <r>   -2.0346    1.0000 </r>
       <r>   -2.0190    1.0000 </r>
       <r>   -2.0190    1.0000 </r>
       <r>   -1.9406    1.0000 </r>
       <r>   -1.9406    1.0000 </r>
       <r>   -1.7487    1.0000 </r>
       <r>   -1.7487    1.0000 </r>
       <r>   -1.5027    1.0000 </r>
       <r>   -1.5027    1.0000 </r>
       <r>   -1.4020    1.0000 </r>
       <r>   -1.4020    1.0000 </r>
       <r>   -1.3333    1.0000 </r>
       <r>   -1.3333    1.0000 </r>
       <r>   -1.3085    1.0000 </r>
       <r>   -1.3085    1.0000 </r>
       <r>   -1.2702    1.0000 </r>
       <r>   -1.2702    1.0000 </r>
       <r>   -1.1389    1.0000 </r>
       <r>   -1.1389    1.0000 </r>
       <r>   -1.0965    1.0000 </r>
       <r>   -1.0965    1.0000 </r>
       <r>   -1.0090    1.0000 </r>
       <r>   -1.0090    1.0000 </r>
       <r>   -0.9279    1.0000 </r>
       <r>   -0.9279    1.0000 </r>
       <r>   -0.8456    1.0000 </r>
       <r>   -0.8456    1.0000 </r>
       <r>   -0.7430    1.0000 </r>
       <r>   -0.7430    1.0000 </r>
       <r>   -0.5643    1.0000 </r>
       <r>   -0.5643    1.0000 </r>
       <r>   -0.4714    1.0000 </r>
       <r>   -0.4714    1.0000 </r>
       <r>   -0.1266    1.0000 </r>
       <r>   -0.1266    1.0000 </r>
       <r>    0.0471    1.0000 </r>
       <r>    0.0471    1.0000 </r>
       <r>    0.1580    1.0000 </r>
       <r>    0.1580    1.0000 </r>
       <r>    0.3949    1.0000 </r>
       <r>    0.3949    1.0000 </r>
       <r>    0.6206    1.0000 </r>
       <r>    0.6206    1.0000 </r>
       <r>    0.7228    1.0000 </r>
       <r>    0.7228    1.0000 </r>
       <r>    0.8547    1.0000 </r>
       <r>    0.8547    1.0000 </r>
       <r>    0.9535    1.0000 </r>
       <r>    0.9535    1.0000 </r>
       <r>    1.1273    1.0000 </r>
       <r>    1.1273    1.0000 </r>
       <r>    1.2259    1.0000 </r>
       <r>    1.2259    1.0000 </r>
       <r>    1.2841    1.0000 </r>
       <r>    1.2841    1.0000 </r>
       <r>    1.2931    1.0000 </r>
       <r>    1.2931    1.0000 </r>
       <r>    1.3681    1.0000 </r>
       <r>    1.3681    1.0000 </r>
       <r>    1.3848    1.0000 </r>
       <r>    1.3848    1.0000 </r>
       <r>    1.4756    1.0000 </r>
       <r>    1.4756    1.0000 </r>
       <r>    1.5143    1.0000 </r>
       <r>    1.5143    1.0000 </r>
       <r>    1.6900    1.0000 </r>
       <r>    1.6900    1.0000 </r>
       <r>    1.9158    1.0000 </r>
       <r>    1.9158    1.0000 </r>
       <r>    2.0250    1.0000 </r>
       <r>    2.0250    1.0000 </r>
       <r>    2.0768    1.0000 </r>
       <r>    2.0768    1.0000 </r>
       <r>    2.1836    1.0000 </r>
       <r>    2.1836    1.0000 </r>
       <r>    2.2830    0.9947 </r>
       <r>    2.2830    0.9947 </r>
       <r>    2.8481    0.0000 </r>
       <r>    2.8481    0.0000 </r>
       <r>    3.1583    0.0000 </r>
       <r>    3.1583    0.0000 </r>
       <r>    3.8096    0.0000 </r>
       <r>    3.8096    0.0000 </r>
       <r>    4.4477    0.0000 </r>
       <r>    4.4477    0.0000 </r>
       <r>    5.0268    0.0000 </r>
       <r>    5.0268    0.0000 </r>
       <r>    6.0370    0.0000 </r>
       <r>    6.0370    0.0000 </r>
       <r>    7.8033    0.0000 </r>
       <r>    7.8033    0.0000 </r>
       <r>    7.9930    0.0000 </r>
       <r>    7.9930    0.0000 </r>
       <r>    8.1914    0.0000 </r>
       <r>    8.1914    0.0000 </r>
       <r>    8.4294    0.0000 </r>
       <r>    8.4294    0.0000 </r>
       <r>    8.7177    0.0000 </r>
       <r>    8.7177    0.0000 </r>
       <r>    9.1616    0.0000 </r>
       <r>    9.1616    0.0000 </r>
       <r>    9.3850    0.0000 </r>
       <r>    9.3850    0.0000 </r>
       <r>    9.5082    0.0000 </r>
       <r>    9.5082    0.0000 </r>
       <r>    9.5458    0.0000 </r>
       <r>    9.5458    0.0000 </r>
       <r>    9.5941    0.0000 </r>
       <r>    9.5941    0.0000 </r>
       <r>    9.7953    0.0000 </r>
       <r>    9.7953    0.0000 </r>
       <r>    9.9060    0.0000 </r>
       <r>    9.9060    0.0000 </r>
       <r>   10.0422    0.0000 </r>
       <r>   10.0422    0.0000 </r>
       <r>   10.3564    0.0000 </r>
       <r>   10.3564    0.0000 </r>
       <r>   10.4166    0.0000 </r>
       <r>   10.4166    0.0000 </r>
       <r>   10.5713    0.0000 </r>
       <r>   10.5713    0.0000 </r>
       <r>   10.7483    0.0000 </r>
       <r>   10.7484    0.0000 </r>
      </set>
      <set comment="kpoint 3">
       <r>  -31.0443    1.0000 </r>
       <r>  -31.0372    1.0000 </r>
       <r>  -31.0320    1.0000 </r>
       <r>  -31.0296    1.0000 </r>
       <r>  -31.0255    1.0000 </r>
       <r>  -31.0231    1.0000 </r>
       <r>  -31.0177    1.0000 </r>
       <r>  -31.0117    1.0000 </r>
       <r>  -14.9161    1.0000 </r>
       <r>  -14.7806    1.0000 </r>
       <r>  -14.7085    1.0000 </r>
       <r>  -14.6200    1.0000 </r>
       <r>  -14.5027    1.0000 </r>
       <r>  -14.4603    1.0000 </r>
       <r>  -14.3198    1.0000 </r>
       <r>  -14.1150    1.0000 </r>
       <r>  -14.1056    1.0000 </r>
       <r>  -14.0254    1.0000 </r>
       <r>  -14.0067    1.0000 </r>
       <r>  -13.9116    1.0000 </r>
       <r>  -13.8554    1.0000 </r>
       <r>  -13.7560    1.0000 </r>
       <r>  -13.7297    1.0000 </r>
       <r>  -13.7250    1.0000 </r>
       <r>  -13.6753    1.0000 </r>
       <r>  -13.6653    1.0000 </r>
       <r>  -13.2017    1.0000 </r>
       <r>  -13.1745    1.0000 </r>
       <r>  -13.1297    1.0000 </r>
       <r>  -13.1253    1.0000 </r>
       <r>  -13.0942    1.0000 </r>
       <r>  -13.0614    1.0000 </r>
       <r>  -13.0389    1.0000 </r>
       <r>  -13.0219    1.0000 </r>
       <r>  -12.9511    1.0000 </r>
       <r>  -12.9403    1.0000 </r>
       <r>  -12.8955    1.0000 </r>
       <r>  -12.8931    1.0000 </r>
       <r>  -12.8783    1.0000 </r>
       <r>  -12.8272    1.0000 </r>
       <r>  -12.8130    1.0000 </r>
       <r>  -12.7563    1.0000 </r>
       <r>  -12.7470    1.0000 </r>
       <r>  -12.7040    1.0000 </r>
       <r>  -12.6842    1.0000 </r>
       <r>  -12.6648    1.0000 </r>
       <r>  -12.6212    1.0000 </r>
       <r>  -12.5742    1.0000 </r>
       <r>  -12.5483    1.0000 </r>
       <r>  -12.4882    1.0000 </r>
       <r>   -3.1114    1.0000 </r>
       <r>   -3.1000    1.0000 </r>
       <r>   -2.6910    1.0000 </r>
       <r>   -2.6853    1.0000 </r>
       <r>   -2.5972    1.0000 </r>
       <r>   -2.5182    1.0000 </r>
       <r>   -2.2637    1.0000 </r>
       <r>   -2.2448    1.0000 </r>
       <r>   -2.2381    1.0000 </r>
       <r>   -2.1422    1.0000 </r>
       <r>   -2.1406    1.0000 </r>
       <r>   -2.0165    1.0000 </r>
       <r>   -1.9990    1.0000 </r>
       <r>   -1.9183    1.0000 </r>
       <r>   -1.9124    1.0000 </r>
       <r>   -1.9123    1.0000 </r>
       <r>   -1.8442    1.0000 </r>
       <r>   -1.8053    1.0000 </r>
       <r>   -1.6274    1.0000 </r>
       <r>   -1.6189    1.0000 </r>
       <r>   -1.6071    1.0000 </r>
       <r>   -1.5479    1.0000 </r>
       <r>   -1.5142    1.0000 </r>
       <r>   -1.4483    1.0000 </r>
       <r>   -1.4299    1.0000 </r>
       <r>   -1.4136    1.0000 </r>
       <r>   -1.3213    1.0000 </r>
       <r>   -1.2973    1.0000 </r>
       <r>   -1.2241    1.0000 </r>
       <r>   -1.2190    1.0000 </r>
       <r>   -1.1169    1.0000 </r>
       <r>   -1.0341    1.0000 </r>
       <r>   -0.9877    1.0000 </r>
       <r>   -0.9642    1.0000 </r>
       <r>   -0.8664    1.0000 </r>
       <r>   -0.8653    1.0000 </r>
       <r>   -0.8520    1.0000 </r>
       <r>   -0.8261    1.0000 </r>
       <r>   -0.7957    1.0000 </r>
       <r>   -0.7920    1.0000 </r>
       <r>   -0.7090    1.0000 </r>
       <r>   -0.7028    1.0000 </r>
       <r>   -0.5616    1.0000 </r>
       <r>   -0.4746    1.0000 </r>
       <r>   -0.3586    1.0000 </r>
       <r>   -0.1899    1.0000 </r>
       <r>   -0.0463    1.0000 </r>
       <r>    0.0015    1.0000 </r>
       <r>    0.1185    1.0000 </r>
       <r>    0.4444    1.0000 </r>
       <r>    0.4620    1.0000 </r>
       <r>    0.5001    1.0000 </r>
       <r>    0.5956    1.0000 </r>
       <r>    0.7026    1.0000 </r>
       <r>    0.8419    1.0000 </r>
       <r>    0.8442    1.0000 </r>
       <r>    0.9647    1.0000 </r>
       <r>    0.9940    1.0000 </r>
       <r>    1.0574    1.0000 </r>
       <r>    1.0813    1.0000 </r>
       <r>    1.1317    1.0000 </r>
       <r>    1.1816    1.0000 </r>
       <r>    1.1823    1.0000 </r>
       <r>    1.2371    1.0000 </r>
       <r>    1.2439    1.0000 </r>
       <r>    1.2526    1.0000 </r>
       <r>    1.3313    1.0000 </r>
       <r>    1.3370    1.0000 </r>
       <r>    1.3538    1.0000 </r>
       <r>    1.3550    1.0000 </r>
       <r>    1.3799    1.0000 </r>
       <r>    1.3820    1.0000 </r>
       <r>    1.4627    1.0000 </r>
       <r>    1.5680    1.0000 </r>
       <r>    1.5842    1.0000 </r>
       <r>    1.6176    1.0000 </r>
       <r>    1.6678    1.0000 </r>
       <r>    1.6965    1.0000 </r>
       <r>    1.8090    1.0000 </r>
       <r>    1.8844    1.0000 </r>
       <r>    1.9597    1.0000 </r>
       <r>    2.0944    1.0000 </r>
       <r>    2.1371    1.0000 </r>
       <r>    2.1953    1.0000 </r>
       <r>    2.2249    1.0000 </r>
       <r>    2.2304    1.0000 </r>
       <r>    2.3384    0.8384 </r>
       <r>    2.3517    0.7290 </r>
       <r>    2.6078    0.0000 </r>
       <r>    2.7474    0.0000 </r>
       <r>    2.8831    0.0000 </r>
       <r>    3.1224    0.0000 </r>
       <r>    3.8302    0.0000 </r>
       <r>    3.8458    0.0000 </r>
       <r>    4.4172    0.0000 </r>
       <r>    4.7030    0.0000 </r>
       <r>    5.0221    0.0000 </r>
       <r>    5.2063    0.0000 </r>
       <r>    6.0532    0.0000 </r>
       <r>    6.0885    0.0000 </r>
       <r>    7.6620    0.0000 </r>
       <r>    7.7201    0.0000 </r>
       <r>    8.1168    0.0000 </r>
       <r>    8.1591    0.0000 </r>
       <r>    8.3136    0.0000 </r>
       <r>    8.4413    0.0000 </r>
       <r>    8.4776    0.0000 </r>
       <r>    8.5820    0.0000 </r>
       <r>    8.6971    0.0000 </r>
       <r>    8.7269    0.0000 </r>
       <r>    8.9096    0.0000 </r>
       <r>    8.9646    0.0000 </r>
       <r>    9.0994    0.0000 </r>
       <r>    9.2357    0.0000 </r>
       <r>    9.2741    0.0000 </r>
       <r>    9.3388    0.0000 </r>
       <r>    9.3769    0.0000 </r>
       <r>    9.5020    0.0000 </r>
       <r>    9.6069    0.0000 </r>
       <r>    9.6571    0.0000 </r>
       <r>    9.7027    0.0000 </r>
       <r>    9.8829    0.0000 </r>
       <r>    9.8987    0.0000 </r>
       <r>   10.0133    0.0000 </r>
       <r>   10.0796    0.0000 </r>
       <r>   10.1137    0.0000 </r>
       <r>   10.1481    0.0000 </r>
       <r>   10.2275    0.0000 </r>
       <r>   10.2879    0.0000 </r>
       <r>   10.3137    0.0000 </r>
       <r>   10.4656    0.0000 </r>
       <r>   10.5478    0.0000 </r>
       <r>   10.6480    0.0000 </r>
       <r>   10.7330    0.0000 </r>
      </set>
      <set comment="kpoint 4">
       <r>  -31.0404    1.0000 </r>
       <r>  -31.0404    1.0000 </r>
       <r>  -31.0334    1.0000 </r>
       <r>  -31.0334    1.0000 </r>
       <r>  -31.0215    1.0000 </r>
       <r>  -31.0215    1.0000 </r>
       <r>  -31.0153    1.0000 </r>
       <r>  -31.0153    1.0000 </r>
       <r>  -14.8402    1.0000 </r>
       <r>  -14.8402    1.0000 </r>
       <r>  -14.7143    1.0000 </r>
       <r>  -14.7143    1.0000 </r>
       <r>  -14.3915    1.0000 </r>
       <r>  -14.3915    1.0000 </r>
       <r>  -14.2737    1.0000 </r>
       <r>  -14.2737    1.0000 </r>
       <r>  -14.1158    1.0000 </r>
       <r>  -14.1158    1.0000 </r>
       <r>  -13.9033    1.0000 </r>
       <r>  -13.9033    1.0000 </r>
       <r>  -13.8029    1.0000 </r>
       <r>  -13.8029    1.0000 </r>
       <r>  -13.7244    1.0000 </r>
       <r>  -13.7244    1.0000 </r>
       <r>  -13.6895    1.0000 </r>
       <r>  -13.6895    1.0000 </r>
       <r>  -13.1948    1.0000 </r>
       <r>  -13.1948    1.0000 </r>
       <r>  -13.1384    1.0000 </r>
       <r>  -13.1384    1.0000 </r>
       <r>  -13.0664    1.0000 </r>
       <r>  -13.0664    1.0000 </r>
       <r>  -12.9948    1.0000 </r>
       <r>  -12.9948    1.0000 </r>
       <r>  -12.9386    1.0000 </r>
       <r>  -12.9386    1.0000 </r>
       <r>  -12.8710    1.0000 </r>
       <r>  -12.8710    1.0000 </r>
       <r>  -12.8595    1.0000 </r>
       <r>  -12.8595    1.0000 </r>
       <r>  -12.7892    1.0000 </r>
       <r>  -12.7892    1.0000 </r>
       <r>  -12.7115    1.0000 </r>
       <r>  -12.7115    1.0000 </r>
       <r>  -12.6904    1.0000 </r>
       <r>  -12.6904    1.0000 </r>
       <r>  -12.6214    1.0000 </r>
       <r>  -12.6214    1.0000 </r>
       <r>  -12.5259    1.0000 </r>
       <r>  -12.5259    1.0000 </r>
       <r>   -2.9824    1.0000 </r>
       <r>   -2.9824    1.0000 </r>
       <r>   -2.7492    1.0000 </r>
       <r>   -2.7492    1.0000 </r>
       <r>   -2.6549    1.0000 </r>
       <r>   -2.6549    1.0000 </r>
       <r>   -2.4047    1.0000 </r>
       <r>   -2.4047    1.0000 </r>
       <r>   -2.1661    1.0000 </r>
       <r>   -2.1661    1.0000 </r>
       <r>   -2.0356    1.0000 </r>
       <r>   -2.0356    1.0000 </r>
       <r>   -1.9576    1.0000 </r>
       <r>   -1.9576    1.0000 </r>
       <r>   -1.8993    1.0000 </r>
       <r>   -1.8993    1.0000 </r>
       <r>   -1.7718    1.0000 </r>
       <r>   -1.7718    1.0000 </r>
       <r>   -1.6008    1.0000 </r>
       <r>   -1.6008    1.0000 </r>
       <r>   -1.5194    1.0000 </r>
       <r>   -1.5194    1.0000 </r>
       <r>   -1.4374    1.0000 </r>
       <r>   -1.4374    1.0000 </r>
       <r>   -1.3097    1.0000 </r>
       <r>   -1.3097    1.0000 </r>
       <r>   -1.2797    1.0000 </r>
       <r>   -1.2797    1.0000 </r>
       <r>   -1.2273    1.0000 </r>
       <r>   -1.2273    1.0000 </r>
       <r>   -1.1422    1.0000 </r>
       <r>   -1.1422    1.0000 </r>
       <r>   -1.0536    1.0000 </r>
       <r>   -1.0536    1.0000 </r>
       <r>   -0.9833    1.0000 </r>
       <r>   -0.9833    1.0000 </r>
       <r>   -0.8616    1.0000 </r>
       <r>   -0.8616    1.0000 </r>
       <r>   -0.8236    1.0000 </r>
       <r>   -0.8236    1.0000 </r>
       <r>   -0.7071    1.0000 </r>
       <r>   -0.7071    1.0000 </r>
       <r>   -0.4974    1.0000 </r>
       <r>   -0.4974    1.0000 </r>
       <r>   -0.2619    1.0000 </r>
       <r>   -0.2619    1.0000 </r>
       <r>    0.1967    1.0000 </r>
       <r>    0.1967    1.0000 </r>
       <r>    0.2837    1.0000 </r>
       <r>    0.2837    1.0000 </r>
       <r>    0.4325    1.0000 </r>
       <r>    0.4325    1.0000 </r>
       <r>    0.6423    1.0000 </r>
       <r>    0.6423    1.0000 </r>
       <r>    0.7907    1.0000 </r>
       <r>    0.7907    1.0000 </r>
       <r>    0.9116    1.0000 </r>
       <r>    0.9116    1.0000 </r>
       <r>    1.0592    1.0000 </r>
       <r>    1.0592    1.0000 </r>
       <r>    1.1207    1.0000 </r>
       <r>    1.1207    1.0000 </r>
       <r>    1.1654    1.0000 </r>
       <r>    1.1654    1.0000 </r>
       <r>    1.2426    1.0000 </r>
       <r>    1.2426    1.0000 </r>
       <r>    1.3103    1.0000 </r>
       <r>    1.3103    1.0000 </r>
       <r>    1.3462    1.0000 </r>
       <r>    1.3462    1.0000 </r>
       <r>    1.4365    1.0000 </r>
       <r>    1.4365    1.0000 </r>
       <r>    1.5140    1.0000 </r>
       <r>    1.5140    1.0000 </r>
       <r>    1.6880    1.0000 </r>
       <r>    1.6880    1.0000 </r>
       <r>    1.7568    1.0000 </r>
       <r>    1.7568    1.0000 </r>
       <r>    1.8976    1.0000 </r>
       <r>    1.8976    1.0000 </r>
       <r>    2.0112    1.0000 </r>
       <r>    2.0112    1.0000 </r>
       <r>    2.1085    1.0000 </r>
       <r>    2.1085    1.0000 </r>
       <r>    2.1776    1.0000 </r>
       <r>    2.1776    1.0000 </r>
       <r>    2.2595    0.9994 </r>
       <r>    2.2595    0.9994 </r>
       <r>    2.7644    0.0000 </r>
       <r>    2.7644    0.0000 </r>
       <r>    3.0353    0.0000 </r>
       <r>    3.0353    0.0000 </r>
       <r>    3.7724    0.0000 </r>
       <r>    3.7724    0.0000 </r>
       <r>    4.5695    0.0000 </r>
       <r>    4.5695    0.0000 </r>
       <r>    5.1291    0.0000 </r>
       <r>    5.1291    0.0000 </r>
       <r>    6.0093    0.0000 </r>
       <r>    6.0093    0.0000 </r>
       <r>    7.8142    0.0000 </r>
       <r>    7.8142    0.0000 </r>
       <r>    8.2125    0.0000 </r>
       <r>    8.2125    0.0000 </r>
       <r>    8.3878    0.0000 </r>
       <r>    8.3878    0.0000 </r>
       <r>    8.6359    0.0000 </r>
       <r>    8.6359    0.0000 </r>
       <r>    8.8360    0.0000 </r>
       <r>    8.8360    0.0000 </r>
       <r>    9.0676    0.0000 </r>
       <r>    9.0676    0.0000 </r>
       <r>    9.1173    0.0000 </r>
       <r>    9.1173    0.0000 </r>
       <r>    9.2627    0.0000 </r>
       <r>    9.2627    0.0000 </r>
       <r>    9.3882    0.0000 </r>
       <r>    9.3882    0.0000 </r>
       <r>    9.5913    0.0000 </r>
       <r>    9.5913    0.0000 </r>
       <r>    9.6655    0.0000 </r>
       <r>    9.6655    0.0000 </r>
       <r>    9.8493    0.0000 </r>
       <r>    9.8493    0.0000 </r>
       <r>   10.0811    0.0000 </r>
       <r>   10.0811    0.0000 </r>
       <r>   10.2512    0.0000 </r>
       <r>   10.2512    0.0000 </r>
       <r>   10.4132    0.0000 </r>
       <r>   10.4132    0.0000 </r>
       <r>   10.5508    0.0000 </r>
       <r>   10.5508    0.0000 </r>
       <r>   10.5818    0.0000 </r>
       <r>   10.5818    0.0000 </r>
      </set>
      <set comment="kpoint 5">
       <r>  -31.0438    1.0000 </r>
       <r>  -31.0351    1.0000 </r>
       <r>  -31.0328    1.0000 </r>
       <r>  -31.0299    1.0000 </r>
       <r>  -31.0246    1.0000 </r>
       <r>  -31.0221    1.0000 </r>
       <r>  -31.0198    1.0000 </r>
       <r>  -31.0123    1.0000 </r>
       <r>  -14.9135    1.0000 </r>
       <r>  -14.8210    1.0000 </r>
       <r>  -14.7466    1.0000 </r>
       <r>  -14.5186    1.0000 </r>
       <r>  -14.4868    1.0000 </r>
       <r>  -14.4786    1.0000 </r>
       <r>  -14.3599    1.0000 </r>
       <r>  -14.1953    1.0000 </r>
       <r>  -14.1235    1.0000 </r>
       <r>  -14.1048    1.0000 </r>
       <r>  -14.0355    1.0000 </r>
       <r>  -13.9023    1.0000 </r>
       <r>  -13.8933    1.0000 </r>
       <r>  -13.8664    1.0000 </r>
       <r>  -13.7975    1.0000 </r>
       <r>  -13.7212    1.0000 </r>
       <r>  -13.6418    1.0000 </r>
       <r>  -13.5368    1.0000 </r>
       <r>  -13.2864    1.0000 </r>
       <r>  -13.2305    1.0000 </r>
       <r>  -13.2011    1.0000 </r>
       <r>  -13.1201    1.0000 </r>
       <r>  -13.0549    1.0000 </r>
       <r>  -13.0545    1.0000 </r>
       <r>  -12.9654    1.0000 </r>
       <r>  -12.9639    1.0000 </r>
       <r>  -12.9399    1.0000 </r>
       <r>  -12.9212    1.0000 </r>
       <r>  -12.8905    1.0000 </r>
       <r>  -12.8858    1.0000 </r>
       <r>  -12.8709    1.0000 </r>
       <r>  -12.8413    1.0000 </r>
       <r>  -12.8262    1.0000 </r>
       <r>  -12.7716    1.0000 </r>
       <r>  -12.7701    1.0000 </r>
       <r>  -12.7419    1.0000 </r>
       <r>  -12.5901    1.0000 </r>
       <r>  -12.5627    1.0000 </r>
       <r>  -12.5384    1.0000 </r>
       <r>  -12.5272    1.0000 </r>
       <r>  -12.5020    1.0000 </r>
       <r>  -12.4074    1.0000 </r>
       <r>   -3.0297    1.0000 </r>
       <r>   -3.0099    1.0000 </r>
       <r>   -2.8683    1.0000 </r>
       <r>   -2.8623    1.0000 </r>
       <r>   -2.7788    1.0000 </r>
       <r>   -2.7318    1.0000 </r>
       <r>   -2.3541    1.0000 </r>
       <r>   -2.3164    1.0000 </r>
       <r>   -2.1654    1.0000 </r>
       <r>   -2.1651    1.0000 </r>
       <r>   -2.0624    1.0000 </r>
       <r>   -2.0458    1.0000 </r>
       <r>   -2.0354    1.0000 </r>
       <r>   -2.0258    1.0000 </r>
       <r>   -1.9668    1.0000 </r>
       <r>   -1.9389    1.0000 </r>
       <r>   -1.6499    1.0000 </r>
       <r>   -1.6088    1.0000 </r>
       <r>   -1.5217    1.0000 </r>
       <r>   -1.4418    1.0000 </r>
       <r>   -1.4072    1.0000 </r>
       <r>   -1.4054    1.0000 </r>
       <r>   -1.3805    1.0000 </r>
       <r>   -1.3392    1.0000 </r>
       <r>   -1.3318    1.0000 </r>
       <r>   -1.2702    1.0000 </r>
       <r>   -1.2657    1.0000 </r>
       <r>   -1.2083    1.0000 </r>
       <r>   -1.1191    1.0000 </r>
       <r>   -1.1146    1.0000 </r>
       <r>   -1.0984    1.0000 </r>
       <r>   -1.0442    1.0000 </r>
       <r>   -1.0360    1.0000 </r>
       <r>   -1.0092    1.0000 </r>
       <r>   -0.9250    1.0000 </r>
       <r>   -0.9201    1.0000 </r>
       <r>   -0.9177    1.0000 </r>
       <r>   -0.9163    1.0000 </r>
       <r>   -0.7596    1.0000 </r>
       <r>   -0.7473    1.0000 </r>
       <r>   -0.5617    1.0000 </r>
       <r>   -0.5180    1.0000 </r>
       <r>   -0.5048    1.0000 </r>
       <r>   -0.4748    1.0000 </r>
       <r>   -0.1271    1.0000 </r>
       <r>   -0.1236    1.0000 </r>
       <r>   -0.0056    1.0000 </r>
       <r>    0.0463    1.0000 </r>
       <r>    0.2186    1.0000 </r>
       <r>    0.3789    1.0000 </r>
       <r>    0.4719    1.0000 </r>
       <r>    0.4857    1.0000 </r>
       <r>    0.5356    1.0000 </r>
       <r>    0.6406    1.0000 </r>
       <r>    0.7328    1.0000 </r>
       <r>    0.7473    1.0000 </r>
       <r>    0.8150    1.0000 </r>
       <r>    0.8894    1.0000 </r>
       <r>    0.9719    1.0000 </r>
       <r>    0.9955    1.0000 </r>
       <r>    1.0123    1.0000 </r>
       <r>    1.0309    1.0000 </r>
       <r>    1.0352    1.0000 </r>
       <r>    1.1049    1.0000 </r>
       <r>    1.2298    1.0000 </r>
       <r>    1.2430    1.0000 </r>
       <r>    1.2713    1.0000 </r>
       <r>    1.2766    1.0000 </r>
       <r>    1.2986    1.0000 </r>
       <r>    1.3791    1.0000 </r>
       <r>    1.4060    1.0000 </r>
       <r>    1.4099    1.0000 </r>
       <r>    1.4641    1.0000 </r>
       <r>    1.4931    1.0000 </r>
       <r>    1.6104    1.0000 </r>
       <r>    1.6328    1.0000 </r>
       <r>    1.6684    1.0000 </r>
       <r>    1.6878    1.0000 </r>
       <r>    1.6904    1.0000 </r>
       <r>    1.7819    1.0000 </r>
       <r>    1.9114    1.0000 </r>
       <r>    1.9574    1.0000 </r>
       <r>    1.9616    1.0000 </r>
       <r>    2.0440    1.0000 </r>
       <r>    2.1096    1.0000 </r>
       <r>    2.1379    1.0000 </r>
       <r>    2.1721    1.0000 </r>
       <r>    2.1754    1.0000 </r>
       <r>    2.2791    0.9962 </r>
       <r>    2.4413    0.0272 </r>
       <r>    3.1466    0.0000 </r>
       <r>    3.1633    0.0000 </r>
       <r>    3.5021    0.0000 </r>
       <r>    3.8900    0.0000 </r>
       <r>    4.4875    0.0000 </r>
       <r>    4.9321    0.0000 </r>
       <r>    5.0266    0.0000 </r>
       <r>    5.6257    0.0000 </r>
       <r>    6.1959    0.0000 </r>
       <r>    6.4524    0.0000 </r>
       <r>    7.5251    0.0000 </r>
       <r>    7.7755    0.0000 </r>
       <r>    7.9379    0.0000 </r>
       <r>    7.9900    0.0000 </r>
       <r>    8.0384    0.0000 </r>
       <r>    8.1500    0.0000 </r>
       <r>    8.2426    0.0000 </r>
       <r>    8.3157    0.0000 </r>
       <r>    8.5128    0.0000 </r>
       <r>    8.7800    0.0000 </r>
       <r>    8.8485    0.0000 </r>
       <r>    9.1577    0.0000 </r>
       <r>    9.2561    0.0000 </r>
       <r>    9.3876    0.0000 </r>
       <r>    9.4664    0.0000 </r>
       <r>    9.5857    0.0000 </r>
       <r>    9.6562    0.0000 </r>
       <r>    9.6753    0.0000 </r>
       <r>    9.7095    0.0000 </r>
       <r>    9.7660    0.0000 </r>
       <r>    9.8339    0.0000 </r>
       <r>    9.9359    0.0000 </r>
       <r>    9.9902    0.0000 </r>
       <r>   10.0481    0.0000 </r>
       <r>   10.0603    0.0000 </r>
       <r>   10.1048    0.0000 </r>
       <r>   10.3194    0.0000 </r>
       <r>   10.3267    0.0000 </r>
       <r>   10.4084    0.0000 </r>
       <r>   10.5309    0.0000 </r>
       <r>   10.5582    0.0000 </r>
       <r>   10.5789    0.0000 </r>
       <r>   10.6618    0.0000 </r>
       <r>   10.7051    0.0000 </r>
      </set>
      <set comment="kpoint 6">
       <r>  -31.0410    1.0000 </r>
       <r>  -31.0409    1.0000 </r>
       <r>  -31.0273    1.0000 </r>
       <r>  -31.0273    1.0000 </r>
       <r>  -31.0273    1.0000 </r>
       <r>  -31.0272    1.0000 </r>
       <r>  -31.0148    1.0000 </r>
       <r>  -31.0147    1.0000 </r>
       <r>  -14.8382    1.0000 </r>
       <r>  -14.8254    1.0000 </r>
       <r>  -14.7481    1.0000 </r>
       <r>  -14.7268    1.0000 </r>
       <r>  -14.4912    1.0000 </r>
       <r>  -14.4026    1.0000 </r>
       <r>  -14.2238    1.0000 </r>
       <r>  -14.2152    1.0000 </r>
       <r>  -14.0661    1.0000 </r>
       <r>  -14.0509    1.0000 </r>
       <r>  -14.0070    1.0000 </r>
       <r>  -14.0013    1.0000 </r>
       <r>  -13.9995    1.0000 </r>
       <r>  -13.9032    1.0000 </r>
       <r>  -13.7871    1.0000 </r>
       <r>  -13.7520    1.0000 </r>
       <r>  -13.5754    1.0000 </r>
       <r>  -13.5668    1.0000 </r>
       <r>  -13.2661    1.0000 </r>
       <r>  -13.2603    1.0000 </r>
       <r>  -13.1680    1.0000 </r>
       <r>  -13.1391    1.0000 </r>
       <r>  -13.0670    1.0000 </r>
       <r>  -13.0506    1.0000 </r>
       <r>  -12.9644    1.0000 </r>
       <r>  -12.9401    1.0000 </r>
       <r>  -12.9172    1.0000 </r>
       <r>  -12.9097    1.0000 </r>
       <r>  -12.8906    1.0000 </r>
       <r>  -12.8870    1.0000 </r>
       <r>  -12.8515    1.0000 </r>
       <r>  -12.8459    1.0000 </r>
       <r>  -12.8100    1.0000 </r>
       <r>  -12.7559    1.0000 </r>
       <r>  -12.7325    1.0000 </r>
       <r>  -12.7012    1.0000 </r>
       <r>  -12.6511    1.0000 </r>
       <r>  -12.6442    1.0000 </r>
       <r>  -12.5469    1.0000 </r>
       <r>  -12.5184    1.0000 </r>
       <r>  -12.4583    1.0000 </r>
       <r>  -12.4528    1.0000 </r>
       <r>   -3.0775    1.0000 </r>
       <r>   -3.0524    1.0000 </r>
       <r>   -2.8475    1.0000 </r>
       <r>   -2.7821    1.0000 </r>
       <r>   -2.7808    1.0000 </r>
       <r>   -2.7466    1.0000 </r>
       <r>   -2.1816    1.0000 </r>
       <r>   -2.1098    1.0000 </r>
       <r>   -2.0788    1.0000 </r>
       <r>   -2.0609    1.0000 </r>
       <r>   -2.0556    1.0000 </r>
       <r>   -2.0544    1.0000 </r>
       <r>   -2.0336    1.0000 </r>
       <r>   -2.0260    1.0000 </r>
       <r>   -2.0192    1.0000 </r>
       <r>   -1.9965    1.0000 </r>
       <r>   -1.9276    1.0000 </r>
       <r>   -1.8511    1.0000 </r>
       <r>   -1.6865    1.0000 </r>
       <r>   -1.6538    1.0000 </r>
       <r>   -1.5134    1.0000 </r>
       <r>   -1.4438    1.0000 </r>
       <r>   -1.4105    1.0000 </r>
       <r>   -1.3547    1.0000 </r>
       <r>   -1.3288    1.0000 </r>
       <r>   -1.2753    1.0000 </r>
       <r>   -1.1842    1.0000 </r>
       <r>   -1.1554    1.0000 </r>
       <r>   -1.1544    1.0000 </r>
       <r>   -1.1309    1.0000 </r>
       <r>   -1.0204    1.0000 </r>
       <r>   -1.0020    1.0000 </r>
       <r>   -1.0002    1.0000 </r>
       <r>   -0.9694    1.0000 </r>
       <r>   -0.9077    1.0000 </r>
       <r>   -0.8089    1.0000 </r>
       <r>   -0.7896    1.0000 </r>
       <r>   -0.7441    1.0000 </r>
       <r>   -0.7262    1.0000 </r>
       <r>   -0.5674    1.0000 </r>
       <r>   -0.5662    1.0000 </r>
       <r>   -0.5481    1.0000 </r>
       <r>   -0.5066    1.0000 </r>
       <r>   -0.4575    1.0000 </r>
       <r>   -0.1999    1.0000 </r>
       <r>   -0.1344    1.0000 </r>
       <r>   -0.0077    1.0000 </r>
       <r>    0.1021    1.0000 </r>
       <r>    0.1630    1.0000 </r>
       <r>    0.2943    1.0000 </r>
       <r>    0.3486    1.0000 </r>
       <r>    0.4927    1.0000 </r>
       <r>    0.5727    1.0000 </r>
       <r>    0.6531    1.0000 </r>
       <r>    0.7692    1.0000 </r>
       <r>    0.7859    1.0000 </r>
       <r>    0.8590    1.0000 </r>
       <r>    0.8660    1.0000 </r>
       <r>    0.8722    1.0000 </r>
       <r>    0.8823    1.0000 </r>
       <r>    1.0204    1.0000 </r>
       <r>    1.0572    1.0000 </r>
       <r>    1.0883    1.0000 </r>
       <r>    1.1391    1.0000 </r>
       <r>    1.1919    1.0000 </r>
       <r>    1.2198    1.0000 </r>
       <r>    1.2454    1.0000 </r>
       <r>    1.2586    1.0000 </r>
       <r>    1.2908    1.0000 </r>
       <r>    1.3711    1.0000 </r>
       <r>    1.3979    1.0000 </r>
       <r>    1.4143    1.0000 </r>
       <r>    1.5324    1.0000 </r>
       <r>    1.5761    1.0000 </r>
       <r>    1.5845    1.0000 </r>
       <r>    1.6207    1.0000 </r>
       <r>    1.6564    1.0000 </r>
       <r>    1.6643    1.0000 </r>
       <r>    1.7545    1.0000 </r>
       <r>    1.7710    1.0000 </r>
       <r>    1.8229    1.0000 </r>
       <r>    1.9193    1.0000 </r>
       <r>    1.9877    1.0000 </r>
       <r>    2.0361    1.0000 </r>
[...]
       <r>     5.8171     1.2505   147.8750 </r>
       <r>     5.9712     0.7693   147.9935 </r>
       <r>     6.1252     2.9638   148.4500 </r>
       <r>     6.2792     3.1956   148.9422 </r>
       <r>     6.4332     3.4195   149.4688 </r>
       <r>     6.5872     2.4987   149.8537 </r>
       <r>     6.7412     0.4209   149.9185 </r>
       <r>     6.8953     0.5280   149.9998 </r>
       <r>     7.0493     0.0011   150.0000 </r>
       <r>     7.2033     0.0002   150.0000 </r>
       <r>     7.3573     0.2349   150.0362 </r>
       <r>     7.5113     1.2527   150.2291 </r>
       <r>     7.6653     4.6887   150.9513 </r>
       <r>     7.8194     5.9837   151.8728 </r>
       <r>     7.9734     5.3255   152.6931 </r>
       <r>     8.1274     8.1505   153.9484 </r>
       <r>     8.2814    10.9627   155.6368 </r>
       <r>     8.4354    10.3377   157.2290 </r>
       <r>     8.5894     8.8542   158.5927 </r>
       <r>     8.7435     9.1186   159.9971 </r>
       <r>     8.8975     6.5232   161.0018 </r>
       <r>     9.0515     3.9648   161.6124 </r>
       <r>     9.2055     9.0836   163.0114 </r>
       <r>     9.3595    11.2388   164.7424 </r>
       <r>     9.5135     7.5397   165.9036 </r>
       <r>     9.6676    11.6352   167.6957 </r>
       <r>     9.8216    14.8566   169.9838 </r>
       <r>     9.9756    15.5379   172.3769 </r>
       <r>    10.1296    16.2296   174.8766 </r>
       <r>    10.2836    11.7899   176.6924 </r>
       <r>    10.4376    18.2673   179.5059 </r>
       <r>    10.5917    15.4643   181.8876 </r>
       <r>    10.7457    12.1389   183.7572 </r>
       <r>    10.8997     1.3151   183.9598 </r>
       <r>    11.0537     0.2611   184.0000 </r>
       <r>    11.2077     0.0001   184.0000 </r>
       <r>    11.3617     0.0000   184.0000 </r>
       <r>    11.5158     0.0000   184.0000 </r>
       <r>    11.6698     0.0000   184.0000 </r>
       <r>    11.8238     0.0000   184.0000 </r>
       <r>    11.9778     0.0000   184.0000 </r>
       <r>    12.1318     0.0000   184.0000 </r>
       <r>    12.2858     0.0000   184.0000 </r>
       <r>    12.4399     0.0000   184.0000 </r>
       <r>    12.5939     0.0000   184.0000 </r>
       <r>    12.7479     0.0000   184.0000 </r>
       <r>    12.9019     0.0000   184.0000 </r>
       <r>    13.0559     0.0000   184.0000 </r>
      </set>
      <set comment="spin 2">
       <r>   -33.1491     0.0000     0.0000 </r>
       <r>   -32.9951     0.0000     0.0000 </r>
       <r>   -32.8410     0.0000     0.0000 </r>
       <r>   -32.6870     0.0000     0.0000 </r>
       <r>   -32.5330     0.0000     0.0000 </r>
       <r>   -32.3790     0.0000     0.0000 </r>
       <r>   -32.2250     0.0000     0.0000 </r>
       <r>   -32.0710     0.0000     0.0000 </r>
       <r>   -31.9169     0.0000     0.0000 </r>
       <r>   -31.7629     0.0000     0.0000 </r>
       <r>   -31.6089     0.0000     0.0000 </r>
       <r>   -31.4549     0.0000     0.0000 </r>
       <r>   -31.3009     0.0000     0.0000 </r>
       <r>   -31.1469     0.0286     0.0044 </r>
       <r>   -30.9928    43.4655     6.6988 </r>
       <r>   -30.8388     8.4483     8.0000 </r>
       <r>   -30.6848     0.0000     8.0000 </r>
       <r>   -30.5308     0.0000     8.0000 </r>
       <r>   -30.3768     0.0000     8.0000 </r>
       <r>   -30.2228     0.0000     8.0000 </r>
       <r>   -30.0687     0.0000     8.0000 </r>
       <r>   -29.9147     0.0000     8.0000 </r>
       <r>   -29.7607     0.0000     8.0000 </r>
       <r>   -29.6067     0.0000     8.0000 </r>
       <r>   -29.4527     0.0000     8.0000 </r>
       <r>   -29.2987     0.0000     8.0000 </r>
       <r>   -29.1446     0.0000     8.0000 </r>
       <r>   -28.9906     0.0000     8.0000 </r>
       <r>   -28.8366     0.0000     8.0000 </r>
       <r>   -28.6826     0.0000     8.0000 </r>
       <r>   -28.5286     0.0000     8.0000 </r>
       <r>   -28.3746     0.0000     8.0000 </r>
       <r>   -28.2205     0.0000     8.0000 </r>
       <r>   -28.0665     0.0000     8.0000 </r>
       <r>   -27.9125     0.0000     8.0000 </r>
       <r>   -27.7585     0.0000     8.0000 </r>
       <r>   -27.6045     0.0000     8.0000 </r>
       <r>   -27.4505     0.0000     8.0000 </r>
       <r>   -27.2964     0.0000     8.0000 </r>
       <r>   -27.1424     0.0000     8.0000 </r>
       <r>   -26.9884     0.0000     8.0000 </r>
       <r>   -26.8344     0.0000     8.0000 </r>
       <r>   -26.6804     0.0000     8.0000 </r>
       <r>   -26.5264     0.0000     8.0000 </r>
       <r>   -26.3723     0.0000     8.0000 </r>
       <r>   -26.2183     0.0000     8.0000 </r>
       <r>   -26.0643     0.0000     8.0000 </r>
       <r>   -25.9103     0.0000     8.0000 </r>
       <r>   -25.7563     0.0000     8.0000 </r>
       <r>   -25.6023     0.0000     8.0000 </r>
       <r>   -25.4482     0.0000     8.0000 </r>
       <r>   -25.2942     0.0000     8.0000 </r>
       <r>   -25.1402     0.0000     8.0000 </r>
       <r>   -24.9862     0.0000     8.0000 </r>
       <r>   -24.8322     0.0000     8.0000 </r>
       <r>   -24.6782     0.0000     8.0000 </r>
       <r>   -24.5241     0.0000     8.0000 </r>
       <r>   -24.3701     0.0000     8.0000 </r>
       <r>   -24.2161     0.0000     8.0000 </r>
       <r>   -24.0621     0.0000     8.0000 </r>
       <r>   -23.9081     0.0000     8.0000 </r>
       <r>   -23.7541     0.0000     8.0000 </r>
       <r>   -23.6000     0.0000     8.0000 </r>
       <r>   -23.4460     0.0000     8.0000 </r>
       <r>   -23.2920     0.0000     8.0000 </r>
       <r>   -23.1380     0.0000     8.0000 </r>
       <r>   -22.9840     0.0000     8.0000 </r>
       <r>   -22.8300     0.0000     8.0000 </r>
       <r>   -22.6759     0.0000     8.0000 </r>
       <r>   -22.5219     0.0000     8.0000 </r>
       <r>   -22.3679     0.0000     8.0000 </r>
       <r>   -22.2139     0.0000     8.0000 </r>
       <r>   -22.0599     0.0000     8.0000 </r>
       <r>   -21.9059     0.0000     8.0000 </r>
       <r>   -21.7518     0.0000     8.0000 </r>
       <r>   -21.5978     0.0000     8.0000 </r>
       <r>   -21.4438     0.0000     8.0000 </r>
       <r>   -21.2898     0.0000     8.0000 </r>
       <r>   -21.1358     0.0000     8.0000 </r>
       <r>   -20.9818     0.0000     8.0000 </r>
       <r>   -20.8277     0.0000     8.0000 </r>
       <r>   -20.6737     0.0000     8.0000 </r>
       <r>   -20.5197     0.0000     8.0000 </r>
       <r>   -20.3657     0.0000     8.0000 </r>
       <r>   -20.2117     0.0000     8.0000 </r>
       <r>   -20.0577     0.0000     8.0000 </r>
       <r>   -19.9036     0.0000     8.0000 </r>
       <r>   -19.7496     0.0000     8.0000 </r>
       <r>   -19.5956     0.0000     8.0000 </r>
       <r>   -19.4416     0.0000     8.0000 </r>
       <r>   -19.2876     0.0000     8.0000 </r>
       <r>   -19.1336     0.0000     8.0000 </r>
       <r>   -18.9795     0.0000     8.0000 </r>
       <r>   -18.8255     0.0000     8.0000 </r>
       <r>   -18.6715     0.0000     8.0000 </r>
       <r>   -18.5175     0.0000     8.0000 </r>
       <r>   -18.3635     0.0000     8.0000 </r>
       <r>   -18.2095     0.0000     8.0000 </r>
       <r>   -18.0554     0.0000     8.0000 </r>
       <r>   -17.9014     0.0000     8.0000 </r>
       <r>   -17.7474     0.0000     8.0000 </r>
       <r>   -17.5934     0.0000     8.0000 </r>
       <r>   -17.4394     0.0000     8.0000 </r>
       <r>   -17.2854     0.0000     8.0000 </r>
       <r>   -17.1313     0.0000     8.0000 </r>
       <r>   -16.9773     0.0000     8.0000 </r>
       <r>   -16.8233     0.0000     8.0000 </r>
       <r>   -16.6693     0.0000     8.0000 </r>
       <r>   -16.5153     0.0000     8.0000 </r>
       <r>   -16.3613     0.0000     8.0000 </r>
       <r>   -16.2072     0.0000     8.0000 </r>
       <r>   -16.0532     0.0000     8.0000 </r>
       <r>   -15.8992     0.0000     8.0000 </r>
       <r>   -15.7452     0.0000     8.0000 </r>
       <r>   -15.5912     0.0000     8.0000 </r>
       <r>   -15.4372     0.0000     8.0000 </r>
       <r>   -15.2831     0.0000     8.0000 </r>
       <r>   -15.1291     0.0000     8.0000 </r>
       <r>   -14.9751     0.0433     8.0067 </r>
       <r>   -14.8211     2.7961     8.4373 </r>
       <r>   -14.6671    13.8413    10.5691 </r>
       <r>   -14.5131     8.1119    11.8185 </r>
       <r>   -14.3590    11.9272    13.6555 </r>
       <r>   -14.2050    10.6472    15.2953 </r>
       <r>   -14.0510    13.3050    17.3445 </r>
       <r>   -13.8970    15.1782    19.6822 </r>
       <r>   -13.7430    14.6750    21.9424 </r>
       <r>   -13.5890    14.4157    24.1627 </r>
       <r>   -13.4349    10.8161    25.8285 </r>
       <r>   -13.2809     2.5510    26.2214 </r>
       <r>   -13.1269    20.1415    29.3235 </r>
       <r>   -12.9729    25.2439    33.2115 </r>
       <r>   -12.8189    39.0154    39.2205 </r>
       <r>   -12.6649    27.4614    43.4500 </r>
       <r>   -12.5108    27.8500    47.7394 </r>
       <r>   -12.3568    13.8317    49.8697 </r>
       <r>   -12.2028     0.8458    50.0000 </r>
       <r>   -12.0488     0.0001    50.0000 </r>
       <r>   -11.8948     0.0000    50.0000 </r>
       <r>   -11.7408     0.0000    50.0000 </r>
       <r>   -11.5867     0.0000    50.0000 </r>
       <r>   -11.4327     0.0000    50.0000 </r>
       <r>   -11.2787     0.0000    50.0000 </r>
       <r>   -11.1247     0.0000    50.0000 </r>
       <r>   -10.9707     0.0000    50.0000 </r>
       <r>   -10.8167     0.0000    50.0000 </r>
       <r>   -10.6626     0.0000    50.0000 </r>
       <r>   -10.5086     0.0000    50.0000 </r>
       <r>   -10.3546     0.0000    50.0000 </r>
       <r>   -10.2006     0.0000    50.0000 </r>
       <r>   -10.0466     0.0000    50.0000 </r>
       <r>    -9.8926     0.0000    50.0000 </r>
       <r>    -9.7385     0.0000    50.0000 </r>
       <r>    -9.5845     0.0000    50.0000 </r>
       <r>    -9.4305     0.0000    50.0000 </r>
       <r>    -9.2765     0.0000    50.0000 </r>
       <r>    -9.1225     0.0000    50.0000 </r>
       <r>    -8.9685     0.0000    50.0000 </r>
       <r>    -8.8144     0.0000    50.0000 </r>
       <r>    -8.6604     0.0000    50.0000 </r>
       <r>    -8.5064     0.0000    50.0000 </r>
       <r>    -8.3524     0.0000    50.0000 </r>
       <r>    -8.1984     0.0000    50.0000 </r>
       <r>    -8.0444     0.0000    50.0000 </r>
       <r>    -7.8903     0.0000    50.0000 </r>
       <r>    -7.7363     0.0000    50.0000 </r>
       <r>    -7.5823     0.0000    50.0000 </r>
       <r>    -7.4283     0.0000    50.0000 </r>
       <r>    -7.2743     0.0000    50.0000 </r>
       <r>    -7.1203     0.0000    50.0000 </r>
       <r>    -6.9662     0.0000    50.0000 </r>
       <r>    -6.8122     0.0000    50.0000 </r>
       <r>    -6.6582     0.0000    50.0000 </r>
       <r>    -6.5042     0.0000    50.0000 </r>
       <r>    -6.3502     0.0000    50.0000 </r>
       <r>    -6.1962     0.0000    50.0000 </r>
       <r>    -6.0421     0.0000    50.0000 </r>
       <r>    -5.8881     0.0000    50.0000 </r>
       <r>    -5.7341     0.0000    50.0000 </r>
       <r>    -5.5801     0.0000    50.0000 </r>
       <r>    -5.4261     0.0000    50.0000 </r>
       <r>    -5.2721     0.0000    50.0000 </r>
       <r>    -5.1180     0.0000    50.0000 </r>
       <r>    -4.9640     0.0000    50.0000 </r>
       <r>    -4.8100     0.0000    50.0000 </r>
       <r>    -4.6560     0.0000    50.0000 </r>
       <r>    -4.5020     0.0000    50.0000 </r>
       <r>    -4.3480     0.0000    50.0000 </r>
       <r>    -4.1939     0.0000    50.0000 </r>
       <r>    -4.0399     0.0000    50.0000 </r>
       <r>    -3.8859     0.0000    50.0000 </r>
       <r>    -3.7319     0.0000    50.0000 </r>
       <r>    -3.5779     0.0000    50.0000 </r>
       <r>    -3.4239     0.0000    50.0000 </r>
       <r>    -3.2698     0.0000    50.0000 </r>
       <r>    -3.1158     0.1556    50.0240 </r>
       <r>    -2.9618     2.1951    50.3621 </r>
       <r>    -2.8078     6.7394    51.4000 </r>
       <r>    -2.6538     7.0044    52.4788 </r>
       <r>    -2.4998     8.0322    53.7159 </r>
       <r>    -2.3457     7.4199    54.8587 </r>
       <r>    -2.1917    12.6959    56.8141 </r>
       <r>    -2.0377    12.2456    58.7001 </r>
       <r>    -1.8837    26.2680    62.7458 </r>
       <r>    -1.7297    22.2903    66.1789 </r>
       <r>    -1.5757    17.3190    68.8463 </r>
       <r>    -1.4216    21.7406    72.1947 </r>
       <r>    -1.2676    26.7991    76.3222 </r>
       <r>    -1.1136    25.3941    80.2333 </r>
       <r>    -0.9596    32.1672    85.1876 </r>
       <r>    -0.8056    19.8308    88.2419 </r>
       <r>    -0.6516    16.3662    90.7626 </r>
       <r>    -0.4975    13.2545    92.8040 </r>
       <r>    -0.3435     7.6884    93.9881 </r>
       <r>    -0.1895     9.9521    95.5209 </r>
       <r>    -0.0355     4.0635    96.1467 </r>
       <r>     0.1185     7.9016    97.3637 </r>
       <r>     0.2725     6.9865    98.4398 </r>
       <r>     0.4266     5.6947    99.3168 </r>
       <r>     0.5806    12.8665   101.2985 </r>
       <r>     0.7346    11.6775   103.0970 </r>
       <r>     0.8886    16.7576   105.6780 </r>
       <r>     1.0426    19.4152   108.6682 </r>
       <r>     1.1966    30.0112   113.2905 </r>
       <r>     1.3507    31.0074   118.0661 </r>
       <r>     1.5047    25.5776   122.0055 </r>
       <r>     1.6587    18.2180   124.8114 </r>
       <r>     1.8127    21.2283   128.0809 </r>
       <r>     1.9667    18.7185   130.9639 </r>
       <r>     2.1207    14.3413   133.1727 </r>
       <r>     2.2748    17.9385   135.9355 </r>
       <r>     2.4288    13.3506   137.9917 </r>
       <r>     2.5828     5.7950   138.8842 </r>
       <r>     2.7368     3.4349   139.4133 </r>
       <r>     2.8908     3.7537   139.9914 </r>
       <r>     3.0448     3.9322   140.5970 </r>
       <r>     3.1989     3.4316   141.1255 </r>
       <r>     3.3529     5.3172   141.9445 </r>
       <r>     3.5069     0.7260   142.0563 </r>
       <r>     3.6609     4.5739   142.7607 </r>
       <r>     3.8149     2.8842   143.2050 </r>
       <r>     3.9689     4.2404   143.8581 </r>
       <r>     4.1230     0.7590   143.9750 </r>
       <r>     4.2770     0.4111   144.0383 </r>
       <r>     4.4310     0.6956   144.1454 </r>
       <r>     4.5850     2.6301   144.5505 </r>
       <r>     4.7390     2.6206   144.9541 </r>
       <r>     4.8930     3.5955   145.5079 </r>
       <r>     5.0471     3.1089   145.9867 </r>
       <r>     5.2011     3.2632   146.4893 </r>
       <r>     5.3551     3.0561   146.9600 </r>
       <r>     5.5091     2.3948   147.3288 </r>
       <r>     5.6631     2.0561   147.6455 </r>
       <r>     5.8171     1.4900   147.8749 </r>
       <r>     5.9712     0.5836   147.9648 </r>
       <r>     6.1252     3.0649   148.4369 </r>
       <r>     6.2792     2.9202   148.8866 </r>
       <r>     6.4332     3.5403   149.4319 </r>
       <r>     6.5872     2.6365   149.8380 </r>
       <r>     6.7412     0.3797   149.8964 </r>
       <r>     6.8953     0.6619   149.9984 </r>
       <r>     7.0493     0.0105   150.0000 </r>
       <r>     7.2033     0.0001   150.0000 </r>
       <r>     7.3573     0.2238   150.0345 </r>
       <r>     7.5113     1.1243   150.2076 </r>
       <r>     7.6653     4.8235   150.9505 </r>
       <r>     7.8194     5.8995   151.8592 </r>
       <r>     7.9734     5.1829   152.6574 </r>
       <r>     8.1274     8.1775   153.9169 </r>
       <r>     8.2814    10.6065   155.5505 </r>
       <r>     8.4354    10.3676   157.1472 </r>
       <r>     8.5894     9.0210   158.5366 </r>
       <r>     8.7435     9.1351   159.9436 </r>
       <r>     8.8975     6.5998   160.9601 </r>
       <r>     9.0515     4.0087   161.5775 </r>
       <r>     9.2055     8.9487   162.9557 </r>
       <r>     9.3595    11.0050   164.6507 </r>
       <r>     9.5135     7.5172   165.8085 </r>
       <r>     9.6676    11.3667   167.5591 </r>
       <r>     9.8216    14.7214   169.8265 </r>
       <r>     9.9756    15.8899   172.2738 </r>
       <r>    10.1296    16.1325   174.7585 </r>
       <r>    10.2836    11.7161   176.5629 </r>
       <r>    10.4376    18.4680   179.4073 </r>
       <r>    10.5917    15.1240   181.7366 </r>
       <r>    10.7457    12.8327   183.7131 </r>
       <r>    10.8997     1.5425   183.9507 </r>
       <r>    11.0537     0.3196   183.9999 </r>
       <r>    11.2077     0.0008   184.0000 </r>
       <r>    11.3617     0.0000   184.0000 </r>
       <r>    11.5158     0.0000   184.0000 </r>
       <r>    11.6698     0.0000   184.0000 </r>
       <r>    11.8238     0.0000   184.0000 </r>
       <r>    11.9778     0.0000   184.0000 </r>
       <r>    12.1318     0.0000   184.0000 </r>
       <r>    12.2858     0.0000   184.0000 </r>
       <r>    12.4399     0.0000   184.0000 </r>
       <r>    12.5939     0.0000   184.0000 </r>
       <r>    12.7479     0.0000   184.0000 </r>
       <r>    12.9019     0.0000   184.0000 </r>
       <r>    13.0559     0.0000   184.0000 </r>
      </set>
     </set>
    </array>
   </total>
  </dos>
 </calculation>
 <structure name="finalpos" >
  <crystal>
   <varray name="basis" >
    <v>      11.31370850       0.00000000       0.00000000 </v>
    <v>       0.00000000       8.00000000       0.00000000 </v>
    <v>       0.00000000       0.00000000       5.65685425 </v>
   </varray>
   <i name="volume">    512.00000000 </i>
   <varray name="rec_basis" >
    <v>       0.08838835       0.00000000       0.00000000 </v>
    <v>       0.00000000       0.12500000       0.00000000 </v>
    <v>       0.00000000       0.00000000       0.17677670 </v>
   </varray>
  </crystal>
  <varray name="positions" >
   <v>       0.25000000       0.75000000       0.00000000 </v>
   <v>       0.50000000       0.25000000       0.50000000 </v>
   <v>       0.25000000       0.25000000       0.00000000 </v>
   <v>       0.00000000       0.25000000       0.50000000 </v>
   <v>       0.75000000       0.25000000       0.00000000 </v>
   <v>       0.00000000       0.75000000       0.50000000 </v>
   <v>       0.75000000       0.75000000       0.00000000 </v>
   <v>       0.50000000       0.75000000       0.50000000 </v>
   <v>       0.25000000       0.50000000       0.50000000 </v>
   <v>       0.50000000       0.00000000       0.00000000 </v>
   <v>       0.25000000       0.00000000       0.50000000 </v>
   <v>       0.00000000       0.00000000       0.00000000 </v>
   <v>       0.75000000       0.00000000       0.50000000 </v>
   <v>       0.00000000       0.50000000       0.00000000 </v>
   <v>       0.75000000       0.50000000       0.50000000 </v>
   <v>       0.50000000       0.50000000       0.00000000 </v>
   <v>       0.12500000       0.50000000       0.25000000 </v>
   <v>       0.37500000       0.00000000       0.75000000 </v>
   <v>       0.12500000       0.00000000       0.25000000 </v>
   <v>       0.12500000       0.50000000       0.75000000 </v>
   <v>       0.37500000       0.00000000       0.25000000 </v>
   <v>       0.12500000       0.00000000       0.75000000 </v>
   <v>       0.37500000       0.50000000       0.25000000 </v>
   <v>       0.50000000       0.25000000       0.00000000 </v>
   <v>       0.00000000       0.25000000       0.00000000 </v>
   <v>       0.62500000       0.00000000       0.25000000 </v>
   <v>       0.87500000       0.50000000       0.75000000 </v>
   <v>       0.62500000       0.50000000       0.25000000 </v>
   <v>       0.62500000       0.00000000       0.75000000 </v>
   <v>       0.87500000       0.50000000       0.25000000 </v>
   <v>       0.62500000       0.50000000       0.75000000 </v>
   <v>       0.87500000       0.00000000       0.25000000 </v>
   <v>       0.00000000       0.75000000       0.00000000 </v>
   <v>       0.50000000       0.75000000       0.00000000 </v>
  </varray>
 </structure>
</modeling>
