<?xml version="1.0" encoding="ISO-8859-1"?>
<modeling>
 <generator>
  <i name="program" type="string">vasp </i>
  <i name="version" type="string">5.3.5  </i>
  <i name="subversion" type="string">31Mar14 (build Jun 20 2014 13:15:13) complex                          parallel </i>
  <i name="platform" type="string">LinuxIFC </i>
  <i name="date" type="string">2025 11 26 </i>
  <i name="time" type="string">20:51:58 </i>
 </generator>
 <incar>
  <i type="string" name="PREC">accurate</i>
  <i type="int" name="IALGO">    68</i>
  <i type="logical" name="ADDGRID"> T  </i>
  <i type="int" name="NELM">   200</i>
  <i type="int" name="NELMIN">     4</i>
  <i type="int" name="IBRION">     2</i>
  <i name="EDIFF">      0.00000100</i>
  <i name="EDIFFG">     -0.02000000</i>
  <i type="int" name="NSW">    30</i>
  <i type="int" name="ISIF">     3</i>
  <i name="ENCUT">    500.00000000</i>
  <i type="logical" name="LREAL"> F  </i>
  <i type="int" name="ISMEAR">     1</i>
  <i name="SIGMA">      0.30000000</i>
  <i type="logical" name="LWAVE"> F  </i>
  <i type="logical" name="LCHARG"> F  </i>
  <i type="int" name="NELM">   200</i>
 </incar>
 <kpoints>
  <generation param="Auto">
   <i name="subdivisionlength">     70.00000000 </i>
   <v type="int" name="divisions">      29       29        6 </v>
   <v name="usershift">      0.00000000       0.00000000       0.00000000 </v>
   <v name="genvec1">      0.03448276       0.00000000       0.00000000 </v>
   <v name="genvec2">      0.00000000       0.03448276       0.00000000 </v>
   <v name="genvec3">      0.00000000       0.00000000       0.16666667 </v>
   <v name="shift">      0.00000000       0.00000000       0.00000000 </v>
  </generation>
  <varray name="kpointlist" >
   <v>       0.00000000       0.00000000       0.00000000 </v>
   <v>       0.03448276       0.00000000       0.00000000 </v>
   <v>       0.06896552       0.00000000       0.00000000 </v>
   <v>       0.10344828       0.00000000       0.00000000 </v>
   <v>       0.13793103       0.00000000       0.00000000 </v>
   <v>       0.17241379       0.00000000       0.00000000 </v>
   <v>       0.20689655       0.00000000       0.00000000 </v>
   <v>       0.24137931       0.00000000       0.00000000 </v>
   <v>       0.27586207       0.00000000       0.00000000 </v>
   <v>       0.31034483       0.00000000       0.00000000 </v>
   <v>       0.34482759       0.00000000       0.00000000 </v>
   <v>       0.37931034       0.00000000       0.00000000 </v>
   <v>       0.41379310       0.00000000       0.00000000 </v>
   <v>       0.44827586       0.00000000       0.00000000 </v>
   <v>       0.48275862       0.00000000       0.00000000 </v>
   <v>       0.00000000       0.03448276       0.00000000 </v>
   <v>       0.03448276       0.03448276       0.00000000 </v>
   <v>       0.06896552       0.03448276       0.00000000 </v>
   <v>       0.10344828       0.03448276       0.00000000 </v>
   <v>       0.13793103       0.03448276       0.00000000 </v>
   <v>       0.17241379       0.03448276       0.00000000 </v>
   <v>       0.20689655       0.03448276       0.00000000 </v>
   <v>       0.24137931       0.03448276       0.00000000 </v>
   <v>       0.27586207       0.03448276       0.00000000 </v>
   <v>       0.31034483       0.03448276       0.00000000 </v>
   <v>       0.34482759       0.03448276       0.00000000 </v>
   <v>       0.37931034       0.03448276       0.00000000 </v>
   <v>       0.41379310       0.03448276       0.00000000 </v>
   <v>       0.44827586       0.03448276       0.00000000 </v>
   <v>       0.48275862       0.03448276       0.00000000 </v>
   <v>       0.00000000       0.06896552       0.00000000 </v>
   <v>       0.03448276       0.06896552       0.00000000 </v>
   <v>       0.06896552       0.06896552       0.00000000 </v>
   <v>       0.10344828       0.06896552       0.00000000 </v>
   <v>       0.13793103       0.06896552       0.00000000 </v>
   <v>       0.17241379       0.06896552       0.00000000 </v>
   <v>       0.20689655       0.06896552       0.00000000 </v>
   <v>       0.24137931       0.06896552       0.00000000 </v>
   <v>       0.27586207       0.06896552       0.00000000 </v>
   <v>       0.31034483       0.06896552       0.00000000 </v>
   <v>       0.34482759       0.06896552       0.00000000 </v>
   <v>       0.37931034       0.06896552       0.00000000 </v>
   <v>       0.41379310       0.06896552       0.00000000 </v>
   <v>       0.44827586       0.06896552       0.00000000 </v>
   <v>      -0.03448276       0.06896552       0.00000000 </v>
   <v>       0.00000000       0.10344828       0.00000000 </v>
   <v>       0.03448276       0.10344828       0.00000000 </v>
   <v>       0.06896552       0.10344828       0.00000000 </v>
   <v>       0.10344828       0.10344828       0.00000000 </v>
   <v>       0.13793103       0.10344828       0.00000000 </v>
   <v>       0.17241379       0.10344828       0.00000000 </v>
   <v>       0.20689655       0.10344828       0.00000000 </v>
   <v>       0.24137931       0.10344828       0.00000000 </v>
   <v>       0.27586207       0.10344828       0.00000000 </v>
   <v>       0.31034483       0.10344828       0.00000000 </v>
   <v>       0.34482759       0.10344828       0.00000000 </v>
   <v>       0.37931034       0.10344828       0.00000000 </v>
   <v>       0.41379310       0.10344828       0.00000000 </v>
   <v>       0.44827586       0.10344828       0.00000000 </v>
   <v>      -0.06896552       0.10344828       0.00000000 </v>
   <v>       0.00000000       0.13793103       0.00000000 </v>
   <v>       0.03448276       0.13793103       0.00000000 </v>
   <v>       0.06896552       0.13793103       0.00000000 </v>
   <v>       0.10344828       0.13793103       0.00000000 </v>
   <v>       0.13793103       0.13793103       0.00000000 </v>
   <v>       0.17241379       0.13793103       0.00000000 </v>
   <v>       0.20689655       0.13793103       0.00000000 </v>
   <v>       0.24137931       0.13793103       0.00000000 </v>
   <v>       0.27586207       0.13793103       0.00000000 </v>
   <v>       0.31034483       0.13793103       0.00000000 </v>
   <v>       0.34482759       0.13793103       0.00000000 </v>
   <v>       0.37931034       0.13793103       0.00000000 </v>
   <v>       0.41379310       0.13793103       0.00000000 </v>
   <v>      -0.10344828       0.13793103       0.00000000 </v>
   <v>      -0.06896552       0.13793103       0.00000000 </v>
   <v>       0.00000000       0.17241379       0.00000000 </v>
   <v>       0.03448276       0.17241379       0.00000000 </v>
   <v>       0.06896552       0.17241379       0.00000000 </v>
   <v>       0.10344828       0.17241379       0.00000000 </v>
   <v>       0.13793103       0.17241379       0.00000000 </v>
   <v>       0.17241379       0.17241379       0.00000000 </v>
   <v>       0.20689655       0.17241379       0.00000000 </v>
   <v>       0.24137931       0.17241379       0.00000000 </v>
   <v>       0.27586207       0.17241379       0.00000000 </v>
   <v>       0.31034483       0.17241379       0.00000000 </v>
   <v>       0.34482759       0.17241379       0.00000000 </v>
   <v>       0.37931034       0.17241379       0.00000000 </v>
   <v>       0.41379310       0.17241379       0.00000000 </v>
   <v>      -0.13793103       0.17241379       0.00000000 </v>
   <v>      -0.10344828       0.17241379       0.00000000 </v>
   <v>       0.00000000       0.20689655       0.00000000 </v>
   <v>       0.03448276       0.20689655       0.00000000 </v>
   <v>       0.06896552       0.20689655       0.00000000 </v>
   <v>       0.10344828       0.20689655       0.00000000 </v>
   <v>       0.13793103       0.20689655       0.00000000 </v>
   <v>       0.17241379       0.20689655       0.00000000 </v>
   <v>       0.20689655       0.20689655       0.00000000 </v>
   <v>       0.24137931       0.20689655       0.00000000 </v>
   <v>       0.27586207       0.20689655       0.00000000 </v>
   <v>       0.31034483       0.20689655       0.00000000 </v>
   <v>       0.34482759       0.20689655       0.00000000 </v>
   <v>       0.37931034       0.20689655       0.00000000 </v>
   <v>      -0.17241379       0.20689655       0.00000000 </v>
   <v>      -0.13793103       0.20689655       0.00000000 </v>
   <v>      -0.10344828       0.20689655       0.00000000 </v>
   <v>       0.00000000       0.24137931       0.00000000 </v>
   <v>       0.03448276       0.24137931       0.00000000 </v>
   <v>       0.06896552       0.24137931       0.00000000 </v>
   <v>       0.10344828       0.24137931       0.00000000 </v>
   <v>       0.13793103       0.24137931       0.00000000 </v>
   <v>       0.17241379       0.24137931       0.00000000 </v>
   <v>       0.20689655       0.24137931       0.00000000 </v>
   <v>       0.24137931       0.24137931       0.00000000 </v>
   <v>       0.27586207       0.24137931       0.00000000 </v>
   <v>       0.31034483       0.24137931       0.00000000 </v>
   <v>       0.34482759       0.24137931       0.00000000 </v>
   <v>       0.37931034       0.24137931       0.00000000 </v>
   <v>      -0.20689655       0.24137931       0.00000000 </v>
   <v>      -0.17241379       0.24137931       0.00000000 </v>
   <v>      -0.13793103       0.24137931       0.00000000 </v>
   <v>       0.00000000       0.27586207       0.00000000 </v>
   <v>       0.03448276       0.27586207       0.00000000 </v>
   <v>       0.06896552       0.27586207       0.00000000 </v>
   <v>       0.10344828       0.27586207       0.00000000 </v>
   <v>       0.13793103       0.27586207       0.00000000 </v>
   <v>       0.17241379       0.27586207       0.00000000 </v>
   <v>       0.20689655       0.27586207       0.00000000 </v>
   <v>       0.24137931       0.27586207       0.00000000 </v>
   <v>       0.27586207       0.27586207       0.00000000 </v>
   <v>       0.31034483       0.27586207       0.00000000 </v>
   <v>       0.34482759       0.27586207       0.00000000 </v>
   <v>      -0.24137931       0.27586207       0.00000000 </v>
   <v>      -0.20689655       0.27586207       0.00000000 </v>
   <v>      -0.17241379       0.27586207       0.00000000 </v>
   <v>      -0.13793103       0.27586207       0.00000000 </v>
   <v>       0.00000000       0.31034483       0.00000000 </v>
   <v>       0.03448276       0.31034483       0.00000000 </v>
   <v>       0.06896552       0.31034483       0.00000000 </v>
   <v>       0.10344828       0.31034483       0.00000000 </v>
   <v>       0.13793103       0.31034483       0.00000000 </v>
   <v>       0.17241379       0.31034483       0.00000000 </v>
   <v>       0.20689655       0.31034483       0.00000000 </v>
   <v>       0.24137931       0.31034483       0.00000000 </v>
   <v>       0.27586207       0.31034483       0.00000000 </v>
   <v>       0.31034483       0.31034483       0.00000000 </v>
   <v>       0.34482759       0.31034483       0.00000000 </v>
   <v>      -0.27586207       0.31034483       0.00000000 </v>
   <v>      -0.24137931       0.31034483       0.00000000 </v>
   <v>      -0.20689655       0.31034483       0.00000000 </v>
   <v>      -0.17241379       0.31034483       0.00000000 </v>
   <v>       0.00000000       0.34482759       0.00000000 </v>
   <v>       0.03448276       0.34482759       0.00000000 </v>
   <v>       0.06896552       0.34482759       0.00000000 </v>
   <v>       0.10344828       0.34482759       0.00000000 </v>
   <v>       0.13793103       0.34482759       0.00000000 </v>
   <v>       0.17241379       0.34482759       0.00000000 </v>
   <v>       0.20689655       0.34482759       0.00000000 </v>
   <v>       0.24137931       0.34482759       0.00000000 </v>
   <v>       0.27586207       0.34482759       0.00000000 </v>
   <v>       0.31034483       0.34482759       0.00000000 </v>
   <v>      -0.31034483       0.34482759       0.00000000 </v>
   <v>      -0.27586207       0.34482759       0.00000000 </v>
   <v>      -0.24137931       0.34482759       0.00000000 </v>
   <v>      -0.20689655       0.34482759       0.00000000 </v>
   <v>      -0.17241379       0.34482759       0.00000000 </v>
   <v>       0.00000000       0.37931034       0.00000000 </v>
   <v>       0.03448276       0.37931034       0.00000000 </v>
   <v>       0.06896552       0.37931034       0.00000000 </v>
   <v>       0.10344828       0.37931034       0.00000000 </v>
   <v>       0.13793103       0.37931034       0.00000000 </v>
   <v>       0.17241379       0.37931034       0.00000000 </v>
   <v>       0.20689655       0.37931034       0.00000000 </v>
   <v>       0.24137931       0.37931034       0.00000000 </v>
   <v>       0.27586207       0.37931034       0.00000000 </v>
   <v>       0.31034483       0.37931034       0.00000000 </v>
   <v>      -0.34482759       0.37931034       0.00000000 </v>
   <v>      -0.31034483       0.37931034       0.00000000 </v>
   <v>      -0.27586207       0.37931034       0.00000000 </v>
   <v>      -0.24137931       0.37931034       0.00000000 </v>
   <v>      -0.20689655       0.37931034       0.00000000 </v>
   <v>       0.00000000       0.41379310       0.00000000 </v>
   <v>       0.03448276       0.41379310       0.00000000 </v>
   <v>       0.06896552       0.41379310       0.00000000 </v>
   <v>       0.10344828       0.41379310       0.00000000 </v>
   <v>       0.13793103       0.41379310       0.00000000 </v>
   <v>       0.17241379       0.41379310       0.00000000 </v>
   <v>       0.20689655       0.41379310       0.00000000 </v>
   <v>       0.24137931       0.41379310       0.00000000 </v>
   <v>       0.27586207       0.41379310       0.00000000 </v>
   <v>      -0.37931034       0.41379310       0.00000000 </v>
   <v>      -0.34482759       0.41379310       0.00000000 </v>
   <v>      -0.31034483       0.41379310       0.00000000 </v>
   <v>      -0.27586207       0.41379310       0.00000000 </v>
   <v>      -0.24137931       0.41379310       0.00000000 </v>
   <v>      -0.20689655       0.41379310       0.00000000 </v>
   <v>       0.00000000       0.44827586       0.00000000 </v>
   <v>       0.03448276       0.44827586       0.00000000 </v>
   <v>       0.06896552       0.44827586       0.00000000 </v>
   <v>       0.10344828       0.44827586       0.00000000 </v>
   <v>       0.13793103       0.44827586       0.00000000 </v>
   <v>       0.17241379       0.44827586       0.00000000 </v>
   <v>       0.20689655       0.44827586       0.00000000 </v>
   <v>       0.24137931       0.44827586       0.00000000 </v>
   <v>       0.27586207       0.44827586       0.00000000 </v>
   <v>      -0.41379310       0.44827586       0.00000000 </v>
   <v>      -0.37931034       0.44827586       0.00000000 </v>
   <v>      -0.34482759       0.44827586       0.00000000 </v>
   <v>      -0.31034483       0.44827586       0.00000000 </v>
   <v>      -0.27586207       0.44827586       0.00000000 </v>
   <v>      -0.24137931       0.44827586       0.00000000 </v>
   <v>       0.00000000       0.48275862       0.00000000 </v>
   <v>       0.03448276       0.48275862       0.00000000 </v>
   <v>       0.06896552       0.48275862       0.00000000 </v>
   <v>       0.10344828       0.48275862       0.00000000 </v>
   <v>       0.13793103       0.48275862       0.00000000 </v>
   <v>       0.17241379       0.48275862       0.00000000 </v>
   <v>       0.20689655       0.48275862       0.00000000 </v>
   <v>       0.24137931       0.48275862       0.00000000 </v>
   <v>      -0.44827586       0.48275862       0.00000000 </v>
   <v>      -0.41379310       0.48275862       0.00000000 </v>
   <v>      -0.37931034       0.48275862       0.00000000 </v>
   <v>      -0.34482759       0.48275862       0.00000000 </v>
   <v>      -0.31034483       0.48275862       0.00000000 </v>
   <v>      -0.27586207       0.48275862       0.00000000 </v>
   <v>      -0.24137931       0.48275862       0.00000000 </v>
   <v>       0.00000000       0.00000000       0.16666667 </v>
   <v>       0.03448276       0.00000000       0.16666667 </v>
   <v>       0.06896552       0.00000000       0.16666667 </v>
   <v>       0.10344828       0.00000000       0.16666667 </v>
   <v>       0.13793103       0.00000000       0.16666667 </v>
   <v>       0.17241379       0.00000000       0.16666667 </v>
   <v>       0.20689655       0.00000000       0.16666667 </v>
   <v>       0.24137931       0.00000000       0.16666667 </v>
   <v>       0.27586207       0.00000000       0.16666667 </v>
   <v>       0.31034483       0.00000000       0.16666667 </v>
   <v>       0.34482759       0.00000000       0.16666667 </v>
   <v>       0.37931034       0.00000000       0.16666667 </v>
   <v>       0.41379310       0.00000000       0.16666667 </v>
   <v>       0.44827586       0.00000000       0.16666667 </v>
   <v>       0.48275862       0.00000000       0.16666667 </v>
   <v>      -0.48275862       0.00000000       0.16666667 </v>
   <v>      -0.44827586       0.00000000       0.16666667 </v>
   <v>      -0.41379310       0.00000000       0.16666667 </v>
   <v>      -0.37931034       0.00000000       0.16666667 </v>
   <v>      -0.34482759       0.00000000       0.16666667 </v>
   <v>      -0.31034483       0.00000000       0.16666667 </v>
   <v>      -0.27586207       0.00000000       0.16666667 </v>
   <v>      -0.24137931       0.00000000       0.16666667 </v>
   <v>      -0.20689655       0.00000000       0.16666667 </v>
   <v>      -0.17241379       0.00000000       0.16666667 </v>
   <v>      -0.13793103       0.00000000       0.16666667 </v>
   <v>      -0.10344828       0.00000000       0.16666667 </v>
   <v>      -0.06896552       0.00000000       0.16666667 </v>
   <v>      -0.03448276       0.00000000       0.16666667 </v>
   <v>       0.00000000       0.03448276       0.16666667 </v>
   <v>       0.03448276       0.03448276       0.16666667 </v>
   <v>       0.06896552       0.03448276       0.16666667 </v>
   <v>       0.10344828       0.03448276       0.16666667 </v>
   <v>       0.13793103       0.03448276       0.16666667 </v>
   <v>       0.17241379       0.03448276       0.16666667 </v>
   <v>       0.20689655       0.03448276       0.16666667 </v>
   <v>       0.24137931       0.03448276       0.16666667 </v>
   <v>       0.27586207       0.03448276       0.16666667 </v>
   <v>       0.31034483       0.03448276       0.16666667 </v>
   <v>       0.34482759       0.03448276       0.16666667 </v>
   <v>       0.37931034       0.03448276       0.16666667 </v>
   <v>       0.41379310       0.03448276       0.16666667 </v>
   <v>       0.44827586       0.03448276       0.16666667 </v>
   <v>       0.48275862       0.03448276       0.16666667 </v>
   <v>      -0.48275862       0.03448276       0.16666667 </v>
   <v>      -0.44827586       0.03448276       0.16666667 </v>
   <v>      -0.41379310       0.03448276       0.16666667 </v>
   <v>      -0.37931034       0.03448276       0.16666667 </v>
   <v>      -0.34482759       0.03448276       0.16666667 </v>
   <v>      -0.31034483       0.03448276       0.16666667 </v>
   <v>      -0.27586207       0.03448276       0.16666667 </v>
   <v>      -0.24137931       0.03448276       0.16666667 </v>
   <v>      -0.20689655       0.03448276       0.16666667 </v>
   <v>      -0.17241379       0.03448276       0.16666667 </v>
   <v>      -0.13793103       0.03448276       0.16666667 </v>
   <v>      -0.10344828       0.03448276       0.16666667 </v>
   <v>      -0.06896552       0.03448276       0.16666667 </v>
   <v>      -0.03448276       0.03448276       0.16666667 </v>
   <v>       0.00000000       0.06896552       0.16666667 </v>
   <v>       0.03448276       0.06896552       0.16666667 </v>
   <v>       0.06896552       0.06896552       0.16666667 </v>
   <v>       0.10344828       0.06896552       0.16666667 </v>
   <v>       0.13793103       0.06896552       0.16666667 </v>
   <v>       0.17241379       0.06896552       0.16666667 </v>
   <v>       0.20689655       0.06896552       0.16666667 </v>
   <v>       0.24137931       0.06896552       0.16666667 </v>
   <v>       0.27586207       0.06896552       0.16666667 </v>
   <v>       0.31034483       0.06896552       0.16666667 </v>
   <v>       0.34482759       0.06896552       0.16666667 </v>
   <v>       0.37931034       0.06896552       0.16666667 </v>
   <v>       0.41379310       0.06896552       0.16666667 </v>
   <v>       0.44827586       0.06896552       0.16666667 </v>
   <v>       0.48275862       0.06896552       0.16666667 </v>
   <v>      -0.48275862       0.06896552       0.16666667 </v>
   <v>      -0.44827586       0.06896552       0.16666667 </v>
   <v>      -0.41379310       0.06896552       0.16666667 </v>
   <v>      -0.37931034       0.06896552       0.16666667 </v>
   <v>      -0.34482759       0.06896552       0.16666667 </v>
   <v>      -0.31034483       0.06896552       0.16666667 </v>
   <v>      -0.27586207       0.06896552       0.16666667 </v>
   <v>      -0.24137931       0.06896552       0.16666667 </v>
   <v>      -0.20689655       0.06896552       0.16666667 </v>
   <v>      -0.17241379       0.06896552       0.16666667 </v>
   <v>      -0.13793103       0.06896552       0.16666667 </v>
   <v>      -0.10344828       0.06896552       0.16666667 </v>
   <v>      -0.06896552       0.06896552       0.16666667 </v>
   <v>      -0.03448276       0.06896552       0.16666667 </v>
   <v>       0.00000000       0.10344828       0.16666667 </v>
   <v>       0.03448276       0.10344828       0.16666667 </v>
   <v>       0.06896552       0.10344828       0.16666667 </v>
   <v>       0.10344828       0.10344828       0.16666667 </v>
   <v>       0.13793103       0.10344828       0.16666667 </v>
   <v>       0.17241379       0.10344828       0.16666667 </v>
   <v>       0.20689655       0.10344828       0.16666667 </v>
   <v>       0.24137931       0.10344828       0.16666667 </v>
   <v>       0.27586207       0.10344828       0.16666667 </v>
   <v>       0.31034483       0.10344828       0.16666667 </v>
   <v>       0.34482759       0.10344828       0.16666667 </v>
   <v>       0.37931034       0.10344828       0.16666667 </v>
   <v>       0.41379310       0.10344828       0.16666667 </v>
   <v>       0.44827586       0.10344828       0.16666667 </v>
   <v>       0.48275862       0.10344828       0.16666667 </v>
   <v>      -0.48275862       0.10344828       0.16666667 </v>
   <v>      -0.44827586       0.10344828       0.16666667 </v>
   <v>      -0.41379310       0.10344828       0.16666667 </v>
   <v>      -0.37931034       0.10344828       0.16666667 </v>
   <v>      -0.34482759       0.10344828       0.16666667 </v>
   <v>      -0.31034483       0.10344828       0.16666667 </v>
   <v>      -0.27586207       0.10344828       0.16666667 </v>
   <v>      -0.24137931       0.10344828       0.16666667 </v>
   <v>      -0.20689655       0.10344828       0.16666667 </v>
   <v>      -0.17241379       0.10344828       0.16666667 </v>
   <v>      -0.13793103       0.10344828       0.16666667 </v>
   <v>      -0.10344828       0.10344828       0.16666667 </v>
   <v>      -0.06896552       0.10344828       0.16666667 </v>
   <v>      -0.03448276       0.10344828       0.16666667 </v>
   <v>       0.00000000       0.13793103       0.16666667 </v>
   <v>       0.03448276       0.13793103       0.16666667 </v>
   <v>       0.06896552       0.13793103       0.16666667 </v>
   <v>       0.10344828       0.13793103       0.16666667 </v>
   <v>       0.13793103       0.13793103       0.16666667 </v>
   <v>       0.17241379       0.13793103       0.16666667 </v>
   <v>       0.20689655       0.13793103       0.16666667 </v>
   <v>       0.24137931       0.13793103       0.16666667 </v>
   <v>       0.27586207       0.13793103       0.16666667 </v>
   <v>       0.31034483       0.13793103       0.16666667 </v>
   <v>       0.34482759       0.13793103       0.16666667 </v>
   <v>       0.37931034       0.13793103       0.16666667 </v>
   <v>       0.41379310       0.13793103       0.16666667 </v>
   <v>       0.44827586       0.13793103       0.16666667 </v>
   <v>       0.48275862       0.13793103       0.16666667 </v>
   <v>      -0.48275862       0.13793103       0.16666667 </v>
   <v>      -0.44827586       0.13793103       0.16666667 </v>
   <v>      -0.41379310       0.13793103       0.16666667 </v>
   <v>      -0.37931034       0.13793103       0.16666667 </v>
   <v>      -0.34482759       0.13793103       0.16666667 </v>
   <v>      -0.31034483       0.13793103       0.16666667 </v>
   <v>      -0.27586207       0.13793103       0.16666667 </v>
   <v>      -0.24137931       0.13793103       0.16666667 </v>
   <v>      -0.20689655       0.13793103       0.16666667 </v>
   <v>      -0.17241379       0.13793103       0.16666667 </v>
   <v>      -0.13793103       0.13793103       0.16666667 </v>
   <v>      -0.10344828       0.13793103       0.16666667 </v>
   <v>      -0.06896552       0.13793103       0.16666667 </v>
   <v>      -0.03448276       0.13793103       0.16666667 </v>
   <v>       0.00000000       0.17241379       0.16666667 </v>
   <v>       0.03448276       0.17241379       0.16666667 </v>
   <v>       0.06896552       0.17241379       0.16666667 </v>
   <v>       0.10344828       0.17241379       0.16666667 </v>
   <v>       0.13793103       0.17241379       0.16666667 </v>
   <v>       0.17241379       0.17241379       0.16666667 </v>
   <v>       0.20689655       0.17241379       0.16666667 </v>
   <v>       0.24137931       0.17241379       0.16666667 </v>
   <v>       0.27586207       0.17241379       0.16666667 </v>
   <v>       0.31034483       0.17241379       0.16666667 </v>
   <v>       0.34482759       0.17241379       0.16666667 </v>
   <v>       0.37931034       0.17241379       0.16666667 </v>
   <v>       0.41379310       0.17241379       0.16666667 </v>
   <v>       0.44827586       0.17241379       0.16666667 </v>
   <v>       0.48275862       0.17241379       0.16666667 </v>
   <v>      -0.48275862       0.17241379       0.16666667 </v>
   <v>      -0.44827586       0.17241379       0.16666667 </v>
   <v>      -0.41379310       0.17241379       0.16666667 </v>
   <v>      -0.37931034       0.17241379       0.16666667 </v>
   <v>      -0.34482759       0.17241379       0.16666667 </v>
   <v>      -0.31034483       0.17241379       0.16666667 </v>
   <v>      -0.27586207       0.17241379       0.16666667 </v>
   <v>      -0.24137931       0.17241379       0.16666667 </v>
   <v>      -0.20689655       0.17241379       0.16666667 </v>
   <v>      -0.17241379       0.17241379       0.16666667 </v>
   <v>      -0.13793103       0.17241379       0.16666667 </v>
   <v>      -0.10344828       0.17241379       0.16666667 </v>
   <v>      -0.06896552       0.17241379       0.16666667 </v>
   <v>      -0.03448276       0.17241379       0.16666667 </v>
   <v>       0.00000000       0.20689655       0.16666667 </v>
   <v>       0.03448276       0.20689655       0.16666667 </v>
   <v>       0.06896552       0.20689655       0.16666667 </v>
   <v>       0.10344828       0.20689655       0.16666667 </v>
   <v>       0.13793103       0.20689655       0.16666667 </v>
   <v>       0.17241379       0.20689655       0.16666667 </v>
   <v>       0.20689655       0.20689655       0.16666667 </v>
   <v>       0.24137931       0.20689655       0.16666667 </v>
   <v>       0.27586207       0.20689655       0.16666667 </v>
   <v>       0.31034483       0.20689655       0.16666667 </v>
   <v>       0.34482759       0.20689655       0.16666667 </v>
   <v>       0.37931034       0.20689655       0.16666667 </v>
   <v>       0.41379310       0.20689655       0.16666667 </v>
   <v>       0.44827586       0.20689655       0.16666667 </v>
   <v>       0.48275862       0.20689655       0.16666667 </v>
   <v>      -0.48275862       0.20689655       0.16666667 </v>
   <v>      -0.44827586       0.20689655       0.16666667 </v>
   <v>      -0.41379310       0.20689655       0.16666667 </v>
   <v>      -0.37931034       0.20689655       0.16666667 </v>
   <v>      -0.34482759       0.20689655       0.16666667 </v>
   <v>      -0.31034483       0.20689655       0.16666667 </v>
   <v>      -0.27586207       0.20689655       0.16666667 </v>
   <v>      -0.24137931       0.20689655       0.16666667 </v>
   <v>      -0.20689655       0.20689655       0.16666667 </v>
   <v>      -0.17241379       0.20689655       0.16666667 </v>
   <v>      -0.13793103       0.20689655       0.16666667 </v>
   <v>      -0.10344828       0.20689655       0.16666667 </v>
   <v>      -0.06896552       0.20689655       0.16666667 </v>
   <v>      -0.03448276       0.20689655       0.16666667 </v>
   <v>       0.00000000       0.24137931       0.16666667 </v>
   <v>       0.03448276       0.24137931       0.16666667 </v>
   <v>       0.06896552       0.24137931       0.16666667 </v>
   <v>       0.10344828       0.24137931       0.16666667 </v>
   <v>       0.13793103       0.24137931       0.16666667 </v>
   <v>       0.17241379       0.24137931       0.16666667 </v>
   <v>       0.20689655       0.24137931       0.16666667 </v>
   <v>       0.24137931       0.24137931       0.16666667 </v>
   <v>       0.27586207       0.24137931       0.16666667 </v>
   <v>       0.31034483       0.24137931       0.16666667 </v>
   <v>       0.34482759       0.24137931       0.16666667 </v>
   <v>       0.37931034       0.24137931       0.16666667 </v>
   <v>       0.41379310       0.24137931       0.16666667 </v>
   <v>       0.44827586       0.24137931       0.16666667 </v>
   <v>       0.48275862       0.24137931       0.16666667 </v>
   <v>      -0.48275862       0.24137931       0.16666667 </v>
   <v>      -0.44827586       0.24137931       0.16666667 </v>
   <v>      -0.41379310       0.24137931       0.16666667 </v>
   <v>      -0.37931034       0.24137931       0.16666667 </v>
   <v>      -0.34482759       0.24137931       0.16666667 </v>
   <v>      -0.31034483       0.24137931       0.16666667 </v>
   <v>      -0.27586207       0.24137931       0.16666667 </v>
   <v>      -0.24137931       0.24137931       0.16666667 </v>
   <v>      -0.20689655       0.24137931       0.16666667 </v>
   <v>      -0.17241379       0.24137931       0.16666667 </v>
   <v>      -0.13793103       0.24137931       0.16666667 </v>
   <v>      -0.10344828       0.24137931       0.16666667 </v>
   <v>      -0.06896552       0.24137931       0.16666667 </v>
   <v>      -0.03448276       0.24137931       0.16666667 </v>
   <v>       0.00000000       0.27586207       0.16666667 </v>
   <v>       0.03448276       0.27586207       0.16666667 </v>
   <v>       0.06896552       0.27586207       0.16666667 </v>
   <v>       0.10344828       0.27586207       0.16666667 </v>
   <v>       0.13793103       0.27586207       0.16666667 </v>
   <v>       0.17241379       0.27586207       0.16666667 </v>
   <v>       0.20689655       0.27586207       0.16666667 </v>
   <v>       0.24137931       0.27586207       0.16666667 </v>
   <v>       0.27586207       0.27586207       0.16666667 </v>
   <v>       0.31034483       0.27586207       0.16666667 </v>
   <v>       0.34482759       0.27586207       0.16666667 </v>
   <v>       0.37931034       0.27586207       0.16666667 </v>
   <v>       0.41379310       0.27586207       0.16666667 </v>
   <v>       0.44827586       0.27586207       0.16666667 </v>
   <v>       0.48275862       0.27586207       0.16666667 </v>
   <v>      -0.48275862       0.27586207       0.16666667 </v>
   <v>      -0.44827586       0.27586207       0.16666667 </v>
   <v>      -0.41379310       0.27586207       0.16666667 </v>
   <v>      -0.37931034       0.27586207       0.16666667 </v>
   <v>      -0.34482759       0.27586207       0.16666667 </v>
   <v>      -0.31034483       0.27586207       0.16666667 </v>
   <v>      -0.27586207       0.27586207       0.16666667 </v>
   <v>      -0.24137931       0.27586207       0.16666667 </v>
   <v>      -0.20689655       0.27586207       0.16666667 </v>
   <v>      -0.17241379       0.27586207       0.16666667 </v>
   <v>      -0.13793103       0.27586207       0.16666667 </v>
   <v>      -0.10344828       0.27586207       0.16666667 </v>
   <v>      -0.06896552       0.27586207       0.16666667 </v>
   <v>      -0.03448276       0.27586207       0.16666667 </v>
   <v>       0.00000000       0.31034483       0.16666667 </v>
   <v>       0.03448276       0.31034483       0.16666667 </v>
   <v>       0.06896552       0.31034483       0.16666667 </v>
   <v>       0.10344828       0.31034483       0.16666667 </v>
   <v>       0.13793103       0.31034483       0.16666667 </v>
   <v>       0.17241379       0.31034483       0.16666667 </v>
   <v>       0.20689655       0.31034483       0.16666667 </v>
   <v>       0.24137931       0.31034483       0.16666667 </v>
   <v>       0.27586207       0.31034483       0.16666667 </v>
   <v>       0.31034483       0.31034483       0.16666667 </v>
   <v>       0.34482759       0.31034483       0.16666667 </v>
   <v>       0.37931034       0.31034483       0.16666667 </v>
   <v>       0.41379310       0.31034483       0.16666667 </v>
   <v>       0.44827586       0.31034483       0.16666667 </v>
   <v>       0.48275862       0.31034483       0.16666667 </v>
   <v>      -0.48275862       0.31034483       0.16666667 </v>
   <v>      -0.44827586       0.31034483       0.16666667 </v>
   <v>      -0.41379310       0.31034483       0.16666667 </v>
   <v>      -0.37931034       0.31034483       0.16666667 </v>
   <v>      -0.34482759       0.31034483       0.16666667 </v>
   <v>      -0.31034483       0.31034483       0.16666667 </v>
   <v>      -0.27586207       0.31034483       0.16666667 </v>
   <v>      -0.24137931       0.31034483       0.16666667 </v>
   <v>      -0.20689655       0.31034483       0.16666667 </v>
   <v>      -0.17241379       0.31034483       0.16666667 </v>
   <v>      -0.13793103       0.31034483       0.16666667 </v>
   <v>      -0.10344828       0.31034483       0.16666667 </v>
   <v>      -0.06896552       0.31034483       0.16666667 </v>
   <v>      -0.03448276       0.31034483       0.16666667 </v>
   <v>       0.00000000       0.34482759       0.16666667 </v>
   <v>       0.03448276       0.34482759       0.16666667 </v>
   <v>       0.06896552       0.34482759       0.16666667 </v>
   <v>       0.10344828       0.34482759       0.16666667 </v>
   <v>       0.13793103       0.34482759       0.16666667 </v>
   <v>       0.17241379       0.34482759       0.16666667 </v>
   <v>       0.20689655       0.34482759       0.16666667 </v>
   <v>       0.24137931       0.34482759       0.16666667 </v>
   <v>       0.27586207       0.34482759       0.16666667 </v>
   <v>       0.31034483       0.34482759       0.16666667 </v>
   <v>       0.34482759       0.34482759       0.16666667 </v>
   <v>       0.37931034       0.34482759       0.16666667 </v>
   <v>       0.41379310       0.34482759       0.16666667 </v>
   <v>       0.44827586       0.34482759       0.16666667 </v>
   <v>       0.48275862       0.34482759       0.16666667 </v>
   <v>      -0.48275862       0.34482759       0.16666667 </v>
   <v>      -0.44827586       0.34482759       0.16666667 </v>
   <v>      -0.41379310       0.34482759       0.16666667 </v>
   <v>      -0.37931034       0.34482759       0.16666667 </v>
   <v>      -0.34482759       0.34482759       0.16666667 </v>
   <v>      -0.31034483       0.34482759       0.16666667 </v>
   <v>      -0.27586207       0.34482759       0.16666667 </v>
   <v>      -0.24137931       0.34482759       0.16666667 </v>
   <v>      -0.20689655       0.34482759       0.16666667 </v>
   <v>      -0.17241379       0.34482759       0.16666667 </v>
   <v>      -0.13793103       0.34482759       0.16666667 </v>
   <v>      -0.10344828       0.34482759       0.16666667 </v>
   <v>      -0.06896552       0.34482759       0.16666667 </v>
   <v>      -0.03448276       0.34482759       0.16666667 </v>
   <v>       0.00000000       0.37931034       0.16666667 </v>
   <v>       0.03448276       0.37931034       0.16666667 </v>
   <v>       0.06896552       0.37931034       0.16666667 </v>
   <v>       0.10344828       0.37931034       0.16666667 </v>
   <v>       0.13793103       0.37931034       0.16666667 </v>
   <v>       0.17241379       0.37931034       0.16666667 </v>
   <v>       0.20689655       0.37931034       0.16666667 </v>
   <v>       0.24137931       0.37931034       0.16666667 </v>
   <v>       0.27586207       0.37931034       0.16666667 </v>
   <v>       0.31034483       0.37931034       0.16666667 </v>
   <v>       0.34482759       0.37931034       0.16666667 </v>
   <v>       0.37931034       0.37931034       0.16666667 </v>
   <v>       0.41379310       0.37931034       0.16666667 </v>
   <v>       0.44827586       0.37931034       0.16666667 </v>
   <v>       0.48275862       0.37931034       0.16666667 </v>
   <v>      -0.48275862       0.37931034       0.16666667 </v>
   <v>      -0.44827586       0.37931034       0.16666667 </v>
   <v>      -0.41379310       0.37931034       0.16666667 </v>
   <v>      -0.37931034       0.37931034       0.16666667 </v>
   <v>      -0.34482759       0.37931034       0.16666667 </v>
   <v>      -0.31034483       0.37931034       0.16666667 </v>
   <v>      -0.27586207       0.37931034       0.16666667 </v>
   <v>      -0.24137931       0.37931034       0.16666667 </v>
   <v>      -0.20689655       0.37931034       0.16666667 </v>
   <v>      -0.17241379       0.37931034       0.16666667 </v>
   <v>      -0.13793103       0.37931034       0.16666667 </v>
   <v>      -0.10344828       0.37931034       0.16666667 </v>
   <v>      -0.06896552       0.37931034       0.16666667 </v>
   <v>      -0.03448276       0.37931034       0.16666667 </v>
   <v>       0.00000000       0.41379310       0.16666667 </v>
   <v>       0.03448276       0.41379310       0.16666667 </v>
   <v>       0.06896552       0.41379310       0.16666667 </v>
   <v>       0.10344828       0.41379310       0.16666667 </v>
   <v>       0.13793103       0.41379310       0.16666667 </v>
   <v>       0.17241379       0.41379310       0.16666667 </v>
   <v>       0.20689655       0.41379310       0.16666667 </v>
   <v>       0.24137931       0.41379310       0.16666667 </v>
   <v>       0.27586207       0.41379310       0.16666667 </v>
   <v>       0.31034483       0.41379310       0.16666667 </v>
   <v>       0.34482759       0.41379310       0.16666667 </v>
   <v>       0.37931034       0.41379310       0.16666667 </v>
   <v>       0.41379310       0.41379310       0.16666667 </v>
   <v>       0.44827586       0.41379310       0.16666667 </v>
   <v>       0.48275862       0.41379310       0.16666667 </v>
   <v>      -0.48275862       0.41379310       0.16666667 </v>
   <v>      -0.44827586       0.41379310       0.16666667 </v>
   <v>      -0.41379310       0.41379310       0.16666667 </v>
   <v>      -0.37931034       0.41379310       0.16666667 </v>
   <v>      -0.34482759       0.41379310       0.16666667 </v>
   <v>      -0.31034483       0.41379310       0.16666667 </v>
   <v>      -0.27586207       0.41379310       0.16666667 </v>
   <v>      -0.24137931       0.41379310       0.16666667 </v>
   <v>      -0.20689655       0.41379310       0.16666667 </v>
   <v>      -0.17241379       0.41379310       0.16666667 </v>
   <v>      -0.13793103       0.41379310       0.16666667 </v>
   <v>      -0.10344828       0.41379310       0.16666667 </v>
   <v>      -0.06896552       0.41379310       0.16666667 </v>
   <v>      -0.03448276       0.41379310       0.16666667 </v>
   <v>       0.00000000       0.44827586       0.16666667 </v>
   <v>       0.03448276       0.44827586       0.16666667 </v>
   <v>       0.06896552       0.44827586       0.16666667 </v>
   <v>       0.10344828       0.44827586       0.16666667 </v>
   <v>       0.13793103       0.44827586       0.16666667 </v>
   <v>       0.17241379       0.44827586       0.16666667 </v>
   <v>       0.20689655       0.44827586       0.16666667 </v>
   <v>       0.24137931       0.44827586       0.16666667 </v>
   <v>       0.27586207       0.44827586       0.16666667 </v>
   <v>       0.31034483       0.44827586       0.16666667 </v>
   <v>       0.34482759       0.44827586       0.16666667 </v>
   <v>       0.37931034       0.44827586       0.16666667 </v>
   <v>       0.41379310       0.44827586       0.16666667 </v>
   <v>       0.44827586       0.44827586       0.16666667 </v>
   <v>       0.48275862       0.44827586       0.16666667 </v>
   <v>      -0.48275862       0.44827586       0.16666667 </v>
   <v>      -0.44827586       0.44827586       0.16666667 </v>
   <v>      -0.41379310       0.44827586       0.16666667 </v>
   <v>      -0.37931034       0.44827586       0.16666667 </v>
   <v>      -0.34482759       0.44827586       0.16666667 </v>
   <v>      -0.31034483       0.44827586       0.16666667 </v>
   <v>      -0.27586207       0.44827586       0.16666667 </v>
   <v>      -0.24137931       0.44827586       0.16666667 </v>
   <v>      -0.20689655       0.44827586       0.16666667 </v>
   <v>      -0.17241379       0.44827586       0.16666667 </v>
   <v>      -0.13793103       0.44827586       0.16666667 </v>
   <v>      -0.10344828       0.44827586       0.16666667 </v>
   <v>      -0.06896552       0.44827586       0.16666667 </v>
   <v>      -0.03448276       0.44827586       0.16666667 </v>
   <v>       0.00000000       0.48275862       0.16666667 </v>
   <v>       0.03448276       0.48275862       0.16666667 </v>
   <v>       0.06896552       0.48275862       0.16666667 </v>
   <v>       0.10344828       0.48275862       0.16666667 </v>
   <v>       0.13793103       0.48275862       0.16666667 </v>
   <v>       0.17241379       0.48275862       0.16666667 </v>
   <v>       0.20689655       0.48275862       0.16666667 </v>
   <v>       0.24137931       0.48275862       0.16666667 </v>
   <v>       0.27586207       0.48275862       0.16666667 </v>
   <v>       0.31034483       0.48275862       0.16666667 </v>
   <v>       0.34482759       0.48275862       0.16666667 </v>
   <v>       0.37931034       0.48275862       0.16666667 </v>
   <v>       0.41379310       0.48275862       0.16666667 </v>
   <v>       0.44827586       0.48275862       0.16666667 </v>
   <v>       0.48275862       0.48275862       0.16666667 </v>
   <v>      -0.48275862       0.48275862       0.16666667 </v>
   <v>      -0.44827586       0.48275862       0.16666667 </v>
   <v>      -0.41379310       0.48275862       0.16666667 </v>
   <v>      -0.37931034       0.48275862       0.16666667 </v>
   <v>      -0.34482759       0.48275862       0.16666667 </v>
   <v>      -0.31034483       0.48275862       0.16666667 </v>
   <v>      -0.27586207       0.48275862       0.16666667 </v>
   <v>      -0.24137931       0.48275862       0.16666667 </v>
   <v>      -0.20689655       0.48275862       0.16666667 </v>
   <v>      -0.17241379       0.48275862       0.16666667 </v>
   <v>      -0.13793103       0.48275862       0.16666667 </v>
   <v>      -0.10344828       0.48275862       0.16666667 </v>
   <v>      -0.06896552       0.48275862       0.16666667 </v>
   <v>      -0.03448276       0.48275862       0.16666667 </v>
   <v>       0.00000000       0.00000000       0.33333333 </v>
   <v>       0.03448276       0.00000000       0.33333333 </v>
   <v>       0.06896552       0.00000000       0.33333333 </v>
   <v>       0.10344828       0.00000000       0.33333333 </v>
   <v>       0.13793103       0.00000000       0.33333333 </v>
   <v>       0.17241379       0.00000000       0.33333333 </v>
   <v>       0.20689655       0.00000000       0.33333333 </v>
   <v>       0.24137931       0.00000000       0.33333333 </v>
   <v>       0.27586207       0.00000000       0.33333333 </v>
   <v>       0.31034483       0.00000000       0.33333333 </v>
   <v>       0.34482759       0.00000000       0.33333333 </v>
   <v>       0.37931034       0.00000000       0.33333333 </v>
   <v>       0.41379310       0.00000000       0.33333333 </v>
   <v>       0.44827586       0.00000000       0.33333333 </v>
   <v>       0.48275862       0.00000000       0.33333333 </v>
   <v>      -0.48275862       0.00000000       0.33333333 </v>
   <v>      -0.44827586       0.00000000       0.33333333 </v>
   <v>      -0.41379310       0.00000000       0.33333333 </v>
   <v>      -0.37931034       0.00000000       0.33333333 </v>
   <v>      -0.34482759       0.00000000       0.33333333 </v>
   <v>      -0.31034483       0.00000000       0.33333333 </v>
   <v>      -0.27586207       0.00000000       0.33333333 </v>
   <v>      -0.24137931       0.00000000       0.33333333 </v>
   <v>      -0.20689655       0.00000000       0.33333333 </v>
   <v>      -0.17241379       0.00000000       0.33333333 </v>
   <v>      -0.13793103       0.00000000       0.33333333 </v>
   <v>      -0.10344828       0.00000000       0.33333333 </v>
   <v>      -0.06896552       0.00000000       0.33333333 </v>
   <v>      -0.03448276       0.00000000       0.33333333 </v>
   <v>       0.00000000       0.03448276       0.33333333 </v>
   <v>       0.03448276       0.03448276       0.33333333 </v>
   <v>       0.06896552       0.03448276       0.33333333 </v>
   <v>       0.10344828       0.03448276       0.33333333 </v>
   <v>       0.13793103       0.03448276       0.33333333 </v>
   <v>       0.17241379       0.03448276       0.33333333 </v>
   <v>       0.20689655       0.03448276       0.33333333 </v>
   <v>       0.24137931       0.03448276       0.33333333 </v>
   <v>       0.27586207       0.03448276       0.33333333 </v>
   <v>       0.31034483       0.03448276       0.33333333 </v>
   <v>       0.34482759       0.03448276       0.33333333 </v>
   <v>       0.37931034       0.03448276       0.33333333 </v>
   <v>       0.41379310       0.03448276       0.33333333 </v>
   <v>       0.44827586       0.03448276       0.33333333 </v>
   <v>       0.48275862       0.03448276       0.33333333 </v>
   <v>      -0.48275862       0.03448276       0.33333333 </v>
   <v>      -0.44827586       0.03448276       0.33333333 </v>
   <v>      -0.41379310       0.03448276       0.33333333 </v>
   <v>      -0.37931034       0.03448276       0.33333333 </v>
   <v>      -0.34482759       0.03448276       0.33333333 </v>
   <v>      -0.31034483       0.03448276       0.33333333 </v>
   <v>      -0.27586207       0.03448276       0.33333333 </v>
   <v>      -0.24137931       0.03448276       0.33333333 </v>
   <v>      -0.20689655       0.03448276       0.33333333 </v>
   <v>      -0.17241379       0.03448276       0.33333333 </v>
   <v>      -0.13793103       0.03448276       0.33333333 </v>
   <v>      -0.10344828       0.03448276       0.33333333 </v>
   <v>      -0.06896552       0.03448276       0.33333333 </v>
   <v>      -0.03448276       0.03448276       0.33333333 </v>
   <v>       0.00000000       0.06896552       0.33333333 </v>
   <v>       0.03448276       0.06896552       0.33333333 </v>
   <v>       0.06896552       0.06896552       0.33333333 </v>
   <v>       0.10344828       0.06896552       0.33333333 </v>
   <v>       0.13793103       0.06896552       0.33333333 </v>
   <v>       0.17241379       0.06896552       0.33333333 </v>
   <v>       0.20689655       0.06896552       0.33333333 </v>
   <v>       0.24137931       0.06896552       0.33333333 </v>
   <v>       0.27586207       0.06896552       0.33333333 </v>
   <v>       0.31034483       0.06896552       0.33333333 </v>
   <v>       0.34482759       0.06896552       0.33333333 </v>
   <v>       0.37931034       0.06896552       0.33333333 </v>
   <v>       0.41379310       0.06896552       0.33333333 </v>
   <v>       0.44827586       0.06896552       0.33333333 </v>
   <v>       0.48275862       0.06896552       0.33333333 </v>
   <v>      -0.48275862       0.06896552       0.33333333 </v>
   <v>      -0.44827586       0.06896552       0.33333333 </v>
   <v>      -0.41379310       0.06896552       0.33333333 </v>
   <v>      -0.37931034       0.06896552       0.33333333 </v>
   <v>      -0.34482759       0.06896552       0.33333333 </v>
   <v>      -0.31034483       0.06896552       0.33333333 </v>
   <v>      -0.27586207       0.06896552       0.33333333 </v>
   <v>      -0.24137931       0.06896552       0.33333333 </v>
   <v>      -0.20689655       0.06896552       0.33333333 </v>
   <v>      -0.17241379       0.06896552       0.33333333 </v>
   <v>      -0.13793103       0.06896552       0.33333333 </v>
   <v>      -0.10344828       0.06896552       0.33333333 </v>
   <v>      -0.06896552       0.06896552       0.33333333 </v>
   <v>      -0.03448276       0.06896552       0.33333333 </v>
   <v>       0.00000000       0.10344828       0.33333333 </v>
   <v>       0.03448276       0.10344828       0.33333333 </v>
   <v>       0.06896552       0.10344828       0.33333333 </v>
   <v>       0.10344828       0.10344828       0.33333333 </v>
   <v>       0.13793103       0.10344828       0.33333333 </v>
   <v>       0.17241379       0.10344828       0.33333333 </v>
   <v>       0.20689655       0.10344828       0.33333333 </v>
   <v>       0.24137931       0.10344828       0.33333333 </v>
   <v>       0.27586207       0.10344828       0.33333333 </v>
   <v>       0.31034483       0.10344828       0.33333333 </v>
   <v>       0.34482759       0.10344828       0.33333333 </v>
   <v>       0.37931034       0.10344828       0.33333333 </v>
   <v>       0.41379310       0.10344828       0.33333333 </v>
   <v>       0.44827586       0.10344828       0.33333333 </v>
   <v>       0.48275862       0.10344828       0.33333333 </v>
   <v>      -0.48275862       0.10344828       0.33333333 </v>
   <v>      -0.44827586       0.10344828       0.33333333 </v>
   <v>      -0.41379310       0.10344828       0.33333333 </v>
   <v>      -0.37931034       0.10344828       0.33333333 </v>
   <v>      -0.34482759       0.10344828       0.33333333 </v>
   <v>      -0.31034483       0.10344828       0.33333333 </v>
   <v>      -0.27586207       0.10344828       0.33333333 </v>
   <v>      -0.24137931       0.10344828       0.33333333 </v>
   <v>      -0.20689655       0.10344828       0.33333333 </v>
   <v>      -0.17241379       0.10344828       0.33333333 </v>
   <v>      -0.13793103       0.10344828       0.33333333 </v>
   <v>      -0.10344828       0.10344828       0.33333333 </v>
   <v>      -0.06896552       0.10344828       0.33333333 </v>
   <v>      -0.03448276       0.10344828       0.33333333 </v>
   <v>       0.00000000       0.13793103       0.33333333 </v>
   <v>       0.03448276       0.13793103       0.33333333 </v>
   <v>       0.06896552       0.13793103       0.33333333 </v>
   <v>       0.10344828       0.13793103       0.33333333 </v>
   <v>       0.13793103       0.13793103       0.33333333 </v>
   <v>       0.17241379       0.13793103       0.33333333 </v>
   <v>       0.20689655       0.13793103       0.33333333 </v>
   <v>       0.24137931       0.13793103       0.33333333 </v>
   <v>       0.27586207       0.13793103       0.33333333 </v>
   <v>       0.31034483       0.13793103       0.33333333 </v>
   <v>       0.34482759       0.13793103       0.33333333 </v>
   <v>       0.37931034       0.13793103       0.33333333 </v>
   <v>       0.41379310       0.13793103       0.33333333 </v>
   <v>       0.44827586       0.13793103       0.33333333 </v>
   <v>       0.48275862       0.13793103       0.33333333 </v>
   <v>      -0.48275862       0.13793103       0.33333333 </v>
   <v>      -0.44827586       0.13793103       0.33333333 </v>
   <v>      -0.41379310       0.13793103       0.33333333 </v>
   <v>      -0.37931034       0.13793103       0.33333333 </v>
   <v>      -0.34482759       0.13793103       0.33333333 </v>
   <v>      -0.31034483       0.13793103       0.33333333 </v>
   <v>      -0.27586207       0.13793103       0.33333333 </v>
   <v>      -0.24137931       0.13793103       0.33333333 </v>
   <v>      -0.20689655       0.13793103       0.33333333 </v>
   <v>      -0.17241379       0.13793103       0.33333333 </v>
   <v>      -0.13793103       0.13793103       0.33333333 </v>
   <v>      -0.10344828       0.13793103       0.33333333 </v>
   <v>      -0.06896552       0.13793103       0.33333333 </v>
   <v>      -0.03448276       0.13793103       0.33333333 </v>
   <v>       0.00000000       0.17241379       0.33333333 </v>
   <v>       0.03448276       0.17241379       0.33333333 </v>
   <v>       0.06896552       0.17241379       0.33333333 </v>
   <v>       0.10344828       0.17241379       0.33333333 </v>
   <v>       0.13793103       0.17241379       0.33333333 </v>
   <v>       0.17241379       0.17241379       0.33333333 </v>
   <v>       0.20689655       0.17241379       0.33333333 </v>
   <v>       0.24137931       0.17241379       0.33333333 </v>
   <v>       0.27586207       0.17241379       0.33333333 </v>
   <v>       0.31034483       0.17241379       0.33333333 </v>
   <v>       0.34482759       0.17241379       0.33333333 </v>
   <v>       0.37931034       0.17241379       0.33333333 </v>
   <v>       0.41379310       0.17241379       0.33333333 </v>
   <v>       0.44827586       0.17241379       0.33333333 </v>
   <v>       0.48275862       0.17241379       0.33333333 </v>
   <v>      -0.48275862       0.17241379       0.33333333 </v>
   <v>      -0.44827586       0.17241379       0.33333333 </v>
   <v>      -0.41379310       0.17241379       0.33333333 </v>
   <v>      -0.37931034       0.17241379       0.33333333 </v>
   <v>      -0.34482759       0.17241379       0.33333333 </v>
   <v>      -0.31034483       0.17241379       0.33333333 </v>
   <v>      -0.27586207       0.17241379       0.33333333 </v>
   <v>      -0.24137931       0.17241379       0.33333333 </v>
   <v>      -0.20689655       0.17241379       0.33333333 </v>
   <v>      -0.17241379       0.17241379       0.33333333 </v>
   <v>      -0.13793103       0.17241379       0.33333333 </v>
   <v>      -0.10344828       0.17241379       0.33333333 </v>
   <v>      -0.06896552       0.17241379       0.33333333 </v>
   <v>      -0.03448276       0.17241379       0.33333333 </v>
   <v>       0.00000000       0.20689655       0.33333333 </v>
   <v>       0.03448276       0.20689655       0.33333333 </v>
   <v>       0.06896552       0.20689655       0.33333333 </v>
   <v>       0.10344828       0.20689655       0.33333333 </v>
   <v>       0.13793103       0.20689655       0.33333333 </v>
   <v>       0.17241379       0.20689655       0.33333333 </v>
   <v>       0.20689655       0.20689655       0.33333333 </v>
   <v>       0.24137931       0.20689655       0.33333333 </v>
   <v>       0.27586207       0.20689655       0.33333333 </v>
   <v>       0.31034483       0.20689655       0.33333333 </v>
   <v>       0.34482759       0.20689655       0.33333333 </v>
   <v>       0.37931034       0.20689655       0.33333333 </v>
   <v>       0.41379310       0.20689655       0.33333333 </v>
   <v>       0.44827586       0.20689655       0.33333333 </v>
   <v>       0.48275862       0.20689655       0.33333333 </v>
   <v>      -0.48275862       0.20689655       0.33333333 </v>
   <v>      -0.44827586       0.20689655       0.33333333 </v>
   <v>      -0.41379310       0.20689655       0.33333333 </v>
   <v>      -0.37931034       0.20689655       0.33333333 </v>
   <v>      -0.34482759       0.20689655       0.33333333 </v>
   <v>      -0.31034483       0.20689655       0.33333333 </v>
   <v>      -0.27586207       0.20689655       0.33333333 </v>
   <v>      -0.24137931       0.20689655       0.33333333 </v>
   <v>      -0.20689655       0.20689655       0.33333333 </v>
   <v>      -0.17241379       0.20689655       0.33333333 </v>
   <v>      -0.13793103       0.20689655       0.33333333 </v>
   <v>      -0.10344828       0.20689655       0.33333333 </v>
   <v>      -0.06896552       0.20689655       0.33333333 </v>
   <v>      -0.03448276       0.20689655       0.33333333 </v>
   <v>       0.00000000       0.24137931       0.33333333 </v>
   <v>       0.03448276       0.24137931       0.33333333 </v>
   <v>       0.06896552       0.24137931       0.33333333 </v>
   <v>       0.10344828       0.24137931       0.33333333 </v>
   <v>       0.13793103       0.24137931       0.33333333 </v>
   <v>       0.17241379       0.24137931       0.33333333 </v>
   <v>       0.20689655       0.24137931       0.33333333 </v>
   <v>       0.24137931       0.24137931       0.33333333 </v>
   <v>       0.27586207       0.24137931       0.33333333 </v>
   <v>       0.31034483       0.24137931       0.33333333 </v>
   <v>       0.34482759       0.24137931       0.33333333 </v>
   <v>       0.37931034       0.24137931       0.33333333 </v>
   <v>       0.41379310       0.24137931       0.33333333 </v>
   <v>       0.44827586       0.24137931       0.33333333 </v>
   <v>       0.48275862       0.24137931       0.33333333 </v>
   <v>      -0.48275862       0.24137931       0.33333333 </v>
   <v>      -0.44827586       0.24137931       0.33333333 </v>
   <v>      -0.41379310       0.24137931       0.33333333 </v>
   <v>      -0.37931034       0.24137931       0.33333333 </v>
   <v>      -0.34482759       0.24137931       0.33333333 </v>
   <v>      -0.31034483       0.24137931       0.33333333 </v>
   <v>      -0.27586207       0.24137931       0.33333333 </v>
   <v>      -0.24137931       0.24137931       0.33333333 </v>
   <v>      -0.20689655       0.24137931       0.33333333 </v>
   <v>      -0.17241379       0.24137931       0.33333333 </v>
   <v>      -0.13793103       0.24137931       0.33333333 </v>
   <v>      -0.10344828       0.24137931       0.33333333 </v>
   <v>      -0.06896552       0.24137931       0.33333333 </v>
   <v>      -0.03448276       0.24137931       0.33333333 </v>
   <v>       0.00000000       0.27586207       0.33333333 </v>
   <v>       0.03448276       0.27586207       0.33333333 </v>
   <v>       0.06896552       0.27586207       0.33333333 </v>
   <v>       0.10344828       0.27586207       0.33333333 </v>
   <v>       0.13793103       0.27586207       0.33333333 </v>
   <v>       0.17241379       0.27586207       0.33333333 </v>
   <v>       0.20689655       0.27586207       0.33333333 </v>
   <v>       0.24137931       0.27586207       0.33333333 </v>
   <v>       0.27586207       0.27586207       0.33333333 </v>
   <v>       0.31034483       0.27586207       0.33333333 </v>
   <v>       0.34482759       0.27586207       0.33333333 </v>
   <v>       0.37931034       0.27586207       0.33333333 </v>
   <v>       0.41379310       0.27586207       0.33333333 </v>
   <v>       0.44827586       0.27586207       0.33333333 </v>
   <v>       0.48275862       0.27586207       0.33333333 </v>
   <v>      -0.48275862       0.27586207       0.33333333 </v>
   <v>      -0.44827586       0.27586207       0.33333333 </v>
   <v>      -0.41379310       0.27586207       0.33333333 </v>
   <v>      -0.37931034       0.27586207       0.33333333 </v>
   <v>      -0.34482759       0.27586207       0.33333333 </v>
   <v>      -0.31034483       0.27586207       0.33333333 </v>
   <v>      -0.27586207       0.27586207       0.33333333 </v>
   <v>      -0.24137931       0.27586207       0.33333333 </v>
   <v>      -0.20689655       0.27586207       0.33333333 </v>
   <v>      -0.17241379       0.27586207       0.33333333 </v>
   <v>      -0.13793103       0.27586207       0.33333333 </v>
   <v>      -0.10344828       0.27586207       0.33333333 </v>
   <v>      -0.06896552       0.27586207       0.33333333 </v>
   <v>      -0.03448276       0.27586207       0.33333333 </v>
   <v>       0.00000000       0.31034483       0.33333333 </v>
   <v>       0.03448276       0.31034483       0.33333333 </v>
   <v>       0.06896552       0.31034483       0.33333333 </v>
   <v>       0.10344828       0.31034483       0.33333333 </v>
   <v>       0.13793103       0.31034483       0.33333333 </v>
   <v>       0.17241379       0.31034483       0.33333333 </v>
   <v>       0.20689655       0.31034483       0.33333333 </v>
   <v>       0.24137931       0.31034483       0.33333333 </v>
   <v>       0.27586207       0.31034483       0.33333333 </v>
   <v>       0.31034483       0.31034483       0.33333333 </v>
   <v>       0.34482759       0.31034483       0.33333333 </v>
   <v>       0.37931034       0.31034483       0.33333333 </v>
   <v>       0.41379310       0.31034483       0.33333333 </v>
   <v>       0.44827586       0.31034483       0.33333333 </v>
   <v>       0.48275862       0.31034483       0.33333333 </v>
   <v>      -0.48275862       0.31034483       0.33333333 </v>
   <v>      -0.44827586       0.31034483       0.33333333 </v>
   <v>      -0.41379310       0.31034483       0.33333333 </v>
   <v>      -0.37931034       0.31034483       0.33333333 </v>
   <v>      -0.34482759       0.31034483       0.33333333 </v>
   <v>      -0.31034483       0.31034483       0.33333333 </v>
   <v>      -0.27586207       0.31034483       0.33333333 </v>
   <v>      -0.24137931       0.31034483       0.33333333 </v>
   <v>      -0.20689655       0.31034483       0.33333333 </v>
   <v>      -0.17241379       0.31034483       0.33333333 </v>
   <v>      -0.13793103       0.31034483       0.33333333 </v>
   <v>      -0.10344828       0.31034483       0.33333333 </v>
   <v>      -0.06896552       0.31034483       0.33333333 </v>
   <v>      -0.03448276       0.31034483       0.33333333 </v>
   <v>       0.00000000       0.34482759       0.33333333 </v>
   <v>       0.03448276       0.34482759       0.33333333 </v>
   <v>       0.06896552       0.34482759       0.33333333 </v>
   <v>       0.10344828       0.34482759       0.33333333 </v>
   <v>       0.13793103       0.34482759       0.33333333 </v>
   <v>       0.17241379       0.34482759       0.33333333 </v>
   <v>       0.20689655       0.34482759       0.33333333 </v>
   <v>       0.24137931       0.34482759       0.33333333 </v>
   <v>       0.27586207       0.34482759       0.33333333 </v>
   <v>       0.31034483       0.34482759       0.33333333 </v>
   <v>       0.34482759       0.34482759       0.33333333 </v>
   <v>       0.37931034       0.34482759       0.33333333 </v>
   <v>       0.41379310       0.34482759       0.33333333 </v>
   <v>       0.44827586       0.34482759       0.33333333 </v>
   <v>       0.48275862       0.34482759       0.33333333 </v>
   <v>      -0.48275862       0.34482759       0.33333333 </v>
   <v>      -0.44827586       0.34482759       0.33333333 </v>
   <v>      -0.41379310       0.34482759       0.33333333 </v>
   <v>      -0.37931034       0.34482759       0.33333333 </v>
   <v>      -0.34482759       0.34482759       0.33333333 </v>
   <v>      -0.31034483       0.34482759       0.33333333 </v>
   <v>      -0.27586207       0.34482759       0.33333333 </v>
   <v>      -0.24137931       0.34482759       0.33333333 </v>
   <v>      -0.20689655       0.34482759       0.33333333 </v>
   <v>      -0.17241379       0.34482759       0.33333333 </v>
   <v>      -0.13793103       0.34482759       0.33333333 </v>
   <v>      -0.10344828       0.34482759       0.33333333 </v>
   <v>      -0.06896552       0.34482759       0.33333333 </v>
   <v>      -0.03448276       0.34482759       0.33333333 </v>
   <v>       0.00000000       0.37931034       0.33333333 </v>
   <v>       0.03448276       0.37931034       0.33333333 </v>
   <v>       0.06896552       0.37931034       0.33333333 </v>
   <v>       0.10344828       0.37931034       0.33333333 </v>
   <v>       0.13793103       0.37931034       0.33333333 </v>
   <v>       0.17241379       0.37931034       0.33333333 </v>
   <v>       0.20689655       0.37931034       0.33333333 </v>
   <v>       0.24137931       0.37931034       0.33333333 </v>
   <v>       0.27586207       0.37931034       0.33333333 </v>
   <v>       0.31034483       0.37931034       0.33333333 </v>
   <v>       0.34482759       0.37931034       0.33333333 </v>
   <v>       0.37931034       0.37931034       0.33333333 </v>
   <v>       0.41379310       0.37931034       0.33333333 </v>
   <v>       0.44827586       0.37931034       0.33333333 </v>
   <v>       0.48275862       0.37931034       0.33333333 </v>
   <v>      -0.48275862       0.37931034       0.33333333 </v>
   <v>      -0.44827586       0.37931034       0.33333333 </v>
   <v>      -0.41379310       0.37931034       0.33333333 </v>
   <v>      -0.37931034       0.37931034       0.33333333 </v>
   <v>      -0.34482759       0.37931034       0.33333333 </v>
   <v>      -0.31034483       0.37931034       0.33333333 </v>
   <v>      -0.27586207       0.37931034       0.33333333 </v>
   <v>      -0.24137931       0.37931034       0.33333333 </v>
   <v>      -0.20689655       0.37931034       0.33333333 </v>
   <v>      -0.17241379       0.37931034       0.33333333 </v>
   <v>      -0.13793103       0.37931034       0.33333333 </v>
   <v>      -0.10344828       0.37931034       0.33333333 </v>
   <v>      -0.06896552       0.37931034       0.33333333 </v>
   <v>      -0.03448276       0.37931034       0.33333333 </v>
   <v>       0.00000000       0.41379310       0.33333333 </v>
   <v>       0.03448276       0.41379310       0.33333333 </v>
   <v>       0.06896552       0.41379310       0.33333333 </v>
   <v>       0.10344828       0.41379310       0.33333333 </v>
   <v>       0.13793103       0.41379310       0.33333333 </v>
   <v>       0.17241379       0.41379310       0.33333333 </v>
   <v>       0.20689655       0.41379310       0.33333333 </v>
   <v>       0.24137931       0.41379310       0.33333333 </v>
   <v>       0.27586207       0.41379310       0.33333333 </v>
   <v>       0.31034483       0.41379310       0.33333333 </v>
   <v>       0.34482759       0.41379310       0.33333333 </v>
   <v>       0.37931034       0.41379310       0.33333333 </v>
   <v>       0.41379310       0.41379310       0.33333333 </v>
   <v>       0.44827586       0.41379310       0.33333333 </v>
   <v>       0.48275862       0.41379310       0.33333333 </v>
   <v>      -0.48275862       0.41379310       0.33333333 </v>
   <v>      -0.44827586       0.41379310       0.33333333 </v>
   <v>      -0.41379310       0.41379310       0.33333333 </v>
   <v>      -0.37931034       0.41379310       0.33333333 </v>
   <v>      -0.34482759       0.41379310       0.33333333 </v>
   <v>      -0.31034483       0.41379310       0.33333333 </v>
   <v>      -0.27586207       0.41379310       0.33333333 </v>
   <v>      -0.24137931       0.41379310       0.33333333 </v>
   <v>      -0.20689655       0.41379310       0.33333333 </v>
   <v>      -0.17241379       0.41379310       0.33333333 </v>
   <v>      -0.13793103       0.41379310       0.33333333 </v>
   <v>      -0.10344828       0.41379310       0.33333333 </v>
   <v>      -0.06896552       0.41379310       0.33333333 </v>
   <v>      -0.03448276       0.41379310       0.33333333 </v>
   <v>       0.00000000       0.44827586       0.33333333 </v>
   <v>       0.03448276       0.44827586       0.33333333 </v>
   <v>       0.06896552       0.44827586       0.33333333 </v>
   <v>       0.10344828       0.44827586       0.33333333 </v>
   <v>       0.13793103       0.44827586       0.33333333 </v>
   <v>       0.17241379       0.44827586       0.33333333 </v>
   <v>       0.20689655       0.44827586       0.33333333 </v>
   <v>       0.24137931       0.44827586       0.33333333 </v>
   <v>       0.27586207       0.44827586       0.33333333 </v>
   <v>       0.31034483       0.44827586       0.33333333 </v>
   <v>       0.34482759       0.44827586       0.33333333 </v>
   <v>       0.37931034       0.44827586       0.33333333 </v>
   <v>       0.41379310       0.44827586       0.33333333 </v>
   <v>       0.44827586       0.44827586       0.33333333 </v>
   <v>       0.48275862       0.44827586       0.33333333 </v>
   <v>      -0.48275862       0.44827586       0.33333333 </v>
   <v>      -0.44827586       0.44827586       0.33333333 </v>
   <v>      -0.41379310       0.44827586       0.33333333 </v>
   <v>      -0.37931034       0.44827586       0.33333333 </v>
   <v>      -0.34482759       0.44827586       0.33333333 </v>
   <v>      -0.31034483       0.44827586       0.33333333 </v>
   <v>      -0.27586207       0.44827586       0.33333333 </v>
   <v>      -0.24137931       0.44827586       0.33333333 </v>
   <v>      -0.20689655       0.44827586       0.33333333 </v>
   <v>      -0.17241379       0.44827586       0.33333333 </v>
   <v>      -0.13793103       0.44827586       0.33333333 </v>
   <v>      -0.10344828       0.44827586       0.33333333 </v>
   <v>      -0.06896552       0.44827586       0.33333333 </v>
   <v>      -0.03448276       0.44827586       0.33333333 </v>
   <v>       0.00000000       0.48275862       0.33333333 </v>
   <v>       0.03448276       0.48275862       0.33333333 </v>
   <v>       0.06896552       0.48275862       0.33333333 </v>
   <v>       0.10344828       0.48275862       0.33333333 </v>
   <v>       0.13793103       0.48275862       0.33333333 </v>
   <v>       0.17241379       0.48275862       0.33333333 </v>
   <v>       0.20689655       0.48275862       0.33333333 </v>
   <v>       0.24137931       0.48275862       0.33333333 </v>
   <v>       0.27586207       0.48275862       0.33333333 </v>
   <v>       0.31034483       0.48275862       0.33333333 </v>
   <v>       0.34482759       0.48275862       0.33333333 </v>
   <v>       0.37931034       0.48275862       0.33333333 </v>
   <v>       0.41379310       0.48275862       0.33333333 </v>
   <v>       0.44827586       0.48275862       0.33333333 </v>
   <v>       0.48275862       0.48275862       0.33333333 </v>
   <v>      -0.48275862       0.48275862       0.33333333 </v>
   <v>      -0.44827586       0.48275862       0.33333333 </v>
   <v>      -0.41379310       0.48275862       0.33333333 </v>
   <v>      -0.37931034       0.48275862       0.33333333 </v>
   <v>      -0.34482759       0.48275862       0.33333333 </v>
   <v>      -0.31034483       0.48275862       0.33333333 </v>
   <v>      -0.27586207       0.48275862       0.33333333 </v>
   <v>      -0.24137931       0.48275862       0.33333333 </v>
   <v>      -0.20689655       0.48275862       0.33333333 </v>
   <v>      -0.17241379       0.48275862       0.33333333 </v>
   <v>      -0.13793103       0.48275862       0.33333333 </v>
   <v>      -0.10344828       0.48275862       0.33333333 </v>
   <v>      -0.06896552       0.48275862       0.33333333 </v>
   <v>      -0.03448276       0.48275862       0.33333333 </v>
   <v>       0.00000000       0.00000000       0.50000000 </v>
   <v>       0.03448276       0.00000000       0.50000000 </v>
   <v>       0.06896552       0.00000000       0.50000000 </v>
   <v>       0.10344828       0.00000000       0.50000000 </v>
   <v>       0.13793103       0.00000000       0.50000000 </v>
   <v>       0.17241379       0.00000000       0.50000000 </v>
   <v>       0.20689655       0.00000000       0.50000000 </v>
   <v>       0.24137931       0.00000000       0.50000000 </v>
   <v>       0.27586207       0.00000000       0.50000000 </v>
   <v>       0.31034483       0.00000000       0.50000000 </v>
   <v>       0.34482759       0.00000000       0.50000000 </v>
   <v>       0.37931034       0.00000000       0.50000000 </v>
   <v>       0.41379310       0.00000000       0.50000000 </v>
   <v>       0.44827586       0.00000000       0.50000000 </v>
   <v>       0.48275862       0.00000000       0.50000000 </v>
   <v>       0.00000000       0.03448276       0.50000000 </v>
   <v>       0.03448276       0.03448276       0.50000000 </v>
   <v>       0.06896552       0.03448276       0.50000000 </v>
   <v>       0.10344828       0.03448276       0.50000000 </v>
   <v>       0.13793103       0.03448276       0.50000000 </v>
   <v>       0.17241379       0.03448276       0.50000000 </v>
   <v>       0.20689655       0.03448276       0.50000000 </v>
   <v>       0.24137931       0.03448276       0.50000000 </v>
   <v>       0.27586207       0.03448276       0.50000000 </v>
   <v>       0.31034483       0.03448276       0.50000000 </v>
   <v>       0.34482759       0.03448276       0.50000000 </v>
   <v>       0.37931034       0.03448276       0.50000000 </v>
   <v>       0.41379310       0.03448276       0.50000000 </v>
   <v>       0.44827586       0.03448276       0.50000000 </v>
   <v>       0.48275862       0.03448276       0.50000000 </v>
   <v>       0.00000000       0.06896552       0.50000000 </v>
   <v>       0.03448276       0.06896552       0.50000000 </v>
   <v>       0.06896552       0.06896552       0.50000000 </v>
   <v>       0.10344828       0.06896552       0.50000000 </v>
   <v>       0.13793103       0.06896552       0.50000000 </v>
   <v>       0.17241379       0.06896552       0.50000000 </v>
   <v>       0.20689655       0.06896552       0.50000000 </v>
   <v>       0.24137931       0.06896552       0.50000000 </v>
   <v>       0.27586207       0.06896552       0.50000000 </v>
   <v>       0.31034483       0.06896552       0.50000000 </v>
   <v>       0.34482759       0.06896552       0.50000000 </v>
   <v>       0.37931034       0.06896552       0.50000000 </v>
   <v>       0.41379310       0.06896552       0.50000000 </v>
   <v>       0.44827586       0.06896552       0.50000000 </v>
   <v>      -0.03448276       0.06896552       0.50000000 </v>
   <v>       0.00000000       0.10344828       0.50000000 </v>
   <v>       0.03448276       0.10344828       0.50000000 </v>
   <v>       0.06896552       0.10344828       0.50000000 </v>
   <v>       0.10344828       0.10344828       0.50000000 </v>
   <v>       0.13793103       0.10344828       0.50000000 </v>
   <v>       0.17241379       0.10344828       0.50000000 </v>
   <v>       0.20689655       0.10344828       0.50000000 </v>
   <v>       0.24137931       0.10344828       0.50000000 </v>
   <v>       0.27586207       0.10344828       0.50000000 </v>
   <v>       0.31034483       0.10344828       0.50000000 </v>
   <v>       0.34482759       0.10344828       0.50000000 </v>
   <v>       0.37931034       0.10344828       0.50000000 </v>
   <v>       0.41379310       0.10344828       0.50000000 </v>
   <v>       0.44827586       0.10344828       0.50000000 </v>
   <v>      -0.06896552       0.10344828       0.50000000 </v>
   <v>       0.00000000       0.13793103       0.50000000 </v>
   <v>       0.03448276       0.13793103       0.50000000 </v>
   <v>       0.06896552       0.13793103       0.50000000 </v>
   <v>       0.10344828       0.13793103       0.50000000 </v>
   <v>       0.13793103       0.13793103       0.50000000 </v>
   <v>       0.17241379       0.13793103       0.50000000 </v>
   <v>       0.20689655       0.13793103       0.50000000 </v>
   <v>       0.24137931       0.13793103       0.50000000 </v>
   <v>       0.27586207       0.13793103       0.50000000 </v>
   <v>       0.31034483       0.13793103       0.50000000 </v>
   <v>       0.34482759       0.13793103       0.50000000 </v>
   <v>       0.37931034       0.13793103       0.50000000 </v>
   <v>       0.41379310       0.13793103       0.50000000 </v>
   <v>      -0.10344828       0.13793103       0.50000000 </v>
   <v>      -0.06896552       0.13793103       0.50000000 </v>
   <v>       0.00000000       0.17241379       0.50000000 </v>
   <v>       0.03448276       0.17241379       0.50000000 </v>
   <v>       0.06896552       0.17241379       0.50000000 </v>
   <v>       0.10344828       0.17241379       0.50000000 </v>
   <v>       0.13793103       0.17241379       0.50000000 </v>
   <v>       0.17241379       0.17241379       0.50000000 </v>
   <v>       0.20689655       0.17241379       0.50000000 </v>
   <v>       0.24137931       0.17241379       0.50000000 </v>
   <v>       0.27586207       0.17241379       0.50000000 </v>
   <v>       0.31034483       0.17241379       0.50000000 </v>
   <v>       0.34482759       0.17241379       0.50000000 </v>
   <v>       0.37931034       0.17241379       0.50000000 </v>
   <v>       0.41379310       0.17241379       0.50000000 </v>
   <v>      -0.13793103       0.17241379       0.50000000 </v>
   <v>      -0.10344828       0.17241379       0.50000000 </v>
   <v>       0.00000000       0.20689655       0.50000000 </v>
   <v>       0.03448276       0.20689655       0.50000000 </v>
   <v>       0.06896552       0.20689655       0.50000000 </v>
   <v>       0.10344828       0.20689655       0.50000000 </v>
   <v>       0.13793103       0.20689655       0.50000000 </v>
   <v>       0.17241379       0.20689655       0.50000000 </v>
   <v>       0.20689655       0.20689655       0.50000000 </v>
   <v>       0.24137931       0.20689655       0.50000000 </v>
   <v>       0.27586207       0.20689655       0.50000000 </v>
   <v>       0.31034483       0.20689655       0.50000000 </v>
   <v>       0.34482759       0.20689655       0.50000000 </v>
   <v>       0.37931034       0.20689655       0.50000000 </v>
   <v>      -0.17241379       0.20689655       0.50000000 </v>
   <v>      -0.13793103       0.20689655       0.50000000 </v>
   <v>      -0.10344828       0.20689655       0.50000000 </v>
   <v>       0.00000000       0.24137931       0.50000000 </v>
   <v>       0.03448276       0.24137931       0.50000000 </v>
   <v>       0.06896552       0.24137931       0.50000000 </v>
   <v>       0.10344828       0.24137931       0.50000000 </v>
   <v>       0.13793103       0.24137931       0.50000000 </v>
   <v>       0.17241379       0.24137931       0.50000000 </v>
   <v>       0.20689655       0.24137931       0.50000000 </v>
   <v>       0.24137931       0.24137931       0.50000000 </v>
   <v>       0.27586207       0.24137931       0.50000000 </v>
   <v>       0.31034483       0.24137931       0.50000000 </v>
   <v>       0.34482759       0.24137931       0.50000000 </v>
   <v>       0.37931034       0.24137931       0.50000000 </v>
   <v>      -0.20689655       0.24137931       0.50000000 </v>
   <v>      -0.17241379       0.24137931       0.50000000 </v>
   <v>      -0.13793103       0.24137931       0.50000000 </v>
   <v>       0.00000000       0.27586207       0.50000000 </v>
   <v>       0.03448276       0.27586207       0.50000000 </v>
   <v>       0.06896552       0.27586207       0.50000000 </v>
   <v>       0.10344828       0.27586207       0.50000000 </v>
   <v>       0.13793103       0.27586207       0.50000000 </v>
   <v>       0.17241379       0.27586207       0.50000000 </v>
   <v>       0.20689655       0.27586207       0.50000000 </v>
   <v>       0.24137931       0.27586207       0.50000000 </v>
   <v>       0.27586207       0.27586207       0.50000000 </v>
   <v>       0.31034483       0.27586207       0.50000000 </v>
   <v>       0.34482759       0.27586207       0.50000000 </v>
   <v>      -0.24137931       0.27586207       0.50000000 </v>
   <v>      -0.20689655       0.27586207       0.50000000 </v>
   <v>      -0.17241379       0.27586207       0.50000000 </v>
   <v>      -0.13793103       0.27586207       0.50000000 </v>
   <v>       0.00000000       0.31034483       0.50000000 </v>
   <v>       0.03448276       0.31034483       0.50000000 </v>
   <v>       0.06896552       0.31034483       0.50000000 </v>
   <v>       0.10344828       0.31034483       0.50000000 </v>
   <v>       0.13793103       0.31034483       0.50000000 </v>
   <v>       0.17241379       0.31034483       0.50000000 </v>
   <v>       0.20689655       0.31034483       0.50000000 </v>
   <v>       0.24137931       0.31034483       0.50000000 </v>
   <v>       0.27586207       0.31034483       0.50000000 </v>
   <v>       0.31034483       0.31034483       0.50000000 </v>
   <v>       0.34482759       0.31034483       0.50000000 </v>
   <v>      -0.27586207       0.31034483       0.50000000 </v>
[...]
       <r>    3.3371    1.0000 </r>
       <r>    3.4784    1.0000 </r>
       <r>    3.7142    1.0000 </r>
       <r>    3.7426    1.0000 </r>
       <r>    4.2808    1.0000 </r>
       <r>    4.3486    1.0000 </r>
       <r>    4.4052    1.0000 </r>
       <r>    4.6790    1.0000 </r>
       <r>    4.7532    1.0000 </r>
       <r>    4.9058    1.0000 </r>
       <r>    5.2437    1.0000 </r>
       <r>    5.5065    1.0000 </r>
       <r>    5.6396    1.0000 </r>
       <r>    5.7294    1.0000 </r>
       <r>    5.9873    1.0000 </r>
       <r>    6.1126    1.0000 </r>
       <r>    6.2250    1.0000 </r>
       <r>    6.3493    1.0000 </r>
       <r>    7.1369    1.0009 </r>
       <r>    7.6205    1.0196 </r>
       <r>    9.1545    0.0000 </r>
       <r>    9.3898    0.0000 </r>
       <r>   11.7556    0.0000 </r>
       <r>   12.8027    0.0000 </r>
       <r>   13.7242    0.0000 </r>
       <r>   14.1899    0.0000 </r>
       <r>   14.9647    0.0000 </r>
       <r>   15.1933    0.0000 </r>
       <r>   16.0772    0.0000 </r>
      </set>
      <set comment="kpoint 1319">
       <r>    1.9275    1.0000 </r>
       <r>    2.0527    1.0000 </r>
       <r>    2.2211    1.0000 </r>
       <r>    2.3068    1.0000 </r>
       <r>    2.4496    1.0000 </r>
       <r>    2.7377    1.0000 </r>
       <r>    2.9975    1.0000 </r>
       <r>    3.1824    1.0000 </r>
       <r>    3.3527    1.0000 </r>
       <r>    3.4917    1.0000 </r>
       <r>    3.6641    1.0000 </r>
       <r>    4.1038    1.0000 </r>
       <r>    4.3481    1.0000 </r>
       <r>    4.3646    1.0000 </r>
       <r>    4.6141    1.0000 </r>
       <r>    4.7482    1.0000 </r>
       <r>    4.8550    1.0000 </r>
       <r>    5.2059    1.0000 </r>
       <r>    5.4887    1.0000 </r>
       <r>    5.5906    1.0000 </r>
       <r>    5.7679    1.0000 </r>
       <r>    5.9178    1.0000 </r>
       <r>    6.1001    1.0000 </r>
       <r>    6.2251    1.0000 </r>
       <r>    6.3604    1.0000 </r>
       <r>    7.1411    1.0009 </r>
       <r>    7.6205    1.0196 </r>
       <r>    9.1800    0.0000 </r>
       <r>    9.4255    0.0000 </r>
       <r>   12.3806    0.0000 </r>
       <r>   13.2701    0.0000 </r>
       <r>   13.8174    0.0000 </r>
       <r>   14.2527    0.0000 </r>
       <r>   14.6976    0.0000 </r>
       <r>   14.9627    0.0000 </r>
       <r>   15.9833    0.0000 </r>
      </set>
      <set comment="kpoint 1320">
       <r>    2.0013    1.0000 </r>
       <r>    2.1214    1.0000 </r>
       <r>    2.2453    1.0000 </r>
       <r>    2.4518    1.0000 </r>
       <r>    2.5242    1.0000 </r>
       <r>    2.6727    1.0000 </r>
       <r>    2.9198    1.0000 </r>
       <r>    3.1083    1.0000 </r>
       <r>    3.2827    1.0000 </r>
       <r>    3.4277    1.0000 </r>
       <r>    3.6580    1.0000 </r>
       <r>    3.9885    1.0000 </r>
       <r>    4.3511    1.0000 </r>
       <r>    4.3925    1.0000 </r>
       <r>    4.5728    1.0000 </r>
       <r>    4.7811    1.0000 </r>
       <r>    4.8138    1.0000 </r>
       <r>    5.1899    1.0000 </r>
       <r>    5.4925    1.0000 </r>
       <r>    5.5596    1.0000 </r>
       <r>    5.8168    1.0000 </r>
       <r>    5.8630    1.0000 </r>
       <r>    6.0972    1.0000 </r>
       <r>    6.2252    1.0000 </r>
       <r>    6.3647    1.0000 </r>
       <r>    7.1429    1.0009 </r>
       <r>    7.6217    1.0191 </r>
       <r>    9.1880    0.0000 </r>
       <r>    9.4361    0.0000 </r>
       <r>   12.9055    0.0000 </r>
       <r>   13.1222    0.0000 </r>
       <r>   13.9578    0.0000 </r>
       <r>   14.2447    0.0000 </r>
       <r>   14.3399    0.0000 </r>
       <r>   15.2242    0.0000 </r>
       <r>   16.1176    0.0000 </r>
      </set>
     </set>
    </set>
   </array>
  </eigenvalues>
  <separator name="orbital magnetization" >
   <v name="MAGDIPOLOUT">      0.00000000      0.00000000      0.00000000</v>
  </separator>
  <dos>
   <i name="efermi">      7.90656375 </i>
   <total>
    <array>
     <dimension dim="1">gridpoints</dimension>
     <dimension dim="2">spin</dimension>
     <field>energy</field>
     <field>total</field>
     <field>integrated</field>
     <set>
      <set comment="spin 1">
       <r>    -4.2429     0.0000     0.0000 </r>
       <r>    -4.1368     0.0000     0.0000 </r>
       <r>    -4.0308     0.0000     0.0000 </r>
       <r>    -3.9248     0.0000     0.0000 </r>
       <r>    -3.8187     0.0000     0.0000 </r>
       <r>    -3.7127     0.0000     0.0000 </r>
       <r>    -3.6066     0.0000     0.0000 </r>
       <r>    -3.5006     0.0000     0.0000 </r>
       <r>    -3.3945     0.0000     0.0000 </r>
       <r>    -3.2885     0.0000     0.0000 </r>
       <r>    -3.1825     0.0000     0.0000 </r>
       <r>    -3.0764     0.0000     0.0000 </r>
       <r>    -2.9704     0.0000     0.0000 </r>
       <r>    -2.8643     0.0000     0.0000 </r>
       <r>    -2.7583     0.0000     0.0000 </r>
       <r>    -2.6522     0.0000     0.0000 </r>
       <r>    -2.5462     0.0000     0.0000 </r>
       <r>    -2.4402     0.0000     0.0000 </r>
       <r>    -2.3341     0.0000     0.0000 </r>
       <r>    -2.2281     0.0000     0.0000 </r>
       <r>    -2.1220     0.0000     0.0000 </r>
       <r>    -2.0160    -0.0001     0.0000 </r>
       <r>    -1.9099    -0.0003     0.0000 </r>
       <r>    -1.8039    -0.0012    -0.0002 </r>
       <r>    -1.6979    -0.0034    -0.0005 </r>
       <r>    -1.5918    -0.0067    -0.0012 </r>
       <r>    -1.4858    -0.0065    -0.0019 </r>
       <r>    -1.3797     0.0078    -0.0011 </r>
       <r>    -1.2737     0.0467     0.0039 </r>
       <r>    -1.1676     0.1078     0.0153 </r>
       <r>    -1.0616     0.1715     0.0335 </r>
       <r>    -0.9556     0.2167     0.0565 </r>
       <r>    -0.8495     0.2371     0.0816 </r>
       <r>    -0.7435     0.2409     0.1071 </r>
       <r>    -0.6374     0.2392     0.1325 </r>
       <r>    -0.5314     0.2398     0.1579 </r>
       <r>    -0.4253     0.2499     0.1844 </r>
       <r>    -0.3193     0.2788     0.2140 </r>
       <r>    -0.2133     0.3302     0.2490 </r>
       <r>    -0.1072     0.3958     0.2910 </r>
       <r>    -0.0012     0.4602     0.3398 </r>
       <r>     0.1049     0.5090     0.3938 </r>
       <r>     0.2109     0.5373     0.4507 </r>
       <r>     0.3170     0.5590     0.5100 </r>
       <r>     0.4230     0.5965     0.5733 </r>
       <r>     0.5290     0.6572     0.6430 </r>
       <r>     0.6351     0.7336     0.7208 </r>
       <r>     0.7411     0.8267     0.8084 </r>
       <r>     0.8472     0.9776     0.9121 </r>
       <r>     0.9532     1.2826     1.0481 </r>
       <r>     1.0592     1.8169     1.2408 </r>
       <r>     1.1653     2.4977     1.5056 </r>
       <r>     1.2713     3.0964     1.8340 </r>
       <r>     1.3774     3.4625     2.2011 </r>
       <r>     1.4834     3.7149     2.5951 </r>
       <r>     1.5895     4.1570     3.0359 </r>
       <r>     1.6955     4.9523     3.5611 </r>
       <r>     1.8015     5.9036     4.1871 </r>
       <r>     1.9076     6.6578     4.8931 </r>
       <r>     2.0136     7.1107     5.6471 </r>
       <r>     2.1197     7.4414     6.4363 </r>
       <r>     2.2257     7.7444     7.2575 </r>
       <r>     2.3318     7.8628     8.0913 </r>
       <r>     2.4378     7.6915     8.9069 </r>
       <r>     2.5438     7.4425     9.6961 </r>
       <r>     2.6499     7.4463    10.4858 </r>
       <r>     2.7559     7.7982    11.3127 </r>
       <r>     2.8620     8.3016    12.1930 </r>
       <r>     2.9680     8.6828    13.1138 </r>
       <r>     3.0741     8.7981    14.0467 </r>
       <r>     3.1801     8.6615    14.9652 </r>
       <r>     3.2861     8.3633    15.8521 </r>
       <r>     3.3922     8.0711    16.7080 </r>
       <r>     3.4982     8.0661    17.5633 </r>
       <r>     3.6043     8.5509    18.4701 </r>
       <r>     3.7103     9.3070    19.4570 </r>
       <r>     3.8164     9.7254    20.4883 </r>
       <r>     3.9224     9.4518    21.4906 </r>
       <r>     4.0284     8.9716    22.4420 </r>
       <r>     4.1345     9.1762    23.4151 </r>
       <r>     4.2405    10.2407    24.5010 </r>
       <r>     4.3466    11.4103    25.7110 </r>
       <r>     4.4526    12.0831    26.9923 </r>
       <r>     4.5587    12.4776    28.3155 </r>
       <r>     4.6647    12.8958    29.6830 </r>
       <r>     4.7707    13.0156    31.0632 </r>
       <r>     4.8768    12.4344    32.3818 </r>
       <r>     4.9828    11.3962    33.5903 </r>
       <r>     5.0889    10.5137    34.7052 </r>
       <r>     5.1949    10.1495    35.7814 </r>
       <r>     5.3010    10.4406    36.8886 </r>
       <r>     5.4070    11.5191    38.1101 </r>
       <r>     5.5130    13.1390    39.5034 </r>
       <r>     5.6191    14.3830    41.0286 </r>
       <r>     5.7251    14.4568    42.5616 </r>
       <r>     5.8312    13.6906    44.0134 </r>
       <r>     5.9372    13.2338    45.4168 </r>
       <r>     6.0433    13.7897    46.8791 </r>
       <r>     6.1493    14.8270    48.4514 </r>
       <r>     6.2553    14.9124    50.0327 </r>
       <r>     6.3614    12.9152    51.4023 </r>
       <r>     6.4674     9.1445    52.3720 </r>
       <r>     6.5735     5.1918    52.9225 </r>
       <r>     6.6795     2.5124    53.1890 </r>
       <r>     6.7856     1.3747    53.3347 </r>
       <r>     6.8916     1.1869    53.4606 </r>
       <r>     6.9976     1.3497    53.6037 </r>
       <r>     7.1037     1.5517    53.7683 </r>
       <r>     7.2097     1.6281    53.9409 </r>
       <r>     7.3158     1.5410    54.1043 </r>
       <r>     7.4218     1.4344    54.2564 </r>
       <r>     7.5279     1.4692    54.4122 </r>
       <r>     7.6339     1.5988    54.5818 </r>
       <r>     7.7399     1.6347    54.7551 </r>
       <r>     7.8460     1.5132    54.9156 </r>
       <r>     7.9520     1.3768    55.0616 </r>
       <r>     8.0581     1.3817    55.2081 </r>
       <r>     8.1641     1.5067    55.3679 </r>
       <r>     8.2701     1.5875    55.5362 </r>
       <r>     8.3762     1.5158    55.6969 </r>
       <r>     8.4822     1.3615    55.8413 </r>
       <r>     8.5883     1.2829    55.9774 </r>
       <r>     8.6943     1.3467    56.1202 </r>
       <r>     8.8004     1.4630    56.2753 </r>
       <r>     8.9064     1.4931    56.4337 </r>
       <r>     9.0124     1.4004    56.5822 </r>
       <r>     9.1185     1.2783    56.7177 </r>
       <r>     9.2245     1.2388    56.8491 </r>
       <r>     9.3306     1.2966    56.9866 </r>
       <r>     9.4366     1.3685    57.1317 </r>
       <r>     9.5427     1.3757    57.2776 </r>
       <r>     9.6487     1.3265    57.4182 </r>
       <r>     9.7547     1.2788    57.5539 </r>
       <r>     9.8608     1.2530    57.6867 </r>
       <r>     9.9668     1.2266    57.8168 </r>
       <r>    10.0729     1.1947    57.9435 </r>
       <r>    10.1789     1.1809    58.0687 </r>
       <r>    10.2850     1.1898    58.1949 </r>
       <r>    10.3910     1.1916    58.3212 </r>
       <r>    10.4970     1.1605    58.4443 </r>
       <r>    10.6031     1.1055    58.5615 </r>
       <r>    10.7091     1.0608    58.6740 </r>
       <r>    10.8152     1.0650    58.7870 </r>
       <r>    10.9212     1.1524    58.9092 </r>
       <r>    11.0273     1.3264    59.0498 </r>
       <r>    11.1333     1.5257    59.2116 </r>
       <r>    11.2393     1.6570    59.3873 </r>
       <r>    11.3454     1.6836    59.5659 </r>
       <r>    11.4514     1.6525    59.7411 </r>
       <r>    11.5575     1.6290    59.9138 </r>
       <r>    11.6635     1.6353    60.0872 </r>
       <r>    11.7696     1.6516    60.2624 </r>
       <r>    11.8756     1.6516    60.4375 </r>
       <r>    11.9816     1.6297    60.6103 </r>
       <r>    12.0877     1.6011    60.7801 </r>
       <r>    12.1937     1.5761    60.9473 </r>
       <r>    12.2998     1.5466    61.1113 </r>
       <r>    12.4058     1.5122    61.2716 </r>
       <r>    12.5119     1.4984    61.4305 </r>
       <r>    12.6179     1.5190    61.5916 </r>
       <r>    12.7239     1.5400    61.7549 </r>
       <r>    12.8300     1.5174    61.9158 </r>
       <r>    12.9360     1.4571    62.0703 </r>
       <r>    13.0421     1.4079    62.2196 </r>
       <r>    13.1481     1.3983    62.3679 </r>
       <r>    13.2542     1.4068    62.5171 </r>
       <r>    13.3602     1.4122    62.6668 </r>
       <r>    13.4662     1.4645    62.8221 </r>
       <r>    13.5723     1.6698    62.9992 </r>
       <r>    13.6783     2.0783    63.2196 </r>
       <r>    13.7844     2.5948    63.4947 </r>
       <r>    13.8904     3.0209    63.8151 </r>
       <r>    13.9965     3.1996    64.1544 </r>
       <r>    14.1025     3.1195    64.4852 </r>
       <r>    14.2085     2.8977    64.7925 </r>
       <r>    14.3146     2.6814    65.0768 </r>
       <r>    14.4206     2.5592    65.3482 </r>
       <r>    14.5267     2.5357    65.6171 </r>
       <r>    14.6327     2.5748    65.8901 </r>
       <r>    14.7387     2.6498    66.1711 </r>
       <r>    14.8448     2.7393    66.4616 </r>
       <r>    14.9508     2.8024    66.7588 </r>
       <r>    15.0569     2.8035    67.0560 </r>
       <r>    15.1629     2.7592    67.3486 </r>
       <r>    15.2690     2.7235    67.6375 </r>
       <r>    15.3750     2.7224    67.9261 </r>
       <r>    15.4810     2.7329    68.2159 </r>
       <r>    15.5871     2.7358    68.5060 </r>
       <r>    15.6931     2.7774    68.8006 </r>
       <r>    15.7992     2.9548    69.1139 </r>
       <r>    15.9052     3.2987    69.4637 </r>
       <r>    16.0113     3.6455    69.8503 </r>
       <r>    16.1173     3.6638    70.2388 </r>
       <r>    16.2233     3.1173    70.5694 </r>
       <r>    16.3294     2.1416    70.7965 </r>
       <r>    16.4354     1.1705    70.9206 </r>
       <r>    16.5415     0.5480    70.9787 </r>
       <r>    16.6475     0.2936    71.0098 </r>
       <r>    16.7536     0.2346    71.0347 </r>
       <r>    16.8596     0.2323    71.0594 </r>
       <r>    16.9656     0.2447    71.0853 </r>
       <r>    17.0717     0.2700    71.1139 </r>
       <r>    17.1777     0.3047    71.1462 </r>
       <r>    17.2838     0.3365    71.1819 </r>
       <r>    17.3898     0.3475    71.2188 </r>
       <r>    17.4959     0.3287    71.2536 </r>
       <r>    17.6019     0.2951    71.2849 </r>
       <r>    17.7079     0.2751    71.3141 </r>
       <r>    17.8140     0.2813    71.3439 </r>
       <r>    17.9200     0.3020    71.3759 </r>
       <r>    18.0261     0.3143    71.4093 </r>
       <r>    18.1321     0.3009    71.4412 </r>
       <r>    18.2382     0.2606    71.4688 </r>
       <r>    18.3442     0.2066    71.4907 </r>
       <r>    18.4502     0.1569    71.5074 </r>
       <r>    18.5563     0.1261    71.5207 </r>
       <r>    18.6623     0.1211    71.5336 </r>
       <r>    18.7684     0.1401    71.5484 </r>
       <r>    18.8744     0.1728    71.5668 </r>
       <r>    18.9805     0.2012    71.5881 </r>
       <r>    19.0865     0.2067    71.6100 </r>
       <r>    19.1925     0.1832    71.6294 </r>
       <r>    19.2986     0.1443    71.6447 </r>
       <r>    19.4046     0.1113    71.6565 </r>
       <r>    19.5107     0.0968    71.6668 </r>
       <r>    19.6167     0.0989    71.6773 </r>
       <r>    19.7228     0.1070    71.6886 </r>
       <r>    19.8288     0.1126    71.7006 </r>
       <r>    19.9348     0.1181    71.7131 </r>
       <r>    20.0409     0.1298    71.7269 </r>
       <r>    20.1469     0.1443    71.7422 </r>
       <r>    20.2530     0.1489    71.7580 </r>
       <r>    20.3590     0.1391    71.7727 </r>
       <r>    20.4651     0.1226    71.7857 </r>
       <r>    20.5711     0.1092    71.7973 </r>
       <r>    20.6771     0.1021    71.8081 </r>
       <r>    20.7832     0.1019    71.8189 </r>
       <r>    20.8892     0.1088    71.8305 </r>
       <r>    20.9953     0.1204    71.8432 </r>
       <r>    21.1013     0.1298    71.8570 </r>
       <r>    21.2074     0.1308    71.8709 </r>
       <r>    21.3134     0.1236    71.8840 </r>
       <r>    21.4194     0.1149    71.8962 </r>
       <r>    21.5255     0.1128    71.9081 </r>
       <r>    21.6315     0.1189    71.9207 </r>
       <r>    21.7376     0.1253    71.9340 </r>
       <r>    21.8436     0.1213    71.9469 </r>
       <r>    21.9496     0.1033    71.9578 </r>
       <r>    22.0557     0.0783    71.9661 </r>
       <r>    22.1617     0.0581    71.9723 </r>
       <r>    22.2678     0.0482    71.9774 </r>
       <r>    22.3738     0.0445    71.9821 </r>
       <r>    22.4799     0.0390    71.9863 </r>
       <r>    22.5859     0.0297    71.9894 </r>
       <r>    22.6919     0.0206    71.9916 </r>
       <r>    22.7980     0.0152    71.9932 </r>
       <r>    22.9040     0.0132    71.9946 </r>
       <r>    23.0101     0.0119    71.9959 </r>
       <r>    23.1161     0.0094    71.9969 </r>
       <r>    23.2222     0.0062    71.9975 </r>
       <r>    23.3282     0.0040    71.9980 </r>
       <r>    23.4342     0.0037    71.9984 </r>
       <r>    23.5403     0.0043    71.9988 </r>
       <r>    23.6463     0.0041    71.9993 </r>
       <r>    23.7524     0.0027    71.9995 </r>
       <r>    23.8584     0.0011    71.9997 </r>
       <r>    23.9645     0.0000    71.9997 </r>
       <r>    24.0705    -0.0003    71.9996 </r>
       <r>    24.1765    -0.0002    71.9996 </r>
       <r>    24.2826     0.0000    71.9996 </r>
       <r>    24.3886     0.0003    71.9996 </r>
       <r>    24.4947     0.0008    71.9997 </r>
       <r>    24.6007     0.0011    71.9998 </r>
       <r>    24.7068     0.0010    71.9999 </r>
       <r>    24.8128     0.0006    72.0000 </r>
       <r>    24.9188     0.0002    72.0000 </r>
       <r>    25.0249     0.0000    72.0000 </r>
       <r>    25.1309    -0.0001    72.0000 </r>
       <r>    25.2370     0.0000    72.0000 </r>
       <r>    25.3430     0.0000    72.0000 </r>
       <r>    25.4491     0.0000    72.0000 </r>
       <r>    25.5551     0.0000    72.0000 </r>
       <r>    25.6611     0.0000    72.0000 </r>
       <r>    25.7672     0.0000    72.0000 </r>
       <r>    25.8732     0.0000    72.0000 </r>
       <r>    25.9793     0.0000    72.0000 </r>
       <r>    26.0853     0.0000    72.0000 </r>
       <r>    26.1914     0.0000    72.0000 </r>
       <r>    26.2974     0.0000    72.0000 </r>
       <r>    26.4034     0.0000    72.0000 </r>
       <r>    26.5095     0.0000    72.0000 </r>
       <r>    26.6155     0.0000    72.0000 </r>
       <r>    26.7216     0.0000    72.0000 </r>
       <r>    26.8276     0.0000    72.0000 </r>
       <r>    26.9337     0.0000    72.0000 </r>
       <r>    27.0397     0.0000    72.0000 </r>
       <r>    27.1457     0.0000    72.0000 </r>
       <r>    27.2518     0.0000    72.0000 </r>
       <r>    27.3578     0.0000    72.0000 </r>
       <r>    27.4639     0.0000    72.0000 </r>
       <r>    27.5699     0.0000    72.0000 </r>
      </set>
     </set>
    </array>
   </total>
  </dos>
 </calculation>
 <structure name="finalpos" >
  <crystal>
   <varray name="basis" >
    <v>       0.00000000       2.00805923       2.00805923 </v>
    <v>      -2.00805923       0.00000000      -2.00805923 </v>
    <v>      -5.87118553      -7.87924476       5.87118553 </v>
   </varray>
   <i name="volume">     79.12027824 </i>
   <varray name="rec_basis" >
    <v>      -0.19997389       0.29801938       0.19997389 </v>
    <v>      -0.34898359       0.14900969      -0.14900969 </v>
    <v>      -0.05096420      -0.05096420       0.05096420 </v>
   </varray>
  </crystal>
  <varray name="positions" >
   <v>       0.59006350       0.79503175       0.38509525 </v>
   <v>       0.81038910       0.40519455       0.21558365 </v>
   <v>       0.38552771       0.19276385       0.57829156 </v>
   <v>       0.01592974       0.00796487       0.02389461 </v>
   <v>       0.19808995       0.59904498       0.79713493 </v>
  </varray>
 </structure>
</modeling>
