<?xml version="1.0" encoding="ISO-8859-1"?>
<modeling>
 <generator>
  <i name="program" type="string">vasp </i>
  <i name="version" type="string">5.3.5  </i>
  <i name="subversion" type="string">31Mar14 (build Jun 20 2014 13:15:13) complex                          parallel </i>
  <i name="platform" type="string">LinuxIFC </i>
  <i name="date" type="string">2025 11 21 </i>
  <i name="time" type="string">11:39:32 </i>
 </generator>
 <incar>
  <i type="string" name="PREC">accurate</i>
  <i type="int" name="IALGO">    68</i>
  <i type="logical" name="ADDGRID"> T  </i>
  <i type="int" name="NELM">   100</i>
  <i type="int" name="NELMIN">     4</i>
  <i type="int" name="IBRION">     2</i>
  <i name="EDIFF">      0.00000100</i>
  <i name="EDIFFG">     -0.02000000</i>
  <i type="int" name="NSW">    30</i>
  <i type="int" name="ISIF">     3</i>
  <i name="ENCUT">    500.00000000</i>
  <i type="logical" name="LREAL"> F  </i>
  <i type="int" name="ISMEAR">     1</i>
  <i name="SIGMA">      0.30000000</i>
  <i type="logical" name="LWAVE"> F  </i>
  <i type="logical" name="LCHARG"> F  </i>
  <i type="int" name="NELM">   100</i>
 </incar>
 <kpoints>
  <generation param="Auto">
   <i name="subdivisionlength">     70.00000000 </i>
   <v type="int" name="divisions">      28       28        5 </v>
   <v name="usershift">      0.00000000       0.00000000       0.00000000 </v>
   <v name="genvec1">      0.03571429       0.00000000       0.00000000 </v>
   <v name="genvec2">      0.00000000       0.03571429       0.00000000 </v>
   <v name="genvec3">      0.00000000       0.00000000       0.20000000 </v>
   <v name="shift">      0.00000000       0.00000000       0.00000000 </v>
  </generation>
  <varray name="kpointlist" >
   <v>       0.00000000       0.00000000       0.00000000 </v>
   <v>       0.03571429       0.00000000       0.00000000 </v>
   <v>       0.07142857       0.00000000       0.00000000 </v>
   <v>       0.10714286       0.00000000       0.00000000 </v>
   <v>       0.14285714       0.00000000       0.00000000 </v>
   <v>       0.17857143       0.00000000       0.00000000 </v>
   <v>       0.21428571       0.00000000       0.00000000 </v>
   <v>       0.25000000       0.00000000       0.00000000 </v>
   <v>       0.28571429       0.00000000       0.00000000 </v>
   <v>       0.32142857       0.00000000       0.00000000 </v>
   <v>       0.35714286       0.00000000       0.00000000 </v>
   <v>       0.39285714       0.00000000       0.00000000 </v>
   <v>       0.42857143       0.00000000       0.00000000 </v>
   <v>       0.46428571       0.00000000       0.00000000 </v>
   <v>       0.50000000       0.00000000       0.00000000 </v>
   <v>       0.03571429       0.03571429       0.00000000 </v>
   <v>       0.07142857       0.03571429       0.00000000 </v>
   <v>       0.10714286       0.03571429       0.00000000 </v>
   <v>       0.14285714       0.03571429       0.00000000 </v>
   <v>       0.17857143       0.03571429       0.00000000 </v>
   <v>       0.21428571       0.03571429       0.00000000 </v>
   <v>       0.25000000       0.03571429       0.00000000 </v>
   <v>       0.28571429       0.03571429       0.00000000 </v>
   <v>       0.32142857       0.03571429       0.00000000 </v>
   <v>       0.35714286       0.03571429       0.00000000 </v>
   <v>       0.39285714       0.03571429       0.00000000 </v>
   <v>       0.42857143       0.03571429       0.00000000 </v>
   <v>       0.46428571       0.03571429       0.00000000 </v>
   <v>       0.07142857       0.07142857       0.00000000 </v>
   <v>       0.10714286       0.07142857       0.00000000 </v>
   <v>       0.14285714       0.07142857       0.00000000 </v>
   <v>       0.17857143       0.07142857       0.00000000 </v>
   <v>       0.21428571       0.07142857       0.00000000 </v>
   <v>       0.25000000       0.07142857       0.00000000 </v>
   <v>       0.28571429       0.07142857       0.00000000 </v>
   <v>       0.32142857       0.07142857       0.00000000 </v>
   <v>       0.35714286       0.07142857       0.00000000 </v>
   <v>       0.39285714       0.07142857       0.00000000 </v>
   <v>       0.42857143       0.07142857       0.00000000 </v>
   <v>       0.46428571       0.07142857       0.00000000 </v>
   <v>       0.10714286       0.10714286       0.00000000 </v>
   <v>       0.14285714       0.10714286       0.00000000 </v>
   <v>       0.17857143       0.10714286       0.00000000 </v>
   <v>       0.21428571       0.10714286       0.00000000 </v>
   <v>       0.25000000       0.10714286       0.00000000 </v>
   <v>       0.28571429       0.10714286       0.00000000 </v>
   <v>       0.32142857       0.10714286       0.00000000 </v>
   <v>       0.35714286       0.10714286       0.00000000 </v>
   <v>       0.39285714       0.10714286       0.00000000 </v>
   <v>       0.42857143       0.10714286       0.00000000 </v>
   <v>       0.14285714       0.14285714       0.00000000 </v>
   <v>       0.17857143       0.14285714       0.00000000 </v>
   <v>       0.21428571       0.14285714       0.00000000 </v>
   <v>       0.25000000       0.14285714       0.00000000 </v>
   <v>       0.28571429       0.14285714       0.00000000 </v>
   <v>       0.32142857       0.14285714       0.00000000 </v>
   <v>       0.35714286       0.14285714       0.00000000 </v>
   <v>       0.39285714       0.14285714       0.00000000 </v>
   <v>       0.42857143       0.14285714       0.00000000 </v>
   <v>       0.17857143       0.17857143       0.00000000 </v>
   <v>       0.21428571       0.17857143       0.00000000 </v>
   <v>       0.25000000       0.17857143       0.00000000 </v>
   <v>       0.28571429       0.17857143       0.00000000 </v>
   <v>       0.32142857       0.17857143       0.00000000 </v>
   <v>       0.35714286       0.17857143       0.00000000 </v>
   <v>       0.39285714       0.17857143       0.00000000 </v>
   <v>       0.21428571       0.21428571       0.00000000 </v>
   <v>       0.25000000       0.21428571       0.00000000 </v>
   <v>       0.28571429       0.21428571       0.00000000 </v>
   <v>       0.32142857       0.21428571       0.00000000 </v>
   <v>       0.35714286       0.21428571       0.00000000 </v>
   <v>       0.39285714       0.21428571       0.00000000 </v>
   <v>       0.25000000       0.25000000       0.00000000 </v>
   <v>       0.28571429       0.25000000       0.00000000 </v>
   <v>       0.32142857       0.25000000       0.00000000 </v>
   <v>       0.35714286       0.25000000       0.00000000 </v>
   <v>       0.28571429       0.28571429       0.00000000 </v>
   <v>       0.32142857       0.28571429       0.00000000 </v>
   <v>       0.35714286       0.28571429       0.00000000 </v>
   <v>       0.32142857       0.32142857       0.00000000 </v>
   <v>       0.00000000       0.00000000       0.20000000 </v>
   <v>       0.03571429       0.00000000       0.20000000 </v>
   <v>       0.07142857       0.00000000       0.20000000 </v>
   <v>       0.10714286       0.00000000       0.20000000 </v>
   <v>       0.14285714       0.00000000       0.20000000 </v>
   <v>       0.17857143       0.00000000       0.20000000 </v>
   <v>       0.21428571       0.00000000       0.20000000 </v>
   <v>       0.25000000       0.00000000       0.20000000 </v>
   <v>       0.28571429       0.00000000       0.20000000 </v>
   <v>       0.32142857       0.00000000       0.20000000 </v>
   <v>       0.35714286       0.00000000       0.20000000 </v>
   <v>       0.39285714       0.00000000       0.20000000 </v>
   <v>       0.42857143       0.00000000       0.20000000 </v>
   <v>       0.46428571       0.00000000       0.20000000 </v>
   <v>       0.50000000       0.00000000       0.20000000 </v>
   <v>      -0.46428571       0.00000000       0.20000000 </v>
   <v>      -0.42857143       0.00000000       0.20000000 </v>
   <v>      -0.39285714       0.00000000       0.20000000 </v>
   <v>      -0.35714286       0.00000000       0.20000000 </v>
   <v>      -0.32142857       0.00000000       0.20000000 </v>
   <v>      -0.28571429       0.00000000       0.20000000 </v>
   <v>      -0.25000000       0.00000000       0.20000000 </v>
   <v>      -0.21428571       0.00000000       0.20000000 </v>
   <v>      -0.17857143       0.00000000       0.20000000 </v>
   <v>      -0.14285714       0.00000000       0.20000000 </v>
   <v>      -0.10714286       0.00000000       0.20000000 </v>
   <v>      -0.07142857       0.00000000       0.20000000 </v>
   <v>      -0.03571429       0.00000000       0.20000000 </v>
   <v>       0.03571429       0.03571429       0.20000000 </v>
   <v>       0.07142857       0.03571429       0.20000000 </v>
   <v>       0.10714286       0.03571429       0.20000000 </v>
   <v>       0.14285714       0.03571429       0.20000000 </v>
   <v>       0.17857143       0.03571429       0.20000000 </v>
   <v>       0.21428571       0.03571429       0.20000000 </v>
   <v>       0.25000000       0.03571429       0.20000000 </v>
   <v>       0.28571429       0.03571429       0.20000000 </v>
   <v>       0.32142857       0.03571429       0.20000000 </v>
   <v>       0.35714286       0.03571429       0.20000000 </v>
   <v>       0.39285714       0.03571429       0.20000000 </v>
   <v>       0.42857143       0.03571429       0.20000000 </v>
   <v>       0.46428571       0.03571429       0.20000000 </v>
   <v>       0.50000000       0.03571429       0.20000000 </v>
   <v>      -0.46428571       0.03571429       0.20000000 </v>
   <v>      -0.42857143       0.03571429       0.20000000 </v>
   <v>      -0.39285714       0.03571429       0.20000000 </v>
   <v>      -0.35714286       0.03571429       0.20000000 </v>
   <v>      -0.32142857       0.03571429       0.20000000 </v>
   <v>      -0.28571429       0.03571429       0.20000000 </v>
   <v>      -0.25000000       0.03571429       0.20000000 </v>
   <v>      -0.21428571       0.03571429       0.20000000 </v>
   <v>      -0.17857143       0.03571429       0.20000000 </v>
   <v>      -0.14285714       0.03571429       0.20000000 </v>
   <v>      -0.10714286       0.03571429       0.20000000 </v>
   <v>       0.07142857       0.07142857       0.20000000 </v>
   <v>       0.10714286       0.07142857       0.20000000 </v>
   <v>       0.14285714       0.07142857       0.20000000 </v>
   <v>       0.17857143       0.07142857       0.20000000 </v>
   <v>       0.21428571       0.07142857       0.20000000 </v>
   <v>       0.25000000       0.07142857       0.20000000 </v>
   <v>       0.28571429       0.07142857       0.20000000 </v>
   <v>       0.32142857       0.07142857       0.20000000 </v>
   <v>       0.35714286       0.07142857       0.20000000 </v>
   <v>       0.39285714       0.07142857       0.20000000 </v>
   <v>       0.42857143       0.07142857       0.20000000 </v>
   <v>       0.46428571       0.07142857       0.20000000 </v>
   <v>       0.50000000       0.07142857       0.20000000 </v>
   <v>      -0.46428571       0.07142857       0.20000000 </v>
   <v>      -0.42857143       0.07142857       0.20000000 </v>
   <v>      -0.39285714       0.07142857       0.20000000 </v>
   <v>      -0.35714286       0.07142857       0.20000000 </v>
   <v>      -0.32142857       0.07142857       0.20000000 </v>
   <v>      -0.28571429       0.07142857       0.20000000 </v>
   <v>      -0.25000000       0.07142857       0.20000000 </v>
   <v>      -0.21428571       0.07142857       0.20000000 </v>
   <v>      -0.17857143       0.07142857       0.20000000 </v>
   <v>       0.10714286       0.10714286       0.20000000 </v>
   <v>       0.14285714       0.10714286       0.20000000 </v>
   <v>       0.17857143       0.10714286       0.20000000 </v>
   <v>       0.21428571       0.10714286       0.20000000 </v>
   <v>       0.25000000       0.10714286       0.20000000 </v>
   <v>       0.28571429       0.10714286       0.20000000 </v>
   <v>       0.32142857       0.10714286       0.20000000 </v>
   <v>       0.35714286       0.10714286       0.20000000 </v>
   <v>       0.39285714       0.10714286       0.20000000 </v>
   <v>       0.42857143       0.10714286       0.20000000 </v>
   <v>       0.46428571       0.10714286       0.20000000 </v>
   <v>       0.50000000       0.10714286       0.20000000 </v>
   <v>      -0.46428571       0.10714286       0.20000000 </v>
   <v>      -0.42857143       0.10714286       0.20000000 </v>
   <v>      -0.39285714       0.10714286       0.20000000 </v>
   <v>      -0.35714286       0.10714286       0.20000000 </v>
   <v>      -0.32142857       0.10714286       0.20000000 </v>
   <v>      -0.28571429       0.10714286       0.20000000 </v>
   <v>      -0.25000000       0.10714286       0.20000000 </v>
   <v>       0.14285714       0.14285714       0.20000000 </v>
   <v>       0.17857143       0.14285714       0.20000000 </v>
   <v>       0.21428571       0.14285714       0.20000000 </v>
   <v>       0.25000000       0.14285714       0.20000000 </v>
   <v>       0.28571429       0.14285714       0.20000000 </v>
   <v>       0.32142857       0.14285714       0.20000000 </v>
   <v>       0.35714286       0.14285714       0.20000000 </v>
   <v>       0.39285714       0.14285714       0.20000000 </v>
   <v>       0.42857143       0.14285714       0.20000000 </v>
   <v>       0.46428571       0.14285714       0.20000000 </v>
   <v>       0.50000000       0.14285714       0.20000000 </v>
   <v>      -0.46428571       0.14285714       0.20000000 </v>
   <v>      -0.42857143       0.14285714       0.20000000 </v>
   <v>      -0.39285714       0.14285714       0.20000000 </v>
   <v>      -0.35714286       0.14285714       0.20000000 </v>
   <v>      -0.32142857       0.14285714       0.20000000 </v>
   <v>       0.17857143       0.17857143       0.20000000 </v>
   <v>       0.21428571       0.17857143       0.20000000 </v>
   <v>       0.25000000       0.17857143       0.20000000 </v>
   <v>       0.28571429       0.17857143       0.20000000 </v>
   <v>       0.32142857       0.17857143       0.20000000 </v>
   <v>       0.35714286       0.17857143       0.20000000 </v>
   <v>       0.39285714       0.17857143       0.20000000 </v>
   <v>       0.42857143       0.17857143       0.20000000 </v>
   <v>       0.46428571       0.17857143       0.20000000 </v>
   <v>       0.50000000       0.17857143       0.20000000 </v>
   <v>      -0.46428571       0.17857143       0.20000000 </v>
   <v>      -0.42857143       0.17857143       0.20000000 </v>
   <v>      -0.39285714       0.17857143       0.20000000 </v>
   <v>       0.21428571       0.21428571       0.20000000 </v>
   <v>       0.25000000       0.21428571       0.20000000 </v>
   <v>       0.28571429       0.21428571       0.20000000 </v>
   <v>       0.32142857       0.21428571       0.20000000 </v>
   <v>       0.35714286       0.21428571       0.20000000 </v>
   <v>       0.39285714       0.21428571       0.20000000 </v>
   <v>       0.42857143       0.21428571       0.20000000 </v>
   <v>       0.46428571       0.21428571       0.20000000 </v>
   <v>       0.50000000       0.21428571       0.20000000 </v>
   <v>      -0.46428571       0.21428571       0.20000000 </v>
   <v>       0.25000000       0.25000000       0.20000000 </v>
   <v>       0.28571429       0.25000000       0.20000000 </v>
   <v>       0.32142857       0.25000000       0.20000000 </v>
   <v>       0.35714286       0.25000000       0.20000000 </v>
   <v>       0.39285714       0.25000000       0.20000000 </v>
   <v>       0.42857143       0.25000000       0.20000000 </v>
   <v>       0.46428571       0.25000000       0.20000000 </v>
   <v>       0.28571429       0.28571429       0.20000000 </v>
   <v>       0.32142857       0.28571429       0.20000000 </v>
   <v>       0.35714286       0.28571429       0.20000000 </v>
   <v>       0.39285714       0.28571429       0.20000000 </v>
   <v>       0.32142857       0.32142857       0.20000000 </v>
   <v>       0.00000000       0.00000000       0.40000000 </v>
   <v>       0.03571429       0.00000000       0.40000000 </v>
   <v>       0.07142857       0.00000000       0.40000000 </v>
   <v>       0.10714286       0.00000000       0.40000000 </v>
   <v>       0.14285714       0.00000000       0.40000000 </v>
   <v>       0.17857143       0.00000000       0.40000000 </v>
   <v>       0.21428571       0.00000000       0.40000000 </v>
   <v>       0.25000000       0.00000000       0.40000000 </v>
   <v>       0.28571429       0.00000000       0.40000000 </v>
   <v>       0.32142857       0.00000000       0.40000000 </v>
   <v>       0.35714286       0.00000000       0.40000000 </v>
   <v>       0.39285714       0.00000000       0.40000000 </v>
   <v>       0.42857143       0.00000000       0.40000000 </v>
   <v>       0.46428571       0.00000000       0.40000000 </v>
   <v>       0.50000000       0.00000000       0.40000000 </v>
   <v>      -0.46428571       0.00000000       0.40000000 </v>
   <v>      -0.42857143       0.00000000       0.40000000 </v>
   <v>      -0.39285714       0.00000000       0.40000000 </v>
   <v>      -0.35714286       0.00000000       0.40000000 </v>
   <v>      -0.32142857       0.00000000       0.40000000 </v>
   <v>      -0.28571429       0.00000000       0.40000000 </v>
   <v>      -0.25000000       0.00000000       0.40000000 </v>
   <v>      -0.21428571       0.00000000       0.40000000 </v>
   <v>      -0.17857143       0.00000000       0.40000000 </v>
   <v>      -0.14285714       0.00000000       0.40000000 </v>
   <v>      -0.10714286       0.00000000       0.40000000 </v>
   <v>      -0.07142857       0.00000000       0.40000000 </v>
   <v>      -0.03571429       0.00000000       0.40000000 </v>
   <v>       0.03571429       0.03571429       0.40000000 </v>
   <v>       0.07142857       0.03571429       0.40000000 </v>
   <v>       0.10714286       0.03571429       0.40000000 </v>
   <v>       0.14285714       0.03571429       0.40000000 </v>
   <v>       0.17857143       0.03571429       0.40000000 </v>
   <v>       0.21428571       0.03571429       0.40000000 </v>
   <v>       0.25000000       0.03571429       0.40000000 </v>
   <v>       0.28571429       0.03571429       0.40000000 </v>
   <v>       0.32142857       0.03571429       0.40000000 </v>
   <v>       0.35714286       0.03571429       0.40000000 </v>
   <v>       0.39285714       0.03571429       0.40000000 </v>
   <v>       0.42857143       0.03571429       0.40000000 </v>
   <v>       0.46428571       0.03571429       0.40000000 </v>
   <v>       0.50000000       0.03571429       0.40000000 </v>
   <v>      -0.46428571       0.03571429       0.40000000 </v>
   <v>      -0.42857143       0.03571429       0.40000000 </v>
   <v>      -0.39285714       0.03571429       0.40000000 </v>
   <v>      -0.35714286       0.03571429       0.40000000 </v>
   <v>      -0.32142857       0.03571429       0.40000000 </v>
   <v>      -0.28571429       0.03571429       0.40000000 </v>
   <v>      -0.25000000       0.03571429       0.40000000 </v>
   <v>      -0.21428571       0.03571429       0.40000000 </v>
   <v>      -0.17857143       0.03571429       0.40000000 </v>
   <v>      -0.14285714       0.03571429       0.40000000 </v>
   <v>      -0.10714286       0.03571429       0.40000000 </v>
   <v>       0.07142857       0.07142857       0.40000000 </v>
   <v>       0.10714286       0.07142857       0.40000000 </v>
   <v>       0.14285714       0.07142857       0.40000000 </v>
   <v>       0.17857143       0.07142857       0.40000000 </v>
   <v>       0.21428571       0.07142857       0.40000000 </v>
   <v>       0.25000000       0.07142857       0.40000000 </v>
   <v>       0.28571429       0.07142857       0.40000000 </v>
   <v>       0.32142857       0.07142857       0.40000000 </v>
   <v>       0.35714286       0.07142857       0.40000000 </v>
   <v>       0.39285714       0.07142857       0.40000000 </v>
   <v>       0.42857143       0.07142857       0.40000000 </v>
   <v>       0.46428571       0.07142857       0.40000000 </v>
   <v>       0.50000000       0.07142857       0.40000000 </v>
   <v>      -0.46428571       0.07142857       0.40000000 </v>
   <v>      -0.42857143       0.07142857       0.40000000 </v>
   <v>      -0.39285714       0.07142857       0.40000000 </v>
   <v>      -0.35714286       0.07142857       0.40000000 </v>
   <v>      -0.32142857       0.07142857       0.40000000 </v>
   <v>      -0.28571429       0.07142857       0.40000000 </v>
   <v>      -0.25000000       0.07142857       0.40000000 </v>
   <v>      -0.21428571       0.07142857       0.40000000 </v>
   <v>      -0.17857143       0.07142857       0.40000000 </v>
   <v>       0.10714286       0.10714286       0.40000000 </v>
   <v>       0.14285714       0.10714286       0.40000000 </v>
   <v>       0.17857143       0.10714286       0.40000000 </v>
   <v>       0.21428571       0.10714286       0.40000000 </v>
   <v>       0.25000000       0.10714286       0.40000000 </v>
   <v>       0.28571429       0.10714286       0.40000000 </v>
   <v>       0.32142857       0.10714286       0.40000000 </v>
   <v>       0.35714286       0.10714286       0.40000000 </v>
   <v>       0.39285714       0.10714286       0.40000000 </v>
   <v>       0.42857143       0.10714286       0.40000000 </v>
   <v>       0.46428571       0.10714286       0.40000000 </v>
   <v>       0.50000000       0.10714286       0.40000000 </v>
   <v>      -0.46428571       0.10714286       0.40000000 </v>
   <v>      -0.42857143       0.10714286       0.40000000 </v>
   <v>      -0.39285714       0.10714286       0.40000000 </v>
   <v>      -0.35714286       0.10714286       0.40000000 </v>
   <v>      -0.32142857       0.10714286       0.40000000 </v>
   <v>      -0.28571429       0.10714286       0.40000000 </v>
   <v>      -0.25000000       0.10714286       0.40000000 </v>
   <v>       0.14285714       0.14285714       0.40000000 </v>
   <v>       0.17857143       0.14285714       0.40000000 </v>
   <v>       0.21428571       0.14285714       0.40000000 </v>
   <v>       0.25000000       0.14285714       0.40000000 </v>
   <v>       0.28571429       0.14285714       0.40000000 </v>
   <v>       0.32142857       0.14285714       0.40000000 </v>
   <v>       0.35714286       0.14285714       0.40000000 </v>
   <v>       0.39285714       0.14285714       0.40000000 </v>
   <v>       0.42857143       0.14285714       0.40000000 </v>
   <v>       0.46428571       0.14285714       0.40000000 </v>
   <v>       0.50000000       0.14285714       0.40000000 </v>
   <v>      -0.46428571       0.14285714       0.40000000 </v>
   <v>      -0.42857143       0.14285714       0.40000000 </v>
   <v>      -0.39285714       0.14285714       0.40000000 </v>
   <v>      -0.35714286       0.14285714       0.40000000 </v>
   <v>      -0.32142857       0.14285714       0.40000000 </v>
   <v>       0.17857143       0.17857143       0.40000000 </v>
   <v>       0.21428571       0.17857143       0.40000000 </v>
   <v>       0.25000000       0.17857143       0.40000000 </v>
   <v>       0.28571429       0.17857143       0.40000000 </v>
   <v>       0.32142857       0.17857143       0.40000000 </v>
   <v>       0.35714286       0.17857143       0.40000000 </v>
   <v>       0.39285714       0.17857143       0.40000000 </v>
   <v>       0.42857143       0.17857143       0.40000000 </v>
   <v>       0.46428571       0.17857143       0.40000000 </v>
   <v>       0.50000000       0.17857143       0.40000000 </v>
   <v>      -0.46428571       0.17857143       0.40000000 </v>
   <v>      -0.42857143       0.17857143       0.40000000 </v>
   <v>      -0.39285714       0.17857143       0.40000000 </v>
   <v>       0.21428571       0.21428571       0.40000000 </v>
   <v>       0.25000000       0.21428571       0.40000000 </v>
   <v>       0.28571429       0.21428571       0.40000000 </v>
   <v>       0.32142857       0.21428571       0.40000000 </v>
   <v>       0.35714286       0.21428571       0.40000000 </v>
   <v>       0.39285714       0.21428571       0.40000000 </v>
   <v>       0.42857143       0.21428571       0.40000000 </v>
   <v>       0.46428571       0.21428571       0.40000000 </v>
   <v>       0.50000000       0.21428571       0.40000000 </v>
   <v>      -0.46428571       0.21428571       0.40000000 </v>
   <v>       0.25000000       0.25000000       0.40000000 </v>
   <v>       0.28571429       0.25000000       0.40000000 </v>
   <v>       0.32142857       0.25000000       0.40000000 </v>
   <v>       0.35714286       0.25000000       0.40000000 </v>
   <v>       0.39285714       0.25000000       0.40000000 </v>
   <v>       0.42857143       0.25000000       0.40000000 </v>
   <v>       0.46428571       0.25000000       0.40000000 </v>
   <v>       0.28571429       0.28571429       0.40000000 </v>
   <v>       0.32142857       0.28571429       0.40000000 </v>
   <v>       0.35714286       0.28571429       0.40000000 </v>
   <v>       0.39285714       0.28571429       0.40000000 </v>
   <v>       0.32142857       0.32142857       0.40000000 </v>
  </varray>
  <varray name="weights" >
   <v>       0.00025510 </v>
   <v>       0.00153061 </v>
   <v>       0.00153061 </v>
   <v>       0.00153061 </v>
   <v>       0.00153061 </v>
   <v>       0.00153061 </v>
   <v>       0.00153061 </v>
   <v>       0.00153061 </v>
   <v>       0.00153061 </v>
   <v>       0.00153061 </v>
   <v>       0.00153061 </v>
   <v>       0.00153061 </v>
   <v>       0.00153061 </v>
   <v>       0.00153061 </v>
   <v>       0.00076531 </v>
   <v>       0.00153061 </v>
   <v>       0.00306122 </v>
   <v>       0.00306122 </v>
   <v>       0.00306122 </v>
   <v>       0.00306122 </v>
   <v>       0.00306122 </v>
   <v>       0.00306122 </v>
   <v>       0.00306122 </v>
   <v>       0.00306122 </v>
   <v>       0.00306122 </v>
   <v>       0.00306122 </v>
   <v>       0.00306122 </v>
   <v>       0.00306122 </v>
   <v>       0.00153061 </v>
   <v>       0.00306122 </v>
   <v>       0.00306122 </v>
   <v>       0.00306122 </v>
   <v>       0.00306122 </v>
   <v>       0.00306122 </v>
   <v>       0.00306122 </v>
   <v>       0.00306122 </v>
   <v>       0.00306122 </v>
   <v>       0.00306122 </v>
   <v>       0.00306122 </v>
   <v>       0.00153061 </v>
   <v>       0.00153061 </v>
   <v>       0.00306122 </v>
   <v>       0.00306122 </v>
   <v>       0.00306122 </v>
   <v>       0.00306122 </v>
   <v>       0.00306122 </v>
   <v>       0.00306122 </v>
   <v>       0.00306122 </v>
   <v>       0.00306122 </v>
   <v>       0.00306122 </v>
   <v>       0.00153061 </v>
   <v>       0.00306122 </v>
   <v>       0.00306122 </v>
   <v>       0.00306122 </v>
   <v>       0.00306122 </v>
   <v>       0.00306122 </v>
   <v>       0.00306122 </v>
   <v>       0.00306122 </v>
   <v>       0.00153061 </v>
   <v>       0.00153061 </v>
   <v>       0.00306122 </v>
   <v>       0.00306122 </v>
   <v>       0.00306122 </v>
   <v>       0.00306122 </v>
   <v>       0.00306122 </v>
   <v>       0.00306122 </v>
   <v>       0.00153061 </v>
   <v>       0.00306122 </v>
   <v>       0.00306122 </v>
   <v>       0.00306122 </v>
   <v>       0.00306122 </v>
   <v>       0.00153061 </v>
   <v>       0.00153061 </v>
   <v>       0.00306122 </v>
   <v>       0.00306122 </v>
   <v>       0.00306122 </v>
   <v>       0.00153061 </v>
   <v>       0.00306122 </v>
   <v>       0.00153061 </v>
   <v>       0.00153061 </v>
   <v>       0.00051020 </v>
   <v>       0.00153061 </v>
   <v>       0.00153061 </v>
   <v>       0.00153061 </v>
   <v>       0.00153061 </v>
   <v>       0.00153061 </v>
   <v>       0.00153061 </v>
   <v>       0.00153061 </v>
   <v>       0.00153061 </v>
   <v>       0.00153061 </v>
   <v>       0.00153061 </v>
   <v>       0.00153061 </v>
   <v>       0.00153061 </v>
   <v>       0.00153061 </v>
   <v>       0.00153061 </v>
   <v>       0.00153061 </v>
   <v>       0.00153061 </v>
   <v>       0.00153061 </v>
   <v>       0.00153061 </v>
   <v>       0.00153061 </v>
   <v>       0.00153061 </v>
   <v>       0.00153061 </v>
   <v>       0.00153061 </v>
   <v>       0.00153061 </v>
   <v>       0.00153061 </v>
   <v>       0.00153061 </v>
   <v>       0.00153061 </v>
   <v>       0.00153061 </v>
   <v>       0.00306122 </v>
   <v>       0.00306122 </v>
   <v>       0.00306122 </v>
   <v>       0.00306122 </v>
   <v>       0.00306122 </v>
   <v>       0.00306122 </v>
   <v>       0.00306122 </v>
   <v>       0.00306122 </v>
   <v>       0.00306122 </v>
   <v>       0.00306122 </v>
   <v>       0.00306122 </v>
   <v>       0.00306122 </v>
   <v>       0.00306122 </v>
   <v>       0.00306122 </v>
   <v>       0.00306122 </v>
   <v>       0.00306122 </v>
   <v>       0.00306122 </v>
   <v>       0.00306122 </v>
   <v>       0.00306122 </v>
   <v>       0.00306122 </v>
   <v>       0.00306122 </v>
   <v>       0.00306122 </v>
   <v>       0.00306122 </v>
   <v>       0.00306122 </v>
   <v>       0.00306122 </v>
   <v>       0.00306122 </v>
   <v>       0.00306122 </v>
   <v>       0.00306122 </v>
   <v>       0.00306122 </v>
   <v>       0.00306122 </v>
   <v>       0.00306122 </v>
   <v>       0.00306122 </v>
   <v>       0.00306122 </v>
   <v>       0.00306122 </v>
   <v>       0.00306122 </v>
   <v>       0.00306122 </v>
   <v>       0.00306122 </v>
   <v>       0.00306122 </v>
   <v>       0.00306122 </v>
   <v>       0.00306122 </v>
   <v>       0.00306122 </v>
   <v>       0.00306122 </v>
   <v>       0.00306122 </v>
   <v>       0.00306122 </v>
   <v>       0.00306122 </v>
   <v>       0.00306122 </v>
   <v>       0.00306122 </v>
   <v>       0.00306122 </v>
   <v>       0.00306122 </v>
   <v>       0.00306122 </v>
   <v>       0.00306122 </v>
   <v>       0.00306122 </v>
   <v>       0.00306122 </v>
   <v>       0.00306122 </v>
   <v>       0.00306122 </v>
   <v>       0.00306122 </v>
   <v>       0.00306122 </v>
   <v>       0.00306122 </v>
   <v>       0.00306122 </v>
   <v>       0.00306122 </v>
   <v>       0.00306122 </v>
   <v>       0.00306122 </v>
   <v>       0.00306122 </v>
   <v>       0.00306122 </v>
   <v>       0.00306122 </v>
   <v>       0.00306122 </v>
   <v>       0.00306122 </v>
   <v>       0.00306122 </v>
   <v>       0.00306122 </v>
   <v>       0.00306122 </v>
   <v>       0.00306122 </v>
   <v>       0.00306122 </v>
   <v>       0.00306122 </v>
   <v>       0.00306122 </v>
   <v>       0.00306122 </v>
   <v>       0.00306122 </v>
   <v>       0.00306122 </v>
   <v>       0.00306122 </v>
   <v>       0.00306122 </v>
   <v>       0.00306122 </v>
   <v>       0.00306122 </v>
   <v>       0.00306122 </v>
   <v>       0.00306122 </v>
   <v>       0.00306122 </v>
   <v>       0.00306122 </v>
   <v>       0.00306122 </v>
   <v>       0.00306122 </v>
   <v>       0.00306122 </v>
   <v>       0.00306122 </v>
   <v>       0.00306122 </v>
   <v>       0.00306122 </v>
   <v>       0.00306122 </v>
   <v>       0.00306122 </v>
   <v>       0.00306122 </v>
   <v>       0.00306122 </v>
   <v>       0.00306122 </v>
   <v>       0.00306122 </v>
   <v>       0.00306122 </v>
   <v>       0.00306122 </v>
   <v>       0.00306122 </v>
   <v>       0.00306122 </v>
   <v>       0.00306122 </v>
   <v>       0.00306122 </v>
   <v>       0.00306122 </v>
   <v>       0.00306122 </v>
   <v>       0.00306122 </v>
   <v>       0.00306122 </v>
   <v>       0.00306122 </v>
   <v>       0.00306122 </v>
   <v>       0.00306122 </v>
   <v>       0.00306122 </v>
   <v>       0.00306122 </v>
   <v>       0.00306122 </v>
   <v>       0.00306122 </v>
   <v>       0.00306122 </v>
   <v>       0.00306122 </v>
   <v>       0.00306122 </v>
   <v>       0.00051020 </v>
   <v>       0.00153061 </v>
   <v>       0.00153061 </v>
   <v>       0.00153061 </v>
   <v>       0.00153061 </v>
   <v>       0.00153061 </v>
   <v>       0.00153061 </v>
   <v>       0.00153061 </v>
   <v>       0.00153061 </v>
   <v>       0.00153061 </v>
   <v>       0.00153061 </v>
   <v>       0.00153061 </v>
   <v>       0.00153061 </v>
   <v>       0.00153061 </v>
   <v>       0.00153061 </v>
   <v>       0.00153061 </v>
   <v>       0.00153061 </v>
   <v>       0.00153061 </v>
   <v>       0.00153061 </v>
   <v>       0.00153061 </v>
   <v>       0.00153061 </v>
   <v>       0.00153061 </v>
   <v>       0.00153061 </v>
   <v>       0.00153061 </v>
   <v>       0.00153061 </v>
   <v>       0.00153061 </v>
   <v>       0.00153061 </v>
   <v>       0.00153061 </v>
   <v>       0.00306122 </v>
   <v>       0.00306122 </v>
   <v>       0.00306122 </v>
   <v>       0.00306122 </v>
   <v>       0.00306122 </v>
   <v>       0.00306122 </v>
   <v>       0.00306122 </v>
   <v>       0.00306122 </v>
   <v>       0.00306122 </v>
   <v>       0.00306122 </v>
   <v>       0.00306122 </v>
   <v>       0.00306122 </v>
   <v>       0.00306122 </v>
   <v>       0.00306122 </v>
   <v>       0.00306122 </v>
   <v>       0.00306122 </v>
   <v>       0.00306122 </v>
   <v>       0.00306122 </v>
   <v>       0.00306122 </v>
   <v>       0.00306122 </v>
   <v>       0.00306122 </v>
   <v>       0.00306122 </v>
   <v>       0.00306122 </v>
   <v>       0.00306122 </v>
   <v>       0.00306122 </v>
   <v>       0.00306122 </v>
   <v>       0.00306122 </v>
   <v>       0.00306122 </v>
   <v>       0.00306122 </v>
   <v>       0.00306122 </v>
   <v>       0.00306122 </v>
   <v>       0.00306122 </v>
   <v>       0.00306122 </v>
   <v>       0.00306122 </v>
   <v>       0.00306122 </v>
   <v>       0.00306122 </v>
   <v>       0.00306122 </v>
   <v>       0.00306122 </v>
   <v>       0.00306122 </v>
   <v>       0.00306122 </v>
   <v>       0.00306122 </v>
   <v>       0.00306122 </v>
   <v>       0.00306122 </v>
   <v>       0.00306122 </v>
   <v>       0.00306122 </v>
   <v>       0.00306122 </v>
   <v>       0.00306122 </v>
   <v>       0.00306122 </v>
   <v>       0.00306122 </v>
   <v>       0.00306122 </v>
   <v>       0.00306122 </v>
   <v>       0.00306122 </v>
   <v>       0.00306122 </v>
   <v>       0.00306122 </v>
   <v>       0.00306122 </v>
   <v>       0.00306122 </v>
   <v>       0.00306122 </v>
   <v>       0.00306122 </v>
   <v>       0.00306122 </v>
   <v>       0.00306122 </v>
   <v>       0.00306122 </v>
   <v>       0.00306122 </v>
   <v>       0.00306122 </v>
   <v>       0.00306122 </v>
   <v>       0.00306122 </v>
   <v>       0.00306122 </v>
   <v>       0.00306122 </v>
   <v>       0.00306122 </v>
   <v>       0.00306122 </v>
   <v>       0.00306122 </v>
   <v>       0.00306122 </v>
   <v>       0.00306122 </v>
   <v>       0.00306122 </v>
   <v>       0.00306122 </v>
   <v>       0.00306122 </v>
   <v>       0.00306122 </v>
   <v>       0.00306122 </v>
   <v>       0.00306122 </v>
   <v>       0.00306122 </v>
   <v>       0.00306122 </v>
   <v>       0.00306122 </v>
   <v>       0.00306122 </v>
   <v>       0.00306122 </v>
   <v>       0.00306122 </v>
   <v>       0.00306122 </v>
   <v>       0.00306122 </v>
   <v>       0.00306122 </v>
   <v>       0.00306122 </v>
   <v>       0.00306122 </v>
   <v>       0.00306122 </v>
   <v>       0.00306122 </v>
   <v>       0.00306122 </v>
   <v>       0.00306122 </v>
   <v>       0.00306122 </v>
   <v>       0.00306122 </v>
   <v>       0.00306122 </v>
   <v>       0.00306122 </v>
   <v>       0.00306122 </v>
   <v>       0.00306122 </v>
   <v>       0.00306122 </v>
   <v>       0.00306122 </v>
   <v>       0.00306122 </v>
   <v>       0.00306122 </v>
   <v>       0.00306122 </v>
   <v>       0.00306122 </v>
   <v>       0.00306122 </v>
   <v>       0.00306122 </v>
   <v>       0.00306122 </v>
   <v>       0.00306122 </v>
   <v>       0.00306122 </v>
   <v>       0.00306122 </v>
   <v>       0.00306122 </v>
   <v>       0.00306122 </v>
   <v>       0.00306122 </v>
   <v>       0.00306122 </v>
   <v>       0.00306122 </v>
   <v>       0.00306122 </v>
  </varray>
 </kpoints>
 <parameters>
  <separator name="general" >
   <i type="string" name="SYSTEM">unknown system</i>
   <i type="logical" name="LCOMPAT"> F  </i>
  </separator>
  <separator name="electronic" >
   <i type="string" name="PREC">accura</i>
   <i name="ENMAX">    500.00000000</i>
   <i name="ENAUG">    412.49600000</i>
   <i name="EDIFF">      0.00000100</i>
   <i type="int" name="IALGO">    68</i>
   <i type="int" name="IWAVPR">    11</i>
   <i type="int" name="NBANDS">    40</i>
   <i name="NELECT">     66.00000000</i>
   <i type="int" name="TURBO">     0</i>
   <i type="int" name="IRESTART">     0</i>
   <i type="int" name="NREBOOT">     0</i>
   <i type="int" name="NMIN">     0</i>
   <i name="EREF">      0.00000000</i>
   <separator name="electronic smearing" >
    <i type="int" name="ISMEAR">     1</i>
    <i name="SIGMA">      0.30000000</i>
    <i name="KSPACING">      0.50000000</i>
    <i type="logical" name="KGAMMA"> T  </i>
   </separator>
   <separator name="electronic projectors" >
    <i type="logical" name="LREAL"> F  </i>
    <v name="ROPT">      0.00000000      0.00000000</v>
    <i type="int" name="LMAXPAW">  -100</i>
    <i type="int" name="LMAXMIX">     2</i>
    <i type="logical" name="NLSPLINE"> F  </i>
   </separator>
   <separator name="electronic startup" >
    <i type="int" name="ISTART">     0</i>
    <i type="int" name="ICHARG">     2</i>
    <i type="int" name="INIWAV">     1</i>
   </separator>
   <separator name="electronic spin" >
    <i type="int" name="ISPIN">     1</i>
    <i type="logical" name="LNONCOLLINEAR"> F  </i>
    <v name="MAGMOM">      1.00000000      1.00000000      1.00000000      1.00000000      1.00000000      1.00000000</v>
    <i name="NUPDOWN">     -1.00000000</i>
    <i type="logical" name="LSORBIT"> F  </i>
    <v name="SAXIS">      0.00000000      0.00000000      1.00000000</v>
    <i type="logical" name="LSPIRAL"> F  </i>
    <v name="QSPIRAL">      0.00000000      0.00000000      0.00000000</v>
    <i type="logical" name="LZEROZ"> F  </i>
   </separator>
   <separator name="electronic exchange-correlation" >
    <i type="logical" name="LASPH"> F  </i>
    <i type="logical" name="LMETAGGA"> F  </i>
   </separator>
   <separator name="electronic convergence" >
    <i type="int" name="NELM">   100</i>
    <i type="int" name="NELMDL">     0</i>
    <i type="int" name="NELMIN">     4</i>
    <i name="ENINI">    500.00000000</i>
    <separator name="electronic convergence detail" >
     <i type="logical" name="LDIAG"> T  </i>
     <i type="logical" name="LSUBROT"> F  </i>
     <i name="WEIMIN">      0.00100000</i>
     <i name="EBREAK">      0.00000001</i>
     <i name="DEPER">      0.30000000</i>
     <i type="int" name="NRMM">     4</i>
     <i name="TIME">      0.40000000</i>
    </separator>
   </separator>
   <separator name="electronic mixer" >
    <i name="AMIX">      0.40000000</i>
    <i name="BMIX">      1.00000000</i>
    <i name="AMIN">      0.10000000</i>
    <i name="AMIX_MAG">      1.60000000</i>
    <i name="BMIX_MAG">      1.00000000</i>
    <separator name="electronic mixer details" >
     <i type="int" name="IMIX">     4</i>
     <i type="int" name="MAXMIX">   -45</i>
     <i name="WC">    100.00000000</i>
     <i type="int" name="INIMIX">     1</i>
     <i type="int" name="MIXPRE">     1</i>
     <i type="int" name="MREMOVE">     5</i>
    </separator>
   </separator>
   <separator name="electronic dipolcorrection" >
    <i type="logical" name="LDIPOL"> F  </i>
    <i type="logical" name="LMONO"> F  </i>
    <i type="int" name="IDIPOL">     0</i>
    <i name="EPSILON">      1.00000000</i>
    <v name="DIPOL">   -100.00000000   -100.00000000   -100.00000000</v>
    <i name="EFIELD">      0.00000000</i>
   </separator>
  </separator>
  <separator name="grids" >
   <i type="int" name="NGX">    24</i>
   <i type="int" name="NGY">    24</i>
   <i type="int" name="NGZ">   108</i>
   <i type="int" name="NGXF">    48</i>
   <i type="int" name="NGYF">    48</i>
   <i type="int" name="NGZF">   216</i>
   <i type="logical" name="ADDGRID"> T  </i>
  </separator>
  <separator name="ionic" >
   <i type="int" name="NSW">    30</i>
   <i type="int" name="IBRION">     2</i>
   <i type="int" name="ISIF">     3</i>
   <i name="PSTRESS">      0.00000000</i>
   <i name="EDIFFG">     -0.02000000</i>
   <i type="int" name="NFREE">     1</i>
   <i name="POTIM">      0.50000000</i>
   <i name="SMASS">     -3.00000000</i>
   <i name="SCALEE">      1.00000000</i>
  </separator>
  <separator name="ionic md" >
   <i name="TEBEG">      0.00010000</i>
   <i name="TEEND">      0.00010000</i>
   <i type="int" name="NBLOCK">     1</i>
   <i type="int" name="KBLOCK">    30</i>
   <i type="int" name="NPACO">   256</i>
   <i name="APACO">     16.00000000</i>
  </separator>
  <separator name="symmetry" >
   <i type="int" name="ISYM">     2</i>
   <i name="SYMPREC">      0.00001000</i>
  </separator>
  <separator name="dos" >
   <i type="logical" name="LORBIT"> F  </i>
   <v name="RWIGS">     -1.00000000     -1.00000000</v>
   <i type="int" name="NEDOS">   301</i>
   <i name="EMIN">     10.00000000</i>
   <i name="EMAX">    -10.00000000</i>
   <i name="EFERMI">      0.00000000</i>
  </separator>
  <separator name="writing" >
   <i type="int" name="NWRITE">     2</i>
   <i type="logical" name="LWAVE"> F  </i>
   <i type="logical" name="LCHARG"> F  </i>
   <i type="logical" name="LPARD"> F  </i>
   <i type="logical" name="LVTOT"> F  </i>
   <i type="logical" name="LVHAR"> F  </i>
   <i type="logical" name="LELF"> F  </i>
   <i type="logical" name="LOPTICS"> F  </i>
   <v name="STM">      0.00000000      0.00000000      0.00000000      0.00000000      0.00000000      0.00000000      0.00000000</v>
  </separator>
  <separator name="performance" >
   <i type="int" name="NPAR">     4</i>
   <i type="int" name="NSIM">     4</i>
   <i type="int" name="NBLK">    -1</i>
   <i type="logical" name="LPLANE"> T  </i>
   <i type="logical" name="LSCALAPACK"> T  </i>
   <i type="logical" name="LSCAAWARE"> F  </i>
   <i type="logical" name="LSCALU"> F  </i>
   <i type="logical" name="LASYNC"> F  </i>
   <i type="logical" name="LORBITALREAL"> F  </i>
  </separator>
  <separator name="miscellaneous" >
   <i type="int" name="IDIOT">     3</i>
   <i type="logical" name="LMUSIC"> F  </i>
   <v name="POMASS">    107.86800000    196.96600000</v>
   <v name="DARWINR">      0.00000000      0.00000000</v>
   <v name="DARWINV">      1.00000000      1.00000000</v>
   <i type="logical" name="LCORR"> T  </i>
  </separator>
  <i type="logical" name="GGA_COMPAT"> T  </i>
  <i type="logical" name="LBERRY"> F  </i>
  <i type="int" name="ICORELEVEL">     0</i>
  <i type="logical" name="LDAU"> F  </i>
  <i type="int" name="I_CONSTRAINED_M">     0</i>
  <separator name="electronic exchange-correlation" >
   <i type="string" name="GGA">--</i>
   <i type="int" name="VOSKOWN">     0</i>
   <i type="logical" name="LHFCALC"> F  </i>
   <i type="string" name="PRECFOCK"></i>
   <i type="logical" name="LSYMGRAD"> F  </i>
   <i type="logical" name="LHFONE"> F  </i>
   <i type="logical" name="LRHFCALC"> F  </i>
   <i type="logical" name="LTHOMAS"> F  </i>
   <i type="logical" name="LMODELHF"> F  </i>
   <i name="ENCUT4O">     -1.00000000</i>
   <i type="int" name="EXXOEP">     0</i>
   <i type="int" name="FOURORBIT">     0</i>
   <i name="AEXX">      0.00000000</i>
   <i name="HFALPHA">      0.00000000</i>
   <i name="MCALPHA">      0.00000000</i>
   <i name="ALDAX">      1.00000000</i>
   <i name="AGGAX">      1.00000000</i>
   <i name="ALDAC">      1.00000000</i>
   <i name="AGGAC">      1.00000000</i>
   <i type="int" name="NKREDX">     1</i>
   <i type="int" name="NKREDY">     1</i>
   <i type="int" name="NKREDZ">     1</i>
   <i type="logical" name="SHIFTRED"> F  </i>
   <i type="logical" name="ODDONLY"> F  </i>
   <i type="logical" name="EVENONLY"> F  </i>
   <i type="int" name="LMAXFOCK">     0</i>
   <i type="int" name="NMAXFOCKAE">     0</i>
   <i type="logical" name="LFOCKAEDFT"> F  </i>
   <i name="HFSCREEN">      0.00000000</i>
   <i name="HFSCREENC">      0.00000000</i>
   <i type="int" name="NBANDSGWLOW">     0</i>
  </separator>
  <separator name="vdW DFT" >
   <i type="logical" name="LUSE_VDW"> F  </i>
   <i name="Zab_VDW">     -0.84910000</i>
   <i name="PARAM1">      0.12340000</i>
   <i name="PARAM2">      1.00000000</i>
   <i name="PARAM3">      0.00000000</i>
  </separator>
  <separator name="model GW" >
   <i type="int" name="MODEL_GW">     0</i>
   <i name="MODEL_EPS0">     10.73488904</i>
   <i name="MODEL_ALPHA">      1.00000000</i>
  </separator>
  <separator name="linear response parameters" >
   <i type="logical" name="LEPSILON"> F  </i>
   <i type="logical" name="LRPA"> F  </i>
   <i type="logical" name="LNABLA"> F  </i>
   <i type="logical" name="LVEL"> F  </i>
   <i type="int" name="KINTER">     0</i>
   <i name="CSHIFT">      0.10000000</i>
   <i name="OMEGAMAX">     -1.00000000</i>
   <i name="DEG_THRESHOLD">      0.00200000</i>
  </separator>
  <separator name="orbital magnetization" >
   <i type="logical" name="NUCIND"> F  </i>
   <v name="MAGPOS">      0.00000000      0.00000000      0.00000000</v>
   <i type="logical" name="LNICSALL"> T  </i>
   <i type="logical" name="ORBITALMAG"> F  </i>
   <i type="logical" name="LMAGBLOCH"> F  </i>
   <i type="logical" name="LCHIMAG"> F  </i>
   <i type="logical" name="LGAUGE"> T  </i>
   <i type="int" name="MAGATOM">     0</i>
   <v name="MAGDIPOL">      0.00000000      0.00000000      0.00000000</v>
   <v name="AVECCONST">      0.00000000      0.00000000      0.00000000</v>
  </separator>
  <separator name="response functions" >
   <i type="logical" name="LADDER"> F  </i>
   <i type="logical" name="LFXC"> F  </i>
   <i type="logical" name="LHARTREE"> T  </i>
   <i type="int" name="IBSE">     0</i>
   <i type="logical" name="LTCTE"> F  </i>
   <i type="logical" name="LTETE"> F  </i>
   <i type="logical" name="LTRIPLET"> F  </i>
   <i type="logical" name="LFXCEPS"> F  </i>
   <i type="logical" name="LFXHEG"> F  </i>
   <i type="logical" name="L2ORDER"> F  </i>
   <i type="logical" name="LUSEW"> F  </i>
   <i name="ENCUTGW">     -2.00000000</i>
   <i name="ENCUTGWSOFT">     -2.00000000</i>
   <i name="ENCUTLF">     -1.00000000</i>
   <i type="int" name="LMAXMP2">    -1</i>
   <i name="SCISSOR">      0.00000000</i>
   <i type="int" name="NOMEGA">     0</i>
   <i type="int" name="NOMEGAR">     0</i>
   <i type="int" name="NBANDSGW">    -1</i>
   <i type="int" name="NBANDSO">    -1</i>
   <i type="int" name="NBANDSV">    -1</i>
   <i type="int" name="NELM">   100</i>
   <i type="int" name="DIM">     3</i>
   <i type="int" name="ANTIRES">     0</i>
   <i name="OMEGAMAX">    -30.00000000</i>
   <i name="OMEGAMIN">    -30.00000000</i>
   <i name="OMEGATL">   -200.00000000</i>
   <i type="int" name="OMEGAGRID">     0</i>
   <i name="CSHIFT">     -0.10000000</i>
   <i type="logical" name="SELFENERGY"> F  </i>
   <i type="logical" name="LSPECTRAL"> F  </i>
   <i type="logical" name="ODDONLYGW"> F  </i>
   <i type="logical" name="EVENONLYGW"> F  </i>
   <i type="int" name="NKREDLFX">     1</i>
   <i type="int" name="NKREDLFY">     1</i>
   <i type="int" name="NKREDLFZ">     1</i>
   <i type="int" name="MAXMEM">  1800</i>
   <i type="int" name="TELESCOPE">     0</i>
   <i type="int" name="TAUPAR">     1</i>
  </separator>
  <separator name="External order field" >
   <i name="OFIELD_KAPPA">      0.00000000</i>
   <v name="OFIELD_K">      0.00000000      0.00000000      0.00000000</v>
   <i name="OFIELD_Q6_NEAR">      0.00000000</i>
   <i name="OFIELD_Q6_FAR">      0.00000000</i>
   <i name="OFIELD_A">      0.00000000</i>
  </separator>
 </parameters>
 <atominfo>
  <atoms>       6 </atoms>
  <types>       2 </types>
  <array name="atoms" >
   <dimension dim="1">ion</dimension>
   <field type="string">element</field>
   <field type="int">atomtype</field>
   <set>
    <rc><c>Ag</c><c>   1</c></rc>
    <rc><c>Ag</c><c>   1</c></rc>
    <rc><c>Au</c><c>   2</c></rc>
    <rc><c>Au</c><c>   2</c></rc>
    <rc><c>Au</c><c>   2</c></rc>
    <rc><c>Au</c><c>   2</c></rc>
   </set>
  </array>
  <array name="atomtypes" >
   <dimension dim="1">type</dimension>
   <field type="int">atomspertype</field>
   <field type="string">element</field>
   <field>mass</field>
   <field>valence</field>
   <field type="string">pseudopotential</field>
   <set>
    <rc><c>   2</c><c>Ag</c><c>    107.86800000</c><c>     11.00000000</c><c>  PAW_PBE Ag 02Apr2005                  </c></rc>
    <rc><c>   4</c><c>Au</c><c>    196.96600000</c><c>     11.00000000</c><c>  PAW_PBE Au 04Oct2007                  </c></rc>
   </set>
  </array>
 </atominfo>
 <structure name="initialpos" >
  <crystal>
   <varray name="basis" >
    <v>       2.06996320       0.00000000       2.06996320 </v>
    <v>       0.00000000      -2.06996320      -2.06996320 </v>
    <v>       8.35124172       8.35124172      -8.35124172 </v>
   </varray>
   <i name="volume">    107.34889036 </i>
   <varray name="rec_basis" >
    <v>       0.32206692      -0.16103346       0.16103346 </v>
    <v>       0.16103346      -0.32206692      -0.16103346 </v>
    <v>       0.03991422       0.03991422      -0.03991422 </v>
   </varray>
  </crystal>
  <varray name="positions" >
   <v>       0.33333333       0.66666667       0.66770991 </v>
   <v>       0.66666667       0.33333333       0.83229009 </v>
   <v>       0.00000000       0.00000000       0.99833568 </v>
   <v>       0.33333333       0.66666667       0.16661924 </v>
   <v>       0.66666667       0.33333333       0.33338076 </v>
   <v>       0.00000000       0.00000000       0.50166432 </v>
  </varray>
 </structure>
 <calculation>
  <scstep>
   <time name="dav">    6.57    6.57</time>
   <time name="total">    6.64    6.66</time>
   <energy>
    <i name="alphaZ">    355.49544945 </i>
    <i name="ewald">  -5771.34343315 </i>
    <i name="hartreedc">   -941.99614598 </i>
    <i name="XCdc">     40.87484741 </i>
    <i name="pawpsdc">   5503.31431206 </i>
    <i name="pawaedc">  -5318.73908776 </i>
    <i name="eentropy">     -0.00297470 </i>
    <i name="bandstr">    797.90048605 </i>
    <i name="atom">   5778.85447048 </i>
    <i name="e_fr_energy">    444.35792386 </i>
    <i name="e_wo_entrp">    444.36089856 </i>
    <i name="e_0_energy">    444.35891543 </i>
   </energy>
  </scstep>
  <scstep>
   <time name="dav">    6.87    6.87</time>
   <time name="total">    6.89    6.90</time>
   <energy>
    <i name="e_fr_energy">     -8.01943462 </i>
    <i name="e_wo_entrp">     -8.02304245 </i>
    <i name="e_0_energy">     -8.02063723 </i>
   </energy>
  </scstep>
  <scstep>
   <time name="dav">    7.30    7.31</time>
   <time name="total">    7.33    7.34</time>
   <energy>
    <i name="e_fr_energy">    -19.91773153 </i>
    <i name="e_wo_entrp">    -19.91967607 </i>
    <i name="e_0_energy">    -19.91837971 </i>
   </energy>
  </scstep>
  <scstep>
   <time name="dav">    6.93    6.93</time>
   <time name="total">    6.95    6.97</time>
   <energy>
    <i name="e_fr_energy">    -20.01940824 </i>
    <i name="e_wo_entrp">    -20.02118683 </i>
    <i name="e_0_energy">    -20.02000110 </i>
   </energy>
  </scstep>
  <scstep>
   <time name="dav">    7.45    7.45</time>
   <time name="total">    8.00    8.01</time>
   <energy>
    <i name="e_fr_energy">    -20.02047060 </i>
    <i name="e_wo_entrp">    -20.02224686 </i>
    <i name="e_0_energy">    -20.02106269 </i>
   </energy>
  </scstep>
  <scstep>
   <time name="diag">    1.79    1.79</time>
   <time name="diis">    3.60    3.61</time>
   <time name="orth">    0.24    0.24</time>
   <time name="total">    6.25    6.26</time>
   <energy>
    <i name="e_fr_energy">    -18.54634579 </i>
    <i name="e_wo_entrp">    -18.54753746 </i>
    <i name="e_0_energy">    -18.54674301 </i>
   </energy>
  </scstep>
  <scstep>
   <time name="diag">    1.78    1.78</time>
   <time name="diis">    3.64    3.64</time>
   <time name="orth">    0.24    0.24</time>
   <time name="total">    6.27    6.28</time>
   <energy>
    <i name="e_fr_energy">    -18.53465683 </i>
    <i name="e_wo_entrp">    -18.53123860 </i>
    <i name="e_0_energy">    -18.53351742 </i>
   </energy>
  </scstep>
  <scstep>
   <time name="diag">    1.78    1.78</time>
   <time name="diis">    3.57    3.57</time>
   <time name="orth">    0.24    0.24</time>
   <time name="total">    6.19    6.21</time>
   <energy>
    <i name="e_fr_energy">    -18.47529086 </i>
    <i name="e_wo_entrp">    -18.47631324 </i>
    <i name="e_0_energy">    -18.47563165 </i>
   </energy>
  </scstep>
  <scstep>
   <time name="diag">    1.78    1.78</time>
   <time name="diis">    3.56    3.56</time>
   <time name="orth">    0.24    0.24</time>
   <time name="total">    6.21    6.23</time>
   <energy>
    <i name="e_fr_energy">    -18.42076470 </i>
    <i name="e_wo_entrp">    -18.42474544 </i>
    <i name="e_0_energy">    -18.42209161 </i>
   </energy>
  </scstep>
  <scstep>
   <time name="diag">    1.79    1.79</time>
   <time name="diis">    3.58    3.58</time>
   <time name="orth">    0.24    0.24</time>
   <time name="total">    6.22    6.23</time>
   <energy>
    <i name="e_fr_energy">    -18.42030912 </i>
    <i name="e_wo_entrp">    -18.42419272 </i>
    <i name="e_0_energy">    -18.42160365 </i>
   </energy>
  </scstep>
  <scstep>
   <time name="diag">    1.77    1.77</time>
   <time name="diis">    3.63    3.63</time>
   <time name="orth">    0.23    0.23</time>
   <time name="total">    6.25    6.26</time>
   <energy>
    <i name="e_fr_energy">    -18.42031551 </i>
    <i name="e_wo_entrp">    -18.42419238 </i>
    <i name="e_0_energy">    -18.42160780 </i>
   </energy>
  </scstep>
  <scstep>
   <time name="diag">    1.78    1.78</time>
   <time name="diis">    3.53    3.53</time>
   <time name="orth">    0.24    0.24</time>
   <time name="total">    6.16    6.17</time>
   <energy>
    <i name="e_fr_energy">    -18.42032377 </i>
    <i name="e_wo_entrp">    -18.42420619 </i>
    <i name="e_0_energy">    -18.42161791 </i>
   </energy>
  </scstep>
  <scstep>
   <time name="diag">    1.84    1.84</time>
   <time name="diis">    2.32    2.32</time>
   <time name="orth">    0.23    0.23</time>
   <time name="total">    5.00    5.01</time>
   <energy>
    <i name="e_fr_energy">    -18.42032205 </i>
    <i name="e_wo_entrp">    -18.42420042 </i>
    <i name="e_0_energy">    -18.42161484 </i>
   </energy>
  </scstep>
  <scstep>
   <time name="diag">    1.78    1.79</time>
   <time name="diis">    2.23    2.23</time>
   <time name="orth">    0.24    0.24</time>
   <time name="total">    4.34    4.36</time>
   <energy>
    <i name="alphaZ">    355.49544945 </i>
    <i name="ewald">  -5771.34343315 </i>
    <i name="hartreedc">   -873.36639165 </i>
    <i name="XCdc">     37.98912935 </i>
    <i name="pawpsdc">   6298.80774786 </i>
    <i name="pawaedc">  -6128.81466815 </i>
    <i name="eentropy">      0.00387853 </i>
    <i name="bandstr">    283.95349496 </i>
    <i name="atom">   5778.85447048 </i>
    <i name="e_fr_energy">    -18.42032232 </i>
    <i name="e_wo_entrp">    -18.42420085 </i>
    <i name="e_0_energy">    -18.42161516 </i>
   </energy>
  </scstep>
  <structure>
   <crystal>
    <varray name="basis" >
     <v>       2.06996320       0.00000000       2.06996320 </v>
     <v>       0.00000000      -2.06996320      -2.06996320 </v>
     <v>       8.35124172       8.35124172      -8.35124172 </v>
    </varray>
    <i name="volume">    107.34889036 </i>
    <varray name="rec_basis" >
     <v>       0.32206692      -0.16103346       0.16103346 </v>
     <v>       0.16103346      -0.32206692      -0.16103346 </v>
     <v>       0.03991422       0.03991422      -0.03991422 </v>
    </varray>
   </crystal>
   <varray name="positions" >
    <v>       0.33333333       0.66666667       0.66770991 </v>
    <v>       0.66666667       0.33333333       0.83229009 </v>
    <v>       0.00000000       0.00000000       0.99833568 </v>
    <v>       0.33333333       0.66666667       0.16661924 </v>
    <v>       0.66666667       0.33333333       0.33338076 </v>
    <v>       0.00000000       0.00000000       0.50166432 </v>
   </varray>
  </structure>
  <varray name="forces" >
   <v>      -0.00322512      -0.00322512       0.00322512 </v>
   <v>       0.00322512       0.00322512      -0.00322512 </v>
   <v>      -0.00673848      -0.00673848       0.00673848 </v>
   <v>      -0.00392742      -0.00392742       0.00392742 </v>
   <v>       0.00392742       0.00392742      -0.00392742 </v>
   <v>       0.00673848       0.00673848      -0.00673848 </v>
  </varray>
  <varray name="stress" >
   <v>      -1.29507381      -0.32932256       0.32932256 </v>
   <v>      -0.32932256      -1.29507381       0.32932256 </v>
   <v>       0.32932256       0.32932256      -1.29507381 </v>
  </varray>
  <energy>
   <i name="e_fr_energy">    -18.42032232 </i>
   <i name="e_wo_entrp">    -18.42161516 </i>
   <i name="e_0_energy">      0.00387853 </i>
  </energy>
  <time name="totalsc">   93.63   93.87</time>
  <eigenvalues>
   <array>
    <dimension dim="1">band</dimension>
    <dimension dim="2">kpoint</dimension>
    <dimension dim="3">spin</dimension>
    <field>eigene</field>
    <field>occ</field>
    <set>
     <set comment="spin 1">
      <set comment="kpoint 1">
       <r>   -0.6820    1.0000 </r>
       <r>    0.1203    1.0000 </r>
       <r>    0.7743    1.0000 </r>
       <r>    1.4409    1.0000 </r>
       <r>    1.8461    1.0000 </r>
       <r>    2.2300    1.0000 </r>
       <r>    3.6604    1.0000 </r>
       <r>    3.6994    1.0000 </r>
       <r>    3.7613    1.0000 </r>
       <r>    3.7613    1.0000 </r>
       <r>    3.7974    1.0000 </r>
       <r>    3.7974    1.0000 </r>
       <r>    3.8451    1.0000 </r>
       <r>    4.0143    1.0000 </r>
       <r>    4.0143    1.0000 </r>
       <r>    4.0332    1.0000 </r>
       <r>    4.0332    1.0000 </r>
       <r>    4.1246    1.0000 </r>
       <r>    4.1246    1.0000 </r>
       <r>    4.1536    1.0000 </r>
       <r>    4.1536    1.0000 </r>
       <r>    4.7525    1.0000 </r>
       <r>    4.7525    1.0000 </r>
       <r>    4.8122    1.0000 </r>
       <r>    4.8474    1.0000 </r>
       <r>    5.0247    1.0000 </r>
       <r>    5.0247    1.0000 </r>
       <r>    5.3244    1.0000 </r>
       <r>    5.3244    1.0000 </r>
       <r>    5.5265    1.0000 </r>
       <r>    5.5265    1.0000 </r>
       <r>    5.8180    1.0000 </r>
       <r>    5.8180    1.0000 </r>
       <r>    6.2574    1.0000 </r>
       <r>    6.2574    1.0000 </r>
       <r>    7.7520    1.0052 </r>
       <r>   11.2836    0.0000 </r>
       <r>   15.8361    0.0000 </r>
       <r>   15.8578    0.0000 </r>
       <r>   21.9062    0.0000 </r>
      </set>
      <set comment="kpoint 2">
       <r>   -0.6439    1.0000 </r>
       <r>    0.1572    1.0000 </r>
       <r>    0.8103    1.0000 </r>
       <r>    1.4747    1.0000 </r>
       <r>    1.8774    1.0000 </r>
       <r>    2.2543    1.0000 </r>
       <r>    3.6404    1.0000 </r>
       <r>    3.6621    1.0000 </r>
       <r>    3.7499    1.0000 </r>
       <r>    3.7789    1.0000 </r>
       <r>    3.8062    1.0000 </r>
       <r>    3.8104    1.0000 </r>
       <r>    3.8529    1.0000 </r>
       <r>    3.9976    1.0000 </r>
       <r>    4.0215    1.0000 </r>
       <r>    4.0361    1.0000 </r>
       <r>    4.0532    1.0000 </r>
       <r>    4.1299    1.0000 </r>
       <r>    4.1439    1.0000 </r>
       <r>    4.1639    1.0000 </r>
       <r>    4.1748    1.0000 </r>
       <r>    4.6569    1.0000 </r>
       <r>    4.6954    1.0000 </r>
       <r>    4.7433    1.0000 </r>
       <r>    4.8081    1.0000 </r>
       <r>    5.0270    1.0000 </r>
       <r>    5.0811    1.0000 </r>
       <r>    5.3189    1.0000 </r>
       <r>    5.3218    1.0000 </r>
       <r>    5.5108    1.0000 </r>
       <r>    5.5679    1.0000 </r>
       <r>    5.8316    1.0000 </r>
       <r>    5.9260    1.0000 </r>
       <r>    6.1666    1.0000 </r>
       <r>    6.2574    1.0000 </r>
       <r>    7.9317    1.0265 </r>
       <r>   11.2842    0.0000 </r>
       <r>   15.8602    0.0000 </r>
       <r>   15.8787    0.0000 </r>
       <r>   21.9348    0.0000 </r>
      </set>
      <set comment="kpoint 3">
       <r>   -0.5308    1.0000 </r>
       <r>    0.2664    1.0000 </r>
       <r>    0.9163    1.0000 </r>
       <r>    1.5738    1.0000 </r>
       <r>    1.9689    1.0000 </r>
       <r>    2.3248    1.0000 </r>
       <r>    3.5718    1.0000 </r>
       <r>    3.6001    1.0000 </r>
       <r>    3.7151    1.0000 </r>
       <r>    3.7987    1.0000 </r>
       <r>    3.8310    1.0000 </r>
       <r>    3.8483    1.0000 </r>
       <r>    3.8803    1.0000 </r>
       <r>    3.9506    1.0000 </r>
       <r>    3.9831    1.0000 </r>
       <r>    4.0981    1.0000 </r>
       <r>    4.1142    1.0000 </r>
       <r>    4.1482    1.0000 </r>
       <r>    4.1896    1.0000 </r>
       <r>    4.1982    1.0000 </r>
       <r>    4.2385    1.0000 </r>
       <r>    4.3943    1.0000 </r>
       <r>    4.5132    1.0000 </r>
       <r>    4.7208    1.0000 </r>
       <r>    4.7630    1.0000 </r>
       <r>    5.0338    1.0000 </r>
       <r>    5.0916    1.0000 </r>
       <r>    5.3069    1.0000 </r>
       <r>    5.3199    1.0000 </r>
       <r>    5.4818    1.0000 </r>
       <r>    5.5668    1.0000 </r>
       <r>    5.8613    1.0000 </r>
       <r>    6.0081    1.0000 </r>
       <r>    6.2577    1.0000 </r>
       <r>    6.2628    1.0000 </r>
       <r>    8.3543    0.5984 </r>
       <r>   11.2873    0.0000 </r>
       <r>   15.9301    0.0000 </r>
       <r>   15.9433    0.0000 </r>
       <r>   22.0388    0.0000 </r>
      </set>
      <set comment="kpoint 4">
       <r>   -0.3458    1.0000 </r>
       <r>    0.4428    1.0000 </r>
       <r>    1.0866    1.0000 </r>
       <r>    1.7313    1.0000 </r>
       <r>    2.1129    1.0000 </r>
       <r>    2.4348    1.0000 </r>
       <r>    3.4662    1.0000 </r>
       <r>    3.5438    1.0000 </r>
       <r>    3.6571    1.0000 </r>
       <r>    3.7603    1.0000 </r>
       <r>    3.8785    1.0000 </r>
       <r>    3.9052    1.0000 </r>
       <r>    3.9116    1.0000 </r>
       <r>    3.9164    1.0000 </r>
       <r>    3.9355    1.0000 </r>
       <r>    4.0996    1.0000 </r>
       <r>    4.1618    1.0000 </r>
       <r>    4.1885    1.0000 </r>
       <r>    4.2205    1.0000 </r>
       <r>    4.2405    1.0000 </r>
       <r>    4.2742    1.0000 </r>
       <r>    4.3115    1.0000 </r>
       <r>    4.3443    1.0000 </r>
       <r>    4.7021    1.0000 </r>
       <r>    4.7219    1.0000 </r>
       <r>    5.0328    1.0000 </r>
       <r>    5.0466    1.0000 </r>
       <r>    5.2157    1.0000 </r>
       <r>    5.2665    1.0000 </r>
       <r>    5.4708    1.0000 </r>
       <r>    5.4813    1.0000 </r>
       <r>    5.8908    1.0000 </r>
       <r>    6.1799    1.0000 </r>
       <r>    6.2598    1.0000 </r>
       <r>    6.5702    1.0000 </r>
       <r>    8.8889   -0.0201 </r>
       <r>   11.2967    0.0000 </r>
       <r>   16.0307    0.0000 </r>
       <r>   16.0651    0.0000 </r>
       <r>   22.1690    0.0000 </r>
      </set>
      <set comment="kpoint 5">
       <r>   -0.0951    1.0000 </r>
       <r>    0.6767    1.0000 </r>
       <r>    1.3092    1.0000 </r>
       <r>    1.9326    1.0000 </r>
       <r>    2.2920    1.0000 </r>
       <r>    2.5721    1.0000 </r>
       <r>    3.3446    1.0000 </r>
       <r>    3.5018    1.0000 </r>
       <r>    3.5814    1.0000 </r>
       <r>    3.6989    1.0000 </r>
       <r>    3.7552    1.0000 </r>
       <r>    3.7790    1.0000 </r>
       <r>    3.9224    1.0000 </r>
       <r>    3.9744    1.0000 </r>
       <r>    3.9936    1.0000 </r>
       <r>    4.0291    1.0000 </r>
       <r>    4.1260    1.0000 </r>
       <r>    4.1640    1.0000 </r>
       <r>    4.2991    1.0000 </r>
       <r>    4.3000    1.0000 </r>
       <r>    4.3371    1.0000 </r>
       <r>    4.3709    1.0000 </r>
       <r>    4.4897    1.0000 </r>
       <r>    4.6934    1.0000 </r>
       <r>    4.7216    1.0000 </r>
       <r>    4.8623    1.0000 </r>
       <r>    5.0362    1.0000 </r>
       <r>    5.0654    1.0000 </r>
       <r>    5.2140    1.0000 </r>
       <r>    5.4850    1.0000 </r>
       <r>    5.5303    1.0000 </r>
       <r>    5.9114    1.0000 </r>
       <r>    6.2650    1.0000 </r>
       <r>    6.4329    1.0000 </r>
       <r>    6.9021    1.0000 </r>
       <r>    9.4816    0.0000 </r>
       <r>   11.3195    0.0000 </r>
       <r>   16.1589    0.0000 </r>
       <r>   16.2430    0.0000 </r>
       <r>   21.5382    0.0000 </r>
      </set>
      <set comment="kpoint 6">
       <r>    0.2114    1.0000 </r>
       <r>    0.9511    1.0000 </r>
       <r>    1.5625    1.0000 </r>
       <r>    2.1494    1.0000 </r>
       <r>    2.4694    1.0000 </r>
       <r>    2.7242    1.0000 </r>
       <r>    3.2141    1.0000 </r>
       <r>    3.4573    1.0000 </r>
       <r>    3.4827    1.0000 </r>
       <r>    3.5341    1.0000 </r>
       <r>    3.6232    1.0000 </r>
       <r>    3.6675    1.0000 </r>
       <r>    3.9362    1.0000 </r>
       <r>    3.9684    1.0000 </r>
       <r>    4.0384    1.0000 </r>
       <r>    4.0693    1.0000 </r>
       <r>    4.1552    1.0000 </r>
       <r>    4.1653    1.0000 </r>
       <r>    4.3599    1.0000 </r>
       <r>    4.3619    1.0000 </r>
       <r>    4.4223    1.0000 </r>
       <r>    4.5497    1.0000 </r>
       <r>    4.5631    1.0000 </r>
       <r>    4.6669    1.0000 </r>
       <r>    4.7427    1.0000 </r>
       <r>    4.8125    1.0000 </r>
       <r>    4.9516    1.0000 </r>
       <r>    5.0682    1.0000 </r>
       <r>    5.2075    1.0000 </r>
       <r>    5.5189    1.0000 </r>
       <r>    5.6211    1.0000 </r>
       <r>    5.9207    1.0000 </r>
       <r>    6.2737    1.0000 </r>
       <r>    6.7079    1.0000 </r>
       <r>    7.2383    1.0000 </r>
       <r>   10.1071    0.0000 </r>
       <r>   11.3672    0.0000 </r>
       <r>   16.3104    0.0000 </r>
       <r>   16.4709    0.0000 </r>
       <r>   20.2615    0.0000 </r>
      </set>
      <set comment="kpoint 7">
       <r>    0.5574    1.0000 </r>
       <r>    1.2383    1.0000 </r>
       <r>    1.8103    1.0000 </r>
       <r>    2.3310    1.0000 </r>
       <r>    2.5904    1.0000 </r>
       <r>    2.8793    1.0000 </r>
       <r>    3.0811    1.0000 </r>
       <r>    3.1994    1.0000 </r>
       <r>    3.4250    1.0000 </r>
       <r>    3.4917    1.0000 </r>
       <r>    3.5915    1.0000 </r>
       <r>    3.6192    1.0000 </r>
       <r>    3.8623    1.0000 </r>
       <r>    4.0659    1.0000 </r>
       <r>    4.0754    1.0000 </r>
       <r>    4.0831    1.0000 </r>
       <r>    4.1692    1.0000 </r>
       <r>    4.3143    1.0000 </r>
       <r>    4.3366    1.0000 </r>
       <r>    4.3557    1.0000 </r>
       <r>    4.4493    1.0000 </r>
       <r>    4.5503    1.0000 </r>
       <r>    4.7473    1.0000 </r>
       <r>    4.8151    1.0000 </r>
       <r>    4.8485    1.0000 </r>
       <r>    4.9176    1.0000 </r>
       <r>    4.9321    1.0000 </r>
       <r>    5.0887    1.0000 </r>
       <r>    5.2910    1.0000 </r>
       <r>    5.5746    1.0000 </r>
       <r>    5.7321    1.0000 </r>
       <r>    5.9215    1.0000 </r>
       <r>    6.2853    1.0000 </r>
       <r>    6.9920    1.0000 </r>
       <r>    7.5767    1.0004 </r>
       <r>   10.7404    0.0000 </r>
       <r>   11.4624    0.0000 </r>
       <r>   16.4718    0.0000 </r>
       <r>   16.7285    0.0000 </r>
       <r>   18.9991    0.0000 </r>
      </set>
      <set comment="kpoint 8">
       <r>    0.9168    1.0000 </r>
       <r>    1.4999    1.0000 </r>
       <r>    2.0058    1.0000 </r>
       <r>    2.4206    1.0000 </r>
       <r>    2.6355    1.0000 </r>
       <r>    2.9357    1.0000 </r>
       <r>    2.9558    1.0000 </r>
       <r>    2.9819    1.0000 </r>
       <r>    3.3798    1.0000 </r>
       <r>    3.4639    1.0000 </r>
       <r>    3.5617    1.0000 </r>
       <r>    3.7342    1.0000 </r>
       <r>    3.8456    1.0000 </r>
       <r>    4.0691    1.0000 </r>
       <r>    4.0708    1.0000 </r>
       <r>    4.1550    1.0000 </r>
       <r>    4.1980    1.0000 </r>
       <r>    4.3375    1.0000 </r>
       <r>    4.3456    1.0000 </r>
       <r>    4.4674    1.0000 </r>
       <r>    4.6072    1.0000 </r>
       <r>    4.6761    1.0000 </r>
       <r>    4.8881    1.0000 </r>
       <r>    4.8893    1.0000 </r>
       <r>    4.9455    1.0000 </r>
       <r>    5.0259    1.0000 </r>
       <r>    5.0999    1.0000 </r>
       <r>    5.2573    1.0000 </r>
       <r>    5.4378    1.0000 </r>
       <r>    5.6625    1.0000 </r>
       <r>    5.8585    1.0000 </r>
       <r>    5.9205    1.0000 </r>
       <r>    6.2987    1.0000 </r>
       <r>    7.2843    1.0000 </r>
       <r>    7.9244    1.0254 </r>
       <r>   11.2982    0.0000 </r>
       <r>   11.6878    0.0000 </r>
       <r>   16.5944    0.0000 </r>
       <r>   16.8808    0.0000 </r>
       <r>   17.8808    0.0000 </r>
      </set>
      <set comment="kpoint 9">
       <r>    1.2500    1.0000 </r>
       <r>    1.7007    1.0000 </r>
       <r>    2.1124    1.0000 </r>
       <r>    2.4269    1.0000 </r>
       <r>    2.6168    1.0000 </r>
       <r>    2.7363    1.0000 </r>
       <r>    2.8343    1.0000 </r>
       <r>    2.9198    1.0000 </r>
       <r>    3.2931    1.0000 </r>
       <r>    3.5183    1.0000 </r>
       <r>    3.5843    1.0000 </r>
       <r>    3.8211    1.0000 </r>
       <r>    3.9214    1.0000 </r>
       <r>    4.0344    1.0000 </r>
       <r>    4.0927    1.0000 </r>
       <r>    4.2128    1.0000 </r>
       <r>    4.2660    1.0000 </r>
       <r>    4.3433    1.0000 </r>
       <r>    4.5649    1.0000 </r>
       <r>    4.6193    1.0000 </r>
       <r>    4.7933    1.0000 </r>
       <r>    4.8477    1.0000 </r>
       <r>    4.9342    1.0000 </r>
       <r>    5.0490    1.0000 </r>
       <r>    5.0857    1.0000 </r>
       <r>    5.2725    1.0000 </r>
       <r>    5.3060    1.0000 </r>
       <r>    5.4894    1.0000 </r>
       <r>    5.6303    1.0000 </r>
       <r>    5.7894    1.0000 </r>
       <r>    5.9320    1.0000 </r>
       <r>    6.0009    1.0000 </r>
       <r>    6.3136    1.0000 </r>
       <r>    7.5911    1.0005 </r>
       <r>    8.2961    0.7498 </r>
       <r>   11.6252    0.0000 </r>
       <r>   12.1876    0.0000 </r>
       <r>   16.0607    0.0000 </r>
       <r>   16.7358    0.0000 </r>
       <r>   17.0236    0.0000 </r>
      </set>
      <set comment="kpoint 10">
       <r>    1.5042    1.0000 </r>
       <r>    1.8394    1.0000 </r>
       <r>    2.1230    1.0000 </r>
       <r>    2.4024    1.0000 </r>
       <r>    2.5349    1.0000 </r>
       <r>    2.5866    1.0000 </r>
       <r>    2.7320    1.0000 </r>
       <r>    2.8120    1.0000 </r>
       <r>    3.1628    1.0000 </r>
       <r>    3.5065    1.0000 </r>
       <r>    3.6789    1.0000 </r>
       <r>    3.8889    1.0000 </r>
       <r>    3.9852    1.0000 </r>
       <r>    4.0175    1.0000 </r>
       <r>    4.0371    1.0000 </r>
       <r>    4.3382    1.0000 </r>
       <r>    4.3507    1.0000 </r>
       <r>    4.5661    1.0000 </r>
       <r>    4.6432    1.0000 </r>
       <r>    4.8382    1.0000 </r>
       <r>    4.9300    1.0000 </r>
       <r>    5.0472    1.0000 </r>
       <r>    5.1734    1.0000 </r>
       <r>    5.1886    1.0000 </r>
       <r>    5.4041    1.0000 </r>
       <r>    5.4884    1.0000 </r>
       <r>    5.6382    1.0000 </r>
       <r>    5.7334    1.0000 </r>
       <r>    5.8472    1.0000 </r>
       <r>    5.9240    1.0000 </r>
       <r>    6.0029    1.0000 </r>
       <r>    6.1702    1.0000 </r>
       <r>    6.3323    1.0000 </r>
       <r>    7.9253    1.0255 </r>
       <r>    8.7125   -0.0314 </r>
       <r>   11.9096    0.0000 </r>
       <r>   12.7137    0.0000 </r>
       <r>   14.9058    0.0000 </r>
       <r>   15.7993    0.0000 </r>
       <r>   16.0531    0.0000 </r>
      </set>
      <set comment="kpoint 11">
       <r>    1.6406    1.0000 </r>
       <r>    1.9456    1.0000 </r>
       <r>    2.0705    1.0000 </r>
       <r>    2.3578    1.0000 </r>
       <r>    2.3984    1.0000 </r>
       <r>    2.5273    1.0000 </r>
       <r>    2.6537    1.0000 </r>
       <r>    2.7029    1.0000 </r>
       <r>    3.0216    1.0000 </r>
       <r>    3.4779    1.0000 </r>
       <r>    3.8312    1.0000 </r>
       <r>    3.8436    1.0000 </r>
       <r>    3.9358    1.0000 </r>
       <r>    3.9403    1.0000 </r>
       <r>    4.2510    1.0000 </r>
       <r>    4.3309    1.0000 </r>
       <r>    4.5232    1.0000 </r>
       <r>    4.5349    1.0000 </r>
       <r>    4.8403    1.0000 </r>
       <r>    5.0764    1.0000 </r>
       <r>    5.1776    1.0000 </r>
       <r>    5.2261    1.0000 </r>
       <r>    5.2590    1.0000 </r>
       <r>    5.5695    1.0000 </r>
       <r>    5.5978    1.0000 </r>
       <r>    5.8558    1.0000 </r>
       <r>    5.9621    1.0000 </r>
       <r>    6.0313    1.0000 </r>
       <r>    6.0731    1.0000 </r>
       <r>    6.1622    1.0000 </r>
       <r>    6.1634    1.0000 </r>
       <r>    6.3629    1.0000 </r>
       <r>    6.4120    1.0000 </r>
       <r>    8.3028    0.7335 </r>
       <r>    9.1944   -0.0005 </r>
       <r>   12.2450    0.0000 </r>
       <r>   12.9257    0.0000 </r>
       <r>   13.7374    0.0000 </r>
       <r>   14.6176    0.0000 </r>
       <r>   15.4081    0.0000 </r>
      </set>
      <set comment="kpoint 12">
       <r>    1.6861    1.0000 </r>
       <r>    1.9935    1.0000 </r>
       <r>    2.0310    1.0000 </r>
       <r>    2.2806    1.0000 </r>
       <r>    2.3030    1.0000 </r>
       <r>    2.4860    1.0000 </r>
       <r>    2.6049    1.0000 </r>
       <r>    2.6107    1.0000 </r>
       <r>    2.8918    1.0000 </r>
       <r>    3.4621    1.0000 </r>
       <r>    3.7618    1.0000 </r>
       <r>    3.8705    1.0000 </r>
       <r>    3.8927    1.0000 </r>
       <r>    4.0470    1.0000 </r>
       <r>    4.3245    1.0000 </r>
       <r>    4.4166    1.0000 </r>
       <r>    4.4742    1.0000 </r>
       <r>    4.7004    1.0000 </r>
       <r>    4.9378    1.0000 </r>
       <r>    5.1923    1.0000 </r>
       <r>    5.2730    1.0000 </r>
       <r>    5.3008    1.0000 </r>
       <r>    5.6336    1.0000 </r>
       <r>    5.6964    1.0000 </r>
       <r>    5.9129    1.0000 </r>
       <r>    6.1260    1.0000 </r>
       <r>    6.1881    1.0000 </r>
       <r>    6.2600    1.0000 </r>
       <r>    6.3302    1.0000 </r>
       <r>    6.3655    1.0000 </r>
       <r>    6.4254    1.0000 </r>
       <r>    6.7695    1.0000 </r>
       <r>    6.8940    1.0000 </r>
       <r>    8.7311   -0.0342 </r>
       <r>    9.7438    0.0000 </r>
       <r>   12.3205    0.0000 </r>
       <r>   12.4701    0.0000 </r>
       <r>   12.9327    0.0000 </r>
       <r>   13.5450    0.0000 </r>
       <r>   15.5014    0.0000 </r>
      </set>
      <set comment="kpoint 13">
       <r>    1.6927    1.0000 </r>
       <r>    1.9328    1.0000 </r>
       <r>    2.0778    1.0000 </r>
       <r>    2.2028    1.0000 </r>
       <r>    2.2394    1.0000 </r>
       <r>    2.4530    1.0000 </r>
       <r>    2.5378    1.0000 </r>
       <r>    2.5901    1.0000 </r>
       <r>    2.7831    1.0000 </r>
       <r>    3.4655    1.0000 </r>
       <r>    3.6788    1.0000 </r>
       <r>    3.8341    1.0000 </r>
       <r>    3.8598    1.0000 </r>
       <r>    4.2365    1.0000 </r>
       <r>    4.3216    1.0000 </r>
       <r>    4.4313    1.0000 </r>
       <r>    4.5204    1.0000 </r>
       <r>    4.8141    1.0000 </r>
       <r>    5.0158    1.0000 </r>
       <r>    5.2370    1.0000 </r>
       <r>    5.3517    1.0000 </r>
       <r>    5.4028    1.0000 </r>
       <r>    5.6328    1.0000 </r>
       <r>    5.9391    1.0000 </r>
       <r>    6.1749    1.0000 </r>
       <r>    6.1997    1.0000 </r>
       <r>    6.3438    1.0000 </r>
       <r>    6.4031    1.0000 </r>
       <r>    6.4624    1.0000 </r>
       <r>    6.5291    1.0000 </r>
       <r>    6.9746    1.0000 </r>
       <r>    7.3973    1.0000 </r>
       <r>    7.6784    1.0020 </r>
       <r>    9.1838   -0.0006 </r>
       <r>   10.2379    0.0000 </r>
       <r>   11.5172    0.0000 </r>
       <r>   11.5869    0.0000 </r>
       <r>   12.4436    0.0000 </r>
       <r>   13.4386    0.0000 </r>
       <r>   14.4835    0.0000 </r>
      </set>
      <set comment="kpoint 14">
       <r>    1.6889    1.0000 </r>
       <r>    1.8910    1.0000 </r>
       <r>    2.1093    1.0000 </r>
       <r>    2.1555    1.0000 </r>
       <r>    2.1881    1.0000 </r>
       <r>    2.4320    1.0000 </r>
       <r>    2.4924    1.0000 </r>
       <r>    2.5995    1.0000 </r>
       <r>    2.6996    1.0000 </r>
       <r>    3.4893    1.0000 </r>
       <r>    3.6023    1.0000 </r>
       <r>    3.8136    1.0000 </r>
       <r>    3.8392    1.0000 </r>
       <r>    4.3230    1.0000 </r>
       <r>    4.3835    1.0000 </r>
       <r>    4.4004    1.0000 </r>
       <r>    4.5621    1.0000 </r>
       <r>    4.8757    1.0000 </r>
       <r>    5.0687    1.0000 </r>
       <r>    5.2498    1.0000 </r>
       <r>    5.4146    1.0000 </r>
       <r>    5.4794    1.0000 </r>
       <r>    5.6162    1.0000 </r>
       <r>    6.0459    1.0000 </r>
       <r>    6.2274    1.0000 </r>
       <r>    6.3305    1.0000 </r>
       <r>    6.4486    1.0000 </r>
       <r>    6.4936    1.0000 </r>
       <r>    6.5451    1.0000 </r>
       <r>    6.6213    1.0000 </r>
       <r>    7.5542    1.0003 </r>
       <r>    8.1569    0.9834 </r>
       <r>    8.5666    0.0843 </r>
       <r>    9.5671    0.0000 </r>
       <r>    9.9149    0.0000 </r>
       <r>   10.5497    0.0000 </r>
       <r>   11.5291    0.0000 </r>
       <r>   11.7871    0.0000 </r>
       <r>   13.3961    0.0000 </r>
       <r>   13.9040    0.0000 </r>
      </set>
      <set comment="kpoint 15">
       <r>    1.6865    1.0000 </r>
       <r>    1.8764    1.0000 </r>
       <r>    2.1279    1.0000 </r>
       <r>    2.1414    1.0000 </r>
       <r>    2.1592    1.0000 </r>
       <r>    2.4251    1.0000 </r>
       <r>    2.4766    1.0000 </r>
       <r>    2.6212    1.0000 </r>
       <r>    2.6533    1.0000 </r>
       <r>    3.5212    1.0000 </r>
       <r>    3.5520    1.0000 </r>
       <r>    3.8069    1.0000 </r>
       <r>    3.8323    1.0000 </r>
       <r>    4.3248    1.0000 </r>
       <r>    4.3884    1.0000 </r>
       <r>    4.4477    1.0000 </r>
       <r>    4.5627    1.0000 </r>
       <r>    4.8949    1.0000 </r>
       <r>    5.0873    1.0000 </r>
       <r>    5.2530    1.0000 </r>
       <r>    5.4366    1.0000 </r>
       <r>    5.5135    1.0000 </r>
       <r>    5.6024    1.0000 </r>
       <r>    6.0767    1.0000 </r>
       <r>    6.2344    1.0000 </r>
       <r>    6.3818    1.0000 </r>
       <r>    6.4857    1.0000 </r>
       <r>    6.5246    1.0000 </r>
       <r>    6.5737    1.0000 </r>
       <r>    6.6557    1.0000 </r>
       <r>    7.8129    1.0102 </r>
       <r>    8.9469   -0.0123 </r>
       <r>    9.1092   -0.0018 </r>
       <r>    9.4948    0.0000 </r>
       <r>    9.5163    0.0000 </r>
       <r>    9.7900    0.0000 </r>
       <r>   11.3509    0.0000 </r>
       <r>   12.3456    0.0000 </r>
       <r>   12.5470    0.0000 </r>
       <r>   13.9211    0.0000 </r>
      </set>
      <set comment="kpoint 16">
       <r>   -0.5683    1.0000 </r>
       <r>    0.2303    1.0000 </r>
       <r>    0.8813    1.0000 </r>
       <r>    1.5412    1.0000 </r>
       <r>    1.9388    1.0000 </r>
       <r>    2.3017    1.0000 </r>
       <r>    3.6034    1.0000 </r>
       <r>    3.6074    1.0000 </r>
       <r>    3.7264    1.0000 </r>
       <r>    3.8041    1.0000 </r>
       <r>    3.8143    1.0000 </r>
       <r>    3.8361    1.0000 </r>
       <r>    3.8704    1.0000 </r>
       <r>    3.9658    1.0000 </r>
       <r>    3.9951    1.0000 </r>
[...]
       <r>    5.0095    1.0000 </r>
       <r>    5.1650    1.0000 </r>
       <r>    5.2623    1.0000 </r>
       <r>    5.4756    1.0000 </r>
       <r>    5.5445    1.0000 </r>
       <r>    5.9585    1.0000 </r>
       <r>    6.0853    1.0000 </r>
       <r>    6.1661    1.0000 </r>
       <r>    6.2778    1.0000 </r>
       <r>   10.4992    0.0000 </r>
       <r>   10.6338    0.0000 </r>
       <r>   10.7206    0.0000 </r>
       <r>   11.2125    0.0000 </r>
       <r>   11.6759    0.0000 </r>
       <r>   12.3189    0.0000 </r>
       <r>   12.6696    0.0000 </r>
       <r>   12.8216    0.0000 </r>
       <r>   12.9872    0.0000 </r>
       <r>   13.0954    0.0000 </r>
      </set>
      <set comment="kpoint 369">
       <r>    2.5847    1.0000 </r>
       <r>    2.6561    1.0000 </r>
       <r>    2.7929    1.0000 </r>
       <r>    2.8307    1.0000 </r>
       <r>    2.8809    1.0000 </r>
       <r>    3.0703    1.0000 </r>
       <r>    3.1856    1.0000 </r>
       <r>    3.1899    1.0000 </r>
       <r>    3.2692    1.0000 </r>
       <r>    3.3055    1.0000 </r>
       <r>    3.3186    1.0000 </r>
       <r>    3.4292    1.0000 </r>
       <r>    3.7290    1.0000 </r>
       <r>    3.8839    1.0000 </r>
       <r>    3.9390    1.0000 </r>
       <r>    3.9765    1.0000 </r>
       <r>    4.1466    1.0000 </r>
       <r>    4.2742    1.0000 </r>
       <r>    4.5899    1.0000 </r>
       <r>    4.7946    1.0000 </r>
       <r>    4.8265    1.0000 </r>
       <r>    5.0077    1.0000 </r>
       <r>    5.1529    1.0000 </r>
       <r>    5.2358    1.0000 </r>
       <r>    5.4438    1.0000 </r>
       <r>    5.5741    1.0000 </r>
       <r>    5.9043    1.0000 </r>
       <r>    6.0987    1.0000 </r>
       <r>    6.2015    1.0000 </r>
       <r>    6.3383    1.0000 </r>
       <r>    9.9310    0.0000 </r>
       <r>   10.1170    0.0000 </r>
       <r>   11.1805    0.0000 </r>
       <r>   11.5611    0.0000 </r>
       <r>   11.6502    0.0000 </r>
       <r>   11.8584    0.0000 </r>
       <r>   12.3962    0.0000 </r>
       <r>   12.8465    0.0000 </r>
       <r>   13.4018    0.0000 </r>
       <r>   13.8462    0.0000 </r>
      </set>
      <set comment="kpoint 370">
       <r>    2.7016    1.0000 </r>
       <r>    2.7392    1.0000 </r>
       <r>    2.7969    1.0000 </r>
       <r>    2.8435    1.0000 </r>
       <r>    2.8883    1.0000 </r>
       <r>    2.9487    1.0000 </r>
       <r>    3.2694    1.0000 </r>
       <r>    3.2820    1.0000 </r>
       <r>    3.2924    1.0000 </r>
       <r>    3.3061    1.0000 </r>
       <r>    3.3230    1.0000 </r>
       <r>    3.3998    1.0000 </r>
       <r>    3.8678    1.0000 </r>
       <r>    3.8908    1.0000 </r>
       <r>    3.9026    1.0000 </r>
       <r>    3.9725    1.0000 </r>
       <r>    4.0483    1.0000 </r>
       <r>    4.1057    1.0000 </r>
       <r>    4.6153    1.0000 </r>
       <r>    4.8375    1.0000 </r>
       <r>    4.8755    1.0000 </r>
       <r>    5.0621    1.0000 </r>
       <r>    5.0937    1.0000 </r>
       <r>    5.1734    1.0000 </r>
       <r>    5.4773    1.0000 </r>
       <r>    5.5240    1.0000 </r>
       <r>    5.9544    1.0000 </r>
       <r>    6.0856    1.0000 </r>
       <r>    6.1693    1.0000 </r>
       <r>    6.2300    1.0000 </r>
       <r>   10.5448    0.0000 </r>
       <r>   10.7170    0.0000 </r>
       <r>   11.1424    0.0000 </r>
       <r>   11.2108    0.0000 </r>
       <r>   11.7955    0.0000 </r>
       <r>   12.1179    0.0000 </r>
       <r>   12.5045    0.0000 </r>
       <r>   12.9660    0.0000 </r>
       <r>   13.2404    0.0000 </r>
       <r>   13.4785    0.0000 </r>
      </set>
     </set>
    </set>
   </array>
  </eigenvalues>
  <separator name="orbital magnetization" >
   <v name="MAGDIPOLOUT">      0.00000000      0.00000000      0.00000000</v>
  </separator>
  <dos>
   <i name="efermi">      8.38944094 </i>
   <total>
    <array>
     <dimension dim="1">gridpoints</dimension>
     <dimension dim="2">spin</dimension>
     <field>energy</field>
     <field>total</field>
     <field>integrated</field>
     <set>
      <set comment="spin 1">
       <r>    -3.6820     0.0000     0.0000 </r>
       <r>    -3.5855     0.0000     0.0000 </r>
       <r>    -3.4889     0.0000     0.0000 </r>
       <r>    -3.3924     0.0000     0.0000 </r>
       <r>    -3.2959     0.0000     0.0000 </r>
       <r>    -3.1994     0.0000     0.0000 </r>
       <r>    -3.1029     0.0000     0.0000 </r>
       <r>    -3.0064     0.0000     0.0000 </r>
       <r>    -2.9099     0.0000     0.0000 </r>
       <r>    -2.8134     0.0000     0.0000 </r>
       <r>    -2.7169     0.0000     0.0000 </r>
       <r>    -2.6204     0.0000     0.0000 </r>
       <r>    -2.5239     0.0000     0.0000 </r>
       <r>    -2.4274     0.0000     0.0000 </r>
       <r>    -2.3309     0.0000     0.0000 </r>
       <r>    -2.2344     0.0000     0.0000 </r>
       <r>    -2.1379     0.0000     0.0000 </r>
       <r>    -2.0413     0.0000     0.0000 </r>
       <r>    -1.9448     0.0000     0.0000 </r>
       <r>    -1.8483     0.0000     0.0000 </r>
       <r>    -1.7518     0.0000     0.0000 </r>
       <r>    -1.6553     0.0000     0.0000 </r>
       <r>    -1.5588     0.0000     0.0000 </r>
       <r>    -1.4623    -0.0001     0.0000 </r>
       <r>    -1.3658    -0.0003     0.0000 </r>
       <r>    -1.2693    -0.0011    -0.0001 </r>
       <r>    -1.1728    -0.0032    -0.0005 </r>
       <r>    -1.0763    -0.0065    -0.0011 </r>
       <r>    -0.9798    -0.0084    -0.0019 </r>
       <r>    -0.8833    -0.0014    -0.0020 </r>
       <r>    -0.7868     0.0246     0.0004 </r>
       <r>    -0.6903     0.0744     0.0075 </r>
       <r>    -0.5937     0.1385     0.0209 </r>
       <r>    -0.4972     0.1974     0.0399 </r>
       <r>    -0.4007     0.2352     0.0626 </r>
       <r>    -0.3042     0.2514     0.0869 </r>
       <r>    -0.2077     0.2600     0.1120 </r>
       <r>    -0.1112     0.2798     0.1390 </r>
       <r>    -0.0147     0.3229     0.1702 </r>
       <r>     0.0818     0.3865     0.2075 </r>
       <r>     0.1783     0.4550     0.2514 </r>
       <r>     0.2748     0.5105     0.3006 </r>
       <r>     0.3713     0.5439     0.3531 </r>
       <r>     0.4678     0.5600     0.4072 </r>
       <r>     0.5643     0.5727     0.4625 </r>
       <r>     0.6608     0.5949     0.5199 </r>
       <r>     0.7573     0.6355     0.5812 </r>
       <r>     0.8538     0.6996     0.6487 </r>
       <r>     0.9504     0.7808     0.7241 </r>
       <r>     1.0469     0.8608     0.8071 </r>
       <r>     1.1434     0.9298     0.8969 </r>
       <r>     1.2399     1.0018     0.9935 </r>
       <r>     1.3364     1.1096     1.1006 </r>
       <r>     1.4329     1.2980     1.2259 </r>
       <r>     1.5294     1.6091     1.3812 </r>
       <r>     1.6259     2.0539     1.5794 </r>
       <r>     1.7224     2.6127     1.8315 </r>
       <r>     1.8189     3.2899     2.1490 </r>
       <r>     1.9154     4.1448     2.5490 </r>
       <r>     2.0119     5.2291     3.0537 </r>
       <r>     2.1084     6.5106     3.6820 </r>
       <r>     2.2049     7.9007     4.4445 </r>
       <r>     2.3014     9.3459     5.3464 </r>
       <r>     2.3980    10.8248     6.3911 </r>
       <r>     2.4945    12.2310     7.5714 </r>
       <r>     2.5910    13.3190     8.8568 </r>
       <r>     2.6875    13.8249    10.1910 </r>
       <r>     2.7840    13.6406    11.5074 </r>
       <r>     2.8805    12.8883    12.7512 </r>
       <r>     2.9770    11.9044    13.9001 </r>
       <r>     3.0735    11.1583    14.9769 </r>
       <r>     3.1700    11.0502    16.0433 </r>
       <r>     3.2665    11.6448    17.1671 </r>
       <r>     3.3630    12.6103    18.3841 </r>
       <r>     3.4595    13.4911    19.6861 </r>
       <r>     3.5560    14.0772    21.0446 </r>
       <r>     3.6525    14.5355    22.4474 </r>
       <r>     3.7490    15.2291    23.9171 </r>
       <r>     3.8455    16.3952    25.4993 </r>
       <r>     3.9421    17.8932    27.2262 </r>
       <r>     4.0386    19.1866    29.0778 </r>
       <r>     4.1351    19.6303    30.9722 </r>
       <r>     4.2316    18.9200    32.7981 </r>
       <r>     4.3281    17.3589    34.4734 </r>
       <r>     4.4246    15.6826    35.9869 </r>
       <r>     4.5211    14.5642    37.3924 </r>
       <r>     4.6176    14.2007    38.7629 </r>
       <r>     4.7141    14.2891    40.1419 </r>
       <r>     4.8106    14.3786    41.5295 </r>
       <r>     4.9071    14.2734    42.9070 </r>
       <r>     5.0036    14.0906    44.2668 </r>
       <r>     5.1001    13.9733    45.6153 </r>
       <r>     5.1966    13.8876    46.9555 </r>
       <r>     5.2931    13.7395    48.2815 </r>
       <r>     5.3897    13.5404    49.5882 </r>
       <r>     5.4862    13.3382    50.8755 </r>
       <r>     5.5827    13.0468    52.1346 </r>
       <r>     5.6792    12.4783    53.3388 </r>
       <r>     5.7757    11.6052    54.4588 </r>
       <r>     5.8722    10.7436    55.4956 </r>
       <r>     5.9687    10.3861    56.4979 </r>
       <r>     6.0652    10.7641    57.5367 </r>
       <r>     6.1617    11.5262    58.6491 </r>
       <r>     6.2582    11.8986    59.7974 </r>
       <r>     6.3547    11.2570    60.8837 </r>
       <r>     6.4512     9.5597    61.8063 </r>
       <r>     6.5477     7.2640    62.5073 </r>
       <r>     6.6442     4.9607    62.9861 </r>
       <r>     6.7407     3.1164    63.2868 </r>
       <r>     6.8372     1.9668    63.4766 </r>
       <r>     6.9338     1.4754    63.6190 </r>
       <r>     7.0303     1.3993    63.7541 </r>
       <r>     7.1268     1.4695    63.8959 </r>
       <r>     7.2233     1.5418    64.0447 </r>
       <r>     7.3198     1.6036    64.1994 </r>
       <r>     7.4163     1.6717    64.3608 </r>
       <r>     7.5128     1.7153    64.5263 </r>
       <r>     7.6093     1.6894    64.6893 </r>
       <r>     7.7058     1.6147    64.8452 </r>
       <r>     7.8023     1.5780    64.9975 </r>
       <r>     7.8988     1.6377    65.1555 </r>
       <r>     7.9953     1.7537    65.3247 </r>
       <r>     8.0918     1.8244    65.5008 </r>
       <r>     8.1883     1.7860    65.6732 </r>
       <r>     8.2848     1.6719    65.8345 </r>
       <r>     8.3814     1.5830    65.9873 </r>
       <r>     8.4779     1.5974    66.1414 </r>
       <r>     8.5744     1.6979    66.3053 </r>
       <r>     8.6709     1.7877    66.4778 </r>
       <r>     8.7674     1.7879    66.6504 </r>
       <r>     8.8639     1.7131    66.8157 </r>
       <r>     8.9604     1.6393    66.9739 </r>
       <r>     9.0569     1.6170    67.1299 </r>
       <r>     9.1534     1.6398    67.2882 </r>
       <r>     9.2499     1.6777    67.4501 </r>
       <r>     9.3464     1.7051    67.6147 </r>
       <r>     9.4429     1.7065    67.7794 </r>
       <r>     9.5394     1.6823    67.9417 </r>
       <r>     9.6359     1.6532    68.1012 </r>
       <r>     9.7324     1.6395    68.2595 </r>
       <r>     9.8290     1.6387    68.4176 </r>
       <r>     9.9255     1.6357    68.5755 </r>
       <r>    10.0220     1.6303    68.7328 </r>
       <r>    10.1185     1.6303    68.8901 </r>
       <r>    10.2150     1.6262    69.0471 </r>
       <r>    10.3115     1.6001    69.2015 </r>
       <r>    10.4080     1.5580    69.3519 </r>
       <r>    10.5045     1.5235    69.4989 </r>
       <r>    10.6010     1.4994    69.6436 </r>
       <r>    10.6975     1.4645    69.7849 </r>
       <r>    10.7940     1.4112    69.9211 </r>
       <r>    10.8905     1.3609    70.0524 </r>
       <r>    10.9870     1.3420    70.1820 </r>
       <r>    11.0835     1.3787    70.3150 </r>
       <r>    11.1800     1.5000    70.4598 </r>
       <r>    11.2765     1.7223    70.6260 </r>
       <r>    11.3731     2.0070    70.8197 </r>
       <r>    11.4696     2.2579    71.0376 </r>
       <r>    11.5661     2.3830    71.2676 </r>
       <r>    11.6626     2.3598    71.4953 </r>
       <r>    11.7591     2.2409    71.7116 </r>
       <r>    11.8556     2.1026    71.9145 </r>
       <r>    11.9521     1.9900    72.1065 </r>
       <r>    12.0486     1.9029    72.2902 </r>
       <r>    12.1451     1.8240    72.4662 </r>
       <r>    12.2416     1.7545    72.6355 </r>
       <r>    12.3381     1.7167    72.8012 </r>
       <r>    12.4346     1.7259    72.9677 </r>
       <r>    12.5311     1.7692    73.1385 </r>
       <r>    12.6276     1.8147    73.3136 </r>
       <r>    12.7241     1.8385    73.4910 </r>
       <r>    12.8207     1.8367    73.6683 </r>
       <r>    12.9172     1.8174    73.8437 </r>
       <r>    13.0137     1.7915    74.0166 </r>
       <r>    13.1102     1.7752    74.1879 </r>
       <r>    13.2067     1.7916    74.3608 </r>
       <r>    13.3032     1.8512    74.5394 </r>
       <r>    13.3997     1.9325    74.7259 </r>
       <r>    13.4962     1.9955    74.9185 </r>
       <r>    13.5927     2.0286    75.1143 </r>
       <r>    13.6892     2.0640    75.3135 </r>
       <r>    13.7857     2.1267    75.5187 </r>
       <r>    13.8822     2.1808    75.7292 </r>
       <r>    13.9787     2.1512    75.9368 </r>
       <r>    14.0752     2.0023    76.1300 </r>
       <r>    14.1717     1.7791    76.3017 </r>
       <r>    14.2682     1.5684    76.4531 </r>
       <r>    14.3648     1.4295    76.5910 </r>
       <r>    14.4613     1.3614    76.7224 </r>
       <r>    14.5578     1.3236    76.8502 </r>
       <r>    14.6543     1.2762    76.9733 </r>
       <r>    14.7508     1.2075    77.0898 </r>
       <r>    14.8473     1.1325    77.1991 </r>
       <r>    14.9438     1.0706    77.3025 </r>
       <r>    15.0403     1.0273    77.4016 </r>
       <r>    15.1368     0.9973    77.4979 </r>
       <r>    15.2333     0.9789    77.5923 </r>
       <r>    15.3298     0.9768    77.6866 </r>
       <r>    15.4263     0.9878    77.7819 </r>
       <r>    15.5228     0.9879    77.8772 </r>
       <r>    15.6193     0.9467    77.9686 </r>
       <r>    15.7158     0.8631    78.0519 </r>
       <r>    15.8124     0.7802    78.1272 </r>
       <r>    15.9089     0.7489    78.1995 </r>
       <r>    16.0054     0.7726    78.2740 </r>
       <r>    16.1019     0.8017    78.3514 </r>
       <r>    16.1984     0.7886    78.4275 </r>
       <r>    16.2949     0.7348    78.4984 </r>
       <r>    16.3914     0.6739    78.5634 </r>
       <r>    16.4879     0.6256    78.6238 </r>
       <r>    16.5844     0.5860    78.6804 </r>
       <r>    16.6809     0.5512    78.7336 </r>
       <r>    16.7774     0.5273    78.7845 </r>
       <r>    16.8739     0.5134    78.8340 </r>
       <r>    16.9704     0.4952    78.8818 </r>
       <r>    17.0669     0.4610    78.9263 </r>
       <r>    17.1634     0.4177    78.9666 </r>
       <r>    17.2599     0.3856    79.0038 </r>
       <r>    17.3565     0.3830    79.0408 </r>
       <r>    17.4530     0.4138    79.0807 </r>
       <r>    17.5495     0.4647    79.1256 </r>
       <r>    17.6460     0.5092    79.1747 </r>
       <r>    17.7425     0.5192    79.2248 </r>
       <r>    17.8390     0.4783    79.2710 </r>
       <r>    17.9355     0.3914    79.3087 </r>
       <r>    18.0320     0.2848    79.3362 </r>
       <r>    18.1285     0.1969    79.3552 </r>
       <r>    18.2250     0.1612    79.3708 </r>
       <r>    18.3215     0.1859    79.3887 </r>
       <r>    18.4180     0.2471    79.4126 </r>
       <r>    18.5145     0.3064    79.4421 </r>
       <r>    18.6110     0.3408    79.4750 </r>
       <r>    18.7075     0.3549    79.5093 </r>
       <r>    18.8041     0.3621    79.5442 </r>
       <r>    18.9006     0.3599    79.5790 </r>
       <r>    18.9971     0.3294    79.6107 </r>
       <r>    19.0936     0.2586    79.6357 </r>
       <r>    19.1901     0.1617    79.6513 </r>
       <r>    19.2866     0.0753    79.6586 </r>
       <r>    19.3831     0.0358    79.6620 </r>
       <r>    19.4796     0.0586    79.6677 </r>
       <r>    19.5761     0.1305    79.6803 </r>
       <r>    19.6726     0.2167    79.7012 </r>
       <r>    19.7691     0.2803    79.7282 </r>
       <r>    19.8656     0.3020    79.7574 </r>
       <r>    19.9621     0.2852    79.7849 </r>
       <r>    20.0586     0.2455    79.8086 </r>
       <r>    20.1551     0.1974    79.8276 </r>
       <r>    20.2517     0.1486    79.8420 </r>
       <r>    20.3482     0.1010    79.8517 </r>
       <r>    20.4447     0.0563    79.8571 </r>
       <r>    20.5412     0.0208    79.8592 </r>
       <r>    20.6377     0.0071    79.8598 </r>
       <r>    20.7342     0.0276    79.8625 </r>
       <r>    20.8307     0.0831    79.8705 </r>
       <r>    20.9272     0.1543    79.8854 </r>
       <r>    21.0237     0.2080    79.9055 </r>
       <r>    21.1202     0.2183    79.9266 </r>
       <r>    21.2167     0.1840    79.9443 </r>
       <r>    21.3132     0.1267    79.9565 </r>
       <r>    21.4097     0.0733    79.9636 </r>
       <r>    21.5062     0.0386    79.9673 </r>
       <r>    21.6027     0.0214    79.9694 </r>
       <r>    21.6992     0.0147    79.9708 </r>
       <r>    21.7958     0.0163    79.9724 </r>
       <r>    21.8923     0.0282    79.9751 </r>
       <r>    21.9888     0.0475    79.9797 </r>
       <r>    22.0853     0.0634    79.9858 </r>
       <r>    22.1818     0.0647    79.9921 </r>
       <r>    22.2783     0.0500    79.9969 </r>
       <r>    22.3748     0.0282    79.9996 </r>
       <r>    22.4713     0.0100    80.0006 </r>
       <r>    22.5678     0.0002    80.0006 </r>
       <r>    22.6643    -0.0025    80.0004 </r>
       <r>    22.7608    -0.0021    80.0002 </r>
       <r>    22.8573    -0.0011    80.0001 </r>
       <r>    22.9538    -0.0004    80.0000 </r>
       <r>    23.0503    -0.0001    80.0000 </r>
       <r>    23.1468     0.0000    80.0000 </r>
       <r>    23.2434     0.0000    80.0000 </r>
       <r>    23.3399     0.0000    80.0000 </r>
       <r>    23.4364     0.0000    80.0000 </r>
       <r>    23.5329     0.0000    80.0000 </r>
       <r>    23.6294     0.0000    80.0000 </r>
       <r>    23.7259     0.0000    80.0000 </r>
       <r>    23.8224     0.0000    80.0000 </r>
       <r>    23.9189     0.0000    80.0000 </r>
       <r>    24.0154     0.0000    80.0000 </r>
       <r>    24.1119     0.0000    80.0000 </r>
       <r>    24.2084     0.0000    80.0000 </r>
       <r>    24.3049     0.0000    80.0000 </r>
       <r>    24.4014     0.0000    80.0000 </r>
       <r>    24.4979     0.0000    80.0000 </r>
       <r>    24.5944     0.0000    80.0000 </r>
       <r>    24.6909     0.0000    80.0000 </r>
       <r>    24.7875     0.0000    80.0000 </r>
       <r>    24.8840     0.0000    80.0000 </r>
       <r>    24.9805     0.0000    80.0000 </r>
       <r>    25.0770     0.0000    80.0000 </r>
       <r>    25.1735     0.0000    80.0000 </r>
       <r>    25.2700     0.0000    80.0000 </r>
      </set>
     </set>
    </array>
   </total>
  </dos>
 </calculation>
 <structure name="finalpos" >
  <crystal>
   <varray name="basis" >
    <v>       2.06996320       0.00000000       2.06996320 </v>
    <v>       0.00000000      -2.06996320      -2.06996320 </v>
    <v>       8.35124172       8.35124172      -8.35124172 </v>
   </varray>
   <i name="volume">    107.34889036 </i>
   <varray name="rec_basis" >
    <v>       0.32206692      -0.16103346       0.16103346 </v>
    <v>       0.16103346      -0.32206692      -0.16103346 </v>
    <v>       0.03991422       0.03991422      -0.03991422 </v>
   </varray>
  </crystal>
  <varray name="positions" >
   <v>       0.33333333       0.66666667       0.66770991 </v>
   <v>       0.66666667       0.33333333       0.83229009 </v>
   <v>       0.00000000       0.00000000       0.99833568 </v>
   <v>       0.33333333       0.66666667       0.16661924 </v>
   <v>       0.66666667       0.33333333       0.33338076 </v>
   <v>       0.00000000       0.00000000       0.50166432 </v>
  </varray>
 </structure>
</modeling>
