<?xml version="1.0" encoding="ISO-8859-1"?>
<modeling>
 <generator>
  <i name="program" type="string">vasp </i>
  <i name="version" type="string">5.3.5  </i>
  <i name="subversion" type="string">31Mar14 (build Jun 20 2014 13:15:13) complex                          parallel </i>
  <i name="platform" type="string">LinuxIFC </i>
  <i name="date" type="string">2025 12 16 </i>
  <i name="time" type="string">16:11:34 </i>
 </generator>
 <incar>
  <i type="string" name="PREC">accurate</i>
  <i type="int" name="IALGO">    68</i>
  <i type="logical" name="ADDGRID"> T  </i>
  <i type="int" name="NELM">   100</i>
  <i type="int" name="NELMIN">     4</i>
  <i type="int" name="IBRION">     2</i>
  <i name="EDIFF">      0.00000100</i>
  <i name="EDIFFG">     -0.02000000</i>
  <i type="int" name="NSW">    30</i>
  <i type="int" name="ISIF">     3</i>
  <i name="ENCUT">    600.00000000</i>
  <i type="logical" name="LREAL"> F  </i>
  <i type="int" name="ISMEAR">     0</i>
  <i name="SIGMA">      0.10000000</i>
  <i type="logical" name="LWAVE"> F  </i>
  <i type="logical" name="LCHARG"> F  </i>
  <i type="int" name="NELM">   100</i>
 </incar>
 <kpoints>
  <generation param="Auto">
   <i name="subdivisionlength">     20.00000000 </i>
   <v type="int" name="divisions">       4        4        4 </v>
   <v name="usershift">      0.00000000       0.00000000       0.00000000 </v>
   <v name="genvec1">      0.25000000       0.00000000       0.00000000 </v>
   <v name="genvec2">      0.00000000       0.25000000       0.00000000 </v>
   <v name="genvec3">      0.00000000       0.00000000       0.25000000 </v>
   <v name="shift">      0.00000000       0.00000000       0.00000000 </v>
  </generation>
  <varray name="kpointlist" >
   <v>       0.00000000       0.00000000       0.00000000 </v>
   <v>       0.25000000       0.00000000       0.00000000 </v>
   <v>       0.50000000       0.00000000       0.00000000 </v>
   <v>       0.00000000       0.25000000       0.00000000 </v>
   <v>       0.25000000       0.25000000       0.00000000 </v>
   <v>       0.50000000       0.25000000       0.00000000 </v>
   <v>      -0.25000000       0.25000000       0.00000000 </v>
   <v>       0.00000000       0.50000000       0.00000000 </v>
   <v>       0.25000000       0.50000000       0.00000000 </v>
   <v>       0.50000000       0.50000000       0.00000000 </v>
   <v>       0.00000000       0.00000000       0.25000000 </v>
   <v>       0.25000000       0.00000000       0.25000000 </v>
   <v>       0.50000000       0.00000000       0.25000000 </v>
   <v>      -0.25000000       0.00000000       0.25000000 </v>
   <v>       0.00000000       0.25000000       0.25000000 </v>
   <v>       0.25000000       0.25000000       0.25000000 </v>
   <v>       0.50000000       0.25000000       0.25000000 </v>
   <v>      -0.25000000       0.25000000       0.25000000 </v>
   <v>       0.00000000       0.50000000       0.25000000 </v>
   <v>       0.25000000       0.50000000       0.25000000 </v>
   <v>       0.50000000       0.50000000       0.25000000 </v>
   <v>      -0.25000000       0.50000000       0.25000000 </v>
   <v>       0.00000000      -0.25000000       0.25000000 </v>
   <v>       0.25000000      -0.25000000       0.25000000 </v>
   <v>       0.50000000      -0.25000000       0.25000000 </v>
   <v>      -0.25000000      -0.25000000       0.25000000 </v>
   <v>       0.00000000       0.00000000       0.50000000 </v>
   <v>       0.25000000       0.00000000       0.50000000 </v>
   <v>       0.50000000       0.00000000       0.50000000 </v>
   <v>       0.00000000       0.25000000       0.50000000 </v>
   <v>       0.25000000       0.25000000       0.50000000 </v>
   <v>       0.50000000       0.25000000       0.50000000 </v>
   <v>      -0.25000000       0.25000000       0.50000000 </v>
   <v>       0.00000000       0.50000000       0.50000000 </v>
   <v>       0.25000000       0.50000000       0.50000000 </v>
   <v>       0.50000000       0.50000000       0.50000000 </v>
  </varray>
  <varray name="weights" >
   <v>       0.01562500 </v>
   <v>       0.03125000 </v>
   <v>       0.01562500 </v>
   <v>       0.03125000 </v>
   <v>       0.03125000 </v>
   <v>       0.03125000 </v>
   <v>       0.03125000 </v>
   <v>       0.01562500 </v>
   <v>       0.03125000 </v>
   <v>       0.01562500 </v>
   <v>       0.03125000 </v>
   <v>       0.03125000 </v>
   <v>       0.03125000 </v>
   <v>       0.03125000 </v>
   <v>       0.03125000 </v>
   <v>       0.03125000 </v>
   <v>       0.03125000 </v>
   <v>       0.03125000 </v>
   <v>       0.03125000 </v>
   <v>       0.03125000 </v>
   <v>       0.03125000 </v>
   <v>       0.03125000 </v>
   <v>       0.03125000 </v>
   <v>       0.03125000 </v>
   <v>       0.03125000 </v>
   <v>       0.03125000 </v>
   <v>       0.01562500 </v>
   <v>       0.03125000 </v>
   <v>       0.01562500 </v>
   <v>       0.03125000 </v>
   <v>       0.03125000 </v>
   <v>       0.03125000 </v>
   <v>       0.03125000 </v>
   <v>       0.01562500 </v>
   <v>       0.03125000 </v>
   <v>       0.01562500 </v>
  </varray>
 </kpoints>
 <parameters>
  <separator name="general" >
   <i type="string" name="SYSTEM">unknown system</i>
   <i type="logical" name="LCOMPAT"> F  </i>
  </separator>
  <separator name="electronic" >
   <i type="string" name="PREC">accura</i>
   <i name="ENMAX">    600.00000000</i>
   <i name="ENAUG">    644.87300000</i>
   <i name="EDIFF">      0.00000100</i>
   <i type="int" name="IALGO">    68</i>
   <i type="int" name="IWAVPR">    11</i>
   <i type="int" name="NBANDS">    32</i>
   <i name="NELECT">     48.00000000</i>
   <i type="int" name="TURBO">     0</i>
   <i type="int" name="IRESTART">     0</i>
   <i type="int" name="NREBOOT">     0</i>
   <i type="int" name="NMIN">     0</i>
   <i name="EREF">      0.00000000</i>
   <separator name="electronic smearing" >
    <i type="int" name="ISMEAR">     0</i>
    <i name="SIGMA">      0.10000000</i>
    <i name="KSPACING">      0.50000000</i>
    <i type="logical" name="KGAMMA"> T  </i>
   </separator>
   <separator name="electronic projectors" >
    <i type="logical" name="LREAL"> F  </i>
    <v name="ROPT">      0.00000000      0.00000000      0.00000000      0.00000000</v>
    <i type="int" name="LMAXPAW">  -100</i>
    <i type="int" name="LMAXMIX">     2</i>
    <i type="logical" name="NLSPLINE"> F  </i>
   </separator>
   <separator name="electronic startup" >
    <i type="int" name="ISTART">     0</i>
    <i type="int" name="ICHARG">     2</i>
    <i type="int" name="INIWAV">     1</i>
   </separator>
   <separator name="electronic spin" >
    <i type="int" name="ISPIN">     1</i>
    <i type="logical" name="LNONCOLLINEAR"> F  </i>
    <v name="MAGMOM">      1.00000000      1.00000000      1.00000000      1.00000000      1.00000000      1.00000000      1.00000000      1.00000000      1.00000000      1.00000000      1.00000000      1.00000000</v>
    <i name="NUPDOWN">     -1.00000000</i>
    <i type="logical" name="LSORBIT"> F  </i>
    <v name="SAXIS">      0.00000000      0.00000000      1.00000000</v>
    <i type="logical" name="LSPIRAL"> F  </i>
    <v name="QSPIRAL">      0.00000000      0.00000000      0.00000000</v>
    <i type="logical" name="LZEROZ"> F  </i>
   </separator>
   <separator name="electronic exchange-correlation" >
    <i type="logical" name="LASPH"> F  </i>
    <i type="logical" name="LMETAGGA"> F  </i>
   </separator>
   <separator name="electronic convergence" >
    <i type="int" name="NELM">   100</i>
    <i type="int" name="NELMDL">     0</i>
    <i type="int" name="NELMIN">     4</i>
    <i name="ENINI">    600.00000000</i>
    <separator name="electronic convergence detail" >
     <i type="logical" name="LDIAG"> T  </i>
     <i type="logical" name="LSUBROT"> F  </i>
     <i name="WEIMIN">      0.00100000</i>
     <i name="EBREAK">      0.00000001</i>
     <i name="DEPER">      0.30000000</i>
     <i type="int" name="NRMM">     4</i>
     <i name="TIME">      0.40000000</i>
    </separator>
   </separator>
   <separator name="electronic mixer" >
    <i name="AMIX">      0.40000000</i>
    <i name="BMIX">      1.00000000</i>
    <i name="AMIN">      0.10000000</i>
    <i name="AMIX_MAG">      1.60000000</i>
    <i name="BMIX_MAG">      1.00000000</i>
    <separator name="electronic mixer details" >
     <i type="int" name="IMIX">     4</i>
     <i type="int" name="MAXMIX">   -45</i>
     <i name="WC">    100.00000000</i>
     <i type="int" name="INIMIX">     1</i>
     <i type="int" name="MIXPRE">     1</i>
     <i type="int" name="MREMOVE">     5</i>
    </separator>
   </separator>
   <separator name="electronic dipolcorrection" >
    <i type="logical" name="LDIPOL"> F  </i>
    <i type="logical" name="LMONO"> F  </i>
    <i type="int" name="IDIPOL">     0</i>
    <i name="EPSILON">      1.00000000</i>
    <v name="DIPOL">   -100.00000000   -100.00000000   -100.00000000</v>
    <i name="EFIELD">      0.00000000</i>
   </separator>
  </separator>
  <separator name="grids" >
   <i type="int" name="NGX">    48</i>
   <i type="int" name="NGY">    48</i>
   <i type="int" name="NGZ">    48</i>
   <i type="int" name="NGXF">    96</i>
   <i type="int" name="NGYF">    96</i>
   <i type="int" name="NGZF">    96</i>
   <i type="logical" name="ADDGRID"> T  </i>
  </separator>
  <separator name="ionic" >
   <i type="int" name="NSW">    30</i>
   <i type="int" name="IBRION">     2</i>
   <i type="int" name="ISIF">     3</i>
   <i name="PSTRESS">      0.00000000</i>
   <i name="EDIFFG">     -0.02000000</i>
   <i type="int" name="NFREE">     1</i>
   <i name="POTIM">      0.50000000</i>
   <i name="SMASS">     -3.00000000</i>
   <i name="SCALEE">      1.00000000</i>
  </separator>
  <separator name="ionic md" >
   <i name="TEBEG">      0.00010000</i>
   <i name="TEEND">      0.00010000</i>
   <i type="int" name="NBLOCK">     1</i>
   <i type="int" name="KBLOCK">    30</i>
   <i type="int" name="NPACO">   256</i>
   <i name="APACO">     16.00000000</i>
  </separator>
  <separator name="symmetry" >
   <i type="int" name="ISYM">     2</i>
   <i name="SYMPREC">      0.00001000</i>
  </separator>
  <separator name="dos" >
   <i type="logical" name="LORBIT"> F  </i>
   <v name="RWIGS">     -1.00000000     -1.00000000     -1.00000000     -1.00000000</v>
   <i type="int" name="NEDOS">   301</i>
   <i name="EMIN">     10.00000000</i>
   <i name="EMAX">    -10.00000000</i>
   <i name="EFERMI">      0.00000000</i>
  </separator>
  <separator name="writing" >
   <i type="int" name="NWRITE">     2</i>
   <i type="logical" name="LWAVE"> F  </i>
   <i type="logical" name="LCHARG"> F  </i>
   <i type="logical" name="LPARD"> F  </i>
   <i type="logical" name="LVTOT"> F  </i>
   <i type="logical" name="LVHAR"> F  </i>
   <i type="logical" name="LELF"> F  </i>
   <i type="logical" name="LOPTICS"> F  </i>
   <v name="STM">      0.00000000      0.00000000      0.00000000      0.00000000      0.00000000      0.00000000      0.00000000</v>
  </separator>
  <separator name="performance" >
   <i type="int" name="NPAR">     4</i>
   <i type="int" name="NSIM">     4</i>
   <i type="int" name="NBLK">    -1</i>
   <i type="logical" name="LPLANE"> T  </i>
   <i type="logical" name="LSCALAPACK"> T  </i>
   <i type="logical" name="LSCAAWARE"> F  </i>
   <i type="logical" name="LSCALU"> F  </i>
   <i type="logical" name="LASYNC"> F  </i>
   <i type="logical" name="LORBITALREAL"> F  </i>
  </separator>
  <separator name="miscellaneous" >
   <i type="int" name="IDIOT">     3</i>
   <i type="logical" name="LMUSIC"> F  </i>
   <v name="POMASS">     28.08500000     26.98100000     12.01100000     14.00100000</v>
   <v name="DARWINR">      0.00000000      0.00000000      0.00000000      0.00000000</v>
   <v name="DARWINV">      1.00000000      1.00000000      1.00000000      1.00000000</v>
   <i type="logical" name="LCORR"> T  </i>
  </separator>
  <i type="logical" name="GGA_COMPAT"> T  </i>
  <i type="logical" name="LBERRY"> F  </i>
  <i type="int" name="ICORELEVEL">     0</i>
  <i type="logical" name="LDAU"> F  </i>
  <i type="int" name="I_CONSTRAINED_M">     0</i>
  <separator name="electronic exchange-correlation" >
   <i type="string" name="GGA">--</i>
   <i type="int" name="VOSKOWN">     0</i>
   <i type="logical" name="LHFCALC"> F  </i>
   <i type="string" name="PRECFOCK"></i>
   <i type="logical" name="LSYMGRAD"> F  </i>
   <i type="logical" name="LHFONE"> F  </i>
   <i type="logical" name="LRHFCALC"> F  </i>
   <i type="logical" name="LTHOMAS"> F  </i>
   <i type="logical" name="LMODELHF"> F  </i>
   <i name="ENCUT4O">     -1.00000000</i>
   <i type="int" name="EXXOEP">     0</i>
   <i type="int" name="FOURORBIT">     0</i>
   <i name="AEXX">      0.00000000</i>
   <i name="HFALPHA">      0.00000000</i>
   <i name="MCALPHA">      0.00000000</i>
   <i name="ALDAX">      1.00000000</i>
   <i name="AGGAX">      1.00000000</i>
   <i name="ALDAC">      1.00000000</i>
   <i name="AGGAC">      1.00000000</i>
   <i type="int" name="NKREDX">     1</i>
   <i type="int" name="NKREDY">     1</i>
   <i type="int" name="NKREDZ">     1</i>
   <i type="logical" name="SHIFTRED"> F  </i>
   <i type="logical" name="ODDONLY"> F  </i>
   <i type="logical" name="EVENONLY"> F  </i>
   <i type="int" name="LMAXFOCK">     0</i>
   <i type="int" name="NMAXFOCKAE">     0</i>
   <i type="logical" name="LFOCKAEDFT"> F  </i>
   <i name="HFSCREEN">      0.00000000</i>
   <i name="HFSCREENC">      0.00000000</i>
   <i type="int" name="NBANDSGWLOW">     0</i>
  </separator>
  <separator name="vdW DFT" >
   <i type="logical" name="LUSE_VDW"> F  </i>
   <i name="Zab_VDW">     -0.84910000</i>
   <i name="PARAM1">      0.12340000</i>
   <i name="PARAM2">      1.00000000</i>
   <i name="PARAM3">      0.00000000</i>
  </separator>
  <separator name="model GW" >
   <i type="int" name="MODEL_GW">     0</i>
   <i name="MODEL_EPS0">      6.38601569</i>
   <i name="MODEL_ALPHA">      1.00000000</i>
  </separator>
  <separator name="linear response parameters" >
   <i type="logical" name="LEPSILON"> F  </i>
   <i type="logical" name="LRPA"> F  </i>
   <i type="logical" name="LNABLA"> F  </i>
   <i type="logical" name="LVEL"> F  </i>
   <i type="int" name="KINTER">     0</i>
   <i name="CSHIFT">      0.10000000</i>
   <i name="OMEGAMAX">     -1.00000000</i>
   <i name="DEG_THRESHOLD">      0.00200000</i>
  </separator>
  <separator name="orbital magnetization" >
   <i type="logical" name="NUCIND"> F  </i>
   <v name="MAGPOS">      0.00000000      0.00000000      0.00000000</v>
   <i type="logical" name="LNICSALL"> T  </i>
   <i type="logical" name="ORBITALMAG"> F  </i>
   <i type="logical" name="LMAGBLOCH"> F  </i>
   <i type="logical" name="LCHIMAG"> F  </i>
   <i type="logical" name="LGAUGE"> T  </i>
   <i type="int" name="MAGATOM">     0</i>
   <v name="MAGDIPOL">      0.00000000      0.00000000      0.00000000</v>
   <v name="AVECCONST">      0.00000000      0.00000000      0.00000000</v>
  </separator>
  <separator name="response functions" >
   <i type="logical" name="LADDER"> F  </i>
   <i type="logical" name="LFXC"> F  </i>
   <i type="logical" name="LHARTREE"> T  </i>
   <i type="int" name="IBSE">     0</i>
   <i type="logical" name="LTCTE"> F  </i>
   <i type="logical" name="LTETE"> F  </i>
   <i type="logical" name="LTRIPLET"> F  </i>
   <i type="logical" name="LFXCEPS"> F  </i>
   <i type="logical" name="LFXHEG"> F  </i>
   <i type="logical" name="L2ORDER"> F  </i>
   <i type="logical" name="LUSEW"> F  </i>
   <i name="ENCUTGW">     -2.00000000</i>
   <i name="ENCUTGWSOFT">     -2.00000000</i>
   <i name="ENCUTLF">     -1.00000000</i>
   <i type="int" name="LMAXMP2">    -1</i>
   <i name="SCISSOR">      0.00000000</i>
   <i type="int" name="NOMEGA">     0</i>
   <i type="int" name="NOMEGAR">     0</i>
   <i type="int" name="NBANDSGW">    -1</i>
   <i type="int" name="NBANDSO">    -1</i>
   <i type="int" name="NBANDSV">    -1</i>
   <i type="int" name="NELM">   100</i>
   <i type="int" name="DIM">     3</i>
   <i type="int" name="ANTIRES">     0</i>
   <i name="OMEGAMAX">    -30.00000000</i>
   <i name="OMEGAMIN">    -30.00000000</i>
   <i name="OMEGATL">   -200.00000000</i>
   <i type="int" name="OMEGAGRID">     0</i>
   <i name="CSHIFT">     -0.10000000</i>
   <i type="logical" name="SELFENERGY"> F  </i>
   <i type="logical" name="LSPECTRAL"> F  </i>
   <i type="logical" name="ODDONLYGW"> F  </i>
   <i type="logical" name="EVENONLYGW"> F  </i>
   <i type="int" name="NKREDLFX">     1</i>
   <i type="int" name="NKREDLFY">     1</i>
   <i type="int" name="NKREDLFZ">     1</i>
   <i type="int" name="MAXMEM">  1800</i>
   <i type="int" name="TELESCOPE">     0</i>
   <i type="int" name="TAUPAR">     1</i>
  </separator>
  <separator name="External order field" >
   <i name="OFIELD_KAPPA">      0.00000000</i>
   <v name="OFIELD_K">      0.00000000      0.00000000      0.00000000</v>
   <i name="OFIELD_Q6_NEAR">      0.00000000</i>
   <i name="OFIELD_Q6_FAR">      0.00000000</i>
   <i name="OFIELD_A">      0.00000000</i>
  </separator>
 </parameters>
 <atominfo>
  <atoms>      12 </atoms>
  <types>       4 </types>
  <array name="atoms" >
   <dimension dim="1">ion</dimension>
   <field type="string">element</field>
   <field type="int">atomtype</field>
   <set>
    <rc><c>Si</c><c>   1</c></rc>
    <rc><c>Si</c><c>   1</c></rc>
    <rc><c>Si</c><c>   1</c></rc>
    <rc><c>Al</c><c>   2</c></rc>
    <rc><c>Al</c><c>   2</c></rc>
    <rc><c>Al</c><c>   2</c></rc>
    <rc><c>C </c><c>   3</c></rc>
    <rc><c>C </c><c>   3</c></rc>
    <rc><c>C </c><c>   3</c></rc>
    <rc><c>N </c><c>   4</c></rc>
    <rc><c>N </c><c>   4</c></rc>
    <rc><c>N </c><c>   4</c></rc>
   </set>
  </array>
  <array name="atomtypes" >
   <dimension dim="1">type</dimension>
   <field type="int">atomspertype</field>
   <field type="string">element</field>
   <field>mass</field>
   <field>valence</field>
   <field type="string">pseudopotential</field>
   <set>
    <rc><c>   3</c><c>Si</c><c>     28.08500000</c><c>      4.00000000</c><c>  PAW_PBE Si 05Jan2001                  </c></rc>
    <rc><c>   3</c><c>Al</c><c>     26.98100000</c><c>      3.00000000</c><c>  PAW_PBE Al 04Jan2001                  </c></rc>
    <rc><c>   3</c><c>C </c><c>     12.01100000</c><c>      4.00000000</c><c>  PAW_PBE C 08Apr2002                   </c></rc>
    <rc><c>   3</c><c>N </c><c>     14.00100000</c><c>      5.00000000</c><c>  PAW_PBE N_s 07Sep2000                 </c></rc>
   </set>
  </array>
 </atominfo>
 <structure name="initialpos" >
  <crystal>
   <varray name="basis" >
    <v>       5.41188022       0.02960788       0.00842697 </v>
    <v>       2.73156025       4.70305422      -0.02457536 </v>
    <v>       2.72238744       1.54616262       5.02883192 </v>
   </varray>
   <i name="volume">    127.72031379 </i>
   <varray name="rec_basis" >
    <v>       0.18547454      -0.10807569      -0.06717882 </v>
    <v>      -0.00106376       0.21290657      -0.06488430 </v>
    <v>      -0.00031600       0.00122156       0.19864883 </v>
   </varray>
  </crystal>
  <varray name="positions" >
   <v>       0.00095765       0.68435087       0.98133364 </v>
   <v>       0.49461326       0.83157769       0.49628300 </v>
   <v>       0.16047973       0.49774020       0.51862465 </v>
   <v>       0.65929161       0.33619241       0.00199450 </v>
   <v>       0.34473426       0.99806090       0.99061647 </v>
   <v>       0.84030562       0.16221563       0.49471392 </v>
   <v>       0.23147668       0.84043729       0.37926815 </v>
   <v>       0.72259353       0.03667559       0.87712121 </v>
   <v>       0.03440498       0.38930918       0.88546119 </v>
   <v>       0.50828342       0.19853935       0.39632436 </v>
   <v>       0.88306220       0.56343655       0.36940984 </v>
   <v>       0.36979706       0.71146433       0.85884908 </v>
  </varray>
 </structure>
 <calculation>
  <scstep>
   <time name="dav">    0.71    0.71</time>
   <time name="total">    0.80    0.81</time>
   <energy>
    <i name="alphaZ">     47.90220885 </i>
    <i name="ewald">  -1703.56947401 </i>
    <i name="hartreedc">   -269.73530783 </i>
    <i name="XCdc">     -4.11472070 </i>
    <i name="pawpsdc">   1403.35320608 </i>
    <i name="pawaedc">  -1259.97391932 </i>
    <i name="eentropy">     -0.01557078 </i>
    <i name="bandstr">    334.98779167 </i>
    <i name="atom">   1704.90733868 </i>
    <i name="e_fr_energy">    253.74155265 </i>
    <i name="e_wo_entrp">    253.75712342 </i>
    <i name="e_0_energy">    253.74933804 </i>
   </energy>
  </scstep>
  <scstep>
   <time name="dav">    0.87    0.87</time>
   <time name="total">    0.87    0.88</time>
   <energy>
    <i name="e_fr_energy">    -78.85521151 </i>
    <i name="e_wo_entrp">    -78.85521151 </i>
    <i name="e_0_energy">    -78.85521151 </i>
   </energy>
  </scstep>
  <scstep>
   <time name="dav">    0.84    0.84</time>
   <time name="total">    0.84    0.87</time>
   <energy>
    <i name="e_fr_energy">   -100.41358062 </i>
    <i name="e_wo_entrp">   -100.41358062 </i>
    <i name="e_0_energy">   -100.41358062 </i>
   </energy>
  </scstep>
  <scstep>
   <time name="dav">    0.84    0.84</time>
   <time name="total">    0.85    0.86</time>
   <energy>
    <i name="e_fr_energy">   -100.93280216 </i>
    <i name="e_wo_entrp">   -100.93280216 </i>
    <i name="e_0_energy">   -100.93280216 </i>
   </energy>
  </scstep>
  <scstep>
   <time name="dav">    0.82    0.82</time>
   <time name="total">    0.95    0.96</time>
   <energy>
    <i name="e_fr_energy">   -100.94908063 </i>
    <i name="e_wo_entrp">   -100.94908063 </i>
    <i name="e_0_energy">   -100.94908063 </i>
   </energy>
  </scstep>
  <scstep>
   <time name="diag">    0.18    0.19</time>
   <time name="diis">    0.57    0.57</time>
   <time name="orth">    0.02    0.02</time>
   <time name="total">    0.99    1.01</time>
   <energy>
    <i name="e_fr_energy">    -87.35862306 </i>
    <i name="e_wo_entrp">    -87.35862306 </i>
    <i name="e_0_energy">    -87.35862306 </i>
   </energy>
  </scstep>
  <scstep>
   <time name="diag">    0.21    0.21</time>
   <time name="diis">    0.61    0.61</time>
   <time name="orth">    0.02    0.02</time>
   <time name="total">    1.06    1.07</time>
   <energy>
    <i name="e_fr_energy">    -87.31115751 </i>
    <i name="e_wo_entrp">    -87.31115751 </i>
    <i name="e_0_energy">    -87.31115751 </i>
   </energy>
  </scstep>
  <scstep>
   <time name="diag">    0.19    0.19</time>
   <time name="diis">    0.60    0.60</time>
   <time name="orth">    0.02    0.02</time>
   <time name="total">    1.03    1.04</time>
   <energy>
    <i name="e_fr_energy">    -87.43914723 </i>
    <i name="e_wo_entrp">    -87.43914723 </i>
    <i name="e_0_energy">    -87.43914723 </i>
   </energy>
  </scstep>
  <scstep>
   <time name="diag">    0.18    0.18</time>
   <time name="diis">    0.59    0.59</time>
   <time name="orth">    0.02    0.02</time>
   <time name="total">    1.01    1.03</time>
   <energy>
    <i name="e_fr_energy">    -87.20768691 </i>
    <i name="e_wo_entrp">    -87.20768691 </i>
    <i name="e_0_energy">    -87.20768691 </i>
   </energy>
  </scstep>
  <scstep>
   <time name="diag">    0.18    0.18</time>
   <time name="diis">    0.60    0.60</time>
   <time name="orth">    0.02    0.02</time>
   <time name="total">    1.02    1.04</time>
   <energy>
    <i name="e_fr_energy">    -87.21195837 </i>
    <i name="e_wo_entrp">    -87.21195837 </i>
    <i name="e_0_energy">    -87.21195837 </i>
   </energy>
  </scstep>
  <scstep>
   <time name="diag">    0.18    0.18</time>
   <time name="diis">    0.56    0.56</time>
   <time name="orth">    0.02    0.02</time>
   <time name="total">    0.98    1.00</time>
   <energy>
    <i name="e_fr_energy">    -87.21087594 </i>
    <i name="e_wo_entrp">    -87.21087594 </i>
    <i name="e_0_energy">    -87.21087594 </i>
   </energy>
  </scstep>
  <scstep>
   <time name="diag">    0.18    0.18</time>
   <time name="diis">    0.58    0.58</time>
   <time name="orth">    0.02    0.02</time>
   <time name="total">    1.00    1.02</time>
   <energy>
    <i name="e_fr_energy">    -87.21081364 </i>
    <i name="e_wo_entrp">    -87.21081364 </i>
    <i name="e_0_energy">    -87.21081364 </i>
   </energy>
  </scstep>
  <scstep>
   <time name="diag">    0.18    0.18</time>
   <time name="diis">    0.59    0.59</time>
   <time name="orth">    0.02    0.02</time>
   <time name="total">    1.01    1.02</time>
   <energy>
    <i name="e_fr_energy">    -87.21081180 </i>
    <i name="e_wo_entrp">    -87.21081180 </i>
    <i name="e_0_energy">    -87.21081180 </i>
   </energy>
  </scstep>
  <scstep>
   <time name="diag">    0.18    0.18</time>
   <time name="diis">    0.55    0.55</time>
   <time name="orth">    0.02    0.02</time>
   <time name="total">    0.98    0.99</time>
   <energy>
    <i name="e_fr_energy">    -87.21081010 </i>
    <i name="e_wo_entrp">    -87.21081010 </i>
    <i name="e_0_energy">    -87.21081010 </i>
   </energy>
  </scstep>
  <scstep>
   <time name="diag">    0.19    0.19</time>
   <time name="diis">    0.38    0.38</time>
   <time name="orth">    0.02    0.02</time>
   <time name="total">    0.68    0.69</time>
   <energy>
    <i name="alphaZ">     47.90220885 </i>
    <i name="ewald">  -1703.56947401 </i>
    <i name="hartreedc">   -349.28460607 </i>
    <i name="XCdc">      3.02040557 </i>
    <i name="pawpsdc">   7612.86347563 </i>
    <i name="pawaedc">  -7472.58556949 </i>
    <i name="eentropy">      0.00000000 </i>
    <i name="bandstr">     69.53541031 </i>
    <i name="atom">   1704.90733868 </i>
    <i name="e_fr_energy">    -87.21081053 </i>
    <i name="e_wo_entrp">    -87.21081053 </i>
    <i name="e_0_energy">    -87.21081053 </i>
   </energy>
  </scstep>
  <structure>
   <crystal>
    <varray name="basis" >
     <v>       5.41188022       0.02960788       0.00842697 </v>
     <v>       2.73156025       4.70305422      -0.02457536 </v>
     <v>       2.72238744       1.54616262       5.02883192 </v>
    </varray>
    <i name="volume">    127.72031379 </i>
    <varray name="rec_basis" >
     <v>       0.18547454      -0.10807569      -0.06717882 </v>
     <v>      -0.00106376       0.21290657      -0.06488430 </v>
     <v>      -0.00031600       0.00122156       0.19864883 </v>
    </varray>
   </crystal>
   <varray name="positions" >
    <v>       0.00095765       0.68435087       0.98133364 </v>
    <v>       0.49461326       0.83157769       0.49628300 </v>
    <v>       0.16047973       0.49774020       0.51862465 </v>
    <v>       0.65929161       0.33619241       0.00199450 </v>
    <v>       0.34473426       0.99806090       0.99061647 </v>
    <v>       0.84030562       0.16221563       0.49471392 </v>
    <v>       0.23147668       0.84043729       0.37926815 </v>
    <v>       0.72259353       0.03667559       0.87712121 </v>
    <v>       0.03440498       0.38930918       0.88546119 </v>
    <v>       0.50828342       0.19853935       0.39632436 </v>
    <v>       0.88306220       0.56343655       0.36940984 </v>
    <v>       0.36979706       0.71146433       0.85884908 </v>
   </varray>
  </structure>
  <varray name="forces" >
   <v>      -0.00461517       0.01082122      -0.00062419 </v>
   <v>       0.00687468      -0.00200497      -0.00237383 </v>
   <v>      -0.00037242       0.00655772       0.00533257 </v>
   <v>       0.00178373      -0.00350275       0.00265900 </v>
   <v>      -0.00275308       0.00623169       0.01154243 </v>
   <v>      -0.00415785      -0.00336367      -0.00063551 </v>
   <v>      -0.00372456      -0.00452171      -0.00301640 </v>
   <v>       0.00314685      -0.00448240       0.00187346 </v>
   <v>       0.00377460      -0.00181181      -0.00367539 </v>
   <v>       0.00063998      -0.00194646       0.00033871 </v>
   <v>       0.00160487      -0.00112278      -0.00657301 </v>
   <v>      -0.00220162      -0.00085407      -0.00484784 </v>
  </varray>
  <varray name="stress" >
   <v>       0.26181746       0.20883274       0.05968027 </v>
   <v>       0.20883275      -0.29382862       0.05551580 </v>
   <v>       0.05968039       0.05551559      -0.21814287 </v>
  </varray>
  <energy>
   <i name="e_fr_energy">    -87.21081053 </i>
   <i name="e_wo_entrp">    -87.21081053 </i>
   <i name="e_0_energy">      0.00000000 </i>
  </energy>
  <time name="totalsc">   16.54   16.81</time>
  <eigenvalues>
   <array>
    <dimension dim="1">band</dimension>
    <dimension dim="2">kpoint</dimension>
    <dimension dim="3">spin</dimension>
    <field>eigene</field>
    <field>occ</field>
    <set>
     <set comment="spin 1">
      <set comment="kpoint 1">
       <r>   -9.3006    1.0000 </r>
       <r>   -7.3500    1.0000 </r>
       <r>   -7.2596    1.0000 </r>
       <r>   -4.0067    1.0000 </r>
       <r>   -2.9087    1.0000 </r>
       <r>   -2.2232    1.0000 </r>
       <r>   -0.8678    1.0000 </r>
       <r>   -0.2931    1.0000 </r>
       <r>    0.8235    1.0000 </r>
       <r>    1.2560    1.0000 </r>
       <r>    1.6692    1.0000 </r>
       <r>    2.0062    1.0000 </r>
       <r>    2.1806    1.0000 </r>
       <r>    3.1050    1.0000 </r>
       <r>    3.3932    1.0000 </r>
       <r>    4.2726    1.0000 </r>
       <r>    4.8235    1.0000 </r>
       <r>    5.4014    1.0000 </r>
       <r>    5.7087    1.0000 </r>
       <r>    5.9895    1.0000 </r>
       <r>    6.3818    1.0000 </r>
       <r>    7.2988    1.0000 </r>
       <r>    7.5675    1.0000 </r>
       <r>    7.9317    1.0000 </r>
       <r>   10.8917    0.0000 </r>
       <r>   11.9648    0.0000 </r>
       <r>   12.3131    0.0000 </r>
       <r>   12.4963    0.0000 </r>
       <r>   13.0010    0.0000 </r>
       <r>   13.9939    0.0000 </r>
       <r>   14.4382    0.0000 </r>
       <r>   14.8161    0.0000 </r>
      </set>
      <set comment="kpoint 2">
       <r>   -9.0486    1.0000 </r>
       <r>   -7.6054    1.0000 </r>
       <r>   -7.3600    1.0000 </r>
       <r>   -4.1577    1.0000 </r>
       <r>   -3.0993    1.0000 </r>
       <r>   -2.2592    1.0000 </r>
       <r>   -0.7446    1.0000 </r>
       <r>   -0.2104    1.0000 </r>
       <r>    0.7696    1.0000 </r>
       <r>    1.2554    1.0000 </r>
       <r>    1.6689    1.0000 </r>
       <r>    2.3456    1.0000 </r>
       <r>    3.1150    1.0000 </r>
       <r>    3.3917    1.0000 </r>
       <r>    4.1031    1.0000 </r>
       <r>    4.2627    1.0000 </r>
       <r>    4.6434    1.0000 </r>
       <r>    4.9453    1.0000 </r>
       <r>    5.4708    1.0000 </r>
       <r>    5.7939    1.0000 </r>
       <r>    6.2950    1.0000 </r>
       <r>    6.6284    1.0000 </r>
       <r>    7.3965    1.0000 </r>
       <r>    7.5646    1.0000 </r>
       <r>   11.4289    0.0000 </r>
       <r>   11.9233    0.0000 </r>
       <r>   12.2655    0.0000 </r>
       <r>   12.5725    0.0000 </r>
       <r>   13.2801    0.0000 </r>
       <r>   13.6187    0.0000 </r>
       <r>   14.2004    0.0000 </r>
       <r>   14.7917    0.0000 </r>
      </set>
      <set comment="kpoint 3">
       <r>   -8.5052    1.0000 </r>
       <r>   -8.2300    1.0000 </r>
       <r>   -7.3809    1.0000 </r>
       <r>   -4.3079    1.0000 </r>
       <r>   -3.2478    1.0000 </r>
       <r>   -2.3616    1.0000 </r>
       <r>   -0.6952    1.0000 </r>
       <r>    0.0455    1.0000 </r>
       <r>    1.1309    1.0000 </r>
       <r>    1.3748    1.0000 </r>
       <r>    1.8663    1.0000 </r>
       <r>    2.5897    1.0000 </r>
       <r>    2.8441    1.0000 </r>
       <r>    3.5263    1.0000 </r>
       <r>    4.2249    1.0000 </r>
       <r>    4.4081    1.0000 </r>
       <r>    4.7701    1.0000 </r>
       <r>    4.8827    1.0000 </r>
       <r>    5.4053    1.0000 </r>
       <r>    5.9590    1.0000 </r>
       <r>    6.2240    1.0000 </r>
       <r>    6.8721    1.0000 </r>
       <r>    6.8892    1.0000 </r>
       <r>    7.2416    1.0000 </r>
       <r>   10.7140    0.0000 </r>
       <r>   11.5907    0.0000 </r>
       <r>   12.7704    0.0000 </r>
       <r>   12.9219    0.0000 </r>
       <r>   13.2613    0.0000 </r>
       <r>   13.2951    0.0000 </r>
       <r>   14.0258    0.0000 </r>
       <r>   14.3136    0.0000 </r>
      </set>
      <set comment="kpoint 4">
       <r>   -9.0745    1.0000 </r>
       <r>   -7.6546    1.0000 </r>
       <r>   -7.2566    1.0000 </r>
       <r>   -3.9829    1.0000 </r>
       <r>   -3.2423    1.0000 </r>
       <r>   -2.4852    1.0000 </r>
       <r>   -0.7176    1.0000 </r>
       <r>   -0.2583    1.0000 </r>
       <r>    0.9420    1.0000 </r>
       <r>    1.1483    1.0000 </r>
       <r>    1.9101    1.0000 </r>
       <r>    2.3670    1.0000 </r>
       <r>    3.1968    1.0000 </r>
       <r>    3.5516    1.0000 </r>
       <r>    3.9252    1.0000 </r>
       <r>    4.2602    1.0000 </r>
       <r>    4.5840    1.0000 </r>
       <r>    4.9202    1.0000 </r>
       <r>    5.3631    1.0000 </r>
       <r>    5.7166    1.0000 </r>
       <r>    6.1538    1.0000 </r>
       <r>    6.7940    1.0000 </r>
       <r>    7.1505    1.0000 </r>
       <r>    7.8612    1.0000 </r>
       <r>   11.2411    0.0000 </r>
       <r>   12.0085    0.0000 </r>
       <r>   12.0743    0.0000 </r>
       <r>   12.6842    0.0000 </r>
       <r>   13.5913    0.0000 </r>
       <r>   13.7165    0.0000 </r>
       <r>   13.9959    0.0000 </r>
       <r>   14.2939    0.0000 </r>
      </set>
      <set comment="kpoint 5">
       <r>   -9.0357    1.0000 </r>
       <r>   -7.6207    1.0000 </r>
       <r>   -7.3284    1.0000 </r>
       <r>   -4.1307    1.0000 </r>
       <r>   -3.4138    1.0000 </r>
       <r>   -2.4058    1.0000 </r>
       <r>   -0.5338    1.0000 </r>
       <r>    0.1031    1.0000 </r>
       <r>    1.0376    1.0000 </r>
       <r>    1.5123    1.0000 </r>
       <r>    1.6880    1.0000 </r>
       <r>    2.3890    1.0000 </r>
       <r>    3.0347    1.0000 </r>
       <r>    3.3283    1.0000 </r>
       <r>    3.7026    1.0000 </r>
       <r>    4.1839    1.0000 </r>
       <r>    4.6145    1.0000 </r>
       <r>    5.1074    1.0000 </r>
       <r>    5.4427    1.0000 </r>
       <r>    5.7126    1.0000 </r>
       <r>    5.9881    1.0000 </r>
       <r>    6.6722    1.0000 </r>
       <r>    7.2527    1.0000 </r>
       <r>    7.4735    1.0000 </r>
       <r>   11.2740    0.0000 </r>
       <r>   11.7101    0.0000 </r>
       <r>   12.5504    0.0000 </r>
       <r>   12.7675    0.0000 </r>
       <r>   13.1102    0.0000 </r>
       <r>   13.7343    0.0000 </r>
       <r>   14.0189    0.0000 </r>
       <r>   14.7914    0.0000 </r>
      </set>
      <set comment="kpoint 6">
       <r>   -8.5985    1.0000 </r>
       <r>   -8.0231    1.0000 </r>
       <r>   -7.4641    1.0000 </r>
       <r>   -4.3279    1.0000 </r>
       <r>   -3.4740    1.0000 </r>
       <r>   -2.6132    1.0000 </r>
       <r>   -0.1450    1.0000 </r>
       <r>    0.4576    1.0000 </r>
       <r>    0.9838    1.0000 </r>
       <r>    1.7041    1.0000 </r>
       <r>    1.9586    1.0000 </r>
       <r>    2.3913    1.0000 </r>
       <r>    2.9260    1.0000 </r>
       <r>    3.4818    1.0000 </r>
       <r>    3.6923    1.0000 </r>
       <r>    4.3127    1.0000 </r>
       <r>    4.7404    1.0000 </r>
       <r>    4.8831    1.0000 </r>
       <r>    5.5253    1.0000 </r>
       <r>    5.8819    1.0000 </r>
       <r>    6.1961    1.0000 </r>
       <r>    6.6093    1.0000 </r>
       <r>    6.8169    1.0000 </r>
       <r>    7.2900    1.0000 </r>
       <r>   11.1334    0.0000 </r>
       <r>   11.5819    0.0000 </r>
       <r>   11.9438    0.0000 </r>
       <r>   12.2952    0.0000 </r>
       <r>   12.7881    0.0000 </r>
       <r>   13.5145    0.0000 </r>
       <r>   13.7991    0.0000 </r>
       <r>   14.5551    0.0000 </r>
      </set>
      <set comment="kpoint 7">
       <r>   -8.6775    1.0000 </r>
       <r>   -8.0064    1.0000 </r>
       <r>   -7.4010    1.0000 </r>
       <r>   -4.1836    1.0000 </r>
       <r>   -3.2400    1.0000 </r>
       <r>   -2.8191    1.0000 </r>
       <r>   -0.4079    1.0000 </r>
       <r>    0.1139    1.0000 </r>
       <r>    1.0097    1.0000 </r>
       <r>    1.6244    1.0000 </r>
       <r>    1.8118    1.0000 </r>
       <r>    2.4268    1.0000 </r>
       <r>    3.3039    1.0000 </r>
       <r>    3.5024    1.0000 </r>
       <r>    3.7508    1.0000 </r>
       <r>    4.5807    1.0000 </r>
       <r>    4.6861    1.0000 </r>
       <r>    5.0622    1.0000 </r>
       <r>    5.3708    1.0000 </r>
       <r>    5.7806    1.0000 </r>
       <r>    5.9143    1.0000 </r>
       <r>    6.6432    1.0000 </r>
       <r>    7.1913    1.0000 </r>
       <r>    7.5287    1.0000 </r>
       <r>   11.0764    0.0000 </r>
       <r>   11.4511    0.0000 </r>
       <r>   11.9548    0.0000 </r>
       <r>   12.4912    0.0000 </r>
       <r>   12.8255    0.0000 </r>
       <r>   13.4326    0.0000 </r>
       <r>   14.0584    0.0000 </r>
       <r>   14.1591    0.0000 </r>
      </set>
      <set comment="kpoint 8">
       <r>   -8.6679    1.0000 </r>
       <r>   -8.1294    1.0000 </r>
       <r>   -7.2604    1.0000 </r>
       <r>   -4.0217    1.0000 </r>
       <r>   -3.3675    1.0000 </r>
       <r>   -2.8667    1.0000 </r>
       <r>   -0.5838    1.0000 </r>
       <r>   -0.0910    1.0000 </r>
       <r>    1.0230    1.0000 </r>
       <r>    1.5950    1.0000 </r>
       <r>    2.1362    1.0000 </r>
       <r>    2.7489    1.0000 </r>
       <r>    3.2558    1.0000 </r>
       <r>    3.7532    1.0000 </r>
       <r>    3.7828    1.0000 </r>
       <r>    4.4187    1.0000 </r>
       <r>    4.5138    1.0000 </r>
       <r>    5.1507    1.0000 </r>
       <r>    5.4436    1.0000 </r>
       <r>    5.7256    1.0000 </r>
       <r>    5.9370    1.0000 </r>
       <r>    6.1635    1.0000 </r>
       <r>    7.0369    1.0000 </r>
       <r>    7.7599    1.0000 </r>
       <r>   10.6820    0.0000 </r>
       <r>   11.4627    0.0000 </r>
       <r>   12.7692    0.0000 </r>
       <r>   12.9247    0.0000 </r>
       <r>   13.1515    0.0000 </r>
       <r>   13.6364    0.0000 </r>
       <r>   13.8522    0.0000 </r>
       <r>   14.3120    0.0000 </r>
      </set>
      <set comment="kpoint 9">
       <r>   -8.6624    1.0000 </r>
       <r>   -7.9964    1.0000 </r>
       <r>   -7.3990    1.0000 </r>
       <r>   -4.1621    1.0000 </r>
       <r>   -3.5905    1.0000 </r>
       <r>   -2.8035    1.0000 </r>
       <r>   -0.0297    1.0000 </r>
       <r>    0.1682    1.0000 </r>
       <r>    1.1130    1.0000 </r>
       <r>    1.7627    1.0000 </r>
       <r>    2.2913    1.0000 </r>
       <r>    2.4266    1.0000 </r>
       <r>    2.8801    1.0000 </r>
       <r>    3.5172    1.0000 </r>
       <r>    3.6844    1.0000 </r>
       <r>    4.3108    1.0000 </r>
       <r>    4.5251    1.0000 </r>
       <r>    5.1852    1.0000 </r>
       <r>    5.4634    1.0000 </r>
       <r>    5.6778    1.0000 </r>
       <r>    5.8720    1.0000 </r>
       <r>    6.3915    1.0000 </r>
       <r>    7.1511    1.0000 </r>
       <r>    7.4370    1.0000 </r>
       <r>   10.8961    0.0000 </r>
       <r>   11.6261    0.0000 </r>
       <r>   12.0739    0.0000 </r>
       <r>   12.3229    0.0000 </r>
       <r>   12.7791    0.0000 </r>
       <r>   13.4741    0.0000 </r>
       <r>   13.8271    0.0000 </r>
       <r>   14.5026    0.0000 </r>
      </set>
      <set comment="kpoint 10">
       <r>   -8.6168    1.0000 </r>
       <r>   -7.9300    1.0000 </r>
       <r>   -7.5099    1.0000 </r>
       <r>   -4.2733    1.0000 </r>
       <r>   -3.7011    1.0000 </r>
       <r>   -2.8216    1.0000 </r>
       <r>    0.0077    1.0000 </r>
       <r>    0.7735    1.0000 </r>
       <r>    1.1897    1.0000 </r>
       <r>    1.9457    1.0000 </r>
       <r>    2.3433    1.0000 </r>
       <r>    2.5670    1.0000 </r>
       <r>    2.8420    1.0000 </r>
       <r>    3.3250    1.0000 </r>
       <r>    3.4454    1.0000 </r>
       <r>    4.4265    1.0000 </r>
       <r>    4.7475    1.0000 </r>
       <r>    4.8600    1.0000 </r>
       <r>    5.0582    1.0000 </r>
       <r>    5.4483    1.0000 </r>
       <r>    5.9914    1.0000 </r>
       <r>    6.5049    1.0000 </r>
       <r>    6.6836    1.0000 </r>
       <r>    7.1320    1.0000 </r>
       <r>   10.9405    0.0000 </r>
       <r>   11.8892    0.0000 </r>
       <r>   12.1684    0.0000 </r>
       <r>   12.9373    0.0000 </r>
       <r>   13.0986    0.0000 </r>
       <r>   13.2967    0.0000 </r>
       <r>   13.9109    0.0000 </r>
       <r>   14.2855    0.0000 </r>
      </set>
      <set comment="kpoint 11">
       <r>   -9.1303    1.0000 </r>
       <r>   -7.6550    1.0000 </r>
       <r>   -7.2312    1.0000 </r>
       <r>   -4.1166    1.0000 </r>
       <r>   -3.2197    1.0000 </r>
       <r>   -2.0607    1.0000 </r>
       <r>   -0.6494    1.0000 </r>
       <r>    0.1692    1.0000 </r>
       <r>    1.0671    1.0000 </r>
       <r>    1.3573    1.0000 </r>
       <r>    1.6241    1.0000 </r>
       <r>    2.3738    1.0000 </r>
       <r>    2.4599    1.0000 </r>
       <r>    3.2012    1.0000 </r>
       <r>    3.6418    1.0000 </r>
       <r>    3.7597    1.0000 </r>
       <r>    4.1317    1.0000 </r>
       <r>    5.2529    1.0000 </r>
       <r>    5.6296    1.0000 </r>
       <r>    5.8203    1.0000 </r>
       <r>    6.1631    1.0000 </r>
       <r>    6.9769    1.0000 </r>
       <r>    7.4639    1.0000 </r>
       <r>    7.5105    1.0000 </r>
       <r>   10.8936    0.0000 </r>
       <r>   11.5350    0.0000 </r>
       <r>   12.7293    0.0000 </r>
       <r>   12.9953    0.0000 </r>
       <r>   13.1961    0.0000 </r>
       <r>   14.0205    0.0000 </r>
       <r>   14.2206    0.0000 </r>
       <r>   14.8014    0.0000 </r>
      </set>
      <set comment="kpoint 12">
       <r>   -9.0388    1.0000 </r>
       <r>   -7.6027    1.0000 </r>
       <r>   -7.3166    1.0000 </r>
       <r>   -4.3347    1.0000 </r>
       <r>   -3.2241    1.0000 </r>
       <r>   -2.4316    1.0000 </r>
       <r>   -0.4996    1.0000 </r>
       <r>    0.1480    1.0000 </r>
       <r>    0.9691    1.0000 </r>
       <r>    1.3330    1.0000 </r>
       <r>    1.9123    1.0000 </r>
       <r>    2.3915    1.0000 </r>
       <r>    3.0575    1.0000 </r>
       <r>    3.4942    1.0000 </r>
       <r>    3.7099    1.0000 </r>
       <r>    4.2687    1.0000 </r>
       <r>    4.5878    1.0000 </r>
       <r>    4.8264    1.0000 </r>
       <r>    5.2343    1.0000 </r>
       <r>    5.7659    1.0000 </r>
       <r>    6.0576    1.0000 </r>
       <r>    6.3676    1.0000 </r>
       <r>    7.3094    1.0000 </r>
       <r>    7.6486    1.0000 </r>
       <r>   11.6005    0.0000 </r>
       <r>   11.9630    0.0000 </r>
       <r>   12.2755    0.0000 </r>
       <r>   12.6759    0.0000 </r>
       <r>   13.1324    0.0000 </r>
       <r>   13.6598    0.0000 </r>
       <r>   14.3273    0.0000 </r>
       <r>   15.0935    0.0000 </r>
      </set>
      <set comment="kpoint 13">
       <r>   -8.5796    1.0000 </r>
       <r>   -8.0787    1.0000 </r>
       <r>   -7.4000    1.0000 </r>
       <r>   -4.4596    1.0000 </r>
       <r>   -3.3834    1.0000 </r>
       <r>   -2.5635    1.0000 </r>
       <r>   -0.4800    1.0000 </r>
       <r>    0.5291    1.0000 </r>
       <r>    1.1923    1.0000 </r>
       <r>    1.6574    1.0000 </r>
       <r>    2.2650    1.0000 </r>
       <r>    2.4553    1.0000 </r>
       <r>    2.9875    1.0000 </r>
       <r>    3.5085    1.0000 </r>
       <r>    3.8066    1.0000 </r>
       <r>    4.1915    1.0000 </r>
       <r>    4.4784    1.0000 </r>
       <r>    5.1328    1.0000 </r>
       <r>    5.2637    1.0000 </r>
       <r>    5.6731    1.0000 </r>
       <r>    5.8905    1.0000 </r>
       <r>    6.4748    1.0000 </r>
       <r>    6.9511    1.0000 </r>
       <r>    7.3523    1.0000 </r>
       <r>   10.8927    0.0000 </r>
       <r>   11.8262    0.0000 </r>
       <r>   12.4049    0.0000 </r>
       <r>   12.9497    0.0000 </r>
       <r>   13.1931    0.0000 </r>
       <r>   13.4524    0.0000 </r>
       <r>   14.0823    0.0000 </r>
       <r>   14.3429    0.0000 </r>
      </set>
      <set comment="kpoint 14">
       <r>   -8.7769    1.0000 </r>
       <r>   -7.9662    1.0000 </r>
       <r>   -7.3713    1.0000 </r>
       <r>   -4.2443    1.0000 </r>
       <r>   -3.4052    1.0000 </r>
       <r>   -2.1868    1.0000 </r>
       <r>   -0.5795    1.0000 </r>
       <r>    0.4131    1.0000 </r>
       <r>    1.1662    1.0000 </r>
       <r>    1.6858    1.0000 </r>
       <r>    1.9732    1.0000 </r>
       <r>    2.1809    1.0000 </r>
       <r>    2.7482    1.0000 </r>
       <r>    3.4181    1.0000 </r>
       <r>    3.7609    1.0000 </r>
       <r>    4.0687    1.0000 </r>
       <r>    4.6804    1.0000 </r>
       <r>    5.0481    1.0000 </r>
       <r>    5.3612    1.0000 </r>
       <r>    5.6136    1.0000 </r>
       <r>    6.1577    1.0000 </r>
       <r>    6.4238    1.0000 </r>
       <r>    6.6916    1.0000 </r>
       <r>    7.2391    1.0000 </r>
       <r>   11.3415    0.0000 </r>
       <r>   11.6839    0.0000 </r>
       <r>   12.5327    0.0000 </r>
       <r>   13.1963    0.0000 </r>
       <r>   13.3839    0.0000 </r>
       <r>   14.1020    0.0000 </r>
       <r>   14.3803    0.0000 </r>
       <r>   14.6288    0.0000 </r>
      </set>
      <set comment="kpoint 15">
       <r>   -9.0114    1.0000 </r>
       <r>   -7.5957    1.0000 </r>
       <r>   -7.4079    1.0000 </r>
       <r>   -4.2309    1.0000 </r>
       <r>   -3.1234    1.0000 </r>
       <r>   -2.5143    1.0000 </r>
       <r>   -0.5719    1.0000 </r>
       <r>    0.2080    1.0000 </r>
       <r>    0.6930    1.0000 </r>
       <r>    1.5908    1.0000 </r>
       <r>    1.8501    1.0000 </r>
       <r>    2.4309    1.0000 </r>
       <r>    3.0348    1.0000 </r>
       <r>    3.2867    1.0000 </r>
       <r>    3.9224    1.0000 </r>
       <r>    4.0512    1.0000 </r>
       <r>    4.5298    1.0000 </r>
       <r>    4.9673    1.0000 </r>
       <r>    5.4385    1.0000 </r>
       <r>    5.7019    1.0000 </r>
       <r>    6.0334    1.0000 </r>
       <r>    6.7728    1.0000 </r>
       <r>    7.0614    1.0000 </r>
       <r>    7.5864    1.0000 </r>
       <r>   11.3424    0.0000 </r>
       <r>   11.9253    0.0000 </r>
       <r>   12.5149    0.0000 </r>
       <r>   12.7599    0.0000 </r>
       <r>   13.2688    0.0000 </r>
       <r>   13.7263    0.0000 </r>
       <r>   14.0019    0.0000 </r>
       <r>   14.6207    0.0000 </r>
      </set>
      <set comment="kpoint 16">
       <r>   -9.1336    1.0000 </r>
       <r>   -7.4148    1.0000 </r>
       <r>   -7.3250    1.0000 </r>
       <r>   -4.4766    1.0000 </r>
       <r>   -3.0878    1.0000 </r>
       <r>   -2.2926    1.0000 </r>
       <r>   -0.6447    1.0000 </r>
       <r>   -0.0307    1.0000 </r>
       <r>    0.8230    1.0000 </r>
       <r>    1.3006    1.0000 </r>
       <r>    1.7223    1.0000 </r>
       <r>    2.3417    1.0000 </r>
       <r>    3.2766    1.0000 </r>
       <r>    3.4769    1.0000 </r>
       <r>    3.8111    1.0000 </r>
       <r>    4.2744    1.0000 </r>
       <r>    4.6266    1.0000 </r>
       <r>    4.8272    1.0000 </r>
       <r>    5.3395    1.0000 </r>
       <r>    5.5533    1.0000 </r>
       <r>    6.3397    1.0000 </r>
       <r>    6.6750    1.0000 </r>
       <r>    7.2564    1.0000 </r>
       <r>    7.8584    1.0000 </r>
       <r>   11.3144    0.0000 </r>
       <r>   11.7576    0.0000 </r>
       <r>   12.3324    0.0000 </r>
       <r>   12.6983    0.0000 </r>
       <r>   13.1154    0.0000 </r>
       <r>   13.9017    0.0000 </r>
       <r>   14.2542    0.0000 </r>
       <r>   14.8098    0.0000 </r>
      </set>
      <set comment="kpoint 17">
       <r>   -8.8169    1.0000 </r>
       <r>   -7.7344    1.0000 </r>
       <r>   -7.4108    1.0000 </r>
       <r>   -4.6533    1.0000 </r>
       <r>   -3.1717    1.0000 </r>
       <r>   -2.5774    1.0000 </r>
       <r>   -0.2145    1.0000 </r>
       <r>    0.2358    1.0000 </r>
       <r>    0.9001    1.0000 </r>
       <r>    1.5981    1.0000 </r>
       <r>    1.8545    1.0000 </r>
       <r>    2.4742    1.0000 </r>
       <r>    3.1575    1.0000 </r>
       <r>    3.4651    1.0000 </r>
       <r>    3.9927    1.0000 </r>
       <r>    4.0803    1.0000 </r>
       <r>    4.7386    1.0000 </r>
       <r>    4.9653    1.0000 </r>
       <r>    5.3142    1.0000 </r>
       <r>    5.8349    1.0000 </r>
       <r>    6.2088    1.0000 </r>
       <r>    6.4435    1.0000 </r>
       <r>    7.3349    1.0000 </r>
       <r>    7.4859    1.0000 </r>
       <r>   10.9813    0.0000 </r>
       <r>   11.4562    0.0000 </r>
       <r>   12.1101    0.0000 </r>
       <r>   12.2788    0.0000 </r>
       <r>   13.0229    0.0000 </r>
       <r>   13.4961    0.0000 </r>
       <r>   14.0017    0.0000 </r>
       <r>   14.5380    0.0000 </r>
      </set>
      <set comment="kpoint 18">
       <r>   -8.4900    1.0000 </r>
       <r>   -8.1674    1.0000 </r>
       <r>   -7.4424    1.0000 </r>
       <r>   -4.4213    1.0000 </r>
       <r>   -3.2837    1.0000 </r>
       <r>   -2.6714    1.0000 </r>
       <r>   -0.1129    1.0000 </r>
       <r>    0.4352    1.0000 </r>
       <r>    1.1286    1.0000 </r>
       <r>    1.5477    1.0000 </r>
       <r>    2.0622    1.0000 </r>
       <r>    2.1770    1.0000 </r>
       <r>    2.8018    1.0000 </r>
       <r>    3.5273    1.0000 </r>
       <r>    3.9224    1.0000 </r>
       <r>    4.4435    1.0000 </r>
       <r>    4.5245    1.0000 </r>
       <r>    5.0565    1.0000 </r>
       <r>    5.2530    1.0000 </r>
       <r>    5.9934    1.0000 </r>
       <r>    6.1664    1.0000 </r>
       <r>    6.4493    1.0000 </r>
       <r>    6.9005    1.0000 </r>
       <r>    7.3534    1.0000 </r>
       <r>   11.1759    0.0000 </r>
       <r>   11.7019    0.0000 </r>
       <r>   11.8472    0.0000 </r>
       <r>   12.5747    0.0000 </r>
       <r>   12.8596    0.0000 </r>
       <r>   13.3036    0.0000 </r>
       <r>   14.1711    0.0000 </r>
       <r>   14.3805    0.0000 </r>
      </set>
      <set comment="kpoint 19">
       <r>   -8.5703    1.0000 </r>
       <r>   -8.1271    1.0000 </r>
       <r>   -7.3792    1.0000 </r>
       <r>   -4.2708    1.0000 </r>
       <r>   -3.3908    1.0000 </r>
       <r>   -2.7842    1.0000 </r>
       <r>   -0.3631    1.0000 </r>
       <r>    0.2271    1.0000 </r>
       <r>    1.3006    1.0000 </r>
       <r>    1.6185    1.0000 </r>
       <r>    2.2144    1.0000 </r>
       <r>    2.6417    1.0000 </r>
       <r>    3.1531    1.0000 </r>
       <r>    3.5192    1.0000 </r>
       <r>    3.9994    1.0000 </r>
       <r>    4.1310    1.0000 </r>
       <r>    4.5886    1.0000 </r>
       <r>    4.8649    1.0000 </r>
       <r>    5.1566    1.0000 </r>
       <r>    5.6433    1.0000 </r>
       <r>    5.9160    1.0000 </r>
       <r>    6.3886    1.0000 </r>
       <r>    7.0196    1.0000 </r>
       <r>    7.4093    1.0000 </r>
       <r>   10.7624    0.0000 </r>
       <r>   11.5582    0.0000 </r>
       <r>   12.5526    0.0000 </r>
       <r>   12.9537    0.0000 </r>
       <r>   13.2984    0.0000 </r>
       <r>   13.7548    0.0000 </r>
       <r>   13.9198    0.0000 </r>
       <r>   14.3538    0.0000 </r>
      </set>
      <set comment="kpoint 20">
       <r>   -8.8466    1.0000 </r>
       <r>   -7.7945    1.0000 </r>
       <r>   -7.2929    1.0000 </r>
       <r>   -4.5438    1.0000 </r>
       <r>   -3.2042    1.0000 </r>
       <r>   -2.8102    1.0000 </r>
       <r>   -0.2466    1.0000 </r>
       <r>    0.2228    1.0000 </r>
       <r>    1.0072    1.0000 </r>
       <r>    1.6974    1.0000 </r>
       <r>    1.8687    1.0000 </r>
       <r>    2.4639    1.0000 </r>
       <r>    3.2045    1.0000 </r>
       <r>    3.6313    1.0000 </r>
       <r>    3.9281    1.0000 </r>
       <r>    4.3993    1.0000 </r>
       <r>    4.5508    1.0000 </r>
       <r>    4.8888    1.0000 </r>
       <r>    5.2817    1.0000 </r>
       <r>    5.5436    1.0000 </r>
       <r>    6.1909    1.0000 </r>
       <r>    6.3864    1.0000 </r>
       <r>    7.2019    1.0000 </r>
       <r>    7.7810    1.0000 </r>
       <r>   10.7927    0.0000 </r>
       <r>   11.4269    0.0000 </r>
       <r>   11.8994    0.0000 </r>
       <r>   12.5649    0.0000 </r>
       <r>   13.0064    0.0000 </r>
       <r>   13.4616    0.0000 </r>
       <r>   14.0436    0.0000 </r>
       <r>   14.5006    0.0000 </r>
      </set>
      <set comment="kpoint 21">
       <r>   -8.8022    1.0000 </r>
       <r>   -7.6560    1.0000 </r>
       <r>   -7.4918    1.0000 </r>
       <r>   -4.6803    1.0000 </r>
       <r>   -3.2702    1.0000 </r>
       <r>   -2.6807    1.0000 </r>
       <r>   -0.3917    1.0000 </r>
       <r>    0.4971    1.0000 </r>
       <r>    1.1790    1.0000 </r>
       <r>    1.8841    1.0000 </r>
       <r>    2.2385    1.0000 </r>
       <r>    2.7520    1.0000 </r>
       <r>    2.8850    1.0000 </r>
       <r>    3.1951    1.0000 </r>
       <r>    3.8919    1.0000 </r>
       <r>    4.3197    1.0000 </r>
       <r>    4.7152    1.0000 </r>
       <r>    4.8370    1.0000 </r>
       <r>    5.1653    1.0000 </r>
       <r>    5.5091    1.0000 </r>
       <r>    5.9064    1.0000 </r>
       <r>    6.6110    1.0000 </r>
       <r>    6.9181    1.0000 </r>
       <r>    7.3102    1.0000 </r>
       <r>   10.6292    0.0000 </r>
       <r>   11.6111    0.0000 </r>
       <r>   12.3797    0.0000 </r>
       <r>   12.9290    0.0000 </r>
       <r>   13.3239    0.0000 </r>
       <r>   13.5732    0.0000 </r>
       <r>   14.0469    0.0000 </r>
       <r>   14.3662    0.0000 </r>
      </set>
      <set comment="kpoint 22">
       <r>   -8.5201    1.0000 </r>
       <r>   -8.0550    1.0000 </r>
       <r>   -7.5032    1.0000 </r>
       <r>   -4.5258    1.0000 </r>
       <r>   -3.3206    1.0000 </r>
       <r>   -2.7741    1.0000 </r>
       <r>    0.0526    1.0000 </r>
       <r>    0.5394    1.0000 </r>
       <r>    1.3093    1.0000 </r>
       <r>    1.7731    1.0000 </r>
       <r>    2.2088    1.0000 </r>
       <r>    2.4029    1.0000 </r>
       <r>    2.7212    1.0000 </r>
       <r>    3.4184    1.0000 </r>
       <r>    3.7941    1.0000 </r>
       <r>    4.1273    1.0000 </r>
       <r>    4.5282    1.0000 </r>
       <r>    4.9494    1.0000 </r>
       <r>    5.3696    1.0000 </r>
       <r>    5.8379    1.0000 </r>
       <r>    5.9213    1.0000 </r>
       <r>    6.5192    1.0000 </r>
       <r>    6.7485    1.0000 </r>
       <r>    7.2289    1.0000 </r>
       <r>   11.0889    0.0000 </r>
       <r>   11.7343    0.0000 </r>
       <r>   12.0229    0.0000 </r>
       <r>   12.3931    0.0000 </r>
       <r>   12.7216    0.0000 </r>
       <r>   13.3749    0.0000 </r>
       <r>   14.3047    0.0000 </r>
       <r>   14.5295    0.0000 </r>
      </set>
      <set comment="kpoint 23">
       <r>   -8.8274    1.0000 </r>
       <r>   -7.9411    1.0000 </r>
       <r>   -7.3147    1.0000 </r>
       <r>   -4.0309    1.0000 </r>
       <r>   -3.6609    1.0000 </r>
       <r>   -2.3137    1.0000 </r>
       <r>   -0.4369    1.0000 </r>
       <r>    0.1760    1.0000 </r>
       <r>    1.3666    1.0000 </r>
       <r>    1.6083    1.0000 </r>
       <r>    1.9164    1.0000 </r>
       <r>    2.5288    1.0000 </r>
       <r>    2.9656    1.0000 </r>
       <r>    3.2429    1.0000 </r>
       <r>    3.8407    1.0000 </r>
       <r>    4.2323    1.0000 </r>
       <r>    4.4676    1.0000 </r>
       <r>    4.9649    1.0000 </r>
       <r>    5.2976    1.0000 </r>
       <r>    5.4671    1.0000 </r>
       <r>    5.7564    1.0000 </r>
       <r>    6.3789    1.0000 </r>
       <r>    7.0091    1.0000 </r>
       <r>    7.4185    1.0000 </r>
       <r>   11.3000    0.0000 </r>
       <r>   11.7025    0.0000 </r>
       <r>   12.6098    0.0000 </r>
       <r>   12.9681    0.0000 </r>
       <r>   13.5389    0.0000 </r>
       <r>   13.8709    0.0000 </r>
       <r>   14.3200    0.0000 </r>
       <r>   14.6228    0.0000 </r>
      </set>
      <set comment="kpoint 24">
       <r>   -8.6467    1.0000 </r>
       <r>   -8.0577    1.0000 </r>
       <r>   -7.3146    1.0000 </r>
       <r>   -4.3328    1.0000 </r>
       <r>   -3.5848    1.0000 </r>
       <r>   -2.6765    1.0000 </r>
       <r>   -0.1659    1.0000 </r>
       <r>    0.3721    1.0000 </r>
       <r>    1.1864    1.0000 </r>
       <r>    1.6051    1.0000 </r>
       <r>    2.1904    1.0000 </r>
       <r>    2.6132    1.0000 </r>
       <r>    2.9771    1.0000 </r>
       <r>    3.3846    1.0000 </r>
       <r>    3.9641    1.0000 </r>
       <r>    4.1981    1.0000 </r>
       <r>    4.6083    1.0000 </r>
       <r>    5.0232    1.0000 </r>
       <r>    5.3049    1.0000 </r>
       <r>    5.4905    1.0000 </r>
       <r>    5.7520    1.0000 </r>
       <r>    6.4180    1.0000 </r>
       <r>    7.1726    1.0000 </r>
       <r>    7.6305    1.0000 </r>
       <r>   11.1331    0.0000 </r>
       <r>   11.6690    0.0000 </r>
       <r>   11.9579    0.0000 </r>
       <r>   12.2740    0.0000 </r>
       <r>   12.7485    0.0000 </r>
       <r>   13.6742    0.0000 </r>
       <r>   14.0452    0.0000 </r>
       <r>   14.4026    0.0000 </r>
      </set>
      <set comment="kpoint 25">
       <r>   -8.5864    1.0000 </r>
       <r>   -8.0035    1.0000 </r>
       <r>   -7.4439    1.0000 </r>
       <r>   -4.5634    1.0000 </r>
       <r>   -3.4608    1.0000 </r>
       <r>   -2.6486    1.0000 </r>
       <r>   -0.2582    1.0000 </r>
       <r>    0.7631    1.0000 </r>
       <r>    1.4155    1.0000 </r>
       <r>    1.8502    1.0000 </r>
       <r>    2.2547    1.0000 </r>
       <r>    2.5851    1.0000 </r>
       <r>    2.7987    1.0000 </r>
       <r>    3.3155    1.0000 </r>
       <r>    3.7019    1.0000 </r>
       <r>    4.1501    1.0000 </r>
       <r>    4.2512    1.0000 </r>
       <r>    5.1071    1.0000 </r>
       <r>    5.3280    1.0000 </r>
       <r>    5.5867    1.0000 </r>
       <r>    6.0746    1.0000 </r>
       <r>    6.1679    1.0000 </r>
       <r>    7.0446    1.0000 </r>
       <r>    7.2627    1.0000 </r>
       <r>   11.2460    0.0000 </r>
       <r>   11.4332    0.0000 </r>
       <r>   12.1911    0.0000 </r>
       <r>   12.3613    0.0000 </r>
       <r>   12.9356    0.0000 </r>
       <r>   13.2816    0.0000 </r>
       <r>   14.2137    0.0000 </r>
       <r>   14.6929    0.0000 </r>
      </set>
      <set comment="kpoint 26">
       <r>   -8.7620    1.0000 </r>
       <r>   -7.9626    1.0000 </r>
       <r>   -7.3588    1.0000 </r>
       <r>   -4.3552    1.0000 </r>
       <r>   -3.4404    1.0000 </r>
       <r>   -2.4100    1.0000 </r>
       <r>   -0.3100    1.0000 </r>
       <r>    0.8195    1.0000 </r>
       <r>    1.1141    1.0000 </r>
       <r>    1.6666    1.0000 </r>
       <r>    2.2031    1.0000 </r>
       <r>    2.3927    1.0000 </r>
       <r>    2.8645    1.0000 </r>
       <r>    3.2765    1.0000 </r>
       <r>    3.6882    1.0000 </r>
       <r>    3.9343    1.0000 </r>
       <r>    4.5326    1.0000 </r>
       <r>    4.8955    1.0000 </r>
       <r>    5.3848    1.0000 </r>
       <r>    5.6476    1.0000 </r>
       <r>    5.6921    1.0000 </r>
       <r>    6.2494    1.0000 </r>
       <r>    6.7931    1.0000 </r>
       <r>    7.1063    1.0000 </r>
       <r>   11.2918    0.0000 </r>
       <r>   12.0811    0.0000 </r>
       <r>   12.5948    0.0000 </r>
       <r>   12.7146    0.0000 </r>
       <r>   13.5761    0.0000 </r>
       <r>   13.8872    0.0000 </r>
       <r>   14.1248    0.0000 </r>
       <r>   14.6783    0.0000 </r>
      </set>
      <set comment="kpoint 27">
       <r>   -8.8708    1.0000 </r>
       <r>   -8.0166    1.0000 </r>
       <r>   -7.2324    1.0000 </r>
       <r>   -4.2228    1.0000 </r>
       <r>   -3.3996    1.0000 </r>
       <r>   -2.0193    1.0000 </r>
       <r>   -0.3979    1.0000 </r>
       <r>    0.8249    1.0000 </r>
       <r>    1.1390    1.0000 </r>
       <r>    1.3146    1.0000 </r>
       <r>    1.9592    1.0000 </r>
       <r>    2.3158    1.0000 </r>
       <r>    2.9081    1.0000 </r>
       <r>    3.0671    1.0000 </r>
       <r>    3.4698    1.0000 </r>
       <r>    3.9326    1.0000 </r>
       <r>    4.4623    1.0000 </r>
       <r>    4.5081    1.0000 </r>
       <r>    5.2242    1.0000 </r>
       <r>    5.6123    1.0000 </r>
       <r>    5.9694    1.0000 </r>
       <r>    6.2511    1.0000 </r>
       <r>    7.3061    1.0000 </r>
       <r>    7.3326    1.0000 </r>
       <r>   11.1889    0.0000 </r>
       <r>   11.3102    0.0000 </r>
       <r>   12.1131    0.0000 </r>
       <r>   13.9639    0.0000 </r>
       <r>   14.0328    0.0000 </r>
       <r>   14.3730    0.0000 </r>
       <r>   14.7445    0.0000 </r>
       <r>   15.0558    0.0000 </r>
      </set>
      <set comment="kpoint 28">
       <r>   -8.7668    1.0000 </r>
       <r>   -7.9464    1.0000 </r>
       <r>   -7.3514    1.0000 </r>
       <r>   -4.4121    1.0000 </r>
       <r>   -3.4917    1.0000 </r>
       <r>   -2.3267    1.0000 </r>
       <r>   -0.3494    1.0000 </r>
       <r>    0.7155    1.0000 </r>
       <r>    1.3996    1.0000 </r>
       <r>    1.7813    1.0000 </r>
       <r>    1.9460    1.0000 </r>
       <r>    2.5331    1.0000 </r>
       <r>    2.9096    1.0000 </r>
       <r>    3.3900    1.0000 </r>
       <r>    3.6373    1.0000 </r>
       <r>    4.0863    1.0000 </r>
       <r>    4.5120    1.0000 </r>
       <r>    4.6231    1.0000 </r>
       <r>    5.0666    1.0000 </r>
       <r>    5.4131    1.0000 </r>
       <r>    5.5979    1.0000 </r>
       <r>    6.3867    1.0000 </r>
       <r>    7.0408    1.0000 </r>
       <r>    7.1862    1.0000 </r>
       <r>   11.5676    0.0000 </r>
       <r>   12.0188    0.0000 </r>
       <r>   12.6106    0.0000 </r>
       <r>   13.0067    0.0000 </r>
       <r>   13.2636    0.0000 </r>
       <r>   13.7981    0.0000 </r>
       <r>   14.3483    0.0000 </r>
       <r>   14.9388    0.0000 </r>
      </set>
      <set comment="kpoint 29">
       <r>   -8.6025    1.0000 </r>
       <r>   -8.0200    1.0000 </r>
       <r>   -7.3639    1.0000 </r>
       <r>   -4.5971    1.0000 </r>
       <r>   -3.5593    1.0000 </r>
       <r>   -2.7414    1.0000 </r>
       <r>   -0.0768    1.0000 </r>
       <r>    0.9811    1.0000 </r>
       <r>    1.3372    1.0000 </r>
       <r>    1.9283    1.0000 </r>
       <r>    2.1366    1.0000 </r>
       <r>    2.9127    1.0000 </r>
       <r>    2.9540    1.0000 </r>
       <r>    3.1776    1.0000 </r>
       <r>    3.9070    1.0000 </r>
       <r>    4.1683    1.0000 </r>
       <r>    4.2786    1.0000 </r>
       <r>    4.5682    1.0000 </r>
       <r>    5.0981    1.0000 </r>
       <r>    5.3491    1.0000 </r>
       <r>    5.5188    1.0000 </r>
       <r>    6.4040    1.0000 </r>
       <r>    6.9982    1.0000 </r>
       <r>    7.5850    1.0000 </r>
       <r>   11.1572    0.0000 </r>
       <r>   12.1188    0.0000 </r>
       <r>   12.3284    0.0000 </r>
       <r>   12.5204    0.0000 </r>
       <r>   13.0444    0.0000 </r>
       <r>   13.4651    0.0000 </r>
       <r>   14.2095    0.0000 </r>
       <r>   14.7766    0.0000 </r>
      </set>
      <set comment="kpoint 30">
       <r>   -8.7153    1.0000 </r>
       <r>   -8.0028    1.0000 </r>
       <r>   -7.3942    1.0000 </r>
       <r>   -4.3169    1.0000 </r>
       <r>   -3.4718    1.0000 </r>
       <r>   -2.3761    1.0000 </r>
       <r>   -0.1790    1.0000 </r>
       <r>    0.5200    1.0000 </r>
       <r>    1.3531    1.0000 </r>
       <r>    1.7330    1.0000 </r>
       <r>    2.1362    1.0000 </r>
       <r>    2.3708    1.0000 </r>
       <r>    2.8650    1.0000 </r>
       <r>    3.1790    1.0000 </r>
       <r>    3.6249    1.0000 </r>
       <r>    4.0724    1.0000 </r>
       <r>    4.4765    1.0000 </r>
       <r>    4.9371    1.0000 </r>
       <r>    5.1005    1.0000 </r>
       <r>    5.5098    1.0000 </r>
       <r>    6.0497    1.0000 </r>
       <r>    6.1698    1.0000 </r>
       <r>    6.7945    1.0000 </r>
       <r>    7.2045    1.0000 </r>
       <r>   11.3841    0.0000 </r>
       <r>   12.0883    0.0000 </r>
       <r>   12.6291    0.0000 </r>
       <r>   13.0082    0.0000 </r>
       <r>   13.4103    0.0000 </r>
       <r>   13.8705    0.0000 </r>
       <r>   14.1766    0.0000 </r>
       <r>   14.6092    0.0000 </r>
      </set>
      <set comment="kpoint 31">
       <r>   -8.9295    1.0000 </r>
       <r>   -7.6788    1.0000 </r>
       <r>   -7.3716    1.0000 </r>
       <r>   -4.6178    1.0000 </r>
       <r>   -3.2284    1.0000 </r>
       <r>   -2.2630    1.0000 </r>
       <r>   -0.5955    1.0000 </r>
       <r>    0.8141    1.0000 </r>
       <r>    1.1113    1.0000 </r>
       <r>    1.5418    1.0000 </r>
       <r>    1.9061    1.0000 </r>
       <r>    2.6733    1.0000 </r>
       <r>    2.9329    1.0000 </r>
       <r>    3.0563    1.0000 </r>
       <r>    3.7304    1.0000 </r>
       <r>    4.1836    1.0000 </r>
       <r>    4.4680    1.0000 </r>
       <r>    4.8290    1.0000 </r>
       <r>    5.4041    1.0000 </r>
       <r>    5.5677    1.0000 </r>
       <r>    5.7210    1.0000 </r>
       <r>    6.3621    1.0000 </r>
       <r>    7.0827    1.0000 </r>
       <r>    7.3267    1.0000 </r>
       <r>   11.3466    0.0000 </r>
       <r>   11.5628    0.0000 </r>
       <r>   12.6794    0.0000 </r>
       <r>   12.8446    0.0000 </r>
       <r>   13.5154    0.0000 </r>
       <r>   14.0241    0.0000 </r>
       <r>   14.3396    0.0000 </r>
       <r>   14.7993    0.0000 </r>
      </set>
      <set comment="kpoint 32">
       <r>   -8.8016    1.0000 </r>
       <r>   -7.7517    1.0000 </r>
       <r>   -7.3484    1.0000 </r>
       <r>   -4.7999    1.0000 </r>
       <r>   -3.3594    1.0000 </r>
       <r>   -2.5764    1.0000 </r>
       <r>   -0.1877    1.0000 </r>
       <r>    0.7216    1.0000 </r>
       <r>    1.1838    1.0000 </r>
       <r>    1.5157    1.0000 </r>
       <r>    2.2230    1.0000 </r>
       <r>    2.5496    1.0000 </r>
       <r>    3.0621    1.0000 </r>
       <r>    3.3574    1.0000 </r>
       <r>    3.7605    1.0000 </r>
       <r>    4.0670    1.0000 </r>
       <r>    4.4834    1.0000 </r>
       <r>    4.8991    1.0000 </r>
       <r>    5.2489    1.0000 </r>
       <r>    5.7273    1.0000 </r>
       <r>    5.9561    1.0000 </r>
       <r>    6.3355    1.0000 </r>
       <r>    7.1772    1.0000 </r>
       <r>    7.5872    1.0000 </r>
       <r>   11.1349    0.0000 </r>
       <r>   11.4914    0.0000 </r>
       <r>   11.9738    0.0000 </r>
       <r>   12.5535    0.0000 </r>
       <r>   12.8180    0.0000 </r>
       <r>   13.2880    0.0000 </r>
       <r>   14.0639    0.0000 </r>
       <r>   14.6222    0.0000 </r>
      </set>
      <set comment="kpoint 33">
       <r>   -8.4593    1.0000 </r>
       <r>   -8.1863    1.0000 </r>
       <r>   -7.3992    1.0000 </r>
       <r>   -4.5294    1.0000 </r>
       <r>   -3.6096    1.0000 </r>
       <r>   -2.5202    1.0000 </r>
       <r>    0.0220    1.0000 </r>
       <r>    0.5067    1.0000 </r>
       <r>    1.5903    1.0000 </r>
       <r>    1.7554    1.0000 </r>
       <r>    2.1664    1.0000 </r>
       <r>    2.5411    1.0000 </r>
       <r>    2.6987    1.0000 </r>
       <r>    3.3333    1.0000 </r>
       <r>    3.7888    1.0000 </r>
       <r>    3.9442    1.0000 </r>
       <r>    4.6466    1.0000 </r>
       <r>    4.8615    1.0000 </r>
       <r>    5.1388    1.0000 </r>
       <r>    5.6350    1.0000 </r>
       <r>    6.1318    1.0000 </r>
       <r>    6.3080    1.0000 </r>
       <r>    6.9177    1.0000 </r>
       <r>    7.4075    1.0000 </r>
       <r>   11.4018    0.0000 </r>
       <r>   11.6605    0.0000 </r>
       <r>   12.0756    0.0000 </r>
       <r>   12.3455    0.0000 </r>
       <r>   12.7727    0.0000 </r>
       <r>   13.0911    0.0000 </r>
       <r>   14.1277    0.0000 </r>
       <r>   14.7818    0.0000 </r>
      </set>
      <set comment="kpoint 34">
       <r>   -8.3835    1.0000 </r>
       <r>   -8.2278    1.0000 </r>
       <r>   -7.4796    1.0000 </r>
       <r>   -4.4696    1.0000 </r>
       <r>   -3.1937    1.0000 </r>
       <r>   -3.0612    1.0000 </r>
       <r>    0.0640    1.0000 </r>
       <r>    0.7645    1.0000 </r>
       <r>    1.3505    1.0000 </r>
       <r>    1.8691    1.0000 </r>
       <r>    2.1691    1.0000 </r>
       <r>    2.2651    1.0000 </r>
       <r>    3.1130    1.0000 </r>
       <r>    3.4829    1.0000 </r>
       <r>    3.8309    1.0000 </r>
       <r>    4.0089    1.0000 </r>
       <r>    4.1801    1.0000 </r>
       <r>    4.8809    1.0000 </r>
       <r>    5.2426    1.0000 </r>
       <r>    5.5401    1.0000 </r>
       <r>    5.9985    1.0000 </r>
       <r>    6.2251    1.0000 </r>
       <r>    7.0378    1.0000 </r>
       <r>    7.1796    1.0000 </r>
       <r>   11.1296    0.0000 </r>
       <r>   11.8899    0.0000 </r>
       <r>   12.3776    0.0000 </r>
       <r>   12.7254    0.0000 </r>
       <r>   13.2801    0.0000 </r>
       <r>   13.6277    0.0000 </r>
       <r>   14.1162    0.0000 </r>
       <r>   14.5101    0.0000 </r>
      </set>
      <set comment="kpoint 35">
       <r>   -8.7658    1.0000 </r>
       <r>   -7.7415    1.0000 </r>
       <r>   -7.4533    1.0000 </r>
       <r>   -4.7390    1.0000 </r>
       <r>   -3.1063    1.0000 </r>
       <r>   -2.8177    1.0000 </r>
       <r>   -0.0897    1.0000 </r>
       <r>    0.6679    1.0000 </r>
       <r>    1.0599    1.0000 </r>
       <r>    1.5398    1.0000 </r>
       <r>    2.2254    1.0000 </r>
       <r>    2.5760    1.0000 </r>
       <r>    2.8948    1.0000 </r>
       <r>    3.4210    1.0000 </r>
       <r>    3.7440    1.0000 </r>
       <r>    4.0260    1.0000 </r>
       <r>    4.3726    1.0000 </r>
       <r>    5.0484    1.0000 </r>
       <r>    5.3136    1.0000 </r>
       <r>    5.7077    1.0000 </r>
       <r>    6.1924    1.0000 </r>
       <r>    6.4781    1.0000 </r>
       <r>    7.0611    1.0000 </r>
       <r>    7.4789    1.0000 </r>
       <r>   11.1747    0.0000 </r>
       <r>   11.5425    0.0000 </r>
       <r>   11.9689    0.0000 </r>
       <r>   12.3068    0.0000 </r>
       <r>   12.7179    0.0000 </r>
       <r>   13.5737    0.0000 </r>
       <r>   14.0937    0.0000 </r>
       <r>   14.6722    0.0000 </r>
      </set>
      <set comment="kpoint 36">
       <r>   -8.9224    1.0000 </r>
       <r>   -7.5694    1.0000 </r>
       <r>   -7.3432    1.0000 </r>
       <r>   -4.8840    1.0000 </r>
       <r>   -3.1615    1.0000 </r>
       <r>   -2.4885    1.0000 </r>
       <r>   -0.5409    1.0000 </r>
       <r>    0.4390    1.0000 </r>
       <r>    0.7574    1.0000 </r>
       <r>    1.8692    1.0000 </r>
       <r>    2.2501    1.0000 </r>
       <r>    2.5736    1.0000 </r>
       <r>    3.1232    1.0000 </r>
       <r>    3.2776    1.0000 </r>
       <r>    4.0682    1.0000 </r>
       <r>    4.1766    1.0000 </r>
       <r>    4.5622    1.0000 </r>
       <r>    5.0688    1.0000 </r>
       <r>    5.1441    1.0000 </r>
       <r>    5.5027    1.0000 </r>
       <r>    6.2061    1.0000 </r>
       <r>    6.6206    1.0000 </r>
       <r>    6.7887    1.0000 </r>
       <r>    7.7330    1.0000 </r>
       <r>   10.7837    0.0000 </r>
       <r>   11.4757    0.0000 </r>
       <r>   12.4662    0.0000 </r>
       <r>   12.8812    0.0000 </r>
       <r>   13.3770    0.0000 </r>
       <r>   13.5552    0.0000 </r>
       <r>   13.9318    0.0000 </r>
       <r>   14.1025    0.0000 </r>
      </set>
     </set>
    </set>
   </array>
  </eigenvalues>
  <separator name="orbital magnetization" >
   <v name="MAGDIPOLOUT">      0.00000000      0.00000000      0.00000000</v>
  </separator>
  <dos>
   <i name="efermi">      8.35400735 </i>
   <total>
    <array>
     <dimension dim="1">gridpoints</dimension>
     <dimension dim="2">spin</dimension>
     <field>energy</field>
     <field>total</field>
     <field>integrated</field>
     <set>
      <set comment="spin 1">
       <r>   -10.5203     0.0000     0.0000 </r>
       <r>   -10.4308     0.0000     0.0000 </r>
       <r>   -10.3414     0.0000     0.0000 </r>
       <r>   -10.2519     0.0000     0.0000 </r>
       <r>   -10.1625     0.0000     0.0000 </r>
       <r>   -10.0730     0.0000     0.0000 </r>
       <r>    -9.9836     0.0000     0.0000 </r>
       <r>    -9.8941     0.0000     0.0000 </r>
       <r>    -9.8047     0.0000     0.0000 </r>
       <r>    -9.7152     0.0000     0.0000 </r>
       <r>    -9.6258     0.0000     0.0000 </r>
       <r>    -9.5364     0.0001     0.0000 </r>
       <r>    -9.4469     0.0066     0.0006 </r>
       <r>    -9.3575     0.0678     0.0067 </r>
       <r>    -9.2680     0.2038     0.0249 </r>
       <r>    -9.1786     0.5233     0.0717 </r>
       <r>    -9.0891     1.4848     0.2045 </r>
       <r>    -8.9997     2.1158     0.3938 </r>
       <r>    -8.9102     1.8632     0.5604 </r>
       <r>    -8.8208     2.6445     0.7969 </r>
       <r>    -8.7314     3.5482     1.1143 </r>
       <r>    -8.6419     3.2983     1.4093 </r>
       <r>    -8.5525     3.0890     1.6856 </r>
       <r>    -8.4630     2.2112     1.8834 </r>
       <r>    -8.3736     1.0241     1.9750 </r>
       <r>    -8.2841     0.5060     2.0203 </r>
       <r>    -8.1947     1.0830     2.1171 </r>
       <r>    -8.1052     2.1994     2.3139 </r>
       <r>    -8.0158     3.6341     2.6389 </r>
       <r>    -7.9264     3.7401     2.9735 </r>
       <r>    -7.8369     1.8906     3.1426 </r>
       <r>    -7.7475     1.6942     3.2941 </r>
       <r>    -7.6580     2.8050     3.5450 </r>
       <r>    -7.5686     3.2767     3.8381 </r>
       <r>    -7.4791     3.9948     4.1954 </r>
       <r>    -7.3897     7.0785     4.8285 </r>
       <r>    -7.3002     7.7857     5.5249 </r>
       <r>    -7.2108     4.1266     5.8940 </r>
       <r>    -7.1213     1.0686     5.9896 </r>
       <r>    -7.0319     0.1126     5.9997 </r>
       <r>    -6.9425     0.0036     6.0000 </r>
       <r>    -6.8530     0.0000     6.0000 </r>
       <r>    -6.7636     0.0000     6.0000 </r>
       <r>    -6.6741     0.0000     6.0000 </r>
       <r>    -6.5847     0.0000     6.0000 </r>
       <r>    -6.4952     0.0000     6.0000 </r>
       <r>    -6.4058     0.0000     6.0000 </r>
       <r>    -6.3163     0.0000     6.0000 </r>
       <r>    -6.2269     0.0000     6.0000 </r>
       <r>    -6.1375     0.0000     6.0000 </r>
       <r>    -6.0480     0.0000     6.0000 </r>
       <r>    -5.9586     0.0000     6.0000 </r>
       <r>    -5.8691     0.0000     6.0000 </r>
       <r>    -5.7797     0.0000     6.0000 </r>
       <r>    -5.6902     0.0000     6.0000 </r>
       <r>    -5.6008     0.0000     6.0000 </r>
       <r>    -5.5113     0.0000     6.0000 </r>
       <r>    -5.4219     0.0000     6.0000 </r>
       <r>    -5.3325     0.0000     6.0000 </r>
       <r>    -5.2430     0.0000     6.0000 </r>
       <r>    -5.1536     0.0000     6.0000 </r>
       <r>    -5.0641     0.0019     6.0002 </r>
       <r>    -4.9747     0.0379     6.0036 </r>
       <r>    -4.8852     0.2271     6.0239 </r>
       <r>    -4.7958     0.6150     6.0789 </r>
       <r>    -4.7063     1.1064     6.1778 </r>
       <r>    -4.6169     1.7133     6.3311 </r>
       <r>    -4.5274     2.3743     6.5435 </r>
       <r>    -4.4380     2.6612     6.7815 </r>
       <r>    -4.3486     2.8775     7.0389 </r>
       <r>    -4.2591     3.2177     7.3267 </r>
       <r>    -4.1697     2.9132     7.5873 </r>
       <r>    -4.0802     2.2294     7.7867 </r>
       <r>    -3.9908     1.4888     7.9198 </r>
       <r>    -3.9013     0.7464     7.9866 </r>
       <r>    -3.8119     0.1767     8.0024 </r>
       <r>    -3.7224     0.3234     8.0313 </r>
       <r>    -3.6330     1.1141     8.1310 </r>
       <r>    -3.5436     1.9444     8.3049 </r>
       <r>    -3.4541     2.8379     8.5587 </r>
       <r>    -3.3647     3.5916     8.8800 </r>
       <r>    -3.2752     3.6094     9.2028 </r>
       <r>    -3.1858     3.9204     9.5535 </r>
       <r>    -3.0963     3.1233     9.8328 </r>
       <r>    -3.0069     1.5759     9.9738 </r>
       <r>    -2.9174     0.7770    10.0433 </r>
       <r>    -2.8280     1.8081    10.2050 </r>
       <r>    -2.7386     2.7770    10.4534 </r>
       <r>    -2.6491     2.6793    10.6930 </r>
       <r>    -2.5597     2.7874    10.9424 </r>
       <r>    -2.4702     2.7115    11.1849 </r>
       <r>    -2.3808     2.5910    11.4166 </r>
       <r>    -2.2913     2.5542    11.6451 </r>
       <r>    -2.2019     1.9658    11.8209 </r>
       <r>    -2.1124     0.9948    11.9099 </r>
       <r>    -2.0230     0.6091    11.9644 </r>
       <r>    -1.9335     0.3333    11.9942 </r>
       <r>    -1.8441     0.0616    11.9997 </r>
       <r>    -1.7547     0.0030    12.0000 </r>
       <r>    -1.6652     0.0000    12.0000 </r>
       <r>    -1.5758     0.0000    12.0000 </r>
       <r>    -1.4863     0.0000    12.0000 </r>
       <r>    -1.3969     0.0000    12.0000 </r>
       <r>    -1.3074     0.0000    12.0000 </r>
       <r>    -1.2180     0.0000    12.0000 </r>
       <r>    -1.1285     0.0000    12.0000 </r>
       <r>    -1.0391     0.0027    12.0002 </r>
       <r>    -0.9497     0.0421    12.0040 </r>
       <r>    -0.8602     0.2010    12.0220 </r>
       <r>    -0.7708     0.5970    12.0754 </r>
       <r>    -0.6813     1.4307    12.2033 </r>
       <r>    -0.5919     2.2978    12.4089 </r>
       <r>    -0.5024     2.6177    12.6430 </r>
       <r>    -0.4130     2.5110    12.8676 </r>
       <r>    -0.3235     2.6615    13.1057 </r>
       <r>    -0.2341     3.0616    13.3795 </r>
       <r>    -0.1447     3.3473    13.6789 </r>
       <r>    -0.0552     2.8745    13.9360 </r>
       <r>     0.0342     2.5613    14.1651 </r>
       <r>     0.1237     2.8059    14.4161 </r>
       <r>     0.2131     3.1105    14.6943 </r>
       <r>     0.3026     2.1145    14.8834 </r>
       <r>     0.3920     1.4635    15.0143 </r>
       <r>     0.4815     2.3128    15.2212 </r>
       <r>     0.5709     2.3424    15.4307 </r>
       <r>     0.6604     1.7180    15.5844 </r>
       <r>     0.7498     2.6217    15.8189 </r>
       <r>     0.8392     3.1701    16.1024 </r>
       <r>     0.9287     2.5933    16.3344 </r>
       <r>     1.0181     3.1256    16.6140 </r>
       <r>     1.1076     4.1525    16.9854 </r>
       <r>     1.1970     4.5493    17.3923 </r>
       <r>     1.2865     3.9895    17.7491 </r>
       <r>     1.3759     3.8778    18.0960 </r>
       <r>     1.4654     3.0039    18.3647 </r>
       <r>     1.5548     3.5466    18.6819 </r>
       <r>     1.6442     5.5735    19.1804 </r>
       <r>     1.7337     5.7736    19.6968 </r>
       <r>     1.8231     4.9767    20.1420 </r>
       <r>     1.9126     5.1144    20.5994 </r>
       <r>     2.0020     3.9996    20.9572 </r>
       <r>     2.0915     2.4307    21.1746 </r>
       <r>     2.1809     3.8587    21.5197 </r>
       <r>     2.2704     5.4454    22.0068 </r>
       <r>     2.3598     5.5088    22.4995 </r>
       <r>     2.4492     5.8792    23.0254 </r>
       <r>     2.5387     4.8801    23.4619 </r>
       <r>     2.6281     3.8000    23.8018 </r>
       <r>     2.7176     3.0251    24.0724 </r>
       <r>     2.8070     3.1821    24.3570 </r>
       <r>     2.8965     4.1348    24.7268 </r>
       <r>     2.9859     4.4830    25.1278 </r>
       <r>     3.0754     4.1042    25.4949 </r>
       <r>     3.1648     4.2602    25.8760 </r>
       <r>     3.2543     4.7026    26.2966 </r>
       <r>     3.3437     5.0166    26.7453 </r>
       <r>     3.4331     5.3503    27.2239 </r>
       <r>     3.5226     5.4042    27.7073 </r>
       <r>     3.6120     4.3611    28.0973 </r>
       <r>     3.7015     4.8256    28.5290 </r>
       <r>     3.7909     5.7812    29.0461 </r>
       <r>     3.8804     4.9006    29.4844 </r>
       <r>     3.9698     4.7257    29.9071 </r>
       <r>     4.0593     5.0710    30.3606 </r>
       <r>     4.1487     5.5711    30.8589 </r>
       <r>     4.2381     5.5939    31.3593 </r>
       <r>     4.3276     4.7585    31.7849 </r>
       <r>     4.4170     4.0388    32.1462 </r>
       <r>     4.5065     5.6475    32.6513 </r>
       <r>     4.5959     6.7800    33.2577 </r>
       <r>     4.6854     5.3966    33.7404 </r>
       <r>     4.7748     3.9653    34.0951 </r>
       <r>     4.8643     4.7820    34.5228 </r>
       <r>     4.9537     5.6596    35.0291 </r>
       <r>     5.0432     5.2051    35.4946 </r>
       <r>     5.1326     5.2980    35.9685 </r>
       <r>     5.2220     5.0829    36.4232 </r>
       <r>     5.3115     5.6694    36.9303 </r>
       <r>     5.4009     6.3836    37.5012 </r>
       <r>     5.4904     6.2399    38.0594 </r>
       <r>     5.5798     5.8265    38.5805 </r>
       <r>     5.6693     6.0127    39.1183 </r>
       <r>     5.7587     6.2354    39.6761 </r>
       <r>     5.8482     5.1901    40.1403 </r>
       <r>     5.9376     4.7970    40.5693 </r>
       <r>     6.0270     4.4210    40.9648 </r>
       <r>     6.1165     4.1037    41.3318 </r>
       <r>     6.2059     5.0573    41.7842 </r>
       <r>     6.2954     4.7634    42.2102 </r>
       <r>     6.3848     5.0211    42.6594 </r>
       <r>     6.4743     4.8539    43.0935 </r>
       <r>     6.5637     3.0378    43.3652 </r>
       <r>     6.6532     2.8307    43.6184 </r>
       <r>     6.7426     3.1843    43.9032 </r>
       <r>     6.8320     3.1131    44.1817 </r>
       <r>     6.9215     2.9822    44.4484 </r>
       <r>     7.0109     3.5737    44.7681 </r>
       <r>     7.1004     4.3589    45.1580 </r>
       <r>     7.1898     5.0603    45.6106 </r>
       <r>     7.2793     5.7247    46.1226 </r>
       <r>     7.3687     5.3155    46.5981 </r>
       <r>     7.4582     4.5347    47.0037 </r>
       <r>     7.5476     3.8326    47.3465 </r>
       <r>     7.6371     2.8213    47.5988 </r>
       <r>     7.7265     1.5976    47.7417 </r>
       <r>     7.8159     1.1878    47.8480 </r>
       <r>     7.9054     1.0744    47.9441 </r>
       <r>     7.9948     0.5200    47.9906 </r>
       <r>     8.0843     0.0989    47.9994 </r>
       <r>     8.1737     0.0064    48.0000 </r>
       <r>     8.2632     0.0001    48.0000 </r>
       <r>     8.3526     0.0000    48.0000 </r>
       <r>     8.4421     0.0000    48.0000 </r>
       <r>     8.5315     0.0000    48.0000 </r>
       <r>     8.6209     0.0000    48.0000 </r>
       <r>     8.7104     0.0000    48.0000 </r>
       <r>     8.7998     0.0000    48.0000 </r>
       <r>     8.8893     0.0000    48.0000 </r>
       <r>     8.9787     0.0000    48.0000 </r>
       <r>     9.0682     0.0000    48.0000 </r>
       <r>     9.1576     0.0000    48.0000 </r>
       <r>     9.2471     0.0000    48.0000 </r>
       <r>     9.3365     0.0000    48.0000 </r>
       <r>     9.4259     0.0000    48.0000 </r>
       <r>     9.5154     0.0000    48.0000 </r>
       <r>     9.6048     0.0000    48.0000 </r>
       <r>     9.6943     0.0000    48.0000 </r>
       <r>     9.7837     0.0000    48.0000 </r>
       <r>     9.8732     0.0000    48.0000 </r>
       <r>     9.9626     0.0000    48.0000 </r>
       <r>    10.0521     0.0000    48.0000 </r>
       <r>    10.1415     0.0000    48.0000 </r>
       <r>    10.2310     0.0000    48.0000 </r>
       <r>    10.3204     0.0000    48.0000 </r>
       <r>    10.4098     0.0007    48.0001 </r>
       <r>    10.4993     0.0246    48.0023 </r>
       <r>    10.5887     0.2261    48.0225 </r>
       <r>    10.6782     0.6957    48.0847 </r>
       <r>    10.7676     1.1753    48.1898 </r>
       <r>    10.8571     1.5782    48.3310 </r>
       <r>    10.9465     1.7686    48.4892 </r>
       <r>    11.0360     1.5508    48.6279 </r>
       <r>    11.1254     2.3419    48.8374 </r>
       <r>    11.2148     3.2346    49.1267 </r>
       <r>    11.3043     3.5876    49.4476 </r>
       <r>    11.3937     4.0580    49.8106 </r>
       <r>    11.4832     4.1707    50.1836 </r>
       <r>    11.5726     4.2596    50.5646 </r>
       <r>    11.6621     4.2712    50.9466 </r>
       <r>    11.7515     3.4647    51.2565 </r>
       <r>    11.8410     2.5590    51.4854 </r>
       <r>    11.9304     3.5673    51.8045 </r>
       <r>    12.0198     4.7633    52.2306 </r>
       <r>    12.1093     4.1657    52.6032 </r>
       <r>    12.1987     2.8951    52.8621 </r>
       <r>    12.2882     3.3533    53.1620 </r>
       <r>    12.3776     4.2819    53.5450 </r>
       <r>    12.4671     3.5303    53.8608 </r>
       <r>    12.5565     4.1861    54.2352 </r>
       <r>    12.6460     5.0895    54.6905 </r>
       <r>    12.7354     5.5653    55.1883 </r>
       <r>    12.8249     5.3994    55.6712 </r>
       <r>    12.9143     4.3135    56.0570 </r>
       <r>    13.0037     4.4282    56.4531 </r>
       <r>    13.0932     3.8848    56.8006 </r>
       <r>    13.1826     3.3543    57.1006 </r>
       <r>    13.2721     4.0375    57.4617 </r>
       <r>    13.3615     4.3903    57.8544 </r>
       <r>    13.4510     3.9001    58.2033 </r>
       <r>    13.5404     4.1039    58.5704 </r>
       <r>    13.6299     3.8906    58.9184 </r>
       <r>    13.7193     3.2415    59.2083 </r>
       <r>    13.8087     3.0875    59.4844 </r>
       <r>    13.8982     3.4649    59.7944 </r>
       <r>    13.9876     4.5005    60.1969 </r>
       <r>    14.0771     5.9894    60.7326 </r>
       <r>    14.1665     5.4608    61.2211 </r>
       <r>    14.2560     4.4964    61.6232 </r>
       <r>    14.3454     4.9397    62.0651 </r>
       <r>    14.4349     4.3093    62.4505 </r>
       <r>    14.5243     3.0359    62.7221 </r>
       <r>    14.6137     3.2870    63.0161 </r>
       <r>    14.7032     3.3368    63.3145 </r>
       <r>    14.7926     3.1566    63.5969 </r>
       <r>    14.8821     2.3367    63.8059 </r>
       <r>    14.9715     0.9325    63.8893 </r>
       <r>    15.0610     0.5701    63.9403 </r>
       <r>    15.1504     0.4881    63.9839 </r>
       <r>    15.2399     0.1646    63.9987 </r>
       <r>    15.3293     0.0147    64.0000 </r>
       <r>    15.4188     0.0003    64.0000 </r>
       <r>    15.5082     0.0000    64.0000 </r>
       <r>    15.5976     0.0000    64.0000 </r>
       <r>    15.6871     0.0000    64.0000 </r>
       <r>    15.7765     0.0000    64.0000 </r>
       <r>    15.8660     0.0000    64.0000 </r>
       <r>    15.9554     0.0000    64.0000 </r>
       <r>    16.0449     0.0000    64.0000 </r>
       <r>    16.1343     0.0000    64.0000 </r>
       <r>    16.2238     0.0000    64.0000 </r>
       <r>    16.3132     0.0000    64.0000 </r>
      </set>
     </set>
    </array>
   </total>
  </dos>
 </calculation>
 <structure name="finalpos" >
  <crystal>
   <varray name="basis" >
    <v>       5.41188022       0.02960788       0.00842697 </v>
    <v>       2.73156025       4.70305422      -0.02457536 </v>
    <v>       2.72238744       1.54616262       5.02883192 </v>
   </varray>
   <i name="volume">    127.72031379 </i>
   <varray name="rec_basis" >
    <v>       0.18547454      -0.10807569      -0.06717882 </v>
    <v>      -0.00106376       0.21290657      -0.06488430 </v>
    <v>      -0.00031600       0.00122156       0.19864883 </v>
   </varray>
  </crystal>
  <varray name="positions" >
   <v>       0.00095765       0.68435087       0.98133364 </v>
   <v>       0.49461326       0.83157769       0.49628300 </v>
   <v>       0.16047973       0.49774020       0.51862465 </v>
   <v>       0.65929161       0.33619241       0.00199450 </v>
   <v>       0.34473426       0.99806090       0.99061647 </v>
   <v>       0.84030562       0.16221563       0.49471392 </v>
   <v>       0.23147668       0.84043729       0.37926815 </v>
   <v>       0.72259353       0.03667559       0.87712121 </v>
   <v>       0.03440498       0.38930918       0.88546119 </v>
   <v>       0.50828342       0.19853935       0.39632436 </v>
   <v>       0.88306220       0.56343655       0.36940984 </v>
   <v>       0.36979706       0.71146433       0.85884908 </v>
  </varray>
 </structure>
</modeling>
