<?xml version="1.0" encoding="ISO-8859-1"?>
<modeling>
 <generator>
  <i name="program" type="string">vasp </i>
  <i name="version" type="string">5.3.5  </i>
  <i name="subversion" type="string">31Mar14 (build Jun 20 2014 13:15:13) complex                          parallel </i>
  <i name="platform" type="string">LinuxIFC </i>
  <i name="date" type="string">2025 12 12 </i>
  <i name="time" type="string">12:13:53 </i>
 </generator>
 <incar>
  <i type="string" name="PREC">accurate</i>
  <i type="int" name="IALGO">    38</i>
  <i type="logical" name="ADDGRID"> T  </i>
  <i type="int" name="ISPIN">     2</i>
  <i type="int" name="NELM">   100</i>
  <i type="int" name="NELMIN">     4</i>
  <i name="EDIFF">      0.00000100</i>
  <i name="ENCUT">    500.00000000</i>
  <i type="logical" name="LREAL"> F  </i>
  <i type="int" name="ISMEAR">     0</i>
  <i name="SIGMA">      0.05000000</i>
  <i type="logical" name="LWAVE"> F  </i>
  <i type="logical" name="LCHARG"> F  </i>
  <i type="int" name="NELM">   100</i>
  <i type="logical" name="LDAU"> T  </i>
  <v name="LDAUU">      0.00000000      4.00000000      0.00000000</v>
  <v name="LDAUJ">      0.00000000      0.00000000      0.00000000</v>
 </incar>
 <kpoints>
  <generation param="Auto">
   <i name="subdivisionlength">     20.00000000 </i>
   <v type="int" name="divisions">       2        4        2 </v>
   <v name="usershift">      0.00000000       0.00000000       0.00000000 </v>
   <v name="genvec1">      0.50000000       0.00000000       0.00000000 </v>
   <v name="genvec2">      0.00000000       0.25000000       0.00000000 </v>
   <v name="genvec3">      0.00000000       0.00000000       0.50000000 </v>
   <v name="shift">      0.00000000       0.00000000       0.00000000 </v>
  </generation>
  <varray name="kpointlist" >
   <v>       0.00000000       0.00000000       0.00000000 </v>
   <v>       0.50000000       0.00000000       0.00000000 </v>
   <v>       0.00000000       0.25000000       0.00000000 </v>
   <v>       0.50000000       0.25000000       0.00000000 </v>
   <v>       0.00000000       0.50000000       0.00000000 </v>
   <v>       0.50000000       0.50000000       0.00000000 </v>
   <v>       0.00000000       0.00000000       0.50000000 </v>
   <v>       0.50000000       0.00000000       0.50000000 </v>
   <v>       0.00000000       0.25000000       0.50000000 </v>
   <v>       0.50000000       0.25000000       0.50000000 </v>
   <v>       0.00000000       0.50000000       0.50000000 </v>
   <v>       0.50000000       0.50000000       0.50000000 </v>
  </varray>
  <varray name="weights" >
   <v>       0.06250000 </v>
   <v>       0.06250000 </v>
   <v>       0.12500000 </v>
   <v>       0.12500000 </v>
   <v>       0.06250000 </v>
   <v>       0.06250000 </v>
   <v>       0.06250000 </v>
   <v>       0.06250000 </v>
   <v>       0.12500000 </v>
   <v>       0.12500000 </v>
   <v>       0.06250000 </v>
   <v>       0.06250000 </v>
  </varray>
 </kpoints>
 <parameters>
  <separator name="general" >
   <i type="string" name="SYSTEM">unknown system</i>
   <i type="logical" name="LCOMPAT"> F  </i>
  </separator>
  <separator name="electronic" >
   <i type="string" name="PREC">accura</i>
   <i name="ENMAX">    500.00000000</i>
   <i name="ENAUG">    586.98000000</i>
   <i name="EDIFF">      0.00000100</i>
   <i type="int" name="IALGO">    38</i>
   <i type="int" name="IWAVPR">    10</i>
   <i type="int" name="NBANDS">   176</i>
   <i name="NELECT">    264.00000000</i>
   <i type="int" name="TURBO">     0</i>
   <i type="int" name="IRESTART">     0</i>
   <i type="int" name="NREBOOT">     0</i>
   <i type="int" name="NMIN">     0</i>
   <i name="EREF">      0.00000000</i>
   <separator name="electronic smearing" >
    <i type="int" name="ISMEAR">     0</i>
    <i name="SIGMA">      0.05000000</i>
    <i name="KSPACING">      0.50000000</i>
    <i type="logical" name="KGAMMA"> T  </i>
   </separator>
   <separator name="electronic projectors" >
    <i type="logical" name="LREAL"> F  </i>
    <v name="ROPT">      0.00000000      0.00000000      0.00000000</v>
    <i type="int" name="LMAXPAW">  -100</i>
    <i type="int" name="LMAXMIX">     2</i>
    <i type="logical" name="NLSPLINE"> F  </i>
   </separator>
   <separator name="electronic startup" >
    <i type="int" name="ISTART">     0</i>
    <i type="int" name="ICHARG">     2</i>
    <i type="int" name="INIWAV">     1</i>
   </separator>
   <separator name="electronic spin" >
    <i type="int" name="ISPIN">     2</i>
    <i type="logical" name="LNONCOLLINEAR"> F  </i>
    <v name="MAGMOM">      1.00000000      1.00000000      1.00000000      1.00000000      1.00000000      1.00000000      1.00000000      1.00000000      1.00000000      1.00000000      1.00000000      1.00000000      1.00000000      1.00000000      1.00000000      1.00000000      1.00000000      1.00000000      1.00000000      1.00000000
      1.00000000      1.00000000      1.00000000      1.00000000      1.00000000      1.00000000      1.00000000      1.00000000      1.00000000      1.00000000      1.00000000      1.00000000</v>
    <i name="NUPDOWN">     -1.00000000</i>
    <i type="logical" name="LSORBIT"> F  </i>
    <v name="SAXIS">      0.00000000      0.00000000      1.00000000</v>
    <i type="logical" name="LSPIRAL"> F  </i>
    <v name="QSPIRAL">      0.00000000      0.00000000      0.00000000</v>
    <i type="logical" name="LZEROZ"> F  </i>
   </separator>
   <separator name="electronic exchange-correlation" >
    <i type="logical" name="LASPH"> F  </i>
    <i type="logical" name="LMETAGGA"> F  </i>
   </separator>
   <separator name="electronic convergence" >
    <i type="int" name="NELM">   100</i>
    <i type="int" name="NELMDL">    -5</i>
    <i type="int" name="NELMIN">     4</i>
    <i name="ENINI">    500.00000000</i>
    <separator name="electronic convergence detail" >
     <i type="logical" name="LDIAG"> T  </i>
     <i type="logical" name="LSUBROT"> F  </i>
     <i name="WEIMIN">      0.00000000</i>
     <i name="EBREAK">      0.00000000</i>
     <i name="DEPER">      0.30000000</i>
     <i type="int" name="NRMM">     4</i>
     <i name="TIME">      0.40000000</i>
    </separator>
   </separator>
   <separator name="electronic mixer" >
    <i name="AMIX">      0.40000000</i>
    <i name="BMIX">      1.00000000</i>
    <i name="AMIN">      0.10000000</i>
    <i name="AMIX_MAG">      1.60000000</i>
    <i name="BMIX_MAG">      1.00000000</i>
    <separator name="electronic mixer details" >
     <i type="int" name="IMIX">     4</i>
     <i type="int" name="MAXMIX">   -45</i>
     <i name="WC">    100.00000000</i>
     <i type="int" name="INIMIX">     1</i>
     <i type="int" name="MIXPRE">     1</i>
     <i type="int" name="MREMOVE">     5</i>
    </separator>
   </separator>
   <separator name="electronic dipolcorrection" >
    <i type="logical" name="LDIPOL"> F  </i>
    <i type="logical" name="LMONO"> F  </i>
    <i type="int" name="IDIPOL">     0</i>
    <i name="EPSILON">      1.00000000</i>
    <v name="DIPOL">   -100.00000000   -100.00000000   -100.00000000</v>
    <i name="EFIELD">      0.00000000</i>
   </separator>
  </separator>
  <separator name="grids" >
   <i type="int" name="NGX">    72</i>
   <i type="int" name="NGY">    42</i>
   <i type="int" name="NGZ">    72</i>
   <i type="int" name="NGXF">   144</i>
   <i type="int" name="NGYF">    84</i>
   <i type="int" name="NGZF">   144</i>
   <i type="logical" name="ADDGRID"> T  </i>
  </separator>
  <separator name="ionic" >
   <i type="int" name="NSW">     0</i>
   <i type="int" name="IBRION">    -1</i>
   <i type="int" name="ISIF">     2</i>
   <i name="PSTRESS">      0.00000000</i>
   <i name="EDIFFG">      0.00001000</i>
   <i type="int" name="NFREE">     0</i>
   <i name="POTIM">      0.50000000</i>
   <i name="SMASS">     -3.00000000</i>
   <i name="SCALEE">      1.00000000</i>
  </separator>
  <separator name="ionic md" >
   <i name="TEBEG">      0.00010000</i>
   <i name="TEEND">      0.00010000</i>
   <i type="int" name="NBLOCK">     1</i>
   <i type="int" name="KBLOCK">     1</i>
   <i type="int" name="NPACO">   256</i>
   <i name="APACO">     16.00000000</i>
  </separator>
  <separator name="symmetry" >
   <i type="int" name="ISYM">     2</i>
   <i name="SYMPREC">      0.00001000</i>
  </separator>
  <separator name="dos" >
   <i type="logical" name="LORBIT"> F  </i>
   <v name="RWIGS">     -1.00000000     -1.00000000     -1.00000000</v>
   <i type="int" name="NEDOS">   301</i>
   <i name="EMIN">     10.00000000</i>
   <i name="EMAX">    -10.00000000</i>
   <i name="EFERMI">      0.00000000</i>
  </separator>
  <separator name="writing" >
   <i type="int" name="NWRITE">     2</i>
   <i type="logical" name="LWAVE"> F  </i>
   <i type="logical" name="LCHARG"> F  </i>
   <i type="logical" name="LPARD"> F  </i>
   <i type="logical" name="LVTOT"> F  </i>
   <i type="logical" name="LVHAR"> F  </i>
   <i type="logical" name="LELF"> F  </i>
   <i type="logical" name="LOPTICS"> F  </i>
   <v name="STM">      0.00000000      0.00000000      0.00000000      0.00000000      0.00000000      0.00000000      0.00000000</v>
  </separator>
  <separator name="performance" >
   <i type="int" name="NPAR">     4</i>
   <i type="int" name="NSIM">     4</i>
   <i type="int" name="NBLK">    -1</i>
   <i type="logical" name="LPLANE"> T  </i>
   <i type="logical" name="LSCALAPACK"> T  </i>
   <i type="logical" name="LSCAAWARE"> F  </i>
   <i type="logical" name="LSCALU"> F  </i>
   <i type="logical" name="LASYNC"> F  </i>
   <i type="logical" name="LORBITALREAL"> F  </i>
  </separator>
  <separator name="miscellaneous" >
   <i type="int" name="IDIOT">     3</i>
   <i type="logical" name="LMUSIC"> F  </i>
   <v name="POMASS">     87.62000000     63.54600000     16.00000000</v>
   <v name="DARWINR">      0.00000000      0.00000000      0.00000000</v>
   <v name="DARWINV">      1.00000000      1.00000000      1.00000000</v>
   <i type="logical" name="LCORR"> T  </i>
  </separator>
  <i type="logical" name="GGA_COMPAT"> T  </i>
  <i type="logical" name="LBERRY"> F  </i>
  <i type="int" name="ICORELEVEL">     0</i>
  <i type="logical" name="LDAU"> T  </i>
  <v type="int" name="LDAUTYPE">     2</v>
  <v type="int" name="LDAUL">     2</v>
  <v name="LDAUU">      0.00000000</v>
  <v name="LDAUJ">      0.00000000</v>
  <i type="int" name="LDAUPRINT">     0</i>
  <i type="int" name="I_CONSTRAINED_M">     0</i>
  <separator name="electronic exchange-correlation" >
   <i type="string" name="GGA">--</i>
   <i type="int" name="VOSKOWN">     0</i>
   <i type="logical" name="LHFCALC"> F  </i>
   <i type="string" name="PRECFOCK"></i>
   <i type="logical" name="LSYMGRAD"> F  </i>
   <i type="logical" name="LHFONE"> F  </i>
   <i type="logical" name="LRHFCALC"> F  </i>
   <i type="logical" name="LTHOMAS"> F  </i>
   <i type="logical" name="LMODELHF"> F  </i>
   <i name="ENCUT4O">     -1.00000000</i>
   <i type="int" name="EXXOEP">     0</i>
   <i type="int" name="FOURORBIT">     0</i>
   <i name="AEXX">      0.00000000</i>
   <i name="HFALPHA">      0.00000000</i>
   <i name="MCALPHA">      0.00000000</i>
   <i name="ALDAX">      1.00000000</i>
   <i name="AGGAX">      1.00000000</i>
   <i name="ALDAC">      1.00000000</i>
   <i name="AGGAC">      1.00000000</i>
   <i type="int" name="NKREDX">     1</i>
   <i type="int" name="NKREDY">     1</i>
   <i type="int" name="NKREDZ">     1</i>
   <i type="logical" name="SHIFTRED"> F  </i>
   <i type="logical" name="ODDONLY"> F  </i>
   <i type="logical" name="EVENONLY"> F  </i>
   <i type="int" name="LMAXFOCK">     0</i>
   <i type="int" name="NMAXFOCKAE">     0</i>
   <i type="logical" name="LFOCKAEDFT"> F  </i>
   <i name="HFSCREEN">      0.00000000</i>
   <i name="HFSCREENC">      0.00000000</i>
   <i type="int" name="NBANDSGWLOW">     0</i>
  </separator>
  <separator name="vdW DFT" >
   <i type="logical" name="LUSE_VDW"> F  </i>
   <i name="Zab_VDW">     -0.84910000</i>
   <i name="PARAM1">      0.12340000</i>
   <i name="PARAM2">      1.00000000</i>
   <i name="PARAM3">      0.00000000</i>
  </separator>
  <separator name="model GW" >
   <i type="int" name="MODEL_GW">     0</i>
   <i name="MODEL_EPS0">      9.60000000</i>
   <i name="MODEL_ALPHA">      1.00000000</i>
  </separator>
  <separator name="linear response parameters" >
   <i type="logical" name="LEPSILON"> F  </i>
   <i type="logical" name="LRPA"> F  </i>
   <i type="logical" name="LNABLA"> F  </i>
   <i type="logical" name="LVEL"> F  </i>
   <i type="int" name="KINTER">     0</i>
   <i name="CSHIFT">      0.10000000</i>
   <i name="OMEGAMAX">     -1.00000000</i>
   <i name="DEG_THRESHOLD">      0.00200000</i>
  </separator>
  <separator name="orbital magnetization" >
   <i type="logical" name="NUCIND"> F  </i>
   <v name="MAGPOS">      0.00000000      0.00000000      0.00000000</v>
   <i type="logical" name="LNICSALL"> T  </i>
   <i type="logical" name="ORBITALMAG"> F  </i>
   <i type="logical" name="LMAGBLOCH"> F  </i>
   <i type="logical" name="LCHIMAG"> F  </i>
   <i type="logical" name="LGAUGE"> T  </i>
   <i type="int" name="MAGATOM">     0</i>
   <v name="MAGDIPOL">      0.00000000      0.00000000      0.00000000</v>
   <v name="AVECCONST">      0.00000000      0.00000000      0.00000000</v>
  </separator>
  <separator name="response functions" >
   <i type="logical" name="LADDER"> F  </i>
   <i type="logical" name="LFXC"> F  </i>
   <i type="logical" name="LHARTREE"> T  </i>
   <i type="int" name="IBSE">     0</i>
   <i type="logical" name="LTCTE"> F  </i>
   <i type="logical" name="LTETE"> F  </i>
   <i type="logical" name="LTRIPLET"> F  </i>
   <i type="logical" name="LFXCEPS"> F  </i>
   <i type="logical" name="LFXHEG"> F  </i>
   <i type="logical" name="L2ORDER"> F  </i>
   <i type="logical" name="LUSEW"> F  </i>
   <i name="ENCUTGW">     -2.00000000</i>
   <i name="ENCUTGWSOFT">     -2.00000000</i>
   <i name="ENCUTLF">     -1.00000000</i>
   <i type="int" name="LMAXMP2">    -1</i>
   <i name="SCISSOR">      0.00000000</i>
   <i type="int" name="NOMEGA">     0</i>
   <i type="int" name="NOMEGAR">     0</i>
   <i type="int" name="NBANDSGW">    -1</i>
   <i type="int" name="NBANDSO">    -1</i>
   <i type="int" name="NBANDSV">    -1</i>
   <i type="int" name="NELM">   100</i>
   <i type="int" name="DIM">     3</i>
   <i type="int" name="ANTIRES">     0</i>
   <i name="OMEGAMAX">    -30.00000000</i>
   <i name="OMEGAMIN">    -30.00000000</i>
   <i name="OMEGATL">   -200.00000000</i>
   <i type="int" name="OMEGAGRID">     0</i>
   <i name="CSHIFT">     -0.10000000</i>
   <i type="logical" name="SELFENERGY"> F  </i>
   <i type="logical" name="LSPECTRAL"> F  </i>
   <i type="logical" name="ODDONLYGW"> F  </i>
   <i type="logical" name="EVENONLYGW"> F  </i>
   <i type="int" name="NKREDLFX">     1</i>
   <i type="int" name="NKREDLFY">     1</i>
   <i type="int" name="NKREDLFZ">     1</i>
   <i type="int" name="MAXMEM">  1800</i>
   <i type="int" name="TELESCOPE">     0</i>
   <i type="int" name="TAUPAR">     1</i>
  </separator>
  <separator name="External order field" >
   <i name="OFIELD_KAPPA">      0.00000000</i>
   <v name="OFIELD_K">      0.00000000      0.00000000      0.00000000</v>
   <i name="OFIELD_Q6_NEAR">      0.00000000</i>
   <i name="OFIELD_Q6_FAR">      0.00000000</i>
   <i name="OFIELD_A">      0.00000000</i>
  </separator>
 </parameters>
 <atominfo>
  <atoms>      32 </atoms>
  <types>       3 </types>
  <array name="atoms" >
   <dimension dim="1">ion</dimension>
   <field type="string">element</field>
   <field type="int">atomtype</field>
   <set>
    <rc><c>Sr</c><c>   1</c></rc>
    <rc><c>Sr</c><c>   1</c></rc>
    <rc><c>Sr</c><c>   1</c></rc>
    <rc><c>Sr</c><c>   1</c></rc>
    <rc><c>Sr</c><c>   1</c></rc>
    <rc><c>Sr</c><c>   1</c></rc>
    <rc><c>Sr</c><c>   1</c></rc>
    <rc><c>Sr</c><c>   1</c></rc>
    <rc><c>Cu</c><c>   2</c></rc>
    <rc><c>Cu</c><c>   2</c></rc>
    <rc><c>Cu</c><c>   2</c></rc>
    <rc><c>Cu</c><c>   2</c></rc>
    <rc><c>Cu</c><c>   2</c></rc>
    <rc><c>Cu</c><c>   2</c></rc>
    <rc><c>Cu</c><c>   2</c></rc>
    <rc><c>Cu</c><c>   2</c></rc>
    <rc><c>O </c><c>   3</c></rc>
    <rc><c>O </c><c>   3</c></rc>
    <rc><c>O </c><c>   3</c></rc>
    <rc><c>O </c><c>   3</c></rc>
    <rc><c>O </c><c>   3</c></rc>
    <rc><c>O </c><c>   3</c></rc>
    <rc><c>O </c><c>   3</c></rc>
    <rc><c>O </c><c>   3</c></rc>
    <rc><c>O </c><c>   3</c></rc>
    <rc><c>O </c><c>   3</c></rc>
    <rc><c>O </c><c>   3</c></rc>
    <rc><c>O </c><c>   3</c></rc>
    <rc><c>O </c><c>   3</c></rc>
    <rc><c>O </c><c>   3</c></rc>
    <rc><c>O </c><c>   3</c></rc>
    <rc><c>O </c><c>   3</c></rc>
   </set>
  </array>
  <array name="atomtypes" >
   <dimension dim="1">type</dimension>
   <field type="int">atomspertype</field>
   <field type="string">element</field>
   <field>mass</field>
   <field>valence</field>
   <field type="string">pseudopotential</field>
   <set>
    <rc><c>   8</c><c>Sr</c><c>     87.62000000</c><c>     10.00000000</c><c>  PAW_PBE Sr_sv 07Sep2000               </c></rc>
    <rc><c>   8</c><c>Cu</c><c>     63.54600000</c><c>     11.00000000</c><c>  PAW_PBE Cu 22Jun2005                  </c></rc>
    <rc><c>  16</c><c>O </c><c>     16.00000000</c><c>      6.00000000</c><c>  PAW_PBE O_s 07Sep2000                 </c></rc>
   </set>
  </array>
 </atominfo>
 <structure name="initialpos" >
  <crystal>
   <varray name="basis" >
    <v>       9.79795897       0.00000000       0.00000000 </v>
    <v>       0.00000000       5.65685425       0.00000000 </v>
    <v>      -3.26598632       0.00000000       9.23760431 </v>
   </varray>
   <i name="volume">    512.00000000 </i>
   <varray name="rec_basis" >
    <v>       0.10206207       0.00000000       0.03608439 </v>
    <v>       0.00000000       0.17677670       0.00000000 </v>
    <v>       0.00000000       0.00000000       0.10825318 </v>
   </varray>
  </crystal>
  <varray name="positions" >
   <v>       0.00000000       0.00000000       0.00000000 </v>
   <v>       0.25000000       0.00000000       0.75000000 </v>
   <v>       0.00000000       0.50000000       0.50000000 </v>
   <v>       0.75000000       0.00000000       0.25000000 </v>
   <v>       0.50000000       0.50000000       0.00000000 </v>
   <v>       0.75000000       0.50000000       0.75000000 </v>
   <v>       0.50000000       0.00000000       0.50000000 </v>
   <v>       0.25000000       0.50000000       0.25000000 </v>
   <v>       0.87500000       0.50000000       0.12500000 </v>
   <v>       0.12500000       0.50000000       0.87500000 </v>
   <v>       0.87500000       0.00000000       0.62500000 </v>
   <v>       0.12500000       0.00000000       0.37500000 </v>
   <v>       0.37500000       0.00000000       0.12500000 </v>
   <v>       0.62500000       0.00000000       0.87500000 </v>
   <v>       0.37500000       0.50000000       0.62500000 </v>
   <v>       0.62500000       0.50000000       0.37500000 </v>
   <v>       0.25000000       0.50000000       0.75000000 </v>
   <v>       0.00000000       0.00000000       0.50000000 </v>
   <v>       0.75000000       0.25000000       0.00000000 </v>
   <v>       0.25000000       0.25000000       0.50000000 </v>
   <v>       0.00000000       0.75000000       0.25000000 </v>
   <v>       0.75000000       0.75000000       0.00000000 </v>
   <v>       0.25000000       0.75000000       0.50000000 </v>
   <v>       0.00000000       0.25000000       0.25000000 </v>
   <v>       0.75000000       0.00000000       0.75000000 </v>
   <v>       0.50000000       0.50000000       0.50000000 </v>
   <v>       0.25000000       0.75000000       0.00000000 </v>
   <v>       0.75000000       0.75000000       0.50000000 </v>
   <v>       0.50000000       0.25000000       0.25000000 </v>
   <v>       0.25000000       0.25000000       0.00000000 </v>
   <v>       0.75000000       0.25000000       0.50000000 </v>
   <v>       0.50000000       0.75000000       0.25000000 </v>
  </varray>
 </structure>
 <calculation>
  <scstep>
   <time name="dav">    7.93    7.93</time>
   <time name="total">    8.13    8.14</time>
   <energy>
    <i name="alphaZ">   1197.30728288 </i>
    <i name="ewald"> -17244.68055724 </i>
    <i name="hartreedc">  -7643.63086795 </i>
    <i name="XCdc">   1086.30061488 </i>
    <i name="pawpsdc">  20377.93945936 </i>
    <i name="pawaedc"> -21035.46554250 </i>
    <i name="eentropy">     -0.00635491 </i>
    <i name="bandstr">   1934.53053467 </i>
    <i name="atom">  24790.01456472 </i>
    <i name="e_fr_energy">   3462.30913391 </i>
    <i name="e_wo_entrp">   3462.31548882 </i>
    <i name="e_0_energy">   3462.31231136 </i>
   </energy>
  </scstep>
  <scstep>
   <time name="dav">    8.02    8.02</time>
   <time name="total">    8.02    8.04</time>
   <energy>
    <i name="e_fr_energy">    410.32801877 </i>
    <i name="e_wo_entrp">    410.34280439 </i>
    <i name="e_0_energy">    410.33541158 </i>
   </energy>
  </scstep>
  <scstep>
   <time name="dav">    7.91    7.92</time>
   <time name="total">    7.92    7.93</time>
   <energy>
    <i name="e_fr_energy">   -139.64686377 </i>
    <i name="e_wo_entrp">   -139.62847171 </i>
    <i name="e_0_energy">   -139.63766774 </i>
   </energy>
  </scstep>
  <scstep>
   <time name="dav">   10.39   10.39</time>
   <time name="total">   10.40   10.41</time>
   <energy>
    <i name="e_fr_energy">   -189.95934166 </i>
    <i name="e_wo_entrp">   -189.93442225 </i>
    <i name="e_0_energy">   -189.94688196 </i>
   </energy>
  </scstep>
  <scstep>
   <time name="dav">   13.13   13.13</time>
   <time name="total">   13.58   13.60</time>
   <energy>
    <i name="e_fr_energy">   -193.18842891 </i>
    <i name="e_wo_entrp">   -193.16410389 </i>
    <i name="e_0_energy">   -193.17626640 </i>
   </energy>
  </scstep>
  <scstep>
   <time name="dav">   11.22   11.22</time>
   <time name="total">   11.87   11.88</time>
   <energy>
    <i name="e_fr_energy">   -172.65441478 </i>
    <i name="e_wo_entrp">   -172.63271377 </i>
    <i name="e_0_energy">   -172.64356428 </i>
   </energy>
  </scstep>
  <scstep>
   <time name="dav">   10.96   10.99</time>
   <time name="total">   11.60   11.65</time>
   <energy>
    <i name="e_fr_energy">   -157.50659798 </i>
    <i name="e_wo_entrp">   -157.49393525 </i>
    <i name="e_0_energy">   -157.50026661 </i>
   </energy>
  </scstep>
  <scstep>
   <time name="dav">   11.94   11.95</time>
   <time name="total">   12.58   12.61</time>
   <energy>
    <i name="e_fr_energy">   -162.48513817 </i>
    <i name="e_wo_entrp">   -162.45972610 </i>
    <i name="e_0_energy">   -162.47243213 </i>
   </energy>
  </scstep>
  <scstep>
   <time name="dav">   10.58   10.58</time>
   <time name="total">   11.22   11.24</time>
   <energy>
    <i name="e_fr_energy">   -160.11018355 </i>
    <i name="e_wo_entrp">   -160.09890972 </i>
    <i name="e_0_energy">   -160.10454663 </i>
   </energy>
  </scstep>
  <scstep>
   <time name="dav">   10.75   10.76</time>
   <time name="total">   11.40   11.42</time>
   <energy>
    <i name="e_fr_energy">   -156.66177709 </i>
    <i name="e_wo_entrp">   -156.64404841 </i>
    <i name="e_0_energy">   -156.65291275 </i>
   </energy>
  </scstep>
  <scstep>
   <time name="dav">   12.20   12.20</time>
   <time name="total">   12.84   12.86</time>
   <energy>
    <i name="e_fr_energy">   -156.10787896 </i>
    <i name="e_wo_entrp">   -156.09671019 </i>
    <i name="e_0_energy">   -156.10229457 </i>
   </energy>
  </scstep>
  <scstep>
   <time name="dav">   10.88   10.88</time>
   <time name="total">   11.52   11.54</time>
   <energy>
    <i name="e_fr_energy">   -156.31112285 </i>
    <i name="e_wo_entrp">   -156.30023962 </i>
    <i name="e_0_energy">   -156.30568123 </i>
   </energy>
  </scstep>
  <scstep>
   <time name="dav">   10.51   10.56</time>
   <time name="total">   11.16   11.22</time>
   <energy>
    <i name="e_fr_energy">   -156.35961081 </i>
    <i name="e_wo_entrp">   -156.34764594 </i>
    <i name="e_0_energy">   -156.35362837 </i>
   </energy>
  </scstep>
  <scstep>
   <time name="dav">   10.50   10.50</time>
   <time name="total">   11.16   11.17</time>
   <energy>
    <i name="e_fr_energy">   -156.35629075 </i>
    <i name="e_wo_entrp">   -156.34582364 </i>
    <i name="e_0_energy">   -156.35105719 </i>
   </energy>
  </scstep>
  <scstep>
   <time name="dav">   11.01   11.03</time>
   <time name="total">   11.66   11.71</time>
   <energy>
    <i name="e_fr_energy">   -156.35843182 </i>
    <i name="e_wo_entrp">   -156.34869856 </i>
    <i name="e_0_energy">   -156.35356519 </i>
   </energy>
  </scstep>
  <scstep>
   <time name="dav">   11.31   11.33</time>
   <time name="total">   11.95   11.98</time>
   <energy>
    <i name="e_fr_energy">   -156.35092378 </i>
    <i name="e_wo_entrp">   -156.34084444 </i>
    <i name="e_0_energy">   -156.34588411 </i>
   </energy>
  </scstep>
  <scstep>
   <time name="dav">   11.25   11.25</time>
   <time name="total">   11.89   11.91</time>
   <energy>
    <i name="e_fr_energy">   -156.35050699 </i>
    <i name="e_wo_entrp">   -156.34054073 </i>
    <i name="e_0_energy">   -156.34552386 </i>
   </energy>
  </scstep>
  <scstep>
   <time name="dav">   11.19   11.21</time>
   <time name="total">   11.83   11.87</time>
   <energy>
    <i name="e_fr_energy">   -156.35109848 </i>
    <i name="e_wo_entrp">   -156.34100065 </i>
    <i name="e_0_energy">   -156.34604957 </i>
   </energy>
  </scstep>
  <scstep>
   <time name="dav">   10.85   10.85</time>
   <time name="total">   11.49   11.51</time>
   <energy>
    <i name="e_fr_energy">   -156.35108066 </i>
    <i name="e_wo_entrp">   -156.34092910 </i>
    <i name="e_0_energy">   -156.34600488 </i>
   </energy>
  </scstep>
  <scstep>
   <time name="dav">   10.68   10.69</time>
   <time name="total">   11.32   11.35</time>
   <energy>
    <i name="e_fr_energy">   -156.35117350 </i>
    <i name="e_wo_entrp">   -156.34102961 </i>
    <i name="e_0_energy">   -156.34610156 </i>
   </energy>
  </scstep>
  <scstep>
   <time name="dav">   10.49   10.53</time>
   <time name="total">   11.13   11.19</time>
   <energy>
    <i name="e_fr_energy">   -156.35117750 </i>
    <i name="e_wo_entrp">   -156.34103656 </i>
    <i name="e_0_energy">   -156.34610703 </i>
   </energy>
  </scstep>
  <scstep>
   <time name="dav">   10.48   10.49</time>
   <time name="total">   11.13   11.15</time>
   <energy>
    <i name="e_fr_energy">   -156.35118574 </i>
    <i name="e_wo_entrp">   -156.34103901 </i>
    <i name="e_0_energy">   -156.34611237 </i>
   </energy>
  </scstep>
  <scstep>
   <time name="dav">    9.32    9.32</time>
   <time name="total">    9.96    9.97</time>
   <energy>
    <i name="e_fr_energy">   -156.35118517 </i>
    <i name="e_wo_entrp">   -156.34104328 </i>
    <i name="e_0_energy">   -156.34611422 </i>
   </energy>
  </scstep>
  <scstep>
   <time name="dav">    7.66    7.66</time>
   <time name="total">    7.85    7.86</time>
   <energy>
    <i name="alphaZ">   1197.30728288 </i>
    <i name="ewald"> -17244.68055724 </i>
    <i name="hartreedc">  -7659.93668131 </i>
    <i name="XCdc">   1086.86010385 </i>
    <i name="pawpsdc">  31053.92634474 </i>
    <i name="pawaedc"> -31784.15517295 </i>
    <i name="eentropy">     -0.01014072 </i>
    <i name="bandstr">  -1595.67692878 </i>
    <i name="atom">  24790.01456472 </i>
    <i name="e_fr_energy">   -156.35118482 </i>
    <i name="e_wo_entrp">   -156.34104410 </i>
    <i name="e_0_energy">   -156.34611446 </i>
   </energy>
  </scstep>
  <structure>
   <crystal>
    <varray name="basis" >
     <v>       9.79795897       0.00000000       0.00000000 </v>
     <v>       0.00000000       5.65685425       0.00000000 </v>
     <v>      -3.26598632       0.00000000       9.23760431 </v>
    </varray>
    <i name="volume">    512.00000000 </i>
    <varray name="rec_basis" >
     <v>       0.10206207       0.00000000       0.03608439 </v>
     <v>       0.00000000       0.17677670       0.00000000 </v>
     <v>       0.00000000       0.00000000       0.10825318 </v>
    </varray>
   </crystal>
   <varray name="positions" >
    <v>       0.00000000       0.00000000       0.00000000 </v>
    <v>       0.25000000       0.00000000       0.75000000 </v>
    <v>       0.00000000       0.50000000       0.50000000 </v>
    <v>       0.75000000       0.00000000       0.25000000 </v>
    <v>       0.50000000       0.50000000       0.00000000 </v>
    <v>       0.75000000       0.50000000       0.75000000 </v>
    <v>       0.50000000       0.00000000       0.50000000 </v>
    <v>       0.25000000       0.50000000       0.25000000 </v>
    <v>       0.87500000       0.50000000       0.12500000 </v>
    <v>       0.12500000       0.50000000       0.87500000 </v>
    <v>       0.87500000       0.00000000       0.62500000 </v>
    <v>       0.12500000       0.00000000       0.37500000 </v>
    <v>       0.37500000       0.00000000       0.12500000 </v>
    <v>       0.62500000       0.00000000       0.87500000 </v>
    <v>       0.37500000       0.50000000       0.62500000 </v>
    <v>       0.62500000       0.50000000       0.37500000 </v>
    <v>       0.25000000       0.50000000       0.75000000 </v>
    <v>       0.00000000       0.00000000       0.50000000 </v>
    <v>       0.75000000       0.25000000       0.00000000 </v>
    <v>       0.25000000       0.25000000       0.50000000 </v>
    <v>       0.00000000       0.75000000       0.25000000 </v>
    <v>       0.75000000       0.75000000       0.00000000 </v>
    <v>       0.25000000       0.75000000       0.50000000 </v>
    <v>       0.00000000       0.25000000       0.25000000 </v>
    <v>       0.75000000       0.00000000       0.75000000 </v>
    <v>       0.50000000       0.50000000       0.50000000 </v>
    <v>       0.25000000       0.75000000       0.00000000 </v>
    <v>       0.75000000       0.75000000       0.50000000 </v>
    <v>       0.50000000       0.25000000       0.25000000 </v>
    <v>       0.25000000       0.25000000       0.00000000 </v>
    <v>       0.75000000       0.25000000       0.50000000 </v>
    <v>       0.50000000       0.75000000       0.25000000 </v>
   </varray>
  </structure>
  <varray name="forces" >
   <v>      -1.10667109       0.00000000       0.85848302 </v>
   <v>      -0.49626396       0.00000000      -0.91642947 </v>
   <v>       0.97367770       0.00000000      -0.72064206 </v>
   <v>       0.43925838       0.00000000       0.80919814 </v>
   <v>      -1.10667109       0.00000000       0.85848302 </v>
   <v>      -0.49626396       0.00000000      -0.91642947 </v>
   <v>       0.97367770       0.00000000      -0.72064206 </v>
   <v>       0.43925838       0.00000000       0.80919814 </v>
   <v>       0.03329415       0.00000000      -0.00018993 </v>
   <v>       1.39359262       0.00000000       0.48833654 </v>
   <v>      -0.40296891       0.00000000      -1.29532312 </v>
   <v>      -0.14811748       0.00000000       0.85113500 </v>
   <v>       0.03329415       0.00000000      -0.00018993 </v>
   <v>       1.39359262       0.00000000       0.48833654 </v>
   <v>      -0.40296891       0.00000000      -1.29532312 </v>
   <v>      -0.14811748       0.00000000       0.85113500 </v>
   <v>       0.64161683       0.00000000      -0.18893012 </v>
   <v>      -1.37762565       0.00000000       1.96923403 </v>
   <v>      -0.40346270       0.95359680       0.28289614 </v>
   <v>       0.28957735      -1.05022596      -0.34246685 </v>
   <v>       0.13898906      -0.46146974      -0.86786530 </v>
   <v>      -0.40346270      -0.95359680       0.28289614 </v>
   <v>       0.28957735       1.05022596      -0.34246685 </v>
   <v>       0.13898906       0.46146974      -0.86786530 </v>
   <v>       0.64161683       0.00000000      -0.18893012 </v>
   <v>      -1.37762565       0.00000000       1.96923403 </v>
   <v>      -0.40346270       0.95359680       0.28289614 </v>
   <v>       0.28957735      -1.05022596      -0.34246685 </v>
   <v>       0.13898906      -0.46146974      -0.86786530 </v>
   <v>      -0.40346270      -0.95359680       0.28289614 </v>
   <v>       0.28957735       1.05022596      -0.34246685 </v>
   <v>       0.13898906       0.46146974      -0.86786530 </v>
  </varray>
  <varray name="stress" >
   <v>    -116.09189892       0.00000000      -1.74582671 </v>
   <v>       0.00000000     -57.66361462       0.00000000 </v>
   <v>      -1.74582623       0.00000000     -88.96305483 </v>
  </varray>
  <energy>
   <i name="e_fr_energy">   -156.35118482 </i>
   <i name="e_wo_entrp">   -156.34611446 </i>
   <i name="e_0_energy">     -0.01014072 </i>
  </energy>
  <time name="totalsc">  274.59  275.21</time>
  <eigenvalues>
   <array>
    <dimension dim="1">band</dimension>
    <dimension dim="2">kpoint</dimension>
    <dimension dim="3">spin</dimension>
    <field>eigene</field>
    <field>occ</field>
    <set>
     <set comment="spin 1">
      <set comment="kpoint 1">
       <r>  -31.8089    1.0000 </r>
       <r>  -31.8067    1.0000 </r>
       <r>  -31.7534    1.0000 </r>
       <r>  -31.7522    1.0000 </r>
       <r>  -31.0076    1.0000 </r>
       <r>  -31.0053    1.0000 </r>
       <r>  -30.9607    1.0000 </r>
       <r>  -30.9595    1.0000 </r>
       <r>  -15.0686    1.0000 </r>
       <r>  -14.7423    1.0000 </r>
       <r>  -14.7176    1.0000 </r>
       <r>  -14.6346    1.0000 </r>
       <r>  -14.4866    1.0000 </r>
       <r>  -14.4421    1.0000 </r>
       <r>  -14.4399    1.0000 </r>
       <r>  -14.1966    1.0000 </r>
       <r>  -14.1407    1.0000 </r>
       <r>  -14.0881    1.0000 </r>
       <r>  -14.0740    1.0000 </r>
       <r>  -14.0275    1.0000 </r>
       <r>  -13.9901    1.0000 </r>
       <r>  -13.9396    1.0000 </r>
       <r>  -13.7976    1.0000 </r>
       <r>  -13.7947    1.0000 </r>
       <r>  -13.7911    1.0000 </r>
       <r>  -13.6682    1.0000 </r>
       <r>  -13.6027    1.0000 </r>
       <r>  -13.5848    1.0000 </r>
       <r>  -13.5446    1.0000 </r>
       <r>  -13.5170    1.0000 </r>
       <r>  -13.5078    1.0000 </r>
       <r>  -13.4868    1.0000 </r>
       <r>  -13.4387    1.0000 </r>
       <r>  -13.4037    1.0000 </r>
       <r>  -13.3992    1.0000 </r>
       <r>  -13.1993    1.0000 </r>
       <r>  -13.0016    1.0000 </r>
       <r>  -12.9829    1.0000 </r>
       <r>  -12.9495    1.0000 </r>
       <r>  -12.9049    1.0000 </r>
       <r>  -12.8927    1.0000 </r>
       <r>  -12.8755    1.0000 </r>
       <r>  -12.8633    1.0000 </r>
       <r>  -12.7978    1.0000 </r>
       <r>  -12.7051    1.0000 </r>
       <r>  -12.6222    1.0000 </r>
       <r>  -12.5555    1.0000 </r>
       <r>  -12.4260    1.0000 </r>
       <r>   -2.8746    1.0000 </r>
       <r>   -2.8699    1.0000 </r>
       <r>   -2.4017    1.0000 </r>
       <r>   -2.3157    1.0000 </r>
       <r>   -2.1418    1.0000 </r>
       <r>   -2.1386    1.0000 </r>
       <r>   -2.0855    1.0000 </r>
       <r>   -2.0584    1.0000 </r>
       <r>   -2.0148    1.0000 </r>
       <r>   -1.7929    1.0000 </r>
       <r>   -1.7927    1.0000 </r>
       <r>   -1.7719    1.0000 </r>
       <r>   -1.5399    1.0000 </r>
       <r>   -1.5219    1.0000 </r>
       <r>   -1.4280    1.0000 </r>
       <r>   -1.4200    1.0000 </r>
       <r>   -1.4145    1.0000 </r>
       <r>   -1.3608    1.0000 </r>
       <r>   -1.3331    1.0000 </r>
       <r>   -1.2918    1.0000 </r>
       <r>   -1.2612    1.0000 </r>
       <r>   -1.2576    1.0000 </r>
       <r>   -1.2254    1.0000 </r>
       <r>   -1.2017    1.0000 </r>
       <r>   -1.1934    1.0000 </r>
       <r>   -1.1535    1.0000 </r>
       <r>   -1.1171    1.0000 </r>
       <r>   -1.1105    1.0000 </r>
       <r>   -1.0573    1.0000 </r>
       <r>   -0.9787    1.0000 </r>
       <r>   -0.9233    1.0000 </r>
       <r>   -0.8325    1.0000 </r>
       <r>   -0.7079    1.0000 </r>
       <r>   -0.5988    1.0000 </r>
       <r>   -0.5758    1.0000 </r>
       <r>   -0.4978    1.0000 </r>
       <r>   -0.4723    1.0000 </r>
       <r>   -0.4648    1.0000 </r>
       <r>   -0.4393    1.0000 </r>
       <r>   -0.4206    1.0000 </r>
       <r>   -0.4063    1.0000 </r>
       <r>   -0.3780    1.0000 </r>
       <r>   -0.1021    1.0000 </r>
       <r>    0.1710    1.0000 </r>
       <r>    0.1860    1.0000 </r>
       <r>    0.3419    1.0000 </r>
       <r>    0.4581    1.0000 </r>
       <r>    0.5228    1.0000 </r>
       <r>    0.5487    1.0000 </r>
       <r>    0.6049    1.0000 </r>
       <r>    0.6203    1.0000 </r>
       <r>    0.7687    1.0000 </r>
       <r>    0.8932    1.0000 </r>
       <r>    0.9103    1.0000 </r>
       <r>    0.9502    1.0000 </r>
       <r>    0.9826    1.0000 </r>
       <r>    1.0067    1.0000 </r>
       <r>    1.1171    1.0000 </r>
       <r>    1.1195    1.0000 </r>
       <r>    1.2538    1.0000 </r>
       <r>    1.2881    1.0000 </r>
       <r>    1.2963    1.0000 </r>
       <r>    1.2971    1.0000 </r>
       <r>    1.3344    1.0000 </r>
       <r>    1.4125    1.0000 </r>
       <r>    1.4244    1.0000 </r>
       <r>    1.4416    1.0000 </r>
       <r>    1.4523    1.0000 </r>
       <r>    1.5022    1.0000 </r>
       <r>    1.5158    1.0000 </r>
       <r>    1.5301    1.0000 </r>
       <r>    1.5718    1.0000 </r>
       <r>    1.5861    1.0000 </r>
       <r>    1.6817    1.0000 </r>
       <r>    1.8536    1.0000 </r>
       <r>    1.9906    1.0000 </r>
       <r>    2.0993    1.0000 </r>
       <r>    2.1262    1.0000 </r>
       <r>    2.1280    1.0000 </r>
       <r>    2.2152    1.0000 </r>
       <r>    2.2570    1.0000 </r>
       <r>    2.2941    1.0000 </r>
       <r>    2.3541    1.0000 </r>
       <r>    2.3709    1.0000 </r>
       <r>    2.8959    0.0000 </r>
       <r>    2.9362    0.0000 </r>
       <r>    3.1808    0.0000 </r>
       <r>    3.7356    0.0000 </r>
       <r>    3.9776    0.0000 </r>
       <r>    4.0131    0.0000 </r>
       <r>    4.6978    0.0000 </r>
       <r>    4.7557    0.0000 </r>
       <r>    5.5592    0.0000 </r>
       <r>    5.6976    0.0000 </r>
       <r>    6.1429    0.0000 </r>
       <r>    6.4334    0.0000 </r>
       <r>    6.7649    0.0000 </r>
       <r>    7.2771    0.0000 </r>
       <r>    7.3948    0.0000 </r>
       <r>    7.4622    0.0000 </r>
       <r>    7.5519    0.0000 </r>
       <r>    7.6008    0.0000 </r>
       <r>    7.6199    0.0000 </r>
       <r>    8.1850    0.0000 </r>
       <r>    8.3191    0.0000 </r>
       <r>    8.5076    0.0000 </r>
       <r>    8.5150    0.0000 </r>
       <r>    8.5714    0.0000 </r>
       <r>    8.6297    0.0000 </r>
       <r>    8.7766    0.0000 </r>
       <r>    8.8376    0.0000 </r>
       <r>    8.8920    0.0000 </r>
       <r>    8.9247    0.0000 </r>
       <r>    8.9457    0.0000 </r>
       <r>    8.9897    0.0000 </r>
       <r>    9.1026    0.0000 </r>
       <r>    9.1356    0.0000 </r>
       <r>    9.4779    0.0000 </r>
       <r>    9.5550    0.0000 </r>
       <r>    9.5565    0.0000 </r>
       <r>    9.6811    0.0000 </r>
       <r>    9.6982    0.0000 </r>
       <r>    9.7155    0.0000 </r>
       <r>    9.8534    0.0000 </r>
       <r>   10.1020    0.0000 </r>
       <r>   10.1145    0.0000 </r>
       <r>   10.1568    0.0000 </r>
       <r>   10.3835    0.0000 </r>
      </set>
      <set comment="kpoint 2">
       <r>  -31.8078    1.0000 </r>
       <r>  -31.8078    1.0000 </r>
       <r>  -31.7528    1.0000 </r>
       <r>  -31.7528    1.0000 </r>
       <r>  -31.0065    1.0000 </r>
       <r>  -31.0065    1.0000 </r>
       <r>  -30.9601    1.0000 </r>
       <r>  -30.9601    1.0000 </r>
       <r>  -14.9338    1.0000 </r>
       <r>  -14.9338    1.0000 </r>
       <r>  -14.6522    1.0000 </r>
       <r>  -14.6522    1.0000 </r>
       <r>  -14.4730    1.0000 </r>
       <r>  -14.4730    1.0000 </r>
       <r>  -14.3728    1.0000 </r>
       <r>  -14.3728    1.0000 </r>
       <r>  -14.1051    1.0000 </r>
       <r>  -14.1051    1.0000 </r>
       <r>  -14.0235    1.0000 </r>
       <r>  -14.0235    1.0000 </r>
       <r>  -13.9253    1.0000 </r>
       <r>  -13.9253    1.0000 </r>
       <r>  -13.8021    1.0000 </r>
       <r>  -13.8021    1.0000 </r>
       <r>  -13.7359    1.0000 </r>
       <r>  -13.7359    1.0000 </r>
       <r>  -13.6039    1.0000 </r>
       <r>  -13.6039    1.0000 </r>
       <r>  -13.5747    1.0000 </r>
       <r>  -13.5747    1.0000 </r>
       <r>  -13.4577    1.0000 </r>
       <r>  -13.4577    1.0000 </r>
       <r>  -13.3966    1.0000 </r>
       <r>  -13.3966    1.0000 </r>
       <r>  -13.3276    1.0000 </r>
       <r>  -13.3276    1.0000 </r>
       <r>  -12.9756    1.0000 </r>
       <r>  -12.9756    1.0000 </r>
       <r>  -12.9672    1.0000 </r>
       <r>  -12.9672    1.0000 </r>
       <r>  -12.8182    1.0000 </r>
       <r>  -12.8182    1.0000 </r>
       <r>  -12.7297    1.0000 </r>
       <r>  -12.7297    1.0000 </r>
       <r>  -12.7174    1.0000 </r>
       <r>  -12.7174    1.0000 </r>
       <r>  -12.5610    1.0000 </r>
       <r>  -12.5610    1.0000 </r>
       <r>   -2.9069    1.0000 </r>
       <r>   -2.9069    1.0000 </r>
       <r>   -2.2898    1.0000 </r>
       <r>   -2.2898    1.0000 </r>
       <r>   -2.1396    1.0000 </r>
       <r>   -2.1396    1.0000 </r>
       <r>   -2.0439    1.0000 </r>
       <r>   -2.0439    1.0000 </r>
       <r>   -1.9346    1.0000 </r>
       <r>   -1.9346    1.0000 </r>
       <r>   -1.7933    1.0000 </r>
       <r>   -1.7933    1.0000 </r>
       <r>   -1.4907    1.0000 </r>
       <r>   -1.4907    1.0000 </r>
       <r>   -1.4045    1.0000 </r>
       <r>   -1.4045    1.0000 </r>
       <r>   -1.3616    1.0000 </r>
       <r>   -1.3616    1.0000 </r>
       <r>   -1.3550    1.0000 </r>
       <r>   -1.3550    1.0000 </r>
       <r>   -1.2872    1.0000 </r>
       <r>   -1.2872    1.0000 </r>
       <r>   -1.2076    1.0000 </r>
       <r>   -1.2076    1.0000 </r>
       <r>   -1.1830    1.0000 </r>
       <r>   -1.1830    1.0000 </r>
       <r>   -1.1226    1.0000 </r>
       <r>   -1.1226    1.0000 </r>
       <r>   -1.0581    1.0000 </r>
       <r>   -1.0581    1.0000 </r>
       <r>   -0.8622    1.0000 </r>
       <r>   -0.8622    1.0000 </r>
       <r>   -0.5952    1.0000 </r>
       <r>   -0.5952    1.0000 </r>
       <r>   -0.5511    1.0000 </r>
       <r>   -0.5511    1.0000 </r>
       <r>   -0.4827    1.0000 </r>
       <r>   -0.4827    1.0000 </r>
       <r>   -0.4369    1.0000 </r>
       <r>   -0.4369    1.0000 </r>
       <r>   -0.3817    1.0000 </r>
       <r>   -0.3817    1.0000 </r>
       <r>    0.1214    1.0000 </r>
       <r>    0.1214    1.0000 </r>
       <r>    0.2819    1.0000 </r>
       <r>    0.2819    1.0000 </r>
       <r>    0.4125    1.0000 </r>
       <r>    0.4125    1.0000 </r>
       <r>    0.4204    1.0000 </r>
       <r>    0.4204    1.0000 </r>
       <r>    0.5564    1.0000 </r>
       <r>    0.5564    1.0000 </r>
       <r>    0.9421    1.0000 </r>
       <r>    0.9421    1.0000 </r>
       <r>    1.0579    1.0000 </r>
       <r>    1.0579    1.0000 </r>
       <r>    1.0735    1.0000 </r>
       <r>    1.0735    1.0000 </r>
       <r>    1.1339    1.0000 </r>
       <r>    1.1339    1.0000 </r>
       <r>    1.2728    1.0000 </r>
       <r>    1.2728    1.0000 </r>
       <r>    1.3583    1.0000 </r>
       <r>    1.3583    1.0000 </r>
       <r>    1.3898    1.0000 </r>
       <r>    1.3898    1.0000 </r>
       <r>    1.4299    1.0000 </r>
       <r>    1.4299    1.0000 </r>
       <r>    1.4771    1.0000 </r>
       <r>    1.4771    1.0000 </r>
       <r>    1.6430    1.0000 </r>
       <r>    1.6430    1.0000 </r>
       <r>    1.6650    1.0000 </r>
       <r>    1.6650    1.0000 </r>
       <r>    1.9431    1.0000 </r>
       <r>    1.9431    1.0000 </r>
       <r>    2.1687    1.0000 </r>
       <r>    2.1687    1.0000 </r>
       <r>    2.1696    1.0000 </r>
       <r>    2.1696    1.0000 </r>
       <r>    2.2678    1.0000 </r>
       <r>    2.2678    1.0000 </r>
       <r>    2.6159    0.2147 </r>
       <r>    2.6159    0.2147 </r>
       <r>    2.9997    0.0000 </r>
       <r>    2.9997    0.0000 </r>
       <r>    3.0843    0.0000 </r>
       <r>    3.0843    0.0000 </r>
       <r>    3.8888    0.0000 </r>
       <r>    3.8888    0.0000 </r>
       <r>    5.0961    0.0000 </r>
       <r>    5.0961    0.0000 </r>
       <r>    5.4360    0.0000 </r>
       <r>    5.4360    0.0000 </r>
       <r>    6.0294    0.0000 </r>
       <r>    6.0294    0.0000 </r>
       <r>    6.7624    0.0000 </r>
       <r>    6.7624    0.0000 </r>
       <r>    7.4355    0.0000 </r>
       <r>    7.4355    0.0000 </r>
       <r>    7.9111    0.0000 </r>
       <r>    7.9111    0.0000 </r>
       <r>    8.0971    0.0000 </r>
       <r>    8.0971    0.0000 </r>
       <r>    8.1875    0.0000 </r>
       <r>    8.1875    0.0000 </r>
       <r>    8.4428    0.0000 </r>
       <r>    8.4428    0.0000 </r>
       <r>    8.9102    0.0000 </r>
       <r>    8.9102    0.0000 </r>
       <r>    8.9858    0.0000 </r>
       <r>    8.9858    0.0000 </r>
       <r>    9.1166    0.0000 </r>
       <r>    9.1166    0.0000 </r>
       <r>    9.1855    0.0000 </r>
       <r>    9.1855    0.0000 </r>
       <r>    9.5467    0.0000 </r>
       <r>    9.5467    0.0000 </r>
       <r>    9.6083    0.0000 </r>
       <r>    9.6083    0.0000 </r>
       <r>    9.7741    0.0000 </r>
       <r>    9.7741    0.0000 </r>
       <r>    9.7997    0.0000 </r>
       <r>    9.7997    0.0000 </r>
       <r>   10.1100    0.0000 </r>
       <r>   10.1139    0.0000 </r>
       <r>   10.2339    0.0000 </r>
       <r>   10.2401    0.0000 </r>
      </set>
      <set comment="kpoint 3">
       <r>  -31.8081    1.0000 </r>
       <r>  -31.8066    1.0000 </r>
       <r>  -31.7534    1.0000 </r>
       <r>  -31.7526    1.0000 </r>
       <r>  -31.0068    1.0000 </r>
       <r>  -31.0052    1.0000 </r>
       <r>  -30.9608    1.0000 </r>
       <r>  -30.9599    1.0000 </r>
       <r>  -14.9787    1.0000 </r>
       <r>  -14.7331    1.0000 </r>
       <r>  -14.7153    1.0000 </r>
       <r>  -14.6917    1.0000 </r>
       <r>  -14.5578    1.0000 </r>
       <r>  -14.5221    1.0000 </r>
       <r>  -14.4593    1.0000 </r>
       <r>  -14.2631    1.0000 </r>
       <r>  -14.2563    1.0000 </r>
       <r>  -14.1610    1.0000 </r>
       <r>  -14.1148    1.0000 </r>
       <r>  -14.0214    1.0000 </r>
       <r>  -14.0061    1.0000 </r>
       <r>  -14.0028    1.0000 </r>
       <r>  -13.8108    1.0000 </r>
       <r>  -13.7636    1.0000 </r>
       <r>  -13.7232    1.0000 </r>
       <r>  -13.7069    1.0000 </r>
       <r>  -13.6712    1.0000 </r>
       <r>  -13.6136    1.0000 </r>
       <r>  -13.5460    1.0000 </r>
       <r>  -13.5272    1.0000 </r>
       <r>  -13.4455    1.0000 </r>
       <r>  -13.3966    1.0000 </r>
       <r>  -13.3649    1.0000 </r>
       <r>  -13.3331    1.0000 </r>
       <r>  -13.3041    1.0000 </r>
       <r>  -13.2121    1.0000 </r>
       <r>  -13.0236    1.0000 </r>
       <r>  -12.9630    1.0000 </r>
       <r>  -12.9593    1.0000 </r>
       <r>  -12.9051    1.0000 </r>
       <r>  -12.8807    1.0000 </r>
       <r>  -12.7988    1.0000 </r>
       <r>  -12.7904    1.0000 </r>
       <r>  -12.6915    1.0000 </r>
       <r>  -12.6625    1.0000 </r>
       <r>  -12.5988    1.0000 </r>
       <r>  -12.5628    1.0000 </r>
       <r>  -12.4667    1.0000 </r>
       <r>   -2.7139    1.0000 </r>
       <r>   -2.6862    1.0000 </r>
       <r>   -2.4602    1.0000 </r>
       <r>   -2.4225    1.0000 </r>
       <r>   -2.2358    1.0000 </r>
       <r>   -2.1705    1.0000 </r>
       <r>   -1.9038    1.0000 </r>
       <r>   -1.8992    1.0000 </r>
       <r>   -1.8871    1.0000 </r>
       <r>   -1.8654    1.0000 </r>
       <r>   -1.8372    1.0000 </r>
       <r>   -1.6826    1.0000 </r>
       <r>   -1.5530    1.0000 </r>
       <r>   -1.5329    1.0000 </r>
       <r>   -1.4845    1.0000 </r>
       <r>   -1.4360    1.0000 </r>
       <r>   -1.4264    1.0000 </r>
       <r>   -1.3803    1.0000 </r>
       <r>   -1.3627    1.0000 </r>
       <r>   -1.3466    1.0000 </r>
       <r>   -1.2854    1.0000 </r>
       <r>   -1.2759    1.0000 </r>
       <r>   -1.2426    1.0000 </r>
       <r>   -1.1782    1.0000 </r>
       <r>   -1.1472    1.0000 </r>
       <r>   -1.1331    1.0000 </r>
       <r>   -1.1141    1.0000 </r>
       <r>   -1.0658    1.0000 </r>
       <r>   -1.0538    1.0000 </r>
       <r>   -0.9782    1.0000 </r>
       <r>   -0.8205    1.0000 </r>
       <r>   -0.7839    1.0000 </r>
       <r>   -0.6726    1.0000 </r>
       <r>   -0.6531    1.0000 </r>
       <r>   -0.5672    1.0000 </r>
       <r>   -0.5341    1.0000 </r>
       <r>   -0.5152    1.0000 </r>
       <r>   -0.5011    1.0000 </r>
       <r>   -0.4837    1.0000 </r>
       <r>   -0.4615    1.0000 </r>
       <r>   -0.4345    1.0000 </r>
       <r>   -0.4273    1.0000 </r>
       <r>    0.0457    1.0000 </r>
       <r>    0.3344    1.0000 </r>
       <r>    0.3661    1.0000 </r>
       <r>    0.4013    1.0000 </r>
       <r>    0.4661    1.0000 </r>
       <r>    0.5205    1.0000 </r>
       <r>    0.5374    1.0000 </r>
       <r>    0.6831    1.0000 </r>
       <r>    0.7232    1.0000 </r>
       <r>    0.7835    1.0000 </r>
       <r>    0.7915    1.0000 </r>
       <r>    0.8687    1.0000 </r>
       <r>    0.9218    1.0000 </r>
       <r>    0.9293    1.0000 </r>
       <r>    1.0146    1.0000 </r>
       <r>    1.0401    1.0000 </r>
       <r>    1.0609    1.0000 </r>
       <r>    1.1088    1.0000 </r>
       <r>    1.1461    1.0000 </r>
       <r>    1.2182    1.0000 </r>
       <r>    1.2655    1.0000 </r>
       <r>    1.3295    1.0000 </r>
       <r>    1.3741    1.0000 </r>
       <r>    1.3791    1.0000 </r>
       <r>    1.4150    1.0000 </r>
       <r>    1.4242    1.0000 </r>
       <r>    1.4636    1.0000 </r>
       <r>    1.4695    1.0000 </r>
       <r>    1.5392    1.0000 </r>
       <r>    1.5690    1.0000 </r>
       <r>    1.6460    1.0000 </r>
       <r>    1.7346    1.0000 </r>
       <r>    1.7681    1.0000 </r>
       <r>    1.8154    1.0000 </r>
       <r>    1.8835    1.0000 </r>
       <r>    1.9533    1.0000 </r>
       <r>    2.0598    1.0000 </r>
       <r>    2.0601    1.0000 </r>
       <r>    2.1073    1.0000 </r>
       <r>    2.1275    1.0000 </r>
       <r>    2.3395    1.0000 </r>
       <r>    2.5361    0.9290 </r>
       <r>    2.6616    0.0186 </r>
       <r>    2.6851    0.0030 </r>
       <r>    3.2475    0.0000 </r>
       <r>    3.5717    0.0000 </r>
       <r>    3.5806    0.0000 </r>
       <r>    3.7847    0.0000 </r>
       <r>    4.9916    0.0000 </r>
       <r>    5.2164    0.0000 </r>
       <r>    5.2657    0.0000 </r>
       <r>    5.4976    0.0000 </r>
       <r>    6.1360    0.0000 </r>
       <r>    6.5161    0.0000 </r>
       <r>    7.0606    0.0000 </r>
       <r>    7.4701    0.0000 </r>
       <r>    7.5074    0.0000 </r>
       <r>    7.7144    0.0000 </r>
       <r>    7.7769    0.0000 </r>
       <r>    7.9222    0.0000 </r>
       <r>    8.0837    0.0000 </r>
       <r>    8.1335    0.0000 </r>
       <r>    8.2424    0.0000 </r>
       <r>    8.2996    0.0000 </r>
       <r>    8.4311    0.0000 </r>
       <r>    8.6365    0.0000 </r>
       <r>    8.6742    0.0000 </r>
       <r>    8.7837    0.0000 </r>
       <r>    8.8273    0.0000 </r>
       <r>    8.9614    0.0000 </r>
       <r>    9.0393    0.0000 </r>
       <r>    9.0641    0.0000 </r>
       <r>    9.1418    0.0000 </r>
       <r>    9.2189    0.0000 </r>
       <r>    9.4100    0.0000 </r>
       <r>    9.5215    0.0000 </r>
       <r>    9.6727    0.0000 </r>
       <r>    9.7063    0.0000 </r>
       <r>    9.8191    0.0000 </r>
       <r>    9.8458    0.0000 </r>
       <r>    9.8591    0.0000 </r>
       <r>    9.9556    0.0000 </r>
       <r>   10.0308    0.0000 </r>
       <r>   10.0414    0.0000 </r>
       <r>   10.1872    0.0000 </r>
       <r>   10.3089    0.0000 </r>
      </set>
      <set comment="kpoint 4">
       <r>  -31.8074    1.0000 </r>
       <r>  -31.8074    1.0000 </r>
       <r>  -31.7530    1.0000 </r>
       <r>  -31.7530    1.0000 </r>
       <r>  -31.0060    1.0000 </r>
       <r>  -31.0060    1.0000 </r>
       <r>  -30.9604    1.0000 </r>
       <r>  -30.9604    1.0000 </r>
       <r>  -14.8844    1.0000 </r>
       <r>  -14.8844    1.0000 </r>
       <r>  -14.6773    1.0000 </r>
       <r>  -14.6773    1.0000 </r>
       <r>  -14.5815    1.0000 </r>
       <r>  -14.5815    1.0000 </r>
       <r>  -14.3428    1.0000 </r>
       <r>  -14.3428    1.0000 </r>
       <r>  -14.1647    1.0000 </r>
       <r>  -14.1647    1.0000 </r>
       <r>  -14.0918    1.0000 </r>
       <r>  -14.0918    1.0000 </r>
       <r>  -13.9922    1.0000 </r>
       <r>  -13.9922    1.0000 </r>
       <r>  -13.7575    1.0000 </r>
       <r>  -13.7575    1.0000 </r>
       <r>  -13.7352    1.0000 </r>
       <r>  -13.7352    1.0000 </r>
       <r>  -13.6426    1.0000 </r>
       <r>  -13.6426    1.0000 </r>
       <r>  -13.5674    1.0000 </r>
       <r>  -13.5674    1.0000 </r>
       <r>  -13.4237    1.0000 </r>
       <r>  -13.4237    1.0000 </r>
       <r>  -13.3297    1.0000 </r>
       <r>  -13.3297    1.0000 </r>
       <r>  -13.2789    1.0000 </r>
       <r>  -13.2789    1.0000 </r>
       <r>  -12.9777    1.0000 </r>
       <r>  -12.9777    1.0000 </r>
       <r>  -12.9470    1.0000 </r>
       <r>  -12.9470    1.0000 </r>
       <r>  -12.8252    1.0000 </r>
       <r>  -12.8252    1.0000 </r>
       <r>  -12.7513    1.0000 </r>
       <r>  -12.7513    1.0000 </r>
       <r>  -12.5836    1.0000 </r>
       <r>  -12.5836    1.0000 </r>
       <r>  -12.5483    1.0000 </r>
       <r>  -12.5483    1.0000 </r>
       <r>   -2.7153    1.0000 </r>
       <r>   -2.7153    1.0000 </r>
       <r>   -2.4080    1.0000 </r>
       <r>   -2.4080    1.0000 </r>
       <r>   -2.2326    1.0000 </r>
       <r>   -2.2326    1.0000 </r>
       <r>   -1.8910    1.0000 </r>
       <r>   -1.8910    1.0000 </r>
       <r>   -1.8733    1.0000 </r>
       <r>   -1.8733    1.0000 </r>
       <r>   -1.8002    1.0000 </r>
       <r>   -1.8002    1.0000 </r>
       <r>   -1.5803    1.0000 </r>
       <r>   -1.5803    1.0000 </r>
       <r>   -1.4321    1.0000 </r>
       <r>   -1.4321    1.0000 </r>
       <r>   -1.3984    1.0000 </r>
       <r>   -1.3984    1.0000 </r>
       <r>   -1.3319    1.0000 </r>
       <r>   -1.3319    1.0000 </r>
       <r>   -1.2670    1.0000 </r>
       <r>   -1.2670    1.0000 </r>
       <r>   -1.2242    1.0000 </r>
       <r>   -1.2242    1.0000 </r>
       <r>   -1.1473    1.0000 </r>
       <r>   -1.1473    1.0000 </r>
       <r>   -1.0786    1.0000 </r>
       <r>   -1.0786    1.0000 </r>
       <r>   -0.8935    1.0000 </r>
       <r>   -0.8935    1.0000 </r>
       <r>   -0.8612    1.0000 </r>
       <r>   -0.8612    1.0000 </r>
       <r>   -0.6612    1.0000 </r>
       <r>   -0.6612    1.0000 </r>
       <r>   -0.5646    1.0000 </r>
       <r>   -0.5646    1.0000 </r>
       <r>   -0.5208    1.0000 </r>
       <r>   -0.5208    1.0000 </r>
       <r>   -0.4469    1.0000 </r>
       <r>   -0.4469    1.0000 </r>
       <r>   -0.4128    1.0000 </r>
       <r>   -0.4128    1.0000 </r>
       <r>    0.1879    1.0000 </r>
       <r>    0.1879    1.0000 </r>
       <r>    0.2697    1.0000 </r>
       <r>    0.2697    1.0000 </r>
       <r>    0.4332    1.0000 </r>
       <r>    0.4332    1.0000 </r>
       <r>    0.5742    1.0000 </r>
       <r>    0.5742    1.0000 </r>
       <r>    0.7612    1.0000 </r>
       <r>    0.7612    1.0000 </r>
       <r>    0.8472    1.0000 </r>
       <r>    0.8472    1.0000 </r>
       <r>    0.9750    1.0000 </r>
       <r>    0.9750    1.0000 </r>
       <r>    1.0221    1.0000 </r>
       <r>    1.0221    1.0000 </r>
       <r>    1.1043    1.0000 </r>
       <r>    1.1043    1.0000 </r>
       <r>    1.1835    1.0000 </r>
       <r>    1.1835    1.0000 </r>
       <r>    1.2721    1.0000 </r>
       <r>    1.2721    1.0000 </r>
       <r>    1.3520    1.0000 </r>
       <r>    1.3520    1.0000 </r>
       <r>    1.4176    1.0000 </r>
       <r>    1.4176    1.0000 </r>
       <r>    1.5035    1.0000 </r>
       <r>    1.5035    1.0000 </r>
       <r>    1.6557    1.0000 </r>
       <r>    1.6557    1.0000 </r>
       <r>    1.7058    1.0000 </r>
       <r>    1.7058    1.0000 </r>
       <r>    1.7516    1.0000 </r>
       <r>    1.7516    1.0000 </r>
       <r>    1.8118    1.0000 </r>
       <r>    1.8118    1.0000 </r>
       <r>    2.0631    1.0000 </r>
       <r>    2.0631    1.0000 </r>
       <r>    2.1476    1.0000 </r>
       <r>    2.1476    1.0000 </r>
       <r>    2.5294    0.9512 </r>
       <r>    2.5294    0.9512 </r>
       <r>    2.8881    0.0000 </r>
       <r>    2.8881    0.0000 </r>
       <r>    3.1498    0.0000 </r>
       <r>    3.1498    0.0000 </r>
       <r>    3.6942    0.0000 </r>
       <r>    3.6942    0.0000 </r>
       <r>    5.1842    0.0000 </r>
       <r>    5.1842    0.0000 </r>
       <r>    5.6478    0.0000 </r>
       <r>    5.6478    0.0000 </r>
       <r>    5.8799    0.0000 </r>
       <r>    5.8799    0.0000 </r>
       <r>    7.0560    0.0000 </r>
       <r>    7.0560    0.0000 </r>
       <r>    7.5185    0.0000 </r>
       <r>    7.5185    0.0000 </r>
       <r>    7.7329    0.0000 </r>
       <r>    7.7329    0.0000 </r>
       <r>    8.1998    0.0000 </r>
       <r>    8.1998    0.0000 </r>
       <r>    8.4628    0.0000 </r>
       <r>    8.4628    0.0000 </r>
       <r>    8.5916    0.0000 </r>
       <r>    8.5916    0.0000 </r>
       <r>    8.7999    0.0000 </r>
       <r>    8.7999    0.0000 </r>
       <r>    8.9716    0.0000 </r>
       <r>    8.9716    0.0000 </r>
       <r>    9.0311    0.0000 </r>
       <r>    9.0311    0.0000 </r>
       <r>    9.2649    0.0000 </r>
       <r>    9.2649    0.0000 </r>
       <r>    9.4106    0.0000 </r>
       <r>    9.4106    0.0000 </r>
       <r>    9.5715    0.0000 </r>
       <r>    9.5715    0.0000 </r>
       <r>    9.8325    0.0000 </r>
       <r>    9.8325    0.0000 </r>
       <r>    9.9649    0.0000 </r>
       <r>    9.9650    0.0000 </r>
       <r>   10.0970    0.0000 </r>
       <r>   10.0974    0.0000 </r>
       <r>   10.3129    0.0000 </r>
       <r>   10.3376    0.0000 </r>
      </set>
      <set comment="kpoint 5">
       <r>  -31.8069    1.0000 </r>
       <r>  -31.8069    1.0000 </r>
       <r>  -31.7532    1.0000 </r>
       <r>  -31.7532    1.0000 </r>
       <r>  -31.0055    1.0000 </r>
       <r>  -31.0055    1.0000 </r>
       <r>  -30.9607    1.0000 </r>
       <r>  -30.9607    1.0000 </r>
       <r>  -14.8347    1.0000 </r>
       <r>  -14.8347    1.0000 </r>
       <r>  -14.6923    1.0000 </r>
       <r>  -14.6923    1.0000 </r>
       <r>  -14.5869    1.0000 </r>
       <r>  -14.5869    1.0000 </r>
       <r>  -14.4805    1.0000 </r>
       <r>  -14.4805    1.0000 </r>
       <r>  -14.1538    1.0000 </r>
       <r>  -14.1538    1.0000 </r>
       <r>  -14.1143    1.0000 </r>
       <r>  -14.1143    1.0000 </r>
       <r>  -14.0653    1.0000 </r>
       <r>  -14.0653    1.0000 </r>
       <r>  -13.8504    1.0000 </r>
       <r>  -13.8504    1.0000 </r>
       <r>  -13.6994    1.0000 </r>
       <r>  -13.6994    1.0000 </r>
       <r>  -13.6648    1.0000 </r>
       <r>  -13.6648    1.0000 </r>
       <r>  -13.5146    1.0000 </r>
       <r>  -13.5146    1.0000 </r>
       <r>  -13.3806    1.0000 </r>
       <r>  -13.3806    1.0000 </r>
       <r>  -13.3147    1.0000 </r>
       <r>  -13.3147    1.0000 </r>
       <r>  -13.1833    1.0000 </r>
       <r>  -13.1833    1.0000 </r>
       <r>  -12.9802    1.0000 </r>
       <r>  -12.9802    1.0000 </r>
       <r>  -12.9339    1.0000 </r>
       <r>  -12.9339    1.0000 </r>
       <r>  -12.8343    1.0000 </r>
       <r>  -12.8343    1.0000 </r>
       <r>  -12.6669    1.0000 </r>
       <r>  -12.6669    1.0000 </r>
       <r>  -12.5823    1.0000 </r>
       <r>  -12.5823    1.0000 </r>
       <r>  -12.5197    1.0000 </r>
       <r>  -12.5197    1.0000 </r>
       <r>   -2.4997    1.0000 </r>
       <r>   -2.4997    1.0000 </r>
       <r>   -2.4279    1.0000 </r>
       <r>   -2.4279    1.0000 </r>
       <r>   -2.3360    1.0000 </r>
       <r>   -2.3360    1.0000 </r>
       <r>   -1.9581    1.0000 </r>
       <r>   -1.9581    1.0000 </r>
       <r>   -1.8348    1.0000 </r>
       <r>   -1.8348    1.0000 </r>
       <r>   -1.5592    1.0000 </r>
       <r>   -1.5592    1.0000 </r>
       <r>   -1.5393    1.0000 </r>
       <r>   -1.5393    1.0000 </r>
       <r>   -1.5119    1.0000 </r>
       <r>   -1.5119    1.0000 </r>
       <r>   -1.4289    1.0000 </r>
       <r>   -1.4289    1.0000 </r>
       <r>   -1.3646    1.0000 </r>
       <r>   -1.3646    1.0000 </r>
       <r>   -1.3503    1.0000 </r>
       <r>   -1.3503    1.0000 </r>
       <r>   -1.2277    1.0000 </r>
       <r>   -1.2277    1.0000 </r>
       <r>   -1.0594    1.0000 </r>
       <r>   -1.0594    1.0000 </r>
       <r>   -1.0213    1.0000 </r>
       <r>   -1.0213    1.0000 </r>
       <r>   -0.8295    1.0000 </r>
       <r>   -0.8295    1.0000 </r>
       <r>   -0.8153    1.0000 </r>
       <r>   -0.8153    1.0000 </r>
       <r>   -0.7468    1.0000 </r>
       <r>   -0.7468    1.0000 </r>
       <r>   -0.6194    1.0000 </r>
       <r>   -0.6194    1.0000 </r>
       <r>   -0.5434    1.0000 </r>
       <r>   -0.5434    1.0000 </r>
       <r>   -0.5213    1.0000 </r>
       <r>   -0.5213    1.0000 </r>
       <r>   -0.4090    1.0000 </r>
       <r>   -0.4090    1.0000 </r>
       <r>    0.2087    1.0000 </r>
       <r>    0.2087    1.0000 </r>
       <r>    0.3461    1.0000 </r>
       <r>    0.3461    1.0000 </r>
       <r>    0.5264    1.0000 </r>
       <r>    0.5264    1.0000 </r>
       <r>    0.5790    1.0000 </r>
       <r>    0.5790    1.0000 </r>
       <r>    0.8268    1.0000 </r>
       <r>    0.8268    1.0000 </r>
       <r>    0.9183    1.0000 </r>
       <r>    0.9183    1.0000 </r>
       <r>    0.9535    1.0000 </r>
       <r>    0.9535    1.0000 </r>
       <r>    1.0080    1.0000 </r>
       <r>    1.0080    1.0000 </r>
       <r>    1.0937    1.0000 </r>
       <r>    1.0937    1.0000 </r>
       <r>    1.1464    1.0000 </r>
       <r>    1.1464    1.0000 </r>
       <r>    1.2079    1.0000 </r>
       <r>    1.2079    1.0000 </r>
       <r>    1.2974    1.0000 </r>
       <r>    1.2974    1.0000 </r>
       <r>    1.3749    1.0000 </r>
       <r>    1.3749    1.0000 </r>
       <r>    1.4198    1.0000 </r>
       <r>    1.4198    1.0000 </r>
       <r>    1.4926    1.0000 </r>
       <r>    1.4926    1.0000 </r>
       <r>    1.6461    1.0000 </r>
       <r>    1.6461    1.0000 </r>
       <r>    1.7209    1.0000 </r>
       <r>    1.7209    1.0000 </r>
       <r>    1.8656    1.0000 </r>
       <r>    1.8656    1.0000 </r>
       <r>    1.8706    1.0000 </r>
       <r>    1.8706    1.0000 </r>
       <r>    2.0615    1.0000 </r>
       <r>    2.0615    1.0000 </r>
       <r>    2.2853    1.0000 </r>
       <r>    2.2853    1.0000 </r>
       <r>    2.7250    0.0001 </r>
       <r>    2.7250    0.0001 </r>
       <r>    3.2058    0.0000 </r>
       <r>    3.2058    0.0000 </r>
       <r>    3.3909    0.0000 </r>
       <r>    3.3909    0.0000 </r>
       <r>    5.0385    0.0000 </r>
       <r>    5.0385    0.0000 </r>
       <r>    6.0800    0.0000 </r>
       <r>    6.0800    0.0000 </r>
       <r>    6.1562    0.0000 </r>
       <r>    6.1562    0.0000 </r>
       <r>    7.2780    0.0000 </r>
       <r>    7.2780    0.0000 </r>
       <r>    7.3728    0.0000 </r>
       <r>    7.3728    0.0000 </r>
       <r>    8.0158    0.0000 </r>
       <r>    8.0158    0.0000 </r>
       <r>    8.2679    0.0000 </r>
       <r>    8.2679    0.0000 </r>
       <r>    8.4018    0.0000 </r>
       <r>    8.4018    0.0000 </r>
       <r>    8.4413    0.0000 </r>
       <r>    8.4413    0.0000 </r>
       <r>    8.6575    0.0000 </r>
       <r>    8.6575    0.0000 </r>
       <r>    8.7732    0.0000 </r>
       <r>    8.7732    0.0000 </r>
       <r>    9.0999    0.0000 </r>
       <r>    9.0999    0.0000 </r>
       <r>    9.4052    0.0000 </r>
       <r>    9.4052    0.0000 </r>
       <r>    9.5253    0.0000 </r>
       <r>    9.5253    0.0000 </r>
       <r>    9.7585    0.0000 </r>
       <r>    9.7585    0.0000 </r>
       <r>   10.0233    0.0000 </r>
       <r>   10.0238    0.0000 </r>
       <r>   10.1116    0.0000 </r>
       <r>   10.1130    0.0000 </r>
       <r>   10.1608    0.0000 </r>
       <r>   10.1878    0.0000 </r>
       <r>   10.3051    0.0000 </r>
       <r>   10.3898    0.0000 </r>
      </set>
      <set comment="kpoint 6">
       <r>  -31.8069    1.0000 </r>
       <r>  -31.8069    1.0000 </r>
       <r>  -31.7532    1.0000 </r>
       <r>  -31.7532    1.0000 </r>
       <r>  -31.0055    1.0000 </r>
       <r>  -31.0055    1.0000 </r>
       <r>  -30.9607    1.0000 </r>
       <r>  -30.9607    1.0000 </r>
       <r>  -14.8699    1.0000 </r>
       <r>  -14.8699    1.0000 </r>
       <r>  -14.6435    1.0000 </r>
       <r>  -14.6435    1.0000 </r>
       <r>  -14.6318    1.0000 </r>
       <r>  -14.6318    1.0000 </r>
       <r>  -14.4380    1.0000 </r>
       <r>  -14.4380    1.0000 </r>
       <r>  -14.1679    1.0000 </r>
       <r>  -14.1679    1.0000 </r>
       <r>  -14.0863    1.0000 </r>
       <r>  -14.0863    1.0000 </r>
       <r>  -14.0259    1.0000 </r>
       <r>  -14.0259    1.0000 </r>
       <r>  -13.8265    1.0000 </r>
       <r>  -13.8265    1.0000 </r>
       <r>  -13.7531    1.0000 </r>
       <r>  -13.7531    1.0000 </r>
       <r>  -13.6918    1.0000 </r>
       <r>  -13.6918    1.0000 </r>
       <r>  -13.5729    1.0000 </r>
       <r>  -13.5729    1.0000 </r>
       <r>  -13.3598    1.0000 </r>
       <r>  -13.3598    1.0000 </r>
       <r>  -13.2445    1.0000 </r>
       <r>  -13.2445    1.0000 </r>
       <r>  -13.2174    1.0000 </r>
       <r>  -13.2174    1.0000 </r>
       <r>  -13.0280    1.0000 </r>
       <r>  -13.0280    1.0000 </r>
       <r>  -12.9250    1.0000 </r>
       <r>  -12.9250    1.0000 </r>
       <r>  -12.8259    1.0000 </r>
       <r>  -12.8259    1.0000 </r>
       <r>  -12.7132    1.0000 </r>
       <r>  -12.7132    1.0000 </r>
       <r>  -12.5435    1.0000 </r>
       <r>  -12.5435    1.0000 </r>
       <r>  -12.4862    1.0000 </r>
       <r>  -12.4862    1.0000 </r>
       <r>   -2.4811    1.0000 </r>
       <r>   -2.4811    1.0000 </r>
       <r>   -2.4372    1.0000 </r>
       <r>   -2.4372    1.0000 </r>
       <r>   -2.3638    1.0000 </r>
       <r>   -2.3638    1.0000 </r>
       <r>   -1.9271    1.0000 </r>
       <r>   -1.9271    1.0000 </r>
       <r>   -1.8426    1.0000 </r>
       <r>   -1.8426    1.0000 </r>
       <r>   -1.6894    1.0000 </r>
       <r>   -1.6894    1.0000 </r>
       <r>   -1.5674    1.0000 </r>
       <r>   -1.5674    1.0000 </r>
       <r>   -1.4526    1.0000 </r>
       <r>   -1.4526    1.0000 </r>
       <r>   -1.4060    1.0000 </r>
       <r>   -1.4060    1.0000 </r>
       <r>   -1.3689    1.0000 </r>
       <r>   -1.3689    1.0000 </r>
       <r>   -1.2650    1.0000 </r>
       <r>   -1.2650    1.0000 </r>
       <r>   -1.1963    1.0000 </r>
       <r>   -1.1963    1.0000 </r>
       <r>   -1.0939    1.0000 </r>
       <r>   -1.0939    1.0000 </r>
       <r>   -0.9964    1.0000 </r>
       <r>   -0.9964    1.0000 </r>
       <r>   -0.9781    1.0000 </r>
       <r>   -0.9781    1.0000 </r>
       <r>   -0.7620    1.0000 </r>
       <r>   -0.7620    1.0000 </r>
       <r>   -0.7336    1.0000 </r>
       <r>   -0.7336    1.0000 </r>
       <r>   -0.6374    1.0000 </r>
       <r>   -0.6374    1.0000 </r>
       <r>   -0.5482    1.0000 </r>
       <r>   -0.5482    1.0000 </r>
       <r>   -0.5134    1.0000 </r>
       <r>   -0.5134    1.0000 </r>
       <r>   -0.3928    1.0000 </r>
       <r>   -0.3928    1.0000 </r>
       <r>    0.2573    1.0000 </r>
       <r>    0.2573    1.0000 </r>
       <r>    0.4304    1.0000 </r>
       <r>    0.4304    1.0000 </r>
       <r>    0.5831    1.0000 </r>
       <r>    0.5831    1.0000 </r>
       <r>    0.6280    1.0000 </r>
       <r>    0.6280    1.0000 </r>
       <r>    0.7420    1.0000 </r>
       <r>    0.7420    1.0000 </r>
       <r>    0.8080    1.0000 </r>
       <r>    0.8080    1.0000 </r>
       <r>    0.9691    1.0000 </r>
       <r>    0.9691    1.0000 </r>
       <r>    1.0266    1.0000 </r>
       <r>    1.0266    1.0000 </r>
       <r>    1.1603    1.0000 </r>
       <r>    1.1603    1.0000 </r>
       <r>    1.1852    1.0000 </r>
       <r>    1.1852    1.0000 </r>
       <r>    1.2344    1.0000 </r>
       <r>    1.2344    1.0000 </r>
       <r>    1.3171    1.0000 </r>
       <r>    1.3171    1.0000 </r>
       <r>    1.3836    1.0000 </r>
       <r>    1.3836    1.0000 </r>
       <r>    1.3956    1.0000 </r>
       <r>    1.3956    1.0000 </r>
       <r>    1.4852    1.0000 </r>
       <r>    1.4852    1.0000 </r>
       <r>    1.5938    1.0000 </r>
       <r>    1.5938    1.0000 </r>
       <r>    1.6597    1.0000 </r>
       <r>    1.6597    1.0000 </r>
       <r>    1.7390    1.0000 </r>
       <r>    1.7390    1.0000 </r>
       <r>    1.8856    1.0000 </r>
       <r>    1.8856    1.0000 </r>
       <r>    2.0019    1.0000 </r>
       <r>    2.0019    1.0000 </r>
       <r>    2.2126    1.0000 </r>
       <r>    2.2126    1.0000 </r>
       <r>    2.7352    0.0000 </r>
       <r>    2.7352    0.0000 </r>
       <r>    3.3694    0.0000 </r>
       <r>    3.3694    0.0000 </r>
       <r>    3.6458    0.0000 </r>
       <r>    3.6458    0.0000 </r>
       <r>    4.8683    0.0000 </r>
       <r>    4.8683    0.0000 </r>
       <r>    6.1141    0.0000 </r>
       <r>    6.1141    0.0000 </r>
       <r>    6.3872    0.0000 </r>
       <r>    6.3872    0.0000 </r>
       <r>    6.8051    0.0000 </r>
       <r>    6.8051    0.0000 </r>
       <r>    7.2592    0.0000 </r>
       <r>    7.2592    0.0000 </r>
       <r>    7.7011    0.0000 </r>
       <r>    7.7011    0.0000 </r>
       <r>    8.0491    0.0000 </r>
       <r>    8.0491    0.0000 </r>
       <r>    8.4070    0.0000 </r>
       <r>    8.4070    0.0000 </r>
       <r>    8.6171    0.0000 </r>
       <r>    8.6171    0.0000 </r>
       <r>    8.6927    0.0000 </r>
       <r>    8.6927    0.0000 </r>
       <r>    9.0544    0.0000 </r>
       <r>    9.0544    0.0000 </r>
       <r>    9.2977    0.0000 </r>
       <r>    9.2977    0.0000 </r>
       <r>    9.3139    0.0000 </r>
       <r>    9.3139    0.0000 </r>
       <r>    9.4989    0.0000 </r>
       <r>    9.4989    0.0000 </r>
       <r>    9.6849    0.0000 </r>
       <r>    9.6849    0.0000 </r>
       <r>    9.9535    0.0000 </r>
       <r>    9.9535    0.0000 </r>
       <r>   10.0452    0.0000 </r>
       <r>   10.0452    0.0000 </r>
       <r>   10.3672    0.0000 </r>
       <r>   10.3782    0.0000 </r>
       <r>   10.4692    0.0000 </r>
       <r>   10.4929    0.0000 </r>
      </set>
      <set comment="kpoint 7">
       <r>  -31.8088    1.0000 </r>
       <r>  -31.8067    1.0000 </r>
       <r>  -31.7534    1.0000 </r>
       <r>  -31.7522    1.0000 </r>
       <r>  -31.0076    1.0000 </r>
       <r>  -31.0053    1.0000 </r>
       <r>  -30.9607    1.0000 </r>
       <r>  -30.9595    1.0000 </r>
       <r>  -15.0383    1.0000 </r>
       <r>  -14.7438    1.0000 </r>
       <r>  -14.7170    1.0000 </r>
       <r>  -14.6515    1.0000 </r>
       <r>  -14.5652    1.0000 </r>
       <r>  -14.4688    1.0000 </r>
       <r>  -14.2986    1.0000 </r>
       <r>  -14.2129    1.0000 </r>
       <r>  -14.1617    1.0000 </r>
       <r>  -14.1279    1.0000 </r>
       <r>  -14.0816    1.0000 </r>
       <r>  -14.0408    1.0000 </r>
       <r>  -14.0246    1.0000 </r>
       <r>  -13.9669    1.0000 </r>
       <r>  -13.8380    1.0000 </r>
       <r>  -13.7897    1.0000 </r>
       <r>  -13.6570    1.0000 </r>
       <r>  -13.6499    1.0000 </r>
       <r>  -13.6283    1.0000 </r>
       <r>  -13.5796    1.0000 </r>
       <r>  -13.5681    1.0000 </r>
       <r>  -13.5483    1.0000 </r>
       <r>  -13.5347    1.0000 </r>
       <r>  -13.4238    1.0000 </r>
       <r>  -13.4061    1.0000 </r>
       <r>  -13.3988    1.0000 </r>
       <r>  -13.3297    1.0000 </r>
       <r>  -13.1911    1.0000 </r>
       <r>  -13.0273    1.0000 </r>
       <r>  -12.9721    1.0000 </r>
       <r>  -12.9639    1.0000 </r>
       <r>  -12.9106    1.0000 </r>
       <r>  -12.8928    1.0000 </r>
       <r>  -12.8811    1.0000 </r>
       <r>  -12.8597    1.0000 </r>
       <r>  -12.7923    1.0000 </r>
       <r>  -12.7430    1.0000 </r>
       <r>  -12.6254    1.0000 </r>
       <r>  -12.5533    1.0000 </r>
       <r>  -12.4405    1.0000 </r>
       <r>   -2.9296    1.0000 </r>
       <r>   -2.8288    1.0000 </r>
       <r>   -2.4373    1.0000 </r>
       <r>   -2.2607    1.0000 </r>
       <r>   -2.1452    1.0000 </r>
       <r>   -2.1336    1.0000 </r>
       <r>   -2.1043    1.0000 </r>
       <r>   -2.0379    1.0000 </r>
       <r>   -1.9278    1.0000 </r>
       <r>   -1.8099    1.0000 </r>
       <r>   -1.8001    1.0000 </r>
       <r>   -1.7853    1.0000 </r>
       <r>   -1.5815    1.0000 </r>
       <r>   -1.4886    1.0000 </r>
       <r>   -1.4771    1.0000 </r>
       <r>   -1.4054    1.0000 </r>
       <r>   -1.3926    1.0000 </r>
       <r>   -1.3861    1.0000 </r>
       <r>   -1.3278    1.0000 </r>
       <r>   -1.3005    1.0000 </r>
       <r>   -1.2902    1.0000 </r>
       <r>   -1.2680    1.0000 </r>
       <r>   -1.2408    1.0000 </r>
       <r>   -1.2270    1.0000 </r>
       <r>   -1.2238    1.0000 </r>
       <r>   -1.1999    1.0000 </r>
       <r>   -1.1614    1.0000 </r>
       <r>   -1.0643    1.0000 </r>
       <r>   -1.0437    1.0000 </r>
       <r>   -0.9831    1.0000 </r>
       <r>   -0.7308    1.0000 </r>
       <r>   -0.7002    1.0000 </r>
       <r>   -0.6691    1.0000 </r>
       <r>   -0.5953    1.0000 </r>
       <r>   -0.5862    1.0000 </r>
       <r>   -0.5367    1.0000 </r>
       <r>   -0.4879    1.0000 </r>
       <r>   -0.4862    1.0000 </r>
       <r>   -0.4615    1.0000 </r>
       <r>   -0.4379    1.0000 </r>
       <r>   -0.4182    1.0000 </r>
       <r>   -0.4103    1.0000 </r>
       <r>   -0.0566    1.0000 </r>
       <r>    0.2348    1.0000 </r>
       <r>    0.2469    1.0000 </r>
       <r>    0.3055    1.0000 </r>
       <r>    0.4017    1.0000 </r>
       <r>    0.4415    1.0000 </r>
       <r>    0.4768    1.0000 </r>
       <r>    0.6002    1.0000 </r>
       <r>    0.7369    1.0000 </r>
       <r>    0.7463    1.0000 </r>
       <r>    0.7901    1.0000 </r>
       <r>    0.8134    1.0000 </r>
       <r>    0.9908    1.0000 </r>
       <r>    1.0778    1.0000 </r>
       <r>    1.0801    1.0000 </r>
       <r>    1.1249    1.0000 </r>
       <r>    1.1780    1.0000 </r>
       <r>    1.2021    1.0000 </r>
       <r>    1.2119    1.0000 </r>
       <r>    1.2749    1.0000 </r>
       <r>    1.3169    1.0000 </r>
       <r>    1.3204    1.0000 </r>
       <r>    1.3327    1.0000 </r>
       <r>    1.3517    1.0000 </r>
       <r>    1.3606    1.0000 </r>
       <r>    1.4476    1.0000 </r>
       <r>    1.4560    1.0000 </r>
       <r>    1.5417    1.0000 </r>
       <r>    1.5704    1.0000 </r>
       <r>    1.6323    1.0000 </r>
       <r>    1.6411    1.0000 </r>
       <r>    1.6915    1.0000 </r>
       <r>    1.7959    1.0000 </r>
       <r>    1.8539    1.0000 </r>
       <r>    2.0121    1.0000 </r>
       <r>    2.0205    1.0000 </r>
       <r>    2.1743    1.0000 </r>
       <r>    2.2022    1.0000 </r>
       <r>    2.3064    1.0000 </r>
       <r>    2.3335    1.0000 </r>
       <r>    2.4737    0.9994 </r>
       <r>    2.6632    0.0167 </r>
       <r>    2.9298    0.0000 </r>
       <r>    3.0553    0.0000 </r>
       <r>    3.1896    0.0000 </r>
       <r>    3.7650    0.0000 </r>
       <r>    3.8199    0.0000 </r>
       <r>    3.9576    0.0000 </r>
       <r>    4.3895    0.0000 </r>
       <r>    5.0125    0.0000 </r>
       <r>    5.6697    0.0000 </r>
       <r>    5.7827    0.0000 </r>
       <r>    6.1049    0.0000 </r>
       <r>    6.3842    0.0000 </r>
       <r>    6.7827    0.0000 </r>
       <r>    7.1102    0.0000 </r>
       <r>    7.3135    0.0000 </r>
       <r>    7.3930    0.0000 </r>
       <r>    7.5397    0.0000 </r>
       <r>    7.5921    0.0000 </r>
       <r>    7.8396    0.0000 </r>
       <r>    8.0382    0.0000 </r>
       <r>    8.1024    0.0000 </r>
       <r>    8.1786    0.0000 </r>
       <r>    8.2771    0.0000 </r>
       <r>    8.5799    0.0000 </r>
       <r>    8.5996    0.0000 </r>
       <r>    8.7165    0.0000 </r>
       <r>    8.7281    0.0000 </r>
       <r>    8.7751    0.0000 </r>
       <r>    9.0302    0.0000 </r>
       <r>    9.0630    0.0000 </r>
       <r>    9.3797    0.0000 </r>
       <r>    9.4005    0.0000 </r>
       <r>    9.4623    0.0000 </r>
       <r>    9.5994    0.0000 </r>
       <r>    9.6355    0.0000 </r>
       <r>    9.7216    0.0000 </r>
       <r>    9.8376    0.0000 </r>
       <r>    9.9126    0.0000 </r>
       <r>    9.9518    0.0000 </r>
       <r>   10.0040    0.0000 </r>
       <r>   10.1404    0.0000 </r>
       <r>   10.1691    0.0000 </r>
       <r>   10.1817    0.0000 </r>
       <r>   10.2724    0.0000 </r>
      </set>
      <set comment="kpoint 8">
       <r>  -31.8078    1.0000 </r>
       <r>  -31.8078    1.0000 </r>
       <r>  -31.7528    1.0000 </r>
       <r>  -31.7528    1.0000 </r>
       <r>  -31.0065    1.0000 </r>
       <r>  -31.0065    1.0000 </r>
       <r>  -30.9601    1.0000 </r>
       <r>  -30.9601    1.0000 </r>
       <r>  -14.8994    1.0000 </r>
       <r>  -14.8994    1.0000 </r>
       <r>  -14.7190    1.0000 </r>
       <r>  -14.7190    1.0000 </r>
       <r>  -14.4166    1.0000 </r>
       <r>  -14.4166    1.0000 </r>
       <r>  -14.3567    1.0000 </r>
       <r>  -14.3567    1.0000 </r>
       <r>  -14.1676    1.0000 </r>
       <r>  -14.1676    1.0000 </r>
       <r>  -14.0344    1.0000 </r>
       <r>  -14.0344    1.0000 </r>
       <r>  -14.0080    1.0000 </r>
       <r>  -14.0080    1.0000 </r>
       <r>  -13.7143    1.0000 </r>
       <r>  -13.7143    1.0000 </r>
       <r>  -13.6745    1.0000 </r>
       <r>  -13.6745    1.0000 </r>
       <r>  -13.6045    1.0000 </r>
       <r>  -13.6045    1.0000 </r>
       <r>  -13.5941    1.0000 </r>
       <r>  -13.5941    1.0000 </r>
       <r>  -13.4943    1.0000 </r>
       <r>  -13.4943    1.0000 </r>
       <r>  -13.3889    1.0000 </r>
       <r>  -13.3889    1.0000 </r>
       <r>  -13.2670    1.0000 </r>
       <r>  -13.2670    1.0000 </r>
       <r>  -12.9833    1.0000 </r>
       <r>  -12.9833    1.0000 </r>
       <r>  -12.9765    1.0000 </r>
       <r>  -12.9765    1.0000 </r>
       <r>  -12.8271    1.0000 </r>
       <r>  -12.8271    1.0000 </r>
       <r>  -12.7306    1.0000 </r>
       <r>  -12.7306    1.0000 </r>
       <r>  -12.7193    1.0000 </r>
       <r>  -12.7193    1.0000 </r>
       <r>  -12.5783    1.0000 </r>
       <r>  -12.5783    1.0000 </r>
       <r>   -2.8431    1.0000 </r>
       <r>   -2.8431    1.0000 </r>
       <r>   -2.4207    1.0000 </r>
       <r>   -2.4207    1.0000 </r>
       <r>   -2.1401    1.0000 </r>
       <r>   -2.1401    1.0000 </r>
       <r>   -1.9940    1.0000 </r>
       <r>   -1.9940    1.0000 </r>
       <r>   -1.9128    1.0000 </r>
       <r>   -1.9128    1.0000 </r>
       <r>   -1.7917    1.0000 </r>
       <r>   -1.7917    1.0000 </r>
       <r>   -1.5239    1.0000 </r>
       <r>   -1.5239    1.0000 </r>
       <r>   -1.4301    1.0000 </r>
       <r>   -1.4301    1.0000 </r>
       <r>   -1.3966    1.0000 </r>
       <r>   -1.3966    1.0000 </r>
[...]
       <r>     5.1296     5.1964   139.4836 </r>
       <r>     5.2852     3.8225   140.0785 </r>
       <r>     5.4408     2.2484   140.4284 </r>
       <r>     5.5964     2.9864   140.8931 </r>
       <r>     5.7521     3.1411   141.3820 </r>
       <r>     5.9077     2.1951   141.7236 </r>
       <r>     6.0633     4.1764   142.3735 </r>
       <r>     6.2189     5.1468   143.1744 </r>
       <r>     6.3745     2.4906   143.5620 </r>
       <r>     6.5302     2.5331   143.9562 </r>
       <r>     6.6858     0.3242   144.0067 </r>
       <r>     6.8414     3.7727   144.5938 </r>
       <r>     6.9970     0.3194   144.6435 </r>
       <r>     7.1526     4.9743   145.4176 </r>
       <r>     7.3083     3.1750   145.9117 </r>
       <r>     7.4639     6.2843   146.8896 </r>
       <r>     7.6195     6.9255   147.9674 </r>
       <r>     7.7751     5.4221   148.8112 </r>
       <r>     7.9307     5.1801   149.6173 </r>
       <r>     8.0863     6.9218   150.6945 </r>
       <r>     8.2420     9.3874   152.1553 </r>
       <r>     8.3976     7.0722   153.2559 </r>
       <r>     8.5532    10.7708   154.9321 </r>
       <r>     8.7088    12.3981   156.8614 </r>
       <r>     8.8644    10.7242   158.5303 </r>
       <r>     9.0201    10.2653   160.1278 </r>
       <r>     9.1757    13.5186   162.2316 </r>
       <r>     9.3313     8.1100   163.4937 </r>
       <r>     9.4869     8.7717   164.8587 </r>
       <r>     9.6425    14.5628   167.1250 </r>
       <r>     9.7982    10.0013   168.6814 </r>
       <r>     9.9538    14.1595   170.8849 </r>
       <r>    10.1094    13.5987   173.0011 </r>
       <r>    10.2650    10.6295   174.6553 </r>
       <r>    10.4206     6.0877   175.6026 </r>
       <r>    10.5763     2.0849   175.9271 </r>
       <r>    10.7319     0.4676   175.9998 </r>
       <r>    10.8875     0.0010   176.0000 </r>
       <r>    11.0431     0.0000   176.0000 </r>
       <r>    11.1987     0.0000   176.0000 </r>
       <r>    11.3544     0.0000   176.0000 </r>
       <r>    11.5100     0.0000   176.0000 </r>
       <r>    11.6656     0.0000   176.0000 </r>
       <r>    11.8212     0.0000   176.0000 </r>
       <r>    11.9768     0.0000   176.0000 </r>
       <r>    12.1325     0.0000   176.0000 </r>
       <r>    12.2881     0.0000   176.0000 </r>
       <r>    12.4437     0.0000   176.0000 </r>
       <r>    12.5993     0.0000   176.0000 </r>
       <r>    12.7549     0.0000   176.0000 </r>
      </set>
      <set comment="spin 2">
       <r>   -33.9310     0.0000     0.0000 </r>
       <r>   -33.7753     0.0000     0.0000 </r>
       <r>   -33.6197     0.0000     0.0000 </r>
       <r>   -33.4641     0.0000     0.0000 </r>
       <r>   -33.3085     0.0000     0.0000 </r>
       <r>   -33.1529     0.0000     0.0000 </r>
       <r>   -32.9972     0.0000     0.0000 </r>
       <r>   -32.8416     0.0000     0.0000 </r>
       <r>   -32.6860     0.0000     0.0000 </r>
       <r>   -32.5304     0.0000     0.0000 </r>
       <r>   -32.3748     0.0000     0.0000 </r>
       <r>   -32.2192     0.0000     0.0000 </r>
       <r>   -32.0635     0.0000     0.0000 </r>
       <r>   -31.9079     0.0288     0.0045 </r>
       <r>   -31.7523    18.5842     2.8966 </r>
       <r>   -31.5967     7.0906     4.0000 </r>
       <r>   -31.4411     0.0001     4.0000 </r>
       <r>   -31.2854     0.0000     4.0000 </r>
       <r>   -31.1298     0.0030     4.0005 </r>
       <r>   -30.9742    14.9494     6.3269 </r>
       <r>   -30.8186    10.7509     7.9999 </r>
       <r>   -30.6630     0.0004     8.0000 </r>
       <r>   -30.5073     0.0000     8.0000 </r>
       <r>   -30.3517     0.0000     8.0000 </r>
       <r>   -30.1961     0.0000     8.0000 </r>
       <r>   -30.0405     0.0000     8.0000 </r>
       <r>   -29.8849     0.0000     8.0000 </r>
       <r>   -29.7292     0.0000     8.0000 </r>
       <r>   -29.5736     0.0000     8.0000 </r>
       <r>   -29.4180     0.0000     8.0000 </r>
       <r>   -29.2624     0.0000     8.0000 </r>
       <r>   -29.1068     0.0000     8.0000 </r>
       <r>   -28.9511     0.0000     8.0000 </r>
       <r>   -28.7955     0.0000     8.0000 </r>
       <r>   -28.6399     0.0000     8.0000 </r>
       <r>   -28.4843     0.0000     8.0000 </r>
       <r>   -28.3287     0.0000     8.0000 </r>
       <r>   -28.1730     0.0000     8.0000 </r>
       <r>   -28.0174     0.0000     8.0000 </r>
       <r>   -27.8618     0.0000     8.0000 </r>
       <r>   -27.7062     0.0000     8.0000 </r>
       <r>   -27.5506     0.0000     8.0000 </r>
       <r>   -27.3949     0.0000     8.0000 </r>
       <r>   -27.2393     0.0000     8.0000 </r>
       <r>   -27.0837     0.0000     8.0000 </r>
       <r>   -26.9281     0.0000     8.0000 </r>
       <r>   -26.7725     0.0000     8.0000 </r>
       <r>   -26.6168     0.0000     8.0000 </r>
       <r>   -26.4612     0.0000     8.0000 </r>
       <r>   -26.3056     0.0000     8.0000 </r>
       <r>   -26.1500     0.0000     8.0000 </r>
       <r>   -25.9944     0.0000     8.0000 </r>
       <r>   -25.8387     0.0000     8.0000 </r>
       <r>   -25.6831     0.0000     8.0000 </r>
       <r>   -25.5275     0.0000     8.0000 </r>
       <r>   -25.3719     0.0000     8.0000 </r>
       <r>   -25.2163     0.0000     8.0000 </r>
       <r>   -25.0606     0.0000     8.0000 </r>
       <r>   -24.9050     0.0000     8.0000 </r>
       <r>   -24.7494     0.0000     8.0000 </r>
       <r>   -24.5938     0.0000     8.0000 </r>
       <r>   -24.4382     0.0000     8.0000 </r>
       <r>   -24.2825     0.0000     8.0000 </r>
       <r>   -24.1269     0.0000     8.0000 </r>
       <r>   -23.9713     0.0000     8.0000 </r>
       <r>   -23.8157     0.0000     8.0000 </r>
       <r>   -23.6601     0.0000     8.0000 </r>
       <r>   -23.5044     0.0000     8.0000 </r>
       <r>   -23.3488     0.0000     8.0000 </r>
       <r>   -23.1932     0.0000     8.0000 </r>
       <r>   -23.0376     0.0000     8.0000 </r>
       <r>   -22.8820     0.0000     8.0000 </r>
       <r>   -22.7263     0.0000     8.0000 </r>
       <r>   -22.5707     0.0000     8.0000 </r>
       <r>   -22.4151     0.0000     8.0000 </r>
       <r>   -22.2595     0.0000     8.0000 </r>
       <r>   -22.1039     0.0000     8.0000 </r>
       <r>   -21.9483     0.0000     8.0000 </r>
       <r>   -21.7926     0.0000     8.0000 </r>
       <r>   -21.6370     0.0000     8.0000 </r>
       <r>   -21.4814     0.0000     8.0000 </r>
       <r>   -21.3258     0.0000     8.0000 </r>
       <r>   -21.1702     0.0000     8.0000 </r>
       <r>   -21.0145     0.0000     8.0000 </r>
       <r>   -20.8589     0.0000     8.0000 </r>
       <r>   -20.7033     0.0000     8.0000 </r>
       <r>   -20.5477     0.0000     8.0000 </r>
       <r>   -20.3921     0.0000     8.0000 </r>
       <r>   -20.2364     0.0000     8.0000 </r>
       <r>   -20.0808     0.0000     8.0000 </r>
       <r>   -19.9252     0.0000     8.0000 </r>
       <r>   -19.7696     0.0000     8.0000 </r>
       <r>   -19.6140     0.0000     8.0000 </r>
       <r>   -19.4583     0.0000     8.0000 </r>
       <r>   -19.3027     0.0000     8.0000 </r>
       <r>   -19.1471     0.0000     8.0000 </r>
       <r>   -18.9915     0.0000     8.0000 </r>
       <r>   -18.8359     0.0000     8.0000 </r>
       <r>   -18.6802     0.0000     8.0000 </r>
       <r>   -18.5246     0.0000     8.0000 </r>
       <r>   -18.3690     0.0000     8.0000 </r>
       <r>   -18.2134     0.0000     8.0000 </r>
       <r>   -18.0578     0.0000     8.0000 </r>
       <r>   -17.9021     0.0000     8.0000 </r>
       <r>   -17.7465     0.0000     8.0000 </r>
       <r>   -17.5909     0.0000     8.0000 </r>
       <r>   -17.4353     0.0000     8.0000 </r>
       <r>   -17.2797     0.0000     8.0000 </r>
       <r>   -17.1240     0.0000     8.0000 </r>
       <r>   -16.9684     0.0000     8.0000 </r>
       <r>   -16.8128     0.0000     8.0000 </r>
       <r>   -16.6572     0.0000     8.0000 </r>
       <r>   -16.5016     0.0000     8.0000 </r>
       <r>   -16.3459     0.0000     8.0000 </r>
       <r>   -16.1903     0.0000     8.0000 </r>
       <r>   -16.0347     0.0000     8.0000 </r>
       <r>   -15.8791     0.0000     8.0000 </r>
       <r>   -15.7235     0.0000     8.0000 </r>
       <r>   -15.5678     0.0000     8.0000 </r>
       <r>   -15.4122     0.0000     8.0000 </r>
       <r>   -15.2566     0.0000     8.0000 </r>
       <r>   -15.1010     0.0882     8.0137 </r>
       <r>   -14.9454     2.5750     8.4144 </r>
       <r>   -14.7897     8.1100     9.6765 </r>
       <r>   -14.6341    15.0946    12.0255 </r>
       <r>   -14.4785    10.0948    13.5965 </r>
       <r>   -14.3229    11.4386    15.3765 </r>
       <r>   -14.1673    11.4500    17.1584 </r>
       <r>   -14.0116    21.5272    20.5085 </r>
       <r>   -13.8560    13.4396    22.5999 </r>
       <r>   -13.7004    17.5732    25.3347 </r>
       <r>   -13.5448    23.9394    29.0601 </r>
       <r>   -13.3892    19.8063    32.1424 </r>
       <r>   -13.2335    18.5308    35.0261 </r>
       <r>   -13.0779     6.4608    36.0315 </r>
       <r>   -12.9223    21.4825    39.3746 </r>
       <r>   -12.7667    20.4508    42.5572 </r>
       <r>   -12.6111    15.6371    44.9906 </r>
       <r>   -12.4555    17.7816    47.7578 </r>
       <r>   -12.2998     1.5563    48.0000 </r>
       <r>   -12.1442     0.0001    48.0000 </r>
       <r>   -11.9886     0.0000    48.0000 </r>
       <r>   -11.8330     0.0000    48.0000 </r>
       <r>   -11.6774     0.0000    48.0000 </r>
       <r>   -11.5217     0.0000    48.0000 </r>
       <r>   -11.3661     0.0000    48.0000 </r>
       <r>   -11.2105     0.0000    48.0000 </r>
       <r>   -11.0549     0.0000    48.0000 </r>
       <r>   -10.8993     0.0000    48.0000 </r>
       <r>   -10.7436     0.0000    48.0000 </r>
       <r>   -10.5880     0.0000    48.0000 </r>
       <r>   -10.4324     0.0000    48.0000 </r>
       <r>   -10.2768     0.0000    48.0000 </r>
       <r>   -10.1212     0.0000    48.0000 </r>
       <r>    -9.9655     0.0000    48.0000 </r>
       <r>    -9.8099     0.0000    48.0000 </r>
       <r>    -9.6543     0.0000    48.0000 </r>
       <r>    -9.4987     0.0000    48.0000 </r>
       <r>    -9.3431     0.0000    48.0000 </r>
       <r>    -9.1874     0.0000    48.0000 </r>
       <r>    -9.0318     0.0000    48.0000 </r>
       <r>    -8.8762     0.0000    48.0000 </r>
       <r>    -8.7206     0.0000    48.0000 </r>
       <r>    -8.5650     0.0000    48.0000 </r>
       <r>    -8.4093     0.0000    48.0000 </r>
       <r>    -8.2537     0.0000    48.0000 </r>
       <r>    -8.0981     0.0000    48.0000 </r>
       <r>    -7.9425     0.0000    48.0000 </r>
       <r>    -7.7869     0.0000    48.0000 </r>
       <r>    -7.6312     0.0000    48.0000 </r>
       <r>    -7.4756     0.0000    48.0000 </r>
       <r>    -7.3200     0.0000    48.0000 </r>
       <r>    -7.1644     0.0000    48.0000 </r>
       <r>    -7.0088     0.0000    48.0000 </r>
       <r>    -6.8531     0.0000    48.0000 </r>
       <r>    -6.6975     0.0000    48.0000 </r>
       <r>    -6.5419     0.0000    48.0000 </r>
       <r>    -6.3863     0.0000    48.0000 </r>
       <r>    -6.2307     0.0000    48.0000 </r>
       <r>    -6.0750     0.0000    48.0000 </r>
       <r>    -5.9194     0.0000    48.0000 </r>
       <r>    -5.7638     0.0000    48.0000 </r>
       <r>    -5.6082     0.0000    48.0000 </r>
       <r>    -5.4526     0.0000    48.0000 </r>
       <r>    -5.2969     0.0000    48.0000 </r>
       <r>    -5.1413     0.0000    48.0000 </r>
       <r>    -4.9857     0.0000    48.0000 </r>
       <r>    -4.8301     0.0000    48.0000 </r>
       <r>    -4.6745     0.0000    48.0000 </r>
       <r>    -4.5188     0.0000    48.0000 </r>
       <r>    -4.3632     0.0000    48.0000 </r>
       <r>    -4.2076     0.0000    48.0000 </r>
       <r>    -4.0520     0.0000    48.0000 </r>
       <r>    -3.8964     0.0000    48.0000 </r>
       <r>    -3.7407     0.0000    48.0000 </r>
       <r>    -3.5851     0.0000    48.0000 </r>
       <r>    -3.4295     0.0000    48.0000 </r>
       <r>    -3.2739     0.0000    48.0000 </r>
       <r>    -3.1183     0.0000    48.0000 </r>
       <r>    -2.9626     0.1306    48.0203 </r>
       <r>    -2.8070     2.8569    48.4649 </r>
       <r>    -2.6514     5.5611    49.3303 </r>
       <r>    -2.4958     5.7172    50.2200 </r>
       <r>    -2.3402    11.0583    51.9409 </r>
       <r>    -2.1846     8.4036    53.2487 </r>
       <r>    -2.0289     7.6406    54.4377 </r>
       <r>    -1.8733    14.9425    56.7631 </r>
       <r>    -1.7177    17.5105    59.4880 </r>
       <r>    -1.5621     9.3534    60.9436 </r>
       <r>    -1.4065    24.0966    64.6935 </r>
       <r>    -1.2508    31.2114    69.5506 </r>
       <r>    -1.0952    31.1329    74.3955 </r>
       <r>    -0.9396    18.4468    77.2662 </r>
       <r>    -0.7840    14.9906    79.5991 </r>
       <r>    -0.6284    14.9930    81.9323 </r>
       <r>    -0.4727    29.2151    86.4787 </r>
       <r>    -0.3171    22.5573    89.9891 </r>
       <r>    -0.1615     0.0899    90.0031 </r>
       <r>    -0.0059     0.8111    90.1293 </r>
       <r>     0.1497     4.6742    90.8567 </r>
       <r>     0.3054    12.9265    92.8683 </r>
       <r>     0.4610    14.2664    95.0884 </r>
       <r>     0.6166    15.0053    97.4235 </r>
       <r>     0.7722    14.7521    99.7193 </r>
       <r>     0.9278    16.4092   102.2729 </r>
       <r>     1.0835    22.1760   105.7239 </r>
       <r>     1.2391    26.4305   109.8370 </r>
       <r>     1.3947    31.0309   114.6660 </r>
       <r>     1.5503    25.3555   118.6118 </r>
       <r>     1.7059    21.4941   121.9567 </r>
       <r>     1.8616    17.4570   124.6734 </r>
       <r>     2.0172    11.1082   126.4020 </r>
       <r>     2.1728    15.6861   128.8431 </r>
       <r>     2.3284    11.2582   130.5951 </r>
       <r>     2.4840     5.2003   131.4043 </r>
       <r>     2.6397     5.3125   132.2311 </r>
       <r>     2.7953     4.8161   132.9805 </r>
       <r>     2.9509     4.6365   133.7021 </r>
       <r>     3.1065     3.4853   134.2445 </r>
       <r>     3.2621     4.1943   134.8972 </r>
       <r>     3.4178     4.6918   135.6273 </r>
       <r>     3.5734     3.5723   136.1832 </r>
       <r>     3.7290     6.0757   137.1287 </r>
       <r>     3.8846     2.5038   137.5184 </r>
       <r>     4.0402     2.9571   137.9786 </r>
       <r>     4.1959     0.1378   138.0000 </r>
       <r>     4.3515     0.0623   138.0097 </r>
       <r>     4.5071     0.3392   138.0625 </r>
       <r>     4.6627     0.0717   138.0736 </r>
       <r>     4.8183     1.8121   138.3556 </r>
       <r>     4.9740     2.1030   138.6829 </r>
       <r>     5.1296     5.1725   139.4879 </r>
       <r>     5.2852     3.8367   140.0849 </r>
       <r>     5.4408     2.2164   140.4298 </r>
       <r>     5.5964     2.9914   140.8953 </r>
       <r>     5.7521     3.1376   141.3836 </r>
       <r>     5.9077     2.1935   141.7250 </r>
       <r>     6.0633     4.1846   142.3762 </r>
       <r>     6.2189     5.1419   143.1764 </r>
       <r>     6.3745     2.4918   143.5641 </r>
       <r>     6.5302     2.5248   143.9571 </r>
       <r>     6.6858     0.3194   144.0068 </r>
       <r>     6.8414     3.7756   144.5943 </r>
       <r>     6.9970     0.3172   144.6437 </r>
       <r>     7.1526     4.9754   145.4179 </r>
       <r>     7.3083     3.1814   145.9130 </r>
       <r>     7.4639     6.2862   146.8913 </r>
       <r>     7.6195     6.9197   147.9681 </r>
       <r>     7.7751     5.4279   148.8128 </r>
       <r>     7.9307     5.1812   149.6191 </r>
       <r>     8.0863     6.9296   150.6975 </r>
       <r>     8.2420     9.3896   152.1587 </r>
       <r>     8.3976     7.0654   153.2582 </r>
       <r>     8.5532    10.7666   154.9337 </r>
       <r>     8.7088    12.4131   156.8655 </r>
       <r>     8.8644    10.7088   158.5320 </r>
       <r>     9.0201    10.2725   160.1306 </r>
       <r>     9.1757    13.5141   162.2336 </r>
       <r>     9.3313     8.1118   163.4960 </r>
       <r>     9.4869     8.7688   164.8606 </r>
       <r>     9.6425    14.5594   167.1263 </r>
       <r>     9.7982    10.0062   168.6835 </r>
       <r>     9.9538    14.1575   170.8866 </r>
       <r>    10.1094    13.7172   173.0213 </r>
       <r>    10.2650    10.8302   174.7067 </r>
       <r>    10.4206     5.8493   175.6170 </r>
       <r>    10.5763     2.0826   175.9411 </r>
       <r>    10.7319     0.3788   176.0000 </r>
       <r>    10.8875     0.0000   176.0000 </r>
       <r>    11.0431     0.0000   176.0000 </r>
       <r>    11.1987     0.0000   176.0000 </r>
       <r>    11.3544     0.0000   176.0000 </r>
       <r>    11.5100     0.0000   176.0000 </r>
       <r>    11.6656     0.0000   176.0000 </r>
       <r>    11.8212     0.0000   176.0000 </r>
       <r>    11.9768     0.0000   176.0000 </r>
       <r>    12.1325     0.0000   176.0000 </r>
       <r>    12.2881     0.0000   176.0000 </r>
       <r>    12.4437     0.0000   176.0000 </r>
       <r>    12.5993     0.0000   176.0000 </r>
       <r>    12.7549     0.0000   176.0000 </r>
      </set>
     </set>
    </array>
   </total>
  </dos>
 </calculation>
 <structure name="finalpos" >
  <crystal>
   <varray name="basis" >
    <v>       9.79795897       0.00000000       0.00000000 </v>
    <v>       0.00000000       5.65685425       0.00000000 </v>
    <v>      -3.26598632       0.00000000       9.23760431 </v>
   </varray>
   <i name="volume">    512.00000000 </i>
   <varray name="rec_basis" >
    <v>       0.10206207       0.00000000       0.03608439 </v>
    <v>       0.00000000       0.17677670       0.00000000 </v>
    <v>       0.00000000       0.00000000       0.10825318 </v>
   </varray>
  </crystal>
  <varray name="positions" >
   <v>       0.00000000       0.00000000       0.00000000 </v>
   <v>       0.25000000       0.00000000       0.75000000 </v>
   <v>       0.00000000       0.50000000       0.50000000 </v>
   <v>       0.75000000       0.00000000       0.25000000 </v>
   <v>       0.50000000       0.50000000       0.00000000 </v>
   <v>       0.75000000       0.50000000       0.75000000 </v>
   <v>       0.50000000       0.00000000       0.50000000 </v>
   <v>       0.25000000       0.50000000       0.25000000 </v>
   <v>       0.87500000       0.50000000       0.12500000 </v>
   <v>       0.12500000       0.50000000       0.87500000 </v>
   <v>       0.87500000       0.00000000       0.62500000 </v>
   <v>       0.12500000       0.00000000       0.37500000 </v>
   <v>       0.37500000       0.00000000       0.12500000 </v>
   <v>       0.62500000       0.00000000       0.87500000 </v>
   <v>       0.37500000       0.50000000       0.62500000 </v>
   <v>       0.62500000       0.50000000       0.37500000 </v>
   <v>       0.25000000       0.50000000       0.75000000 </v>
   <v>       0.00000000       0.00000000       0.50000000 </v>
   <v>       0.75000000       0.25000000       0.00000000 </v>
   <v>       0.25000000       0.25000000       0.50000000 </v>
   <v>       0.00000000       0.75000000       0.25000000 </v>
   <v>       0.75000000       0.75000000       0.00000000 </v>
   <v>       0.25000000       0.75000000       0.50000000 </v>
   <v>       0.00000000       0.25000000       0.25000000 </v>
   <v>       0.75000000       0.00000000       0.75000000 </v>
   <v>       0.50000000       0.50000000       0.50000000 </v>
   <v>       0.25000000       0.75000000       0.00000000 </v>
   <v>       0.75000000       0.75000000       0.50000000 </v>
   <v>       0.50000000       0.25000000       0.25000000 </v>
   <v>       0.25000000       0.25000000       0.00000000 </v>
   <v>       0.75000000       0.25000000       0.50000000 </v>
   <v>       0.50000000       0.75000000       0.25000000 </v>
  </varray>
 </structure>
</modeling>
