<?xml version="1.0" encoding="ISO-8859-1"?>
<modeling>
 <generator>
  <i name="program" type="string">vasp </i>
  <i name="version" type="string">5.3.5  </i>
  <i name="subversion" type="string">31Mar14 (build Jun 20 2014 13:15:13) complex                          parallel </i>
  <i name="platform" type="string">LinuxIFC </i>
  <i name="date" type="string">2025 11 29 </i>
  <i name="time" type="string">07:54:23 </i>
 </generator>
 <incar>
  <i type="string" name="PREC">accurate</i>
  <i type="int" name="IALGO">    68</i>
  <i type="logical" name="ADDGRID"> T  </i>
  <i type="int" name="NELM">   200</i>
  <i type="int" name="NELMIN">     4</i>
  <i type="int" name="IBRION">     2</i>
  <i name="EDIFF">      0.00000100</i>
  <i name="EDIFFG">     -0.02000000</i>
  <i type="int" name="NSW">    30</i>
  <i type="int" name="ISIF">     3</i>
  <i name="ENCUT">    500.00000000</i>
  <i type="logical" name="LREAL"> F  </i>
  <i type="int" name="ISMEAR">     1</i>
  <i name="SIGMA">      0.30000000</i>
  <i type="logical" name="LWAVE"> F  </i>
  <i type="logical" name="LCHARG"> F  </i>
  <i type="int" name="NELM">   200</i>
 </incar>
 <kpoints>
  <generation param="Auto">
   <i name="subdivisionlength">     70.00000000 </i>
   <v type="int" name="divisions">      18       19       13 </v>
   <v name="usershift">      0.00000000       0.00000000       0.00000000 </v>
   <v name="genvec1">      0.05555556       0.00000000       0.00000000 </v>
   <v name="genvec2">      0.00000000       0.05263158       0.00000000 </v>
   <v name="genvec3">      0.00000000       0.00000000       0.07692308 </v>
   <v name="shift">      0.00000000       0.00000000       0.00000000 </v>
  </generation>
  <varray name="kpointlist" >
   <v>       0.00000000       0.00000000       0.00000000 </v>
   <v>       0.05555556       0.00000000       0.00000000 </v>
   <v>       0.11111111       0.00000000       0.00000000 </v>
   <v>       0.16666667       0.00000000       0.00000000 </v>
   <v>       0.22222222       0.00000000       0.00000000 </v>
   <v>       0.27777778       0.00000000       0.00000000 </v>
   <v>       0.33333333       0.00000000       0.00000000 </v>
   <v>       0.38888889       0.00000000       0.00000000 </v>
   <v>       0.44444444       0.00000000       0.00000000 </v>
   <v>       0.50000000       0.00000000       0.00000000 </v>
   <v>       0.00000000       0.05263158       0.00000000 </v>
   <v>       0.05555556       0.05263158       0.00000000 </v>
   <v>       0.11111111       0.05263158       0.00000000 </v>
   <v>       0.16666667       0.05263158       0.00000000 </v>
   <v>       0.22222222       0.05263158       0.00000000 </v>
   <v>       0.27777778       0.05263158       0.00000000 </v>
   <v>       0.33333333       0.05263158       0.00000000 </v>
   <v>       0.38888889       0.05263158       0.00000000 </v>
   <v>       0.44444444       0.05263158       0.00000000 </v>
   <v>       0.50000000       0.05263158       0.00000000 </v>
   <v>       0.00000000       0.10526316       0.00000000 </v>
   <v>       0.05555556       0.10526316       0.00000000 </v>
   <v>       0.11111111       0.10526316       0.00000000 </v>
   <v>       0.16666667       0.10526316       0.00000000 </v>
   <v>       0.22222222       0.10526316       0.00000000 </v>
   <v>       0.27777778       0.10526316       0.00000000 </v>
   <v>       0.33333333       0.10526316       0.00000000 </v>
   <v>       0.38888889       0.10526316       0.00000000 </v>
   <v>       0.44444444       0.10526316       0.00000000 </v>
   <v>       0.50000000       0.10526316       0.00000000 </v>
   <v>       0.00000000       0.15789474       0.00000000 </v>
   <v>       0.05555556       0.15789474       0.00000000 </v>
   <v>       0.11111111       0.15789474       0.00000000 </v>
   <v>       0.16666667       0.15789474       0.00000000 </v>
   <v>       0.22222222       0.15789474       0.00000000 </v>
   <v>       0.27777778       0.15789474       0.00000000 </v>
   <v>       0.33333333       0.15789474       0.00000000 </v>
   <v>       0.38888889       0.15789474       0.00000000 </v>
   <v>       0.44444444       0.15789474       0.00000000 </v>
   <v>       0.50000000       0.15789474       0.00000000 </v>
   <v>       0.00000000       0.21052632       0.00000000 </v>
   <v>       0.05555556       0.21052632       0.00000000 </v>
   <v>       0.11111111       0.21052632       0.00000000 </v>
   <v>       0.16666667       0.21052632       0.00000000 </v>
   <v>       0.22222222       0.21052632       0.00000000 </v>
   <v>       0.27777778       0.21052632       0.00000000 </v>
   <v>       0.33333333       0.21052632       0.00000000 </v>
   <v>       0.38888889       0.21052632       0.00000000 </v>
   <v>       0.44444444       0.21052632       0.00000000 </v>
   <v>       0.50000000       0.21052632       0.00000000 </v>
   <v>       0.00000000       0.26315789       0.00000000 </v>
   <v>       0.05555556       0.26315789       0.00000000 </v>
   <v>       0.11111111       0.26315789       0.00000000 </v>
   <v>       0.16666667       0.26315789       0.00000000 </v>
   <v>       0.22222222       0.26315789       0.00000000 </v>
   <v>       0.27777778       0.26315789       0.00000000 </v>
   <v>       0.33333333       0.26315789       0.00000000 </v>
   <v>       0.38888889       0.26315789       0.00000000 </v>
   <v>       0.44444444       0.26315789       0.00000000 </v>
   <v>       0.50000000       0.26315789       0.00000000 </v>
   <v>       0.00000000       0.31578947       0.00000000 </v>
   <v>       0.05555556       0.31578947       0.00000000 </v>
   <v>       0.11111111       0.31578947       0.00000000 </v>
   <v>       0.16666667       0.31578947       0.00000000 </v>
   <v>       0.22222222       0.31578947       0.00000000 </v>
   <v>       0.27777778       0.31578947       0.00000000 </v>
   <v>       0.33333333       0.31578947       0.00000000 </v>
   <v>       0.38888889       0.31578947       0.00000000 </v>
   <v>       0.44444444       0.31578947       0.00000000 </v>
   <v>       0.50000000       0.31578947       0.00000000 </v>
   <v>       0.00000000       0.36842105       0.00000000 </v>
   <v>       0.05555556       0.36842105       0.00000000 </v>
   <v>       0.11111111       0.36842105       0.00000000 </v>
   <v>       0.16666667       0.36842105       0.00000000 </v>
   <v>       0.22222222       0.36842105       0.00000000 </v>
   <v>       0.27777778       0.36842105       0.00000000 </v>
   <v>       0.33333333       0.36842105       0.00000000 </v>
   <v>       0.38888889       0.36842105       0.00000000 </v>
   <v>       0.44444444       0.36842105       0.00000000 </v>
   <v>       0.50000000       0.36842105       0.00000000 </v>
   <v>       0.00000000       0.42105263       0.00000000 </v>
   <v>       0.05555556       0.42105263       0.00000000 </v>
   <v>       0.11111111       0.42105263       0.00000000 </v>
   <v>       0.16666667       0.42105263       0.00000000 </v>
   <v>       0.22222222       0.42105263       0.00000000 </v>
   <v>       0.27777778       0.42105263       0.00000000 </v>
   <v>       0.33333333       0.42105263       0.00000000 </v>
   <v>       0.38888889       0.42105263       0.00000000 </v>
   <v>       0.44444444       0.42105263       0.00000000 </v>
   <v>       0.50000000       0.42105263       0.00000000 </v>
   <v>       0.00000000       0.47368421       0.00000000 </v>
   <v>       0.05555556       0.47368421       0.00000000 </v>
   <v>       0.11111111       0.47368421       0.00000000 </v>
   <v>       0.16666667       0.47368421       0.00000000 </v>
   <v>       0.22222222       0.47368421       0.00000000 </v>
   <v>       0.27777778       0.47368421       0.00000000 </v>
   <v>       0.33333333       0.47368421       0.00000000 </v>
   <v>       0.38888889       0.47368421       0.00000000 </v>
   <v>       0.44444444       0.47368421       0.00000000 </v>
   <v>       0.50000000       0.47368421       0.00000000 </v>
   <v>       0.00000000       0.00000000       0.07692308 </v>
   <v>       0.05555556       0.00000000       0.07692308 </v>
   <v>       0.11111111       0.00000000       0.07692308 </v>
   <v>       0.16666667       0.00000000       0.07692308 </v>
   <v>       0.22222222       0.00000000       0.07692308 </v>
   <v>       0.27777778       0.00000000       0.07692308 </v>
   <v>       0.33333333       0.00000000       0.07692308 </v>
   <v>       0.38888889       0.00000000       0.07692308 </v>
   <v>       0.44444444       0.00000000       0.07692308 </v>
   <v>       0.50000000       0.00000000       0.07692308 </v>
   <v>       0.00000000       0.05263158       0.07692308 </v>
   <v>       0.05555556       0.05263158       0.07692308 </v>
   <v>       0.11111111       0.05263158       0.07692308 </v>
   <v>       0.16666667       0.05263158       0.07692308 </v>
   <v>       0.22222222       0.05263158       0.07692308 </v>
   <v>       0.27777778       0.05263158       0.07692308 </v>
   <v>       0.33333333       0.05263158       0.07692308 </v>
   <v>       0.38888889       0.05263158       0.07692308 </v>
   <v>       0.44444444       0.05263158       0.07692308 </v>
   <v>       0.50000000       0.05263158       0.07692308 </v>
   <v>       0.00000000       0.10526316       0.07692308 </v>
   <v>       0.05555556       0.10526316       0.07692308 </v>
   <v>       0.11111111       0.10526316       0.07692308 </v>
   <v>       0.16666667       0.10526316       0.07692308 </v>
   <v>       0.22222222       0.10526316       0.07692308 </v>
   <v>       0.27777778       0.10526316       0.07692308 </v>
   <v>       0.33333333       0.10526316       0.07692308 </v>
   <v>       0.38888889       0.10526316       0.07692308 </v>
   <v>       0.44444444       0.10526316       0.07692308 </v>
   <v>       0.50000000       0.10526316       0.07692308 </v>
   <v>       0.00000000       0.15789474       0.07692308 </v>
   <v>       0.05555556       0.15789474       0.07692308 </v>
   <v>       0.11111111       0.15789474       0.07692308 </v>
   <v>       0.16666667       0.15789474       0.07692308 </v>
   <v>       0.22222222       0.15789474       0.07692308 </v>
   <v>       0.27777778       0.15789474       0.07692308 </v>
   <v>       0.33333333       0.15789474       0.07692308 </v>
   <v>       0.38888889       0.15789474       0.07692308 </v>
   <v>       0.44444444       0.15789474       0.07692308 </v>
   <v>       0.50000000       0.15789474       0.07692308 </v>
   <v>       0.00000000       0.21052632       0.07692308 </v>
   <v>       0.05555556       0.21052632       0.07692308 </v>
   <v>       0.11111111       0.21052632       0.07692308 </v>
   <v>       0.16666667       0.21052632       0.07692308 </v>
   <v>       0.22222222       0.21052632       0.07692308 </v>
   <v>       0.27777778       0.21052632       0.07692308 </v>
   <v>       0.33333333       0.21052632       0.07692308 </v>
   <v>       0.38888889       0.21052632       0.07692308 </v>
   <v>       0.44444444       0.21052632       0.07692308 </v>
   <v>       0.50000000       0.21052632       0.07692308 </v>
   <v>       0.00000000       0.26315789       0.07692308 </v>
   <v>       0.05555556       0.26315789       0.07692308 </v>
   <v>       0.11111111       0.26315789       0.07692308 </v>
   <v>       0.16666667       0.26315789       0.07692308 </v>
   <v>       0.22222222       0.26315789       0.07692308 </v>
   <v>       0.27777778       0.26315789       0.07692308 </v>
   <v>       0.33333333       0.26315789       0.07692308 </v>
   <v>       0.38888889       0.26315789       0.07692308 </v>
   <v>       0.44444444       0.26315789       0.07692308 </v>
   <v>       0.50000000       0.26315789       0.07692308 </v>
   <v>       0.00000000       0.31578947       0.07692308 </v>
   <v>       0.05555556       0.31578947       0.07692308 </v>
   <v>       0.11111111       0.31578947       0.07692308 </v>
   <v>       0.16666667       0.31578947       0.07692308 </v>
   <v>       0.22222222       0.31578947       0.07692308 </v>
   <v>       0.27777778       0.31578947       0.07692308 </v>
   <v>       0.33333333       0.31578947       0.07692308 </v>
   <v>       0.38888889       0.31578947       0.07692308 </v>
   <v>       0.44444444       0.31578947       0.07692308 </v>
   <v>       0.50000000       0.31578947       0.07692308 </v>
   <v>       0.00000000       0.36842105       0.07692308 </v>
   <v>       0.05555556       0.36842105       0.07692308 </v>
   <v>       0.11111111       0.36842105       0.07692308 </v>
   <v>       0.16666667       0.36842105       0.07692308 </v>
   <v>       0.22222222       0.36842105       0.07692308 </v>
   <v>       0.27777778       0.36842105       0.07692308 </v>
   <v>       0.33333333       0.36842105       0.07692308 </v>
   <v>       0.38888889       0.36842105       0.07692308 </v>
   <v>       0.44444444       0.36842105       0.07692308 </v>
   <v>       0.50000000       0.36842105       0.07692308 </v>
   <v>       0.00000000       0.42105263       0.07692308 </v>
   <v>       0.05555556       0.42105263       0.07692308 </v>
   <v>       0.11111111       0.42105263       0.07692308 </v>
   <v>       0.16666667       0.42105263       0.07692308 </v>
   <v>       0.22222222       0.42105263       0.07692308 </v>
   <v>       0.27777778       0.42105263       0.07692308 </v>
   <v>       0.33333333       0.42105263       0.07692308 </v>
   <v>       0.38888889       0.42105263       0.07692308 </v>
   <v>       0.44444444       0.42105263       0.07692308 </v>
   <v>       0.50000000       0.42105263       0.07692308 </v>
   <v>       0.00000000       0.47368421       0.07692308 </v>
   <v>       0.05555556       0.47368421       0.07692308 </v>
   <v>       0.11111111       0.47368421       0.07692308 </v>
   <v>       0.16666667       0.47368421       0.07692308 </v>
   <v>       0.22222222       0.47368421       0.07692308 </v>
   <v>       0.27777778       0.47368421       0.07692308 </v>
   <v>       0.33333333       0.47368421       0.07692308 </v>
   <v>       0.38888889       0.47368421       0.07692308 </v>
   <v>       0.44444444       0.47368421       0.07692308 </v>
   <v>       0.50000000       0.47368421       0.07692308 </v>
   <v>       0.00000000      -0.47368421       0.07692308 </v>
   <v>       0.05555556      -0.47368421       0.07692308 </v>
   <v>       0.11111111      -0.47368421       0.07692308 </v>
   <v>       0.16666667      -0.47368421       0.07692308 </v>
   <v>       0.22222222      -0.47368421       0.07692308 </v>
   <v>       0.27777778      -0.47368421       0.07692308 </v>
   <v>       0.33333333      -0.47368421       0.07692308 </v>
   <v>       0.38888889      -0.47368421       0.07692308 </v>
   <v>       0.44444444      -0.47368421       0.07692308 </v>
   <v>       0.50000000      -0.47368421       0.07692308 </v>
   <v>       0.00000000      -0.42105263       0.07692308 </v>
   <v>       0.05555556      -0.42105263       0.07692308 </v>
   <v>       0.11111111      -0.42105263       0.07692308 </v>
   <v>       0.16666667      -0.42105263       0.07692308 </v>
   <v>       0.22222222      -0.42105263       0.07692308 </v>
   <v>       0.27777778      -0.42105263       0.07692308 </v>
   <v>       0.33333333      -0.42105263       0.07692308 </v>
   <v>       0.38888889      -0.42105263       0.07692308 </v>
   <v>       0.44444444      -0.42105263       0.07692308 </v>
   <v>       0.50000000      -0.42105263       0.07692308 </v>
   <v>       0.00000000      -0.36842105       0.07692308 </v>
   <v>       0.05555556      -0.36842105       0.07692308 </v>
   <v>       0.11111111      -0.36842105       0.07692308 </v>
   <v>       0.16666667      -0.36842105       0.07692308 </v>
   <v>       0.22222222      -0.36842105       0.07692308 </v>
   <v>       0.27777778      -0.36842105       0.07692308 </v>
   <v>       0.33333333      -0.36842105       0.07692308 </v>
   <v>       0.38888889      -0.36842105       0.07692308 </v>
   <v>       0.44444444      -0.36842105       0.07692308 </v>
   <v>       0.50000000      -0.36842105       0.07692308 </v>
   <v>       0.00000000      -0.31578947       0.07692308 </v>
   <v>       0.05555556      -0.31578947       0.07692308 </v>
   <v>       0.11111111      -0.31578947       0.07692308 </v>
   <v>       0.16666667      -0.31578947       0.07692308 </v>
   <v>       0.22222222      -0.31578947       0.07692308 </v>
   <v>       0.27777778      -0.31578947       0.07692308 </v>
   <v>       0.33333333      -0.31578947       0.07692308 </v>
   <v>       0.38888889      -0.31578947       0.07692308 </v>
   <v>       0.44444444      -0.31578947       0.07692308 </v>
   <v>       0.50000000      -0.31578947       0.07692308 </v>
   <v>       0.00000000      -0.26315789       0.07692308 </v>
   <v>       0.05555556      -0.26315789       0.07692308 </v>
   <v>       0.11111111      -0.26315789       0.07692308 </v>
   <v>       0.16666667      -0.26315789       0.07692308 </v>
   <v>       0.22222222      -0.26315789       0.07692308 </v>
   <v>       0.27777778      -0.26315789       0.07692308 </v>
   <v>       0.33333333      -0.26315789       0.07692308 </v>
   <v>       0.38888889      -0.26315789       0.07692308 </v>
   <v>       0.44444444      -0.26315789       0.07692308 </v>
   <v>       0.50000000      -0.26315789       0.07692308 </v>
   <v>       0.00000000      -0.21052632       0.07692308 </v>
   <v>       0.05555556      -0.21052632       0.07692308 </v>
   <v>       0.11111111      -0.21052632       0.07692308 </v>
   <v>       0.16666667      -0.21052632       0.07692308 </v>
   <v>       0.22222222      -0.21052632       0.07692308 </v>
   <v>       0.27777778      -0.21052632       0.07692308 </v>
   <v>       0.33333333      -0.21052632       0.07692308 </v>
   <v>       0.38888889      -0.21052632       0.07692308 </v>
   <v>       0.44444444      -0.21052632       0.07692308 </v>
   <v>       0.50000000      -0.21052632       0.07692308 </v>
   <v>       0.00000000      -0.15789474       0.07692308 </v>
   <v>       0.05555556      -0.15789474       0.07692308 </v>
   <v>       0.11111111      -0.15789474       0.07692308 </v>
   <v>       0.16666667      -0.15789474       0.07692308 </v>
   <v>       0.22222222      -0.15789474       0.07692308 </v>
   <v>       0.27777778      -0.15789474       0.07692308 </v>
   <v>       0.33333333      -0.15789474       0.07692308 </v>
   <v>       0.38888889      -0.15789474       0.07692308 </v>
   <v>       0.44444444      -0.15789474       0.07692308 </v>
   <v>       0.50000000      -0.15789474       0.07692308 </v>
   <v>       0.00000000      -0.10526316       0.07692308 </v>
   <v>       0.05555556      -0.10526316       0.07692308 </v>
   <v>       0.11111111      -0.10526316       0.07692308 </v>
   <v>       0.16666667      -0.10526316       0.07692308 </v>
   <v>       0.22222222      -0.10526316       0.07692308 </v>
   <v>       0.27777778      -0.10526316       0.07692308 </v>
   <v>       0.33333333      -0.10526316       0.07692308 </v>
   <v>       0.38888889      -0.10526316       0.07692308 </v>
   <v>       0.44444444      -0.10526316       0.07692308 </v>
   <v>       0.50000000      -0.10526316       0.07692308 </v>
   <v>       0.00000000      -0.05263158       0.07692308 </v>
   <v>       0.05555556      -0.05263158       0.07692308 </v>
   <v>       0.11111111      -0.05263158       0.07692308 </v>
   <v>       0.16666667      -0.05263158       0.07692308 </v>
   <v>       0.22222222      -0.05263158       0.07692308 </v>
   <v>       0.27777778      -0.05263158       0.07692308 </v>
   <v>       0.33333333      -0.05263158       0.07692308 </v>
   <v>       0.38888889      -0.05263158       0.07692308 </v>
   <v>       0.44444444      -0.05263158       0.07692308 </v>
   <v>       0.50000000      -0.05263158       0.07692308 </v>
   <v>       0.00000000       0.00000000       0.15384615 </v>
   <v>       0.05555556       0.00000000       0.15384615 </v>
   <v>       0.11111111       0.00000000       0.15384615 </v>
   <v>       0.16666667       0.00000000       0.15384615 </v>
   <v>       0.22222222       0.00000000       0.15384615 </v>
   <v>       0.27777778       0.00000000       0.15384615 </v>
   <v>       0.33333333       0.00000000       0.15384615 </v>
   <v>       0.38888889       0.00000000       0.15384615 </v>
   <v>       0.44444444       0.00000000       0.15384615 </v>
   <v>       0.50000000       0.00000000       0.15384615 </v>
   <v>       0.00000000       0.05263158       0.15384615 </v>
   <v>       0.05555556       0.05263158       0.15384615 </v>
   <v>       0.11111111       0.05263158       0.15384615 </v>
   <v>       0.16666667       0.05263158       0.15384615 </v>
   <v>       0.22222222       0.05263158       0.15384615 </v>
   <v>       0.27777778       0.05263158       0.15384615 </v>
   <v>       0.33333333       0.05263158       0.15384615 </v>
   <v>       0.38888889       0.05263158       0.15384615 </v>
   <v>       0.44444444       0.05263158       0.15384615 </v>
   <v>       0.50000000       0.05263158       0.15384615 </v>
   <v>       0.00000000       0.10526316       0.15384615 </v>
   <v>       0.05555556       0.10526316       0.15384615 </v>
   <v>       0.11111111       0.10526316       0.15384615 </v>
   <v>       0.16666667       0.10526316       0.15384615 </v>
   <v>       0.22222222       0.10526316       0.15384615 </v>
   <v>       0.27777778       0.10526316       0.15384615 </v>
   <v>       0.33333333       0.10526316       0.15384615 </v>
   <v>       0.38888889       0.10526316       0.15384615 </v>
   <v>       0.44444444       0.10526316       0.15384615 </v>
   <v>       0.50000000       0.10526316       0.15384615 </v>
   <v>       0.00000000       0.15789474       0.15384615 </v>
   <v>       0.05555556       0.15789474       0.15384615 </v>
   <v>       0.11111111       0.15789474       0.15384615 </v>
   <v>       0.16666667       0.15789474       0.15384615 </v>
   <v>       0.22222222       0.15789474       0.15384615 </v>
   <v>       0.27777778       0.15789474       0.15384615 </v>
   <v>       0.33333333       0.15789474       0.15384615 </v>
   <v>       0.38888889       0.15789474       0.15384615 </v>
   <v>       0.44444444       0.15789474       0.15384615 </v>
   <v>       0.50000000       0.15789474       0.15384615 </v>
   <v>       0.00000000       0.21052632       0.15384615 </v>
   <v>       0.05555556       0.21052632       0.15384615 </v>
   <v>       0.11111111       0.21052632       0.15384615 </v>
   <v>       0.16666667       0.21052632       0.15384615 </v>
   <v>       0.22222222       0.21052632       0.15384615 </v>
   <v>       0.27777778       0.21052632       0.15384615 </v>
   <v>       0.33333333       0.21052632       0.15384615 </v>
   <v>       0.38888889       0.21052632       0.15384615 </v>
   <v>       0.44444444       0.21052632       0.15384615 </v>
   <v>       0.50000000       0.21052632       0.15384615 </v>
   <v>       0.00000000       0.26315789       0.15384615 </v>
   <v>       0.05555556       0.26315789       0.15384615 </v>
   <v>       0.11111111       0.26315789       0.15384615 </v>
   <v>       0.16666667       0.26315789       0.15384615 </v>
   <v>       0.22222222       0.26315789       0.15384615 </v>
   <v>       0.27777778       0.26315789       0.15384615 </v>
   <v>       0.33333333       0.26315789       0.15384615 </v>
   <v>       0.38888889       0.26315789       0.15384615 </v>
   <v>       0.44444444       0.26315789       0.15384615 </v>
   <v>       0.50000000       0.26315789       0.15384615 </v>
   <v>       0.00000000       0.31578947       0.15384615 </v>
   <v>       0.05555556       0.31578947       0.15384615 </v>
   <v>       0.11111111       0.31578947       0.15384615 </v>
   <v>       0.16666667       0.31578947       0.15384615 </v>
   <v>       0.22222222       0.31578947       0.15384615 </v>
   <v>       0.27777778       0.31578947       0.15384615 </v>
   <v>       0.33333333       0.31578947       0.15384615 </v>
   <v>       0.38888889       0.31578947       0.15384615 </v>
   <v>       0.44444444       0.31578947       0.15384615 </v>
   <v>       0.50000000       0.31578947       0.15384615 </v>
   <v>       0.00000000       0.36842105       0.15384615 </v>
   <v>       0.05555556       0.36842105       0.15384615 </v>
   <v>       0.11111111       0.36842105       0.15384615 </v>
   <v>       0.16666667       0.36842105       0.15384615 </v>
   <v>       0.22222222       0.36842105       0.15384615 </v>
   <v>       0.27777778       0.36842105       0.15384615 </v>
   <v>       0.33333333       0.36842105       0.15384615 </v>
   <v>       0.38888889       0.36842105       0.15384615 </v>
   <v>       0.44444444       0.36842105       0.15384615 </v>
   <v>       0.50000000       0.36842105       0.15384615 </v>
   <v>       0.00000000       0.42105263       0.15384615 </v>
   <v>       0.05555556       0.42105263       0.15384615 </v>
   <v>       0.11111111       0.42105263       0.15384615 </v>
   <v>       0.16666667       0.42105263       0.15384615 </v>
   <v>       0.22222222       0.42105263       0.15384615 </v>
   <v>       0.27777778       0.42105263       0.15384615 </v>
   <v>       0.33333333       0.42105263       0.15384615 </v>
   <v>       0.38888889       0.42105263       0.15384615 </v>
   <v>       0.44444444       0.42105263       0.15384615 </v>
   <v>       0.50000000       0.42105263       0.15384615 </v>
   <v>       0.00000000       0.47368421       0.15384615 </v>
   <v>       0.05555556       0.47368421       0.15384615 </v>
   <v>       0.11111111       0.47368421       0.15384615 </v>
   <v>       0.16666667       0.47368421       0.15384615 </v>
   <v>       0.22222222       0.47368421       0.15384615 </v>
   <v>       0.27777778       0.47368421       0.15384615 </v>
   <v>       0.33333333       0.47368421       0.15384615 </v>
   <v>       0.38888889       0.47368421       0.15384615 </v>
   <v>       0.44444444       0.47368421       0.15384615 </v>
   <v>       0.50000000       0.47368421       0.15384615 </v>
   <v>       0.00000000      -0.47368421       0.15384615 </v>
   <v>       0.05555556      -0.47368421       0.15384615 </v>
   <v>       0.11111111      -0.47368421       0.15384615 </v>
   <v>       0.16666667      -0.47368421       0.15384615 </v>
   <v>       0.22222222      -0.47368421       0.15384615 </v>
   <v>       0.27777778      -0.47368421       0.15384615 </v>
   <v>       0.33333333      -0.47368421       0.15384615 </v>
   <v>       0.38888889      -0.47368421       0.15384615 </v>
   <v>       0.44444444      -0.47368421       0.15384615 </v>
   <v>       0.50000000      -0.47368421       0.15384615 </v>
   <v>       0.00000000      -0.42105263       0.15384615 </v>
   <v>       0.05555556      -0.42105263       0.15384615 </v>
   <v>       0.11111111      -0.42105263       0.15384615 </v>
   <v>       0.16666667      -0.42105263       0.15384615 </v>
   <v>       0.22222222      -0.42105263       0.15384615 </v>
   <v>       0.27777778      -0.42105263       0.15384615 </v>
   <v>       0.33333333      -0.42105263       0.15384615 </v>
   <v>       0.38888889      -0.42105263       0.15384615 </v>
   <v>       0.44444444      -0.42105263       0.15384615 </v>
   <v>       0.50000000      -0.42105263       0.15384615 </v>
   <v>       0.00000000      -0.36842105       0.15384615 </v>
   <v>       0.05555556      -0.36842105       0.15384615 </v>
   <v>       0.11111111      -0.36842105       0.15384615 </v>
   <v>       0.16666667      -0.36842105       0.15384615 </v>
   <v>       0.22222222      -0.36842105       0.15384615 </v>
   <v>       0.27777778      -0.36842105       0.15384615 </v>
   <v>       0.33333333      -0.36842105       0.15384615 </v>
   <v>       0.38888889      -0.36842105       0.15384615 </v>
   <v>       0.44444444      -0.36842105       0.15384615 </v>
   <v>       0.50000000      -0.36842105       0.15384615 </v>
   <v>       0.00000000      -0.31578947       0.15384615 </v>
   <v>       0.05555556      -0.31578947       0.15384615 </v>
   <v>       0.11111111      -0.31578947       0.15384615 </v>
   <v>       0.16666667      -0.31578947       0.15384615 </v>
   <v>       0.22222222      -0.31578947       0.15384615 </v>
   <v>       0.27777778      -0.31578947       0.15384615 </v>
   <v>       0.33333333      -0.31578947       0.15384615 </v>
   <v>       0.38888889      -0.31578947       0.15384615 </v>
   <v>       0.44444444      -0.31578947       0.15384615 </v>
   <v>       0.50000000      -0.31578947       0.15384615 </v>
   <v>       0.00000000      -0.26315789       0.15384615 </v>
   <v>       0.05555556      -0.26315789       0.15384615 </v>
   <v>       0.11111111      -0.26315789       0.15384615 </v>
   <v>       0.16666667      -0.26315789       0.15384615 </v>
   <v>       0.22222222      -0.26315789       0.15384615 </v>
   <v>       0.27777778      -0.26315789       0.15384615 </v>
   <v>       0.33333333      -0.26315789       0.15384615 </v>
   <v>       0.38888889      -0.26315789       0.15384615 </v>
   <v>       0.44444444      -0.26315789       0.15384615 </v>
   <v>       0.50000000      -0.26315789       0.15384615 </v>
   <v>       0.00000000      -0.21052632       0.15384615 </v>
   <v>       0.05555556      -0.21052632       0.15384615 </v>
   <v>       0.11111111      -0.21052632       0.15384615 </v>
   <v>       0.16666667      -0.21052632       0.15384615 </v>
   <v>       0.22222222      -0.21052632       0.15384615 </v>
   <v>       0.27777778      -0.21052632       0.15384615 </v>
   <v>       0.33333333      -0.21052632       0.15384615 </v>
   <v>       0.38888889      -0.21052632       0.15384615 </v>
   <v>       0.44444444      -0.21052632       0.15384615 </v>
   <v>       0.50000000      -0.21052632       0.15384615 </v>
   <v>       0.00000000      -0.15789474       0.15384615 </v>
   <v>       0.05555556      -0.15789474       0.15384615 </v>
   <v>       0.11111111      -0.15789474       0.15384615 </v>
   <v>       0.16666667      -0.15789474       0.15384615 </v>
   <v>       0.22222222      -0.15789474       0.15384615 </v>
   <v>       0.27777778      -0.15789474       0.15384615 </v>
   <v>       0.33333333      -0.15789474       0.15384615 </v>
   <v>       0.38888889      -0.15789474       0.15384615 </v>
   <v>       0.44444444      -0.15789474       0.15384615 </v>
   <v>       0.50000000      -0.15789474       0.15384615 </v>
   <v>       0.00000000      -0.10526316       0.15384615 </v>
   <v>       0.05555556      -0.10526316       0.15384615 </v>
   <v>       0.11111111      -0.10526316       0.15384615 </v>
   <v>       0.16666667      -0.10526316       0.15384615 </v>
   <v>       0.22222222      -0.10526316       0.15384615 </v>
   <v>       0.27777778      -0.10526316       0.15384615 </v>
   <v>       0.33333333      -0.10526316       0.15384615 </v>
   <v>       0.38888889      -0.10526316       0.15384615 </v>
   <v>       0.44444444      -0.10526316       0.15384615 </v>
   <v>       0.50000000      -0.10526316       0.15384615 </v>
   <v>       0.00000000      -0.05263158       0.15384615 </v>
   <v>       0.05555556      -0.05263158       0.15384615 </v>
   <v>       0.11111111      -0.05263158       0.15384615 </v>
   <v>       0.16666667      -0.05263158       0.15384615 </v>
   <v>       0.22222222      -0.05263158       0.15384615 </v>
   <v>       0.27777778      -0.05263158       0.15384615 </v>
   <v>       0.33333333      -0.05263158       0.15384615 </v>
   <v>       0.38888889      -0.05263158       0.15384615 </v>
   <v>       0.44444444      -0.05263158       0.15384615 </v>
   <v>       0.50000000      -0.05263158       0.15384615 </v>
   <v>       0.00000000       0.00000000       0.23076923 </v>
   <v>       0.05555556       0.00000000       0.23076923 </v>
   <v>       0.11111111       0.00000000       0.23076923 </v>
   <v>       0.16666667       0.00000000       0.23076923 </v>
   <v>       0.22222222       0.00000000       0.23076923 </v>
   <v>       0.27777778       0.00000000       0.23076923 </v>
   <v>       0.33333333       0.00000000       0.23076923 </v>
   <v>       0.38888889       0.00000000       0.23076923 </v>
   <v>       0.44444444       0.00000000       0.23076923 </v>
   <v>       0.50000000       0.00000000       0.23076923 </v>
   <v>       0.00000000       0.05263158       0.23076923 </v>
   <v>       0.05555556       0.05263158       0.23076923 </v>
   <v>       0.11111111       0.05263158       0.23076923 </v>
   <v>       0.16666667       0.05263158       0.23076923 </v>
   <v>       0.22222222       0.05263158       0.23076923 </v>
   <v>       0.27777778       0.05263158       0.23076923 </v>
   <v>       0.33333333       0.05263158       0.23076923 </v>
   <v>       0.38888889       0.05263158       0.23076923 </v>
   <v>       0.44444444       0.05263158       0.23076923 </v>
   <v>       0.50000000       0.05263158       0.23076923 </v>
   <v>       0.00000000       0.10526316       0.23076923 </v>
   <v>       0.05555556       0.10526316       0.23076923 </v>
   <v>       0.11111111       0.10526316       0.23076923 </v>
   <v>       0.16666667       0.10526316       0.23076923 </v>
   <v>       0.22222222       0.10526316       0.23076923 </v>
   <v>       0.27777778       0.10526316       0.23076923 </v>
   <v>       0.33333333       0.10526316       0.23076923 </v>
   <v>       0.38888889       0.10526316       0.23076923 </v>
   <v>       0.44444444       0.10526316       0.23076923 </v>
   <v>       0.50000000       0.10526316       0.23076923 </v>
   <v>       0.00000000       0.15789474       0.23076923 </v>
   <v>       0.05555556       0.15789474       0.23076923 </v>
   <v>       0.11111111       0.15789474       0.23076923 </v>
   <v>       0.16666667       0.15789474       0.23076923 </v>
   <v>       0.22222222       0.15789474       0.23076923 </v>
   <v>       0.27777778       0.15789474       0.23076923 </v>
   <v>       0.33333333       0.15789474       0.23076923 </v>
   <v>       0.38888889       0.15789474       0.23076923 </v>
   <v>       0.44444444       0.15789474       0.23076923 </v>
   <v>       0.50000000       0.15789474       0.23076923 </v>
   <v>       0.00000000       0.21052632       0.23076923 </v>
   <v>       0.05555556       0.21052632       0.23076923 </v>
   <v>       0.11111111       0.21052632       0.23076923 </v>
   <v>       0.16666667       0.21052632       0.23076923 </v>
   <v>       0.22222222       0.21052632       0.23076923 </v>
   <v>       0.27777778       0.21052632       0.23076923 </v>
   <v>       0.33333333       0.21052632       0.23076923 </v>
   <v>       0.38888889       0.21052632       0.23076923 </v>
   <v>       0.44444444       0.21052632       0.23076923 </v>
   <v>       0.50000000       0.21052632       0.23076923 </v>
   <v>       0.00000000       0.26315789       0.23076923 </v>
   <v>       0.05555556       0.26315789       0.23076923 </v>
   <v>       0.11111111       0.26315789       0.23076923 </v>
   <v>       0.16666667       0.26315789       0.23076923 </v>
   <v>       0.22222222       0.26315789       0.23076923 </v>
   <v>       0.27777778       0.26315789       0.23076923 </v>
   <v>       0.33333333       0.26315789       0.23076923 </v>
   <v>       0.38888889       0.26315789       0.23076923 </v>
   <v>       0.44444444       0.26315789       0.23076923 </v>
   <v>       0.50000000       0.26315789       0.23076923 </v>
   <v>       0.00000000       0.31578947       0.23076923 </v>
   <v>       0.05555556       0.31578947       0.23076923 </v>
   <v>       0.11111111       0.31578947       0.23076923 </v>
   <v>       0.16666667       0.31578947       0.23076923 </v>
   <v>       0.22222222       0.31578947       0.23076923 </v>
   <v>       0.27777778       0.31578947       0.23076923 </v>
   <v>       0.33333333       0.31578947       0.23076923 </v>
   <v>       0.38888889       0.31578947       0.23076923 </v>
   <v>       0.44444444       0.31578947       0.23076923 </v>
   <v>       0.50000000       0.31578947       0.23076923 </v>
   <v>       0.00000000       0.36842105       0.23076923 </v>
   <v>       0.05555556       0.36842105       0.23076923 </v>
   <v>       0.11111111       0.36842105       0.23076923 </v>
   <v>       0.16666667       0.36842105       0.23076923 </v>
   <v>       0.22222222       0.36842105       0.23076923 </v>
   <v>       0.27777778       0.36842105       0.23076923 </v>
   <v>       0.33333333       0.36842105       0.23076923 </v>
   <v>       0.38888889       0.36842105       0.23076923 </v>
   <v>       0.44444444       0.36842105       0.23076923 </v>
   <v>       0.50000000       0.36842105       0.23076923 </v>
   <v>       0.00000000       0.42105263       0.23076923 </v>
   <v>       0.05555556       0.42105263       0.23076923 </v>
   <v>       0.11111111       0.42105263       0.23076923 </v>
   <v>       0.16666667       0.42105263       0.23076923 </v>
   <v>       0.22222222       0.42105263       0.23076923 </v>
   <v>       0.27777778       0.42105263       0.23076923 </v>
   <v>       0.33333333       0.42105263       0.23076923 </v>
   <v>       0.38888889       0.42105263       0.23076923 </v>
   <v>       0.44444444       0.42105263       0.23076923 </v>
   <v>       0.50000000       0.42105263       0.23076923 </v>
   <v>       0.00000000       0.47368421       0.23076923 </v>
   <v>       0.05555556       0.47368421       0.23076923 </v>
   <v>       0.11111111       0.47368421       0.23076923 </v>
   <v>       0.16666667       0.47368421       0.23076923 </v>
   <v>       0.22222222       0.47368421       0.23076923 </v>
   <v>       0.27777778       0.47368421       0.23076923 </v>
   <v>       0.33333333       0.47368421       0.23076923 </v>
   <v>       0.38888889       0.47368421       0.23076923 </v>
   <v>       0.44444444       0.47368421       0.23076923 </v>
   <v>       0.50000000       0.47368421       0.23076923 </v>
   <v>       0.00000000      -0.47368421       0.23076923 </v>
   <v>       0.05555556      -0.47368421       0.23076923 </v>
   <v>       0.11111111      -0.47368421       0.23076923 </v>
   <v>       0.16666667      -0.47368421       0.23076923 </v>
   <v>       0.22222222      -0.47368421       0.23076923 </v>
   <v>       0.27777778      -0.47368421       0.23076923 </v>
   <v>       0.33333333      -0.47368421       0.23076923 </v>
   <v>       0.38888889      -0.47368421       0.23076923 </v>
   <v>       0.44444444      -0.47368421       0.23076923 </v>
   <v>       0.50000000      -0.47368421       0.23076923 </v>
   <v>       0.00000000      -0.42105263       0.23076923 </v>
   <v>       0.05555556      -0.42105263       0.23076923 </v>
   <v>       0.11111111      -0.42105263       0.23076923 </v>
   <v>       0.16666667      -0.42105263       0.23076923 </v>
   <v>       0.22222222      -0.42105263       0.23076923 </v>
   <v>       0.27777778      -0.42105263       0.23076923 </v>
   <v>       0.33333333      -0.42105263       0.23076923 </v>
   <v>       0.38888889      -0.42105263       0.23076923 </v>
   <v>       0.44444444      -0.42105263       0.23076923 </v>
   <v>       0.50000000      -0.42105263       0.23076923 </v>
   <v>       0.00000000      -0.36842105       0.23076923 </v>
   <v>       0.05555556      -0.36842105       0.23076923 </v>
   <v>       0.11111111      -0.36842105       0.23076923 </v>
   <v>       0.16666667      -0.36842105       0.23076923 </v>
   <v>       0.22222222      -0.36842105       0.23076923 </v>
   <v>       0.27777778      -0.36842105       0.23076923 </v>
   <v>       0.33333333      -0.36842105       0.23076923 </v>
   <v>       0.38888889      -0.36842105       0.23076923 </v>
   <v>       0.44444444      -0.36842105       0.23076923 </v>
   <v>       0.50000000      -0.36842105       0.23076923 </v>
   <v>       0.00000000      -0.31578947       0.23076923 </v>
   <v>       0.05555556      -0.31578947       0.23076923 </v>
   <v>       0.11111111      -0.31578947       0.23076923 </v>
   <v>       0.16666667      -0.31578947       0.23076923 </v>
   <v>       0.22222222      -0.31578947       0.23076923 </v>
   <v>       0.27777778      -0.31578947       0.23076923 </v>
   <v>       0.33333333      -0.31578947       0.23076923 </v>
   <v>       0.38888889      -0.31578947       0.23076923 </v>
   <v>       0.44444444      -0.31578947       0.23076923 </v>
   <v>       0.50000000      -0.31578947       0.23076923 </v>
   <v>       0.00000000      -0.26315789       0.23076923 </v>
   <v>       0.05555556      -0.26315789       0.23076923 </v>
   <v>       0.11111111      -0.26315789       0.23076923 </v>
   <v>       0.16666667      -0.26315789       0.23076923 </v>
   <v>       0.22222222      -0.26315789       0.23076923 </v>
   <v>       0.27777778      -0.26315789       0.23076923 </v>
   <v>       0.33333333      -0.26315789       0.23076923 </v>
   <v>       0.38888889      -0.26315789       0.23076923 </v>
   <v>       0.44444444      -0.26315789       0.23076923 </v>
   <v>       0.50000000      -0.26315789       0.23076923 </v>
   <v>       0.00000000      -0.21052632       0.23076923 </v>
   <v>       0.05555556      -0.21052632       0.23076923 </v>
   <v>       0.11111111      -0.21052632       0.23076923 </v>
   <v>       0.16666667      -0.21052632       0.23076923 </v>
   <v>       0.22222222      -0.21052632       0.23076923 </v>
   <v>       0.27777778      -0.21052632       0.23076923 </v>
   <v>       0.33333333      -0.21052632       0.23076923 </v>
   <v>       0.38888889      -0.21052632       0.23076923 </v>
   <v>       0.44444444      -0.21052632       0.23076923 </v>
   <v>       0.50000000      -0.21052632       0.23076923 </v>
   <v>       0.00000000      -0.15789474       0.23076923 </v>
   <v>       0.05555556      -0.15789474       0.23076923 </v>
   <v>       0.11111111      -0.15789474       0.23076923 </v>
   <v>       0.16666667      -0.15789474       0.23076923 </v>
   <v>       0.22222222      -0.15789474       0.23076923 </v>
   <v>       0.27777778      -0.15789474       0.23076923 </v>
   <v>       0.33333333      -0.15789474       0.23076923 </v>
   <v>       0.38888889      -0.15789474       0.23076923 </v>
   <v>       0.44444444      -0.15789474       0.23076923 </v>
   <v>       0.50000000      -0.15789474       0.23076923 </v>
   <v>       0.00000000      -0.10526316       0.23076923 </v>
   <v>       0.05555556      -0.10526316       0.23076923 </v>
   <v>       0.11111111      -0.10526316       0.23076923 </v>
   <v>       0.16666667      -0.10526316       0.23076923 </v>
   <v>       0.22222222      -0.10526316       0.23076923 </v>
   <v>       0.27777778      -0.10526316       0.23076923 </v>
   <v>       0.33333333      -0.10526316       0.23076923 </v>
   <v>       0.38888889      -0.10526316       0.23076923 </v>
   <v>       0.44444444      -0.10526316       0.23076923 </v>
   <v>       0.50000000      -0.10526316       0.23076923 </v>
   <v>       0.00000000      -0.05263158       0.23076923 </v>
   <v>       0.05555556      -0.05263158       0.23076923 </v>
   <v>       0.11111111      -0.05263158       0.23076923 </v>
   <v>       0.16666667      -0.05263158       0.23076923 </v>
   <v>       0.22222222      -0.05263158       0.23076923 </v>
   <v>       0.27777778      -0.05263158       0.23076923 </v>
   <v>       0.33333333      -0.05263158       0.23076923 </v>
   <v>       0.38888889      -0.05263158       0.23076923 </v>
   <v>       0.44444444      -0.05263158       0.23076923 </v>
   <v>       0.50000000      -0.05263158       0.23076923 </v>
   <v>       0.00000000       0.00000000       0.30769231 </v>
   <v>       0.05555556       0.00000000       0.30769231 </v>
   <v>       0.11111111       0.00000000       0.30769231 </v>
   <v>       0.16666667       0.00000000       0.30769231 </v>
   <v>       0.22222222       0.00000000       0.30769231 </v>
   <v>       0.27777778       0.00000000       0.30769231 </v>
   <v>       0.33333333       0.00000000       0.30769231 </v>
   <v>       0.38888889       0.00000000       0.30769231 </v>
   <v>       0.44444444       0.00000000       0.30769231 </v>
   <v>       0.50000000       0.00000000       0.30769231 </v>
   <v>       0.00000000       0.05263158       0.30769231 </v>
   <v>       0.05555556       0.05263158       0.30769231 </v>
   <v>       0.11111111       0.05263158       0.30769231 </v>
   <v>       0.16666667       0.05263158       0.30769231 </v>
   <v>       0.22222222       0.05263158       0.30769231 </v>
   <v>       0.27777778       0.05263158       0.30769231 </v>
   <v>       0.33333333       0.05263158       0.30769231 </v>
   <v>       0.38888889       0.05263158       0.30769231 </v>
   <v>       0.44444444       0.05263158       0.30769231 </v>
   <v>       0.50000000       0.05263158       0.30769231 </v>
   <v>       0.00000000       0.10526316       0.30769231 </v>
   <v>       0.05555556       0.10526316       0.30769231 </v>
   <v>       0.11111111       0.10526316       0.30769231 </v>
   <v>       0.16666667       0.10526316       0.30769231 </v>
   <v>       0.22222222       0.10526316       0.30769231 </v>
   <v>       0.27777778       0.10526316       0.30769231 </v>
   <v>       0.33333333       0.10526316       0.30769231 </v>
   <v>       0.38888889       0.10526316       0.30769231 </v>
   <v>       0.44444444       0.10526316       0.30769231 </v>
   <v>       0.50000000       0.10526316       0.30769231 </v>
   <v>       0.00000000       0.15789474       0.30769231 </v>
   <v>       0.05555556       0.15789474       0.30769231 </v>
   <v>       0.11111111       0.15789474       0.30769231 </v>
   <v>       0.16666667       0.15789474       0.30769231 </v>
   <v>       0.22222222       0.15789474       0.30769231 </v>
   <v>       0.27777778       0.15789474       0.30769231 </v>
   <v>       0.33333333       0.15789474       0.30769231 </v>
   <v>       0.38888889       0.15789474       0.30769231 </v>
   <v>       0.44444444       0.15789474       0.30769231 </v>
   <v>       0.50000000       0.15789474       0.30769231 </v>
   <v>       0.00000000       0.21052632       0.30769231 </v>
   <v>       0.05555556       0.21052632       0.30769231 </v>
   <v>       0.11111111       0.21052632       0.30769231 </v>
   <v>       0.16666667       0.21052632       0.30769231 </v>
   <v>       0.22222222       0.21052632       0.30769231 </v>
   <v>       0.27777778       0.21052632       0.30769231 </v>
   <v>       0.33333333       0.21052632       0.30769231 </v>
   <v>       0.38888889       0.21052632       0.30769231 </v>
   <v>       0.44444444       0.21052632       0.30769231 </v>
   <v>       0.50000000       0.21052632       0.30769231 </v>
   <v>       0.00000000       0.26315789       0.30769231 </v>
   <v>       0.05555556       0.26315789       0.30769231 </v>
   <v>       0.11111111       0.26315789       0.30769231 </v>
   <v>       0.16666667       0.26315789       0.30769231 </v>
   <v>       0.22222222       0.26315789       0.30769231 </v>
   <v>       0.27777778       0.26315789       0.30769231 </v>
   <v>       0.33333333       0.26315789       0.30769231 </v>
   <v>       0.38888889       0.26315789       0.30769231 </v>
   <v>       0.44444444       0.26315789       0.30769231 </v>
   <v>       0.50000000       0.26315789       0.30769231 </v>
   <v>       0.00000000       0.31578947       0.30769231 </v>
   <v>       0.05555556       0.31578947       0.30769231 </v>
   <v>       0.11111111       0.31578947       0.30769231 </v>
   <v>       0.16666667       0.31578947       0.30769231 </v>
   <v>       0.22222222       0.31578947       0.30769231 </v>
   <v>       0.27777778       0.31578947       0.30769231 </v>
   <v>       0.33333333       0.31578947       0.30769231 </v>
   <v>       0.38888889       0.31578947       0.30769231 </v>
   <v>       0.44444444       0.31578947       0.30769231 </v>
   <v>       0.50000000       0.31578947       0.30769231 </v>
   <v>       0.00000000       0.36842105       0.30769231 </v>
   <v>       0.05555556       0.36842105       0.30769231 </v>
   <v>       0.11111111       0.36842105       0.30769231 </v>
   <v>       0.16666667       0.36842105       0.30769231 </v>
   <v>       0.22222222       0.36842105       0.30769231 </v>
   <v>       0.27777778       0.36842105       0.30769231 </v>
   <v>       0.33333333       0.36842105       0.30769231 </v>
   <v>       0.38888889       0.36842105       0.30769231 </v>
   <v>       0.44444444       0.36842105       0.30769231 </v>
   <v>       0.50000000       0.36842105       0.30769231 </v>
   <v>       0.00000000       0.42105263       0.30769231 </v>
   <v>       0.05555556       0.42105263       0.30769231 </v>
   <v>       0.11111111       0.42105263       0.30769231 </v>
   <v>       0.16666667       0.42105263       0.30769231 </v>
   <v>       0.22222222       0.42105263       0.30769231 </v>
   <v>       0.27777778       0.42105263       0.30769231 </v>
   <v>       0.33333333       0.42105263       0.30769231 </v>
   <v>       0.38888889       0.42105263       0.30769231 </v>
   <v>       0.44444444       0.42105263       0.30769231 </v>
   <v>       0.50000000       0.42105263       0.30769231 </v>
   <v>       0.00000000       0.47368421       0.30769231 </v>
   <v>       0.05555556       0.47368421       0.30769231 </v>
   <v>       0.11111111       0.47368421       0.30769231 </v>
   <v>       0.16666667       0.47368421       0.30769231 </v>
   <v>       0.22222222       0.47368421       0.30769231 </v>
   <v>       0.27777778       0.47368421       0.30769231 </v>
   <v>       0.33333333       0.47368421       0.30769231 </v>
   <v>       0.38888889       0.47368421       0.30769231 </v>
   <v>       0.44444444       0.47368421       0.30769231 </v>
   <v>       0.50000000       0.47368421       0.30769231 </v>
   <v>       0.00000000      -0.47368421       0.30769231 </v>
   <v>       0.05555556      -0.47368421       0.30769231 </v>
   <v>       0.11111111      -0.47368421       0.30769231 </v>
   <v>       0.16666667      -0.47368421       0.30769231 </v>
   <v>       0.22222222      -0.47368421       0.30769231 </v>
   <v>       0.27777778      -0.47368421       0.30769231 </v>
   <v>       0.33333333      -0.47368421       0.30769231 </v>
   <v>       0.38888889      -0.47368421       0.30769231 </v>
   <v>       0.44444444      -0.47368421       0.30769231 </v>
   <v>       0.50000000      -0.47368421       0.30769231 </v>
   <v>       0.00000000      -0.42105263       0.30769231 </v>
   <v>       0.05555556      -0.42105263       0.30769231 </v>
   <v>       0.11111111      -0.42105263       0.30769231 </v>
   <v>       0.16666667      -0.42105263       0.30769231 </v>
   <v>       0.22222222      -0.42105263       0.30769231 </v>
   <v>       0.27777778      -0.42105263       0.30769231 </v>
   <v>       0.33333333      -0.42105263       0.30769231 </v>
   <v>       0.38888889      -0.42105263       0.30769231 </v>
   <v>       0.44444444      -0.42105263       0.30769231 </v>
   <v>       0.50000000      -0.42105263       0.30769231 </v>
   <v>       0.00000000      -0.36842105       0.30769231 </v>
   <v>       0.05555556      -0.36842105       0.30769231 </v>
   <v>       0.11111111      -0.36842105       0.30769231 </v>
   <v>       0.16666667      -0.36842105       0.30769231 </v>
   <v>       0.22222222      -0.36842105       0.30769231 </v>
   <v>       0.27777778      -0.36842105       0.30769231 </v>
   <v>       0.33333333      -0.36842105       0.30769231 </v>
   <v>       0.38888889      -0.36842105       0.30769231 </v>
   <v>       0.44444444      -0.36842105       0.30769231 </v>
   <v>       0.50000000      -0.36842105       0.30769231 </v>
   <v>       0.00000000      -0.31578947       0.30769231 </v>
   <v>       0.05555556      -0.31578947       0.30769231 </v>
   <v>       0.11111111      -0.31578947       0.30769231 </v>
   <v>       0.16666667      -0.31578947       0.30769231 </v>
   <v>       0.22222222      -0.31578947       0.30769231 </v>
   <v>       0.27777778      -0.31578947       0.30769231 </v>
   <v>       0.33333333      -0.31578947       0.30769231 </v>
   <v>       0.38888889      -0.31578947       0.30769231 </v>
   <v>       0.44444444      -0.31578947       0.30769231 </v>
   <v>       0.50000000      -0.31578947       0.30769231 </v>
   <v>       0.00000000      -0.26315789       0.30769231 </v>
   <v>       0.05555556      -0.26315789       0.30769231 </v>
   <v>       0.11111111      -0.26315789       0.30769231 </v>
   <v>       0.16666667      -0.26315789       0.30769231 </v>
   <v>       0.22222222      -0.26315789       0.30769231 </v>
   <v>       0.27777778      -0.26315789       0.30769231 </v>
   <v>       0.33333333      -0.26315789       0.30769231 </v>
   <v>       0.38888889      -0.26315789       0.30769231 </v>
   <v>       0.44444444      -0.26315789       0.30769231 </v>
   <v>       0.50000000      -0.26315789       0.30769231 </v>
   <v>       0.00000000      -0.21052632       0.30769231 </v>
   <v>       0.05555556      -0.21052632       0.30769231 </v>
   <v>       0.11111111      -0.21052632       0.30769231 </v>
   <v>       0.16666667      -0.21052632       0.30769231 </v>
   <v>       0.22222222      -0.21052632       0.30769231 </v>
   <v>       0.27777778      -0.21052632       0.30769231 </v>
   <v>       0.33333333      -0.21052632       0.30769231 </v>
   <v>       0.38888889      -0.21052632       0.30769231 </v>
   <v>       0.44444444      -0.21052632       0.30769231 </v>
   <v>       0.50000000      -0.21052632       0.30769231 </v>
   <v>       0.00000000      -0.15789474       0.30769231 </v>
   <v>       0.05555556      -0.15789474       0.30769231 </v>
   <v>       0.11111111      -0.15789474       0.30769231 </v>
   <v>       0.16666667      -0.15789474       0.30769231 </v>
   <v>       0.22222222      -0.15789474       0.30769231 </v>
   <v>       0.27777778      -0.15789474       0.30769231 </v>
   <v>       0.33333333      -0.15789474       0.30769231 </v>
   <v>       0.38888889      -0.15789474       0.30769231 </v>
   <v>       0.44444444      -0.15789474       0.30769231 </v>
   <v>       0.50000000      -0.15789474       0.30769231 </v>
   <v>       0.00000000      -0.10526316       0.30769231 </v>
   <v>       0.05555556      -0.10526316       0.30769231 </v>
   <v>       0.11111111      -0.10526316       0.30769231 </v>
   <v>       0.16666667      -0.10526316       0.30769231 </v>
   <v>       0.22222222      -0.10526316       0.30769231 </v>
   <v>       0.27777778      -0.10526316       0.30769231 </v>
   <v>       0.33333333      -0.10526316       0.30769231 </v>
   <v>       0.38888889      -0.10526316       0.30769231 </v>
   <v>       0.44444444      -0.10526316       0.30769231 </v>
   <v>       0.50000000      -0.10526316       0.30769231 </v>
   <v>       0.00000000      -0.05263158       0.30769231 </v>
   <v>       0.05555556      -0.05263158       0.30769231 </v>
   <v>       0.11111111      -0.05263158       0.30769231 </v>
   <v>       0.16666667      -0.05263158       0.30769231 </v>
   <v>       0.22222222      -0.05263158       0.30769231 </v>
   <v>       0.27777778      -0.05263158       0.30769231 </v>
   <v>       0.33333333      -0.05263158       0.30769231 </v>
   <v>       0.38888889      -0.05263158       0.30769231 </v>
   <v>       0.44444444      -0.05263158       0.30769231 </v>
   <v>       0.50000000      -0.05263158       0.30769231 </v>
   <v>       0.00000000       0.00000000       0.38461538 </v>
   <v>       0.05555556       0.00000000       0.38461538 </v>
   <v>       0.11111111       0.00000000       0.38461538 </v>
   <v>       0.16666667       0.00000000       0.38461538 </v>
   <v>       0.22222222       0.00000000       0.38461538 </v>
   <v>       0.27777778       0.00000000       0.38461538 </v>
   <v>       0.33333333       0.00000000       0.38461538 </v>
   <v>       0.38888889       0.00000000       0.38461538 </v>
   <v>       0.44444444       0.00000000       0.38461538 </v>
   <v>       0.50000000       0.00000000       0.38461538 </v>
   <v>       0.00000000       0.05263158       0.38461538 </v>
   <v>       0.05555556       0.05263158       0.38461538 </v>
   <v>       0.11111111       0.05263158       0.38461538 </v>
   <v>       0.16666667       0.05263158       0.38461538 </v>
   <v>       0.22222222       0.05263158       0.38461538 </v>
   <v>       0.27777778       0.05263158       0.38461538 </v>
   <v>       0.33333333       0.05263158       0.38461538 </v>
   <v>       0.38888889       0.05263158       0.38461538 </v>
   <v>       0.44444444       0.05263158       0.38461538 </v>
   <v>       0.50000000       0.05263158       0.38461538 </v>
   <v>       0.00000000       0.10526316       0.38461538 </v>
   <v>       0.05555556       0.10526316       0.38461538 </v>
   <v>       0.11111111       0.10526316       0.38461538 </v>
   <v>       0.16666667       0.10526316       0.38461538 </v>
   <v>       0.22222222       0.10526316       0.38461538 </v>
   <v>       0.27777778       0.10526316       0.38461538 </v>
   <v>       0.33333333       0.10526316       0.38461538 </v>
   <v>       0.38888889       0.10526316       0.38461538 </v>
   <v>       0.44444444       0.10526316       0.38461538 </v>
   <v>       0.50000000       0.10526316       0.38461538 </v>
   <v>       0.00000000       0.15789474       0.38461538 </v>
   <v>       0.05555556       0.15789474       0.38461538 </v>
   <v>       0.11111111       0.15789474       0.38461538 </v>
   <v>       0.16666667       0.15789474       0.38461538 </v>
   <v>       0.22222222       0.15789474       0.38461538 </v>
   <v>       0.27777778       0.15789474       0.38461538 </v>
   <v>       0.33333333       0.15789474       0.38461538 </v>
   <v>       0.38888889       0.15789474       0.38461538 </v>
   <v>       0.44444444       0.15789474       0.38461538 </v>
   <v>       0.50000000       0.15789474       0.38461538 </v>
   <v>       0.00000000       0.21052632       0.38461538 </v>
   <v>       0.05555556       0.21052632       0.38461538 </v>
   <v>       0.11111111       0.21052632       0.38461538 </v>
   <v>       0.16666667       0.21052632       0.38461538 </v>
   <v>       0.22222222       0.21052632       0.38461538 </v>
   <v>       0.27777778       0.21052632       0.38461538 </v>
   <v>       0.33333333       0.21052632       0.38461538 </v>
   <v>       0.38888889       0.21052632       0.38461538 </v>
   <v>       0.44444444       0.21052632       0.38461538 </v>
   <v>       0.50000000       0.21052632       0.38461538 </v>
   <v>       0.00000000       0.26315789       0.38461538 </v>
   <v>       0.05555556       0.26315789       0.38461538 </v>
   <v>       0.11111111       0.26315789       0.38461538 </v>
   <v>       0.16666667       0.26315789       0.38461538 </v>
   <v>       0.22222222       0.26315789       0.38461538 </v>
   <v>       0.27777778       0.26315789       0.38461538 </v>
   <v>       0.33333333       0.26315789       0.38461538 </v>
   <v>       0.38888889       0.26315789       0.38461538 </v>
   <v>       0.44444444       0.26315789       0.38461538 </v>
   <v>       0.50000000       0.26315789       0.38461538 </v>
   <v>       0.00000000       0.31578947       0.38461538 </v>
   <v>       0.05555556       0.31578947       0.38461538 </v>
   <v>       0.11111111       0.31578947       0.38461538 </v>
   <v>       0.16666667       0.31578947       0.38461538 </v>
   <v>       0.22222222       0.31578947       0.38461538 </v>
   <v>       0.27777778       0.31578947       0.38461538 </v>
   <v>       0.33333333       0.31578947       0.38461538 </v>
   <v>       0.38888889       0.31578947       0.38461538 </v>
   <v>       0.44444444       0.31578947       0.38461538 </v>
   <v>       0.50000000       0.31578947       0.38461538 </v>
   <v>       0.00000000       0.36842105       0.38461538 </v>
   <v>       0.05555556       0.36842105       0.38461538 </v>
   <v>       0.11111111       0.36842105       0.38461538 </v>
   <v>       0.16666667       0.36842105       0.38461538 </v>
   <v>       0.22222222       0.36842105       0.38461538 </v>
   <v>       0.27777778       0.36842105       0.38461538 </v>
   <v>       0.33333333       0.36842105       0.38461538 </v>
   <v>       0.38888889       0.36842105       0.38461538 </v>
   <v>       0.44444444       0.36842105       0.38461538 </v>
   <v>       0.50000000       0.36842105       0.38461538 </v>
   <v>       0.00000000       0.42105263       0.38461538 </v>
   <v>       0.05555556       0.42105263       0.38461538 </v>
   <v>       0.11111111       0.42105263       0.38461538 </v>
   <v>       0.16666667       0.42105263       0.38461538 </v>
   <v>       0.22222222       0.42105263       0.38461538 </v>
   <v>       0.27777778       0.42105263       0.38461538 </v>
   <v>       0.33333333       0.42105263       0.38461538 </v>
   <v>       0.38888889       0.42105263       0.38461538 </v>
   <v>       0.44444444       0.42105263       0.38461538 </v>
   <v>       0.50000000       0.42105263       0.38461538 </v>
   <v>       0.00000000       0.47368421       0.38461538 </v>
   <v>       0.05555556       0.47368421       0.38461538 </v>
   <v>       0.11111111       0.47368421       0.38461538 </v>
   <v>       0.16666667       0.47368421       0.38461538 </v>
   <v>       0.22222222       0.47368421       0.38461538 </v>
   <v>       0.27777778       0.47368421       0.38461538 </v>
   <v>       0.33333333       0.47368421       0.38461538 </v>
   <v>       0.38888889       0.47368421       0.38461538 </v>
   <v>       0.44444444       0.47368421       0.38461538 </v>
   <v>       0.50000000       0.47368421       0.38461538 </v>
   <v>       0.00000000      -0.47368421       0.38461538 </v>
   <v>       0.05555556      -0.47368421       0.38461538 </v>
   <v>       0.11111111      -0.47368421       0.38461538 </v>
   <v>       0.16666667      -0.47368421       0.38461538 </v>
   <v>       0.22222222      -0.47368421       0.38461538 </v>
   <v>       0.27777778      -0.47368421       0.38461538 </v>
   <v>       0.33333333      -0.47368421       0.38461538 </v>
   <v>       0.38888889      -0.47368421       0.38461538 </v>
   <v>       0.44444444      -0.47368421       0.38461538 </v>
   <v>       0.50000000      -0.47368421       0.38461538 </v>
   <v>       0.00000000      -0.42105263       0.38461538 </v>
   <v>       0.05555556      -0.42105263       0.38461538 </v>
   <v>       0.11111111      -0.42105263       0.38461538 </v>
   <v>       0.16666667      -0.42105263       0.38461538 </v>
   <v>       0.22222222      -0.42105263       0.38461538 </v>
   <v>       0.27777778      -0.42105263       0.38461538 </v>
   <v>       0.33333333      -0.42105263       0.38461538 </v>
   <v>       0.38888889      -0.42105263       0.38461538 </v>
   <v>       0.44444444      -0.42105263       0.38461538 </v>
   <v>       0.50000000      -0.42105263       0.38461538 </v>
   <v>       0.00000000      -0.36842105       0.38461538 </v>
   <v>       0.05555556      -0.36842105       0.38461538 </v>
   <v>       0.11111111      -0.36842105       0.38461538 </v>
   <v>       0.16666667      -0.36842105       0.38461538 </v>
   <v>       0.22222222      -0.36842105       0.38461538 </v>
   <v>       0.27777778      -0.36842105       0.38461538 </v>
   <v>       0.33333333      -0.36842105       0.38461538 </v>
   <v>       0.38888889      -0.36842105       0.38461538 </v>
   <v>       0.44444444      -0.36842105       0.38461538 </v>
   <v>       0.50000000      -0.36842105       0.38461538 </v>
   <v>       0.00000000      -0.31578947       0.38461538 </v>
   <v>       0.05555556      -0.31578947       0.38461538 </v>
   <v>       0.11111111      -0.31578947       0.38461538 </v>
   <v>       0.16666667      -0.31578947       0.38461538 </v>
   <v>       0.22222222      -0.31578947       0.38461538 </v>
   <v>       0.27777778      -0.31578947       0.38461538 </v>
   <v>       0.33333333      -0.31578947       0.38461538 </v>
   <v>       0.38888889      -0.31578947       0.38461538 </v>
   <v>       0.44444444      -0.31578947       0.38461538 </v>
   <v>       0.50000000      -0.31578947       0.38461538 </v>
   <v>       0.00000000      -0.26315789       0.38461538 </v>
   <v>       0.05555556      -0.26315789       0.38461538 </v>
   <v>       0.11111111      -0.26315789       0.38461538 </v>
   <v>       0.16666667      -0.26315789       0.38461538 </v>
   <v>       0.22222222      -0.26315789       0.38461538 </v>
   <v>       0.27777778      -0.26315789       0.38461538 </v>
   <v>       0.33333333      -0.26315789       0.38461538 </v>
   <v>       0.38888889      -0.26315789       0.38461538 </v>
   <v>       0.44444444      -0.26315789       0.38461538 </v>
   <v>       0.50000000      -0.26315789       0.38461538 </v>
   <v>       0.00000000      -0.21052632       0.38461538 </v>
   <v>       0.05555556      -0.21052632       0.38461538 </v>
   <v>       0.11111111      -0.21052632       0.38461538 </v>
   <v>       0.16666667      -0.21052632       0.38461538 </v>
   <v>       0.22222222      -0.21052632       0.38461538 </v>
   <v>       0.27777778      -0.21052632       0.38461538 </v>
   <v>       0.33333333      -0.21052632       0.38461538 </v>
   <v>       0.38888889      -0.21052632       0.38461538 </v>
   <v>       0.44444444      -0.21052632       0.38461538 </v>
   <v>       0.50000000      -0.21052632       0.38461538 </v>
   <v>       0.00000000      -0.15789474       0.38461538 </v>
   <v>       0.05555556      -0.15789474       0.38461538 </v>
   <v>       0.11111111      -0.15789474       0.38461538 </v>
   <v>       0.16666667      -0.15789474       0.38461538 </v>
   <v>       0.22222222      -0.15789474       0.38461538 </v>
   <v>       0.27777778      -0.15789474       0.38461538 </v>
   <v>       0.33333333      -0.15789474       0.38461538 </v>
   <v>       0.38888889      -0.15789474       0.38461538 </v>
   <v>       0.44444444      -0.15789474       0.38461538 </v>
   <v>       0.50000000      -0.15789474       0.38461538 </v>
   <v>       0.00000000      -0.10526316       0.38461538 </v>
   <v>       0.05555556      -0.10526316       0.38461538 </v>
   <v>       0.11111111      -0.10526316       0.38461538 </v>
   <v>       0.16666667      -0.10526316       0.38461538 </v>
   <v>       0.22222222      -0.10526316       0.38461538 </v>
   <v>       0.27777778      -0.10526316       0.38461538 </v>
   <v>       0.33333333      -0.10526316       0.38461538 </v>
   <v>       0.38888889      -0.10526316       0.38461538 </v>
   <v>       0.44444444      -0.10526316       0.38461538 </v>
   <v>       0.50000000      -0.10526316       0.38461538 </v>
   <v>       0.00000000      -0.05263158       0.38461538 </v>
   <v>       0.05555556      -0.05263158       0.38461538 </v>
   <v>       0.11111111      -0.05263158       0.38461538 </v>
   <v>       0.16666667      -0.05263158       0.38461538 </v>
   <v>       0.22222222      -0.05263158       0.38461538 </v>
   <v>       0.27777778      -0.05263158       0.38461538 </v>
   <v>       0.33333333      -0.05263158       0.38461538 </v>
   <v>       0.38888889      -0.05263158       0.38461538 </v>
   <v>       0.44444444      -0.05263158       0.38461538 </v>
   <v>       0.50000000      -0.05263158       0.38461538 </v>
   <v>       0.00000000       0.00000000       0.46153846 </v>
   <v>       0.05555556       0.00000000       0.46153846 </v>
   <v>       0.11111111       0.00000000       0.46153846 </v>
   <v>       0.16666667       0.00000000       0.46153846 </v>
   <v>       0.22222222       0.00000000       0.46153846 </v>
   <v>       0.27777778       0.00000000       0.46153846 </v>
   <v>       0.33333333       0.00000000       0.46153846 </v>
   <v>       0.38888889       0.00000000       0.46153846 </v>
   <v>       0.44444444       0.00000000       0.46153846 </v>
   <v>       0.50000000       0.00000000       0.46153846 </v>
   <v>       0.00000000       0.05263158       0.46153846 </v>
   <v>       0.05555556       0.05263158       0.46153846 </v>
   <v>       0.11111111       0.05263158       0.46153846 </v>
   <v>       0.16666667       0.05263158       0.46153846 </v>
   <v>       0.22222222       0.05263158       0.46153846 </v>
   <v>       0.27777778       0.05263158       0.46153846 </v>
   <v>       0.33333333       0.05263158       0.46153846 </v>
   <v>       0.38888889       0.05263158       0.46153846 </v>
   <v>       0.44444444       0.05263158       0.46153846 </v>
   <v>       0.50000000       0.05263158       0.46153846 </v>
   <v>       0.00000000       0.10526316       0.46153846 </v>
   <v>       0.05555556       0.10526316       0.46153846 </v>
   <v>       0.11111111       0.10526316       0.46153846 </v>
   <v>       0.16666667       0.10526316       0.46153846 </v>
   <v>       0.22222222       0.10526316       0.46153846 </v>
   <v>       0.27777778       0.10526316       0.46153846 </v>
   <v>       0.33333333       0.10526316       0.46153846 </v>
   <v>       0.38888889       0.10526316       0.46153846 </v>
   <v>       0.44444444       0.10526316       0.46153846 </v>
   <v>       0.50000000       0.10526316       0.46153846 </v>
   <v>       0.00000000       0.15789474       0.46153846 </v>
   <v>       0.05555556       0.15789474       0.46153846 </v>
   <v>       0.11111111       0.15789474       0.46153846 </v>
   <v>       0.16666667       0.15789474       0.46153846 </v>
   <v>       0.22222222       0.15789474       0.46153846 </v>
   <v>       0.27777778       0.15789474       0.46153846 </v>
   <v>       0.33333333       0.15789474       0.46153846 </v>
   <v>       0.38888889       0.15789474       0.46153846 </v>
   <v>       0.44444444       0.15789474       0.46153846 </v>
   <v>       0.50000000       0.15789474       0.46153846 </v>
   <v>       0.00000000       0.21052632       0.46153846 </v>
   <v>       0.05555556       0.21052632       0.46153846 </v>
   <v>       0.11111111       0.21052632       0.46153846 </v>
   <v>       0.16666667       0.21052632       0.46153846 </v>
   <v>       0.22222222       0.21052632       0.46153846 </v>
   <v>       0.27777778       0.21052632       0.46153846 </v>
   <v>       0.33333333       0.21052632       0.46153846 </v>
   <v>       0.38888889       0.21052632       0.46153846 </v>
   <v>       0.44444444       0.21052632       0.46153846 </v>
   <v>       0.50000000       0.21052632       0.46153846 </v>
   <v>       0.00000000       0.26315789       0.46153846 </v>
   <v>       0.05555556       0.26315789       0.46153846 </v>
   <v>       0.11111111       0.26315789       0.46153846 </v>
   <v>       0.16666667       0.26315789       0.46153846 </v>
   <v>       0.22222222       0.26315789       0.46153846 </v>
   <v>       0.27777778       0.26315789       0.46153846 </v>
   <v>       0.33333333       0.26315789       0.46153846 </v>
   <v>       0.38888889       0.26315789       0.46153846 </v>
   <v>       0.44444444       0.26315789       0.46153846 </v>
   <v>       0.50000000       0.26315789       0.46153846 </v>
   <v>       0.00000000       0.31578947       0.46153846 </v>
   <v>       0.05555556       0.31578947       0.46153846 </v>
   <v>       0.11111111       0.31578947       0.46153846 </v>
   <v>       0.16666667       0.31578947       0.46153846 </v>
   <v>       0.22222222       0.31578947       0.46153846 </v>
   <v>       0.27777778       0.31578947       0.46153846 </v>
   <v>       0.33333333       0.31578947       0.46153846 </v>
   <v>       0.38888889       0.31578947       0.46153846 </v>
   <v>       0.44444444       0.31578947       0.46153846 </v>
   <v>       0.50000000       0.31578947       0.46153846 </v>
   <v>       0.00000000       0.36842105       0.46153846 </v>
   <v>       0.05555556       0.36842105       0.46153846 </v>
   <v>       0.11111111       0.36842105       0.46153846 </v>
   <v>       0.16666667       0.36842105       0.46153846 </v>
   <v>       0.22222222       0.36842105       0.46153846 </v>
   <v>       0.27777778       0.36842105       0.46153846 </v>
   <v>       0.33333333       0.36842105       0.46153846 </v>
   <v>       0.38888889       0.36842105       0.46153846 </v>
   <v>       0.44444444       0.36842105       0.46153846 </v>
   <v>       0.50000000       0.36842105       0.46153846 </v>
   <v>       0.00000000       0.42105263       0.46153846 </v>
   <v>       0.05555556       0.42105263       0.46153846 </v>
   <v>       0.11111111       0.42105263       0.46153846 </v>
   <v>       0.16666667       0.42105263       0.46153846 </v>
   <v>       0.22222222       0.42105263       0.46153846 </v>
   <v>       0.27777778       0.42105263       0.46153846 </v>
   <v>       0.33333333       0.42105263       0.46153846 </v>
   <v>       0.38888889       0.42105263       0.46153846 </v>
   <v>       0.44444444       0.42105263       0.46153846 </v>
   <v>       0.50000000       0.42105263       0.46153846 </v>
   <v>       0.00000000       0.47368421       0.46153846 </v>
   <v>       0.05555556       0.47368421       0.46153846 </v>
   <v>       0.11111111       0.47368421       0.46153846 </v>
   <v>       0.16666667       0.47368421       0.46153846 </v>
   <v>       0.22222222       0.47368421       0.46153846 </v>
   <v>       0.27777778       0.47368421       0.46153846 </v>
   <v>       0.33333333       0.47368421       0.46153846 </v>
   <v>       0.38888889       0.47368421       0.46153846 </v>
   <v>       0.44444444       0.47368421       0.46153846 </v>
   <v>       0.50000000       0.47368421       0.46153846 </v>
   <v>       0.00000000      -0.47368421       0.46153846 </v>
   <v>       0.05555556      -0.47368421       0.46153846 </v>
   <v>       0.11111111      -0.47368421       0.46153846 </v>
   <v>       0.16666667      -0.47368421       0.46153846 </v>
   <v>       0.22222222      -0.47368421       0.46153846 </v>
   <v>       0.27777778      -0.47368421       0.46153846 </v>
   <v>       0.33333333      -0.47368421       0.46153846 </v>
   <v>       0.38888889      -0.47368421       0.46153846 </v>
   <v>       0.44444444      -0.47368421       0.46153846 </v>
   <v>       0.50000000      -0.47368421       0.46153846 </v>
   <v>       0.00000000      -0.42105263       0.46153846 </v>
   <v>       0.05555556      -0.42105263       0.46153846 </v>
   <v>       0.11111111      -0.42105263       0.46153846 </v>
   <v>       0.16666667      -0.42105263       0.46153846 </v>
   <v>       0.22222222      -0.42105263       0.46153846 </v>
   <v>       0.27777778      -0.42105263       0.46153846 </v>
   <v>       0.33333333      -0.42105263       0.46153846 </v>
   <v>       0.38888889      -0.42105263       0.46153846 </v>
   <v>       0.44444444      -0.42105263       0.46153846 </v>
   <v>       0.50000000      -0.42105263       0.46153846 </v>
   <v>       0.00000000      -0.36842105       0.46153846 </v>
   <v>       0.05555556      -0.36842105       0.46153846 </v>
   <v>       0.11111111      -0.36842105       0.46153846 </v>
   <v>       0.16666667      -0.36842105       0.46153846 </v>
   <v>       0.22222222      -0.36842105       0.46153846 </v>
   <v>       0.27777778      -0.36842105       0.46153846 </v>
   <v>       0.33333333      -0.36842105       0.46153846 </v>
   <v>       0.38888889      -0.36842105       0.46153846 </v>
   <v>       0.44444444      -0.36842105       0.46153846 </v>
   <v>       0.50000000      -0.36842105       0.46153846 </v>
   <v>       0.00000000      -0.31578947       0.46153846 </v>
   <v>       0.05555556      -0.31578947       0.46153846 </v>
   <v>       0.11111111      -0.31578947       0.46153846 </v>
   <v>       0.16666667      -0.31578947       0.46153846 </v>
   <v>       0.22222222      -0.31578947       0.46153846 </v>
   <v>       0.27777778      -0.31578947       0.46153846 </v>
   <v>       0.33333333      -0.31578947       0.46153846 </v>
   <v>       0.38888889      -0.31578947       0.46153846 </v>
   <v>       0.44444444      -0.31578947       0.46153846 </v>
   <v>       0.50000000      -0.31578947       0.46153846 </v>
   <v>       0.00000000      -0.26315789       0.46153846 </v>
   <v>       0.05555556      -0.26315789       0.46153846 </v>
   <v>       0.11111111      -0.26315789       0.46153846 </v>
   <v>       0.16666667      -0.26315789       0.46153846 </v>
   <v>       0.22222222      -0.26315789       0.46153846 </v>
   <v>       0.27777778      -0.26315789       0.46153846 </v>
   <v>       0.33333333      -0.26315789       0.46153846 </v>
   <v>       0.38888889      -0.26315789       0.46153846 </v>
   <v>       0.44444444      -0.26315789       0.46153846 </v>
   <v>       0.50000000      -0.26315789       0.46153846 </v>
   <v>       0.00000000      -0.21052632       0.46153846 </v>
   <v>       0.05555556      -0.21052632       0.46153846 </v>
   <v>       0.11111111      -0.21052632       0.46153846 </v>
   <v>       0.16666667      -0.21052632       0.46153846 </v>
   <v>       0.22222222      -0.21052632       0.46153846 </v>
   <v>       0.27777778      -0.21052632       0.46153846 </v>
   <v>       0.33333333      -0.21052632       0.46153846 </v>
   <v>       0.38888889      -0.21052632       0.46153846 </v>
   <v>       0.44444444      -0.21052632       0.46153846 </v>
   <v>       0.50000000      -0.21052632       0.46153846 </v>
   <v>       0.00000000      -0.15789474       0.46153846 </v>
   <v>       0.05555556      -0.15789474       0.46153846 </v>
   <v>       0.11111111      -0.15789474       0.46153846 </v>
   <v>       0.16666667      -0.15789474       0.46153846 </v>
   <v>       0.22222222      -0.15789474       0.46153846 </v>
   <v>       0.27777778      -0.15789474       0.46153846 </v>
   <v>       0.33333333      -0.15789474       0.46153846 </v>
   <v>       0.38888889      -0.15789474       0.46153846 </v>
   <v>       0.44444444      -0.15789474       0.46153846 </v>
   <v>       0.50000000      -0.15789474       0.46153846 </v>
   <v>       0.00000000      -0.10526316       0.46153846 </v>
   <v>       0.05555556      -0.10526316       0.46153846 </v>
   <v>       0.11111111      -0.10526316       0.46153846 </v>
   <v>       0.16666667      -0.10526316       0.46153846 </v>
   <v>       0.22222222      -0.10526316       0.46153846 </v>
   <v>       0.27777778      -0.10526316       0.46153846 </v>
   <v>       0.33333333      -0.10526316       0.46153846 </v>
   <v>       0.38888889      -0.10526316       0.46153846 </v>
   <v>       0.44444444      -0.10526316       0.46153846 </v>
   <v>       0.50000000      -0.10526316       0.46153846 </v>
   <v>       0.00000000      -0.05263158       0.46153846 </v>
   <v>       0.05555556      -0.05263158       0.46153846 </v>
   <v>       0.11111111      -0.05263158       0.46153846 </v>
   <v>       0.16666667      -0.05263158       0.46153846 </v>
   <v>       0.22222222      -0.05263158       0.46153846 </v>
   <v>       0.27777778      -0.05263158       0.46153846 </v>
   <v>       0.33333333      -0.05263158       0.46153846 </v>
   <v>       0.38888889      -0.05263158       0.46153846 </v>
   <v>       0.44444444      -0.05263158       0.46153846 </v>
   <v>       0.50000000      -0.05263158       0.46153846 </v>
  </varray>
  <varray name="weights" >
   <v>       0.00022492 </v>
   <v>       0.00044984 </v>
   <v>       0.00044984 </v>
[...]
       <r>    5.4612    1.0000 </r>
       <r>    5.4801    1.0000 </r>
       <r>    5.4987    1.0000 </r>
       <r>    5.6010    1.0000 </r>
       <r>    5.6901    1.0000 </r>
       <r>    5.7003    1.0000 </r>
       <r>    5.8538    1.0000 </r>
       <r>    6.0253    1.0000 </r>
       <r>    6.1971    1.0000 </r>
       <r>    6.2901    1.0000 </r>
       <r>    6.3474    1.0000 </r>
       <r>    6.9600    1.0003 </r>
       <r>    7.5169    1.0161 </r>
       <r>   11.2029    0.0000 </r>
       <r>   13.4035    0.0000 </r>
       <r>   13.5529    0.0000 </r>
       <r>   14.3908    0.0000 </r>
       <r>   15.6336    0.0000 </r>
       <r>   15.8758    0.0000 </r>
      </set>
      <set comment="kpoint 1239">
       <r>    1.4768    1.0000 </r>
       <r>    1.8022    1.0000 </r>
       <r>    1.9911    1.0000 </r>
       <r>    2.2918    1.0000 </r>
       <r>    2.6781    1.0000 </r>
       <r>    2.7228    1.0000 </r>
       <r>    2.7963    1.0000 </r>
       <r>    2.8836    1.0000 </r>
       <r>    3.0831    1.0000 </r>
       <r>    3.1941    1.0000 </r>
       <r>    3.6554    1.0000 </r>
       <r>    3.7684    1.0000 </r>
       <r>    3.8427    1.0000 </r>
       <r>    3.9841    1.0000 </r>
       <r>    4.3534    1.0000 </r>
       <r>    4.3752    1.0000 </r>
       <r>    4.5550    1.0000 </r>
       <r>    4.7598    1.0000 </r>
       <r>    4.9224    1.0000 </r>
       <r>    5.0943    1.0000 </r>
       <r>    5.2178    1.0000 </r>
       <r>    5.3895    1.0000 </r>
       <r>    5.4618    1.0000 </r>
       <r>    5.5340    1.0000 </r>
       <r>    5.5486    1.0000 </r>
       <r>    5.6527    1.0000 </r>
       <r>    5.6965    1.0000 </r>
       <r>    5.7965    1.0000 </r>
       <r>    6.1545    1.0000 </r>
       <r>    6.2048    1.0000 </r>
       <r>    6.3440    1.0000 </r>
       <r>    6.4798    1.0000 </r>
       <r>    6.6554    1.0000 </r>
       <r>    7.1106    1.0029 </r>
       <r>   11.7629    0.0000 </r>
       <r>   12.9598    0.0000 </r>
       <r>   13.9934    0.0000 </r>
       <r>   14.6352    0.0000 </r>
       <r>   15.2459    0.0000 </r>
       <r>   15.4158    0.0000 </r>
      </set>
      <set comment="kpoint 1240">
       <r>    1.6627    1.0000 </r>
       <r>    1.7781    1.0000 </r>
       <r>    1.9846    1.0000 </r>
       <r>    2.3441    1.0000 </r>
       <r>    2.7636    1.0000 </r>
       <r>    2.8112    1.0000 </r>
       <r>    2.8605    1.0000 </r>
       <r>    2.8840    1.0000 </r>
       <r>    3.0062    1.0000 </r>
       <r>    3.0142    1.0000 </r>
       <r>    3.6401    1.0000 </r>
       <r>    3.7262    1.0000 </r>
       <r>    3.7599    1.0000 </r>
       <r>    3.9630    1.0000 </r>
       <r>    4.3611    1.0000 </r>
       <r>    4.3691    1.0000 </r>
       <r>    4.6398    1.0000 </r>
       <r>    4.6534    1.0000 </r>
       <r>    4.9267    1.0000 </r>
       <r>    5.0873    1.0000 </r>
       <r>    5.2447    1.0000 </r>
       <r>    5.3441    1.0000 </r>
       <r>    5.4722    1.0000 </r>
       <r>    5.4961    1.0000 </r>
       <r>    5.5742    1.0000 </r>
       <r>    5.6299    1.0000 </r>
       <r>    5.7187    1.0000 </r>
       <r>    5.7557    1.0000 </r>
       <r>    6.1969    1.0000 </r>
       <r>    6.2808    1.0000 </r>
       <r>    6.3604    1.0000 </r>
       <r>    6.4213    1.0000 </r>
       <r>    6.7204    1.0000 </r>
       <r>    6.8429    1.0000 </r>
       <r>   12.2288    0.0000 </r>
       <r>   12.4833    0.0000 </r>
       <r>   14.3997    0.0000 </r>
       <r>   14.8883    0.0000 </r>
       <r>   14.9769    0.0000 </r>
       <r>   14.9773    0.0000 </r>
      </set>
     </set>
    </set>
   </array>
  </eigenvalues>
  <separator name="orbital magnetization" >
   <v name="MAGDIPOLOUT">      0.00000000      0.00000000      0.00000000</v>
  </separator>
  <dos>
   <i name="efermi">      7.79551685 </i>
   <total>
    <array>
     <dimension dim="1">gridpoints</dimension>
     <dimension dim="2">spin</dimension>
     <field>energy</field>
     <field>total</field>
     <field>integrated</field>
     <set>
      <set comment="spin 1">
       <r>    -4.1821     0.0000     0.0000 </r>
       <r>    -4.1044     0.0000     0.0000 </r>
       <r>    -4.0266     0.0000     0.0000 </r>
       <r>    -3.9489     0.0000     0.0000 </r>
       <r>    -3.8712     0.0000     0.0000 </r>
       <r>    -3.7934     0.0000     0.0000 </r>
       <r>    -3.7157     0.0000     0.0000 </r>
       <r>    -3.6380     0.0000     0.0000 </r>
       <r>    -3.5602     0.0000     0.0000 </r>
       <r>    -3.4825     0.0000     0.0000 </r>
       <r>    -3.4048     0.0000     0.0000 </r>
       <r>    -3.3271     0.0000     0.0000 </r>
       <r>    -3.2493     0.0000     0.0000 </r>
       <r>    -3.1716     0.0000     0.0000 </r>
       <r>    -3.0939     0.0000     0.0000 </r>
       <r>    -3.0161     0.0000     0.0000 </r>
       <r>    -2.9384     0.0000     0.0000 </r>
       <r>    -2.8607     0.0000     0.0000 </r>
       <r>    -2.7829     0.0000     0.0000 </r>
       <r>    -2.7052     0.0000     0.0000 </r>
       <r>    -2.6275     0.0000     0.0000 </r>
       <r>    -2.5498     0.0000     0.0000 </r>
       <r>    -2.4720     0.0000     0.0000 </r>
       <r>    -2.3943     0.0000     0.0000 </r>
       <r>    -2.3166     0.0000     0.0000 </r>
       <r>    -2.2388     0.0000     0.0000 </r>
       <r>    -2.1611     0.0000     0.0000 </r>
       <r>    -2.0834     0.0000     0.0000 </r>
       <r>    -2.0056     0.0000     0.0000 </r>
       <r>    -1.9279    -0.0001     0.0000 </r>
       <r>    -1.8502    -0.0003     0.0000 </r>
       <r>    -1.7724    -0.0007    -0.0001 </r>
       <r>    -1.6947    -0.0017    -0.0002 </r>
       <r>    -1.6170    -0.0035    -0.0005 </r>
       <r>    -1.5393    -0.0059    -0.0010 </r>
       <r>    -1.4615    -0.0075    -0.0015 </r>
       <r>    -1.3838    -0.0052    -0.0019 </r>
       <r>    -1.3061     0.0054    -0.0015 </r>
       <r>    -1.2283     0.0283     0.0007 </r>
       <r>    -1.1506     0.0651     0.0057 </r>
       <r>    -1.0729     0.1133     0.0146 </r>
       <r>    -0.9951     0.1670     0.0275 </r>
       <r>    -0.9174     0.2199     0.0446 </r>
       <r>    -0.8397     0.2677     0.0654 </r>
       <r>    -0.7620     0.3091     0.0895 </r>
       <r>    -0.6842     0.3453     0.1163 </r>
       <r>    -0.6065     0.3779     0.1457 </r>
       <r>    -0.5288     0.4089     0.1775 </r>
       <r>    -0.4510     0.4397     0.2116 </r>
       <r>    -0.3733     0.4709     0.2482 </r>
       <r>    -0.2956     0.5032     0.2873 </r>
       <r>    -0.2178     0.5367     0.3291 </r>
       <r>    -0.1401     0.5706     0.3734 </r>
       <r>    -0.0624     0.6028     0.4203 </r>
       <r>     0.0154     0.6306     0.4693 </r>
       <r>     0.0931     0.6525     0.5200 </r>
       <r>     0.1708     0.6699     0.5721 </r>
       <r>     0.2485     0.6863     0.6254 </r>
       <r>     0.3263     0.7061     0.6803 </r>
       <r>     0.4040     0.7332     0.7373 </r>
       <r>     0.4817     0.7705     0.7972 </r>
       <r>     0.5595     0.8187     0.8608 </r>
       <r>     0.6372     0.8758     0.9289 </r>
       <r>     0.7149     0.9378     1.0018 </r>
       <r>     0.7927     1.0009     1.0796 </r>
       <r>     0.8704     1.0655     1.1624 </r>
       <r>     0.9481     1.1404     1.2511 </r>
       <r>     1.0258     1.2471     1.3480 </r>
       <r>     1.1036     1.4216     1.4585 </r>
       <r>     1.1813     1.7111     1.5915 </r>
       <r>     1.2590     2.1630     1.7597 </r>
       <r>     1.3368     2.8089     1.9780 </r>
       <r>     1.4145     3.6455     2.2614 </r>
       <r>     1.4922     4.6168     2.6202 </r>
       <r>     1.5700     5.6071     3.0561 </r>
       <r>     1.6477     6.4647     3.5586 </r>
       <r>     1.7254     7.0591     4.1073 </r>
       <r>     1.8032     7.3489     4.6785 </r>
       <r>     1.8809     7.4132     5.2547 </r>
       <r>     1.9586     7.4107     5.8308 </r>
       <r>     2.0363     7.4783     6.4121 </r>
       <r>     2.1141     7.6350     7.0055 </r>
       <r>     2.1918     7.7687     7.6094 </r>
       <r>     2.2695     7.7324     8.2104 </r>
       <r>     2.3473     7.4822     8.7920 </r>
       <r>     2.4250     7.1483     9.3477 </r>
       <r>     2.5027     6.9829     9.8904 </r>
       <r>     2.5805     7.2237    10.4520 </r>
       <r>     2.6582     7.9548    11.0703 </r>
       <r>     2.7359     9.0288    11.7721 </r>
       <r>     2.8136    10.0851    12.5560 </r>
       <r>     2.8914    10.6806    13.3862 </r>
       <r>     2.9691    10.4995    14.2023 </r>
       <r>     3.0468     9.5294    14.9431 </r>
       <r>     3.1246     8.0752    15.5708 </r>
       <r>     3.2023     6.5903    16.0830 </r>
       <r>     3.2800     5.4557    16.5071 </r>
       <r>     3.3578     4.8704    16.8857 </r>
       <r>     3.4355     4.8874    17.2656 </r>
       <r>     3.5132     5.4959    17.6928 </r>
       <r>     3.5909     6.6371    18.2087 </r>
       <r>     3.6687     8.1489    18.8421 </r>
       <r>     3.7464     9.7390    19.5991 </r>
       <r>     3.8241    11.0804    20.4604 </r>
       <r>     3.9019    12.0074    21.3937 </r>
       <r>     3.9796    12.6544    22.3773 </r>
       <r>     4.0573    13.3689    23.4165 </r>
       <r>     4.1351    14.4061    24.5363 </r>
       <r>     4.2128    15.6339    25.7515 </r>
       <r>     4.2905    16.5237    27.0359 </r>
       <r>     4.3683    16.4817    28.3171 </r>
       <r>     4.4460    15.2740    29.5043 </r>
       <r>     4.5237    13.2188    30.5318 </r>
       <r>     4.6014    11.0211    31.3885 </r>
       <r>     4.6792     9.4192    32.1207 </r>
       <r>     4.7569     8.9026    32.8127 </r>
       <r>     4.8346     9.6225    33.5606 </r>
       <r>     4.9124    11.4335    34.4493 </r>
       <r>     4.9901    13.9674    35.5350 </r>
       <r>     5.0678    16.7213    36.8348 </r>
       <r>     5.1456    19.1869    38.3262 </r>
       <r>     5.2233    20.9915    39.9579 </r>
       <r>     5.3010    21.9584    41.6647 </r>
       <r>     5.3787    22.0645    43.3798 </r>
       <r>     5.4565    21.4046    45.0436 </r>
       <r>     5.5342    20.2618    46.6185 </r>
       <r>     5.6119    19.1851    48.1098 </r>
       <r>     5.6897    18.8619    49.5760 </r>
       <r>     5.7674    19.7491    51.1111 </r>
       <r>     5.8451    21.7111    52.7987 </r>
       <r>     5.9229    23.9557    54.6608 </r>
       <r>     6.0006    25.3341    56.6300 </r>
       <r>     6.0783    24.8486    58.5615 </r>
       <r>     6.1561    22.1242    60.2812 </r>
       <r>     6.2338    17.6150    61.6504 </r>
       <r>     6.3115    12.4088    62.6150 </r>
       <r>     6.3892     7.7115    63.2144 </r>
       <r>     6.4670     4.3213    63.5503 </r>
       <r>     6.5447     2.4039    63.7371 </r>
       <r>     6.6224     1.6360    63.8643 </r>
       <r>     6.7002     1.5254    63.9829 </r>
       <r>     6.7779     1.6670    64.1124 </r>
       <r>     6.8556     1.8322    64.2549 </r>
       <r>     6.9334     1.9358    64.4053 </r>
       <r>     7.0111     1.9686    64.5584 </r>
       <r>     7.0888     1.9509    64.7100 </r>
       <r>     7.1665     1.9085    64.8583 </r>
       <r>     7.2443     1.8638    65.0032 </r>
       <r>     7.3220     1.8307    65.1455 </r>
       <r>     7.3997     1.8137    65.2865 </r>
       <r>     7.4775     1.8088    65.4271 </r>
       <r>     7.5552     1.8080    65.5676 </r>
       <r>     7.6329     1.8050    65.7079 </r>
       <r>     7.7107     1.7994    65.8478 </r>
       <r>     7.7884     1.7937    65.9872 </r>
       <r>     7.8661     1.7877    66.1262 </r>
       <r>     7.9439     1.7777    66.2644 </r>
       <r>     8.0216     1.7607    66.4012 </r>
       <r>     8.0993     1.7399    66.5365 </r>
       <r>     8.1770     1.7225    66.6704 </r>
       <r>     8.2548     1.7130    66.8035 </r>
       <r>     8.3325     1.7087    66.9364 </r>
       <r>     8.4102     1.7037    67.0688 </r>
       <r>     8.4880     1.6962    67.2006 </r>
       <r>     8.5657     1.6903    67.3320 </r>
       <r>     8.6434     1.6896    67.4633 </r>
       <r>     8.7212     1.6888    67.5946 </r>
       <r>     8.7989     1.6757    67.7249 </r>
       <r>     8.8766     1.6426    67.8526 </r>
       <r>     8.9543     1.5981    67.9768 </r>
       <r>     9.0321     1.5636    68.0983 </r>
       <r>     9.1098     1.5560    68.2193 </r>
       <r>     9.1875     1.5725    68.3415 </r>
       <r>     9.2653     1.5914    68.4652 </r>
       <r>     9.3430     1.5887    68.5887 </r>
       <r>     9.4207     1.5548    68.7095 </r>
       <r>     9.4985     1.4988    68.8260 </r>
       <r>     9.5762     1.4408    68.9380 </r>
       <r>     9.6539     1.3993    69.0468 </r>
       <r>     9.7317     1.3824    69.1543 </r>
       <r>     9.8094     1.3849    69.2619 </r>
       <r>     9.8871     1.3919    69.3701 </r>
       <r>     9.9648     1.3881    69.4780 </r>
       <r>    10.0426     1.3664    69.5842 </r>
       <r>    10.1203     1.3316    69.6877 </r>
       <r>    10.1980     1.2956    69.7884 </r>
       <r>    10.2758     1.2667    69.8869 </r>
       <r>    10.3535     1.2438    69.9836 </r>
       <r>    10.4312     1.2199    70.0784 </r>
       <r>    10.5090     1.1916    70.1710 </r>
       <r>    10.5867     1.1656    70.2616 </r>
       <r>    10.6644     1.1555    70.3514 </r>
       <r>    10.7421     1.1725    70.4426 </r>
       <r>    10.8199     1.2165    70.5371 </r>
       <r>    10.8976     1.2732    70.6361 </r>
       <r>    10.9753     1.3222    70.7389 </r>
       <r>    11.0531     1.3487    70.8437 </r>
       <r>    11.1308     1.3525    70.9488 </r>
       <r>    11.2085     1.3467    71.0535 </r>
       <r>    11.2863     1.3483    71.1583 </r>
       <r>    11.3640     1.3682    71.2647 </r>
       <r>    11.4417     1.4054    71.3739 </r>
       <r>    11.5195     1.4507    71.4867 </r>
       <r>    11.5972     1.4960    71.6029 </r>
       <r>    11.6749     1.5408    71.7227 </r>
       <r>    11.7526     1.5898    71.8463 </r>
       <r>    11.8304     1.6447    71.9741 </r>
       <r>    11.9081     1.6989    72.1062 </r>
       <r>    11.9858     1.7428    72.2417 </r>
       <r>    12.0636     1.7735    72.3795 </r>
       <r>    12.1413     1.7976    72.5192 </r>
       <r>    12.2190     1.8230    72.6609 </r>
       <r>    12.2968     1.8482    72.8046 </r>
       <r>    12.3745     1.8607    72.9492 </r>
       <r>    12.4522     1.8475    73.0928 </r>
       <r>    12.5299     1.8073    73.2333 </r>
       <r>    12.6077     1.7539    73.3697 </r>
       <r>    12.6854     1.7072    73.5024 </r>
       <r>    12.7631     1.6797    73.6329 </r>
       <r>    12.8409     1.6721    73.7629 </r>
       <r>    12.9186     1.6774    73.8933 </r>
       <r>    12.9963     1.6885    74.0245 </r>
       <r>    13.0741     1.7015    74.1568 </r>
       <r>    13.1518     1.7151    74.2901 </r>
       <r>    13.2295     1.7299    74.4246 </r>
       <r>    13.3073     1.7494    74.5606 </r>
       <r>    13.3850     1.7805    74.6990 </r>
       <r>    13.4627     1.8304    74.8412 </r>
       <r>    13.5404     1.9003    74.9889 </r>
       <r>    13.6182     1.9817    75.1430 </r>
       <r>    13.6959     2.0580    75.3030 </r>
       <r>    13.7736     2.1121    75.4671 </r>
       <r>    13.8514     2.1338    75.6330 </r>
       <r>    13.9291     2.1234    75.7980 </r>
       <r>    14.0068     2.0898    75.9605 </r>
       <r>    14.0846     2.0470    76.1196 </r>
       <r>    14.1623     2.0109    76.2759 </r>
       <r>    14.2400     1.9955    76.4310 </r>
       <r>    14.3177     2.0080    76.5871 </r>
       <r>    14.3955     2.0439    76.7460 </r>
       <r>    14.4732     2.0878    76.9083 </r>
       <r>    14.5509     2.1223    77.0732 </r>
       <r>    14.6287     2.1382    77.2394 </r>
       <r>    14.7064     2.1387    77.4057 </r>
       <r>    14.7841     2.1316    77.5713 </r>
       <r>    14.8619     2.1202    77.7362 </r>
       <r>    14.9396     2.1006    77.8994 </r>
       <r>    15.0173     2.0693    78.0603 </r>
       <r>    15.0951     2.0323    78.2182 </r>
       <r>    15.1728     2.0046    78.3741 </r>
       <r>    15.2505     1.9991    78.5295 </r>
       <r>    15.3282     2.0160    78.6862 </r>
       <r>    15.4060     2.0437    78.8450 </r>
       <r>    15.4837     2.0699    79.0059 </r>
       <r>    15.5614     2.0899    79.1684 </r>
       <r>    15.6392     2.0983    79.3315 </r>
       <r>    15.7169     2.0722    79.4925 </r>
       <r>    15.7946     1.9655    79.6453 </r>
       <r>    15.8724     1.7333    79.7800 </r>
       <r>    15.9501     1.3711    79.8866 </r>
       <r>    16.0278     0.9346    79.9593 </r>
       <r>    16.1055     0.5172    79.9995 </r>
       <r>    16.1833     0.2004    80.0150 </r>
       <r>    16.2610     0.0155    80.0163 </r>
       <r>    16.3387    -0.0575    80.0118 </r>
       <r>    16.4165    -0.0639    80.0068 </r>
       <r>    16.4942    -0.0450    80.0033 </r>
       <r>    16.5719    -0.0248    80.0014 </r>
       <r>    16.6497    -0.0113    80.0005 </r>
       <r>    16.7274    -0.0044    80.0002 </r>
       <r>    16.8051    -0.0015    80.0000 </r>
       <r>    16.8828    -0.0005    80.0000 </r>
       <r>    16.9606    -0.0001    80.0000 </r>
       <r>    17.0383     0.0000    80.0000 </r>
       <r>    17.1160     0.0000    80.0000 </r>
       <r>    17.1938     0.0000    80.0000 </r>
       <r>    17.2715     0.0000    80.0000 </r>
       <r>    17.3492     0.0000    80.0000 </r>
       <r>    17.4270     0.0000    80.0000 </r>
       <r>    17.5047     0.0000    80.0000 </r>
       <r>    17.5824     0.0000    80.0000 </r>
       <r>    17.6602     0.0000    80.0000 </r>
       <r>    17.7379     0.0000    80.0000 </r>
       <r>    17.8156     0.0000    80.0000 </r>
       <r>    17.8933     0.0000    80.0000 </r>
       <r>    17.9711     0.0000    80.0000 </r>
       <r>    18.0488     0.0000    80.0000 </r>
       <r>    18.1265     0.0000    80.0000 </r>
       <r>    18.2043     0.0000    80.0000 </r>
       <r>    18.2820     0.0000    80.0000 </r>
       <r>    18.3597     0.0000    80.0000 </r>
       <r>    18.4375     0.0000    80.0000 </r>
       <r>    18.5152     0.0000    80.0000 </r>
       <r>    18.5929     0.0000    80.0000 </r>
       <r>    18.6706     0.0000    80.0000 </r>
       <r>    18.7484     0.0000    80.0000 </r>
       <r>    18.8261     0.0000    80.0000 </r>
       <r>    18.9038     0.0000    80.0000 </r>
       <r>    18.9816     0.0000    80.0000 </r>
       <r>    19.0593     0.0000    80.0000 </r>
       <r>    19.1370     0.0000    80.0000 </r>
      </set>
     </set>
    </array>
   </total>
  </dos>
 </calculation>
 <structure name="finalpos" >
  <crystal>
   <varray name="basis" >
    <v>       3.96864779       0.00000000       0.00000000 </v>
    <v>       0.00000000       0.00000000      -3.96753141 </v>
    <v>       0.00000000       5.34019494       1.98376571 </v>
   </varray>
   <i name="volume">     84.08529309 </i>
   <varray name="rec_basis" >
    <v>       0.25197499       0.00000000       0.00000000 </v>
    <v>       0.00000000       0.09362954      -0.25204589 </v>
    <v>       0.00000000       0.18725908       0.00000000 </v>
   </varray>
  </crystal>
  <varray name="positions" >
   <v>       0.50000000       0.17676226       0.35352451 </v>
   <v>       0.00000000       0.32318971       0.64637943 </v>
   <v>       0.00000000       0.67681029       0.35362057 </v>
   <v>       0.50000000       0.82323774       0.64647549 </v>
   <v>       0.50000000       0.50000000       0.00000000 </v>
   <v>       0.00000000       0.00000000       0.00000000 </v>
  </varray>
 </structure>
</modeling>
