<?xml version="1.0" encoding="ISO-8859-1"?>
<modeling>
 <generator>
  <i name="program" type="string">vasp </i>
  <i name="version" type="string">5.3.5  </i>
  <i name="subversion" type="string">31Mar14 (build Jun 20 2014 13:15:13) complex                          parallel </i>
  <i name="platform" type="string">LinuxIFC </i>
  <i name="date" type="string">2025 12 16 </i>
  <i name="time" type="string">17:45:08 </i>
 </generator>
 <incar>
  <i type="string" name="PREC">accurate</i>
  <i type="int" name="IALGO">    68</i>
  <i type="logical" name="ADDGRID"> T  </i>
  <i type="int" name="NELM">   100</i>
  <i type="int" name="NELMIN">     4</i>
  <i type="int" name="IBRION">     2</i>
  <i name="EDIFF">      0.00000100</i>
  <i name="EDIFFG">     -0.02000000</i>
  <i type="int" name="NSW">    30</i>
  <i type="int" name="ISIF">     3</i>
  <i name="ENCUT">    600.00000000</i>
  <i type="logical" name="LREAL"> F  </i>
  <i type="int" name="ISMEAR">     0</i>
  <i name="SIGMA">      0.10000000</i>
  <i type="logical" name="LWAVE"> F  </i>
  <i type="logical" name="LCHARG"> F  </i>
  <i type="int" name="NELM">   100</i>
 </incar>
 <kpoints>
  <generation param="Auto">
   <i name="subdivisionlength">     20.00000000 </i>
   <v type="int" name="divisions">       4        4        4 </v>
   <v name="usershift">      0.00000000       0.00000000       0.00000000 </v>
   <v name="genvec1">      0.25000000       0.00000000       0.00000000 </v>
   <v name="genvec2">      0.00000000       0.25000000       0.00000000 </v>
   <v name="genvec3">      0.00000000       0.00000000       0.25000000 </v>
   <v name="shift">      0.00000000       0.00000000       0.00000000 </v>
  </generation>
  <varray name="kpointlist" >
   <v>       0.00000000       0.00000000       0.00000000 </v>
   <v>       0.25000000       0.00000000       0.00000000 </v>
   <v>       0.50000000       0.00000000       0.00000000 </v>
   <v>       0.00000000       0.25000000       0.00000000 </v>
   <v>       0.25000000       0.25000000       0.00000000 </v>
   <v>       0.50000000       0.25000000       0.00000000 </v>
   <v>      -0.25000000       0.25000000       0.00000000 </v>
   <v>       0.00000000       0.50000000       0.00000000 </v>
   <v>       0.25000000       0.50000000       0.00000000 </v>
   <v>       0.50000000       0.50000000       0.00000000 </v>
   <v>       0.00000000       0.00000000       0.25000000 </v>
   <v>       0.25000000       0.00000000       0.25000000 </v>
   <v>       0.50000000       0.00000000       0.25000000 </v>
   <v>      -0.25000000       0.00000000       0.25000000 </v>
   <v>       0.00000000       0.25000000       0.25000000 </v>
   <v>       0.25000000       0.25000000       0.25000000 </v>
   <v>       0.50000000       0.25000000       0.25000000 </v>
   <v>      -0.25000000       0.25000000       0.25000000 </v>
   <v>       0.00000000       0.50000000       0.25000000 </v>
   <v>       0.25000000       0.50000000       0.25000000 </v>
   <v>       0.50000000       0.50000000       0.25000000 </v>
   <v>      -0.25000000       0.50000000       0.25000000 </v>
   <v>       0.00000000      -0.25000000       0.25000000 </v>
   <v>       0.25000000      -0.25000000       0.25000000 </v>
   <v>       0.50000000      -0.25000000       0.25000000 </v>
   <v>      -0.25000000      -0.25000000       0.25000000 </v>
   <v>       0.00000000       0.00000000       0.50000000 </v>
   <v>       0.25000000       0.00000000       0.50000000 </v>
   <v>       0.50000000       0.00000000       0.50000000 </v>
   <v>       0.00000000       0.25000000       0.50000000 </v>
   <v>       0.25000000       0.25000000       0.50000000 </v>
   <v>       0.50000000       0.25000000       0.50000000 </v>
   <v>      -0.25000000       0.25000000       0.50000000 </v>
   <v>       0.00000000       0.50000000       0.50000000 </v>
   <v>       0.25000000       0.50000000       0.50000000 </v>
   <v>       0.50000000       0.50000000       0.50000000 </v>
  </varray>
  <varray name="weights" >
   <v>       0.01562500 </v>
   <v>       0.03125000 </v>
   <v>       0.01562500 </v>
   <v>       0.03125000 </v>
   <v>       0.03125000 </v>
   <v>       0.03125000 </v>
   <v>       0.03125000 </v>
   <v>       0.01562500 </v>
   <v>       0.03125000 </v>
   <v>       0.01562500 </v>
   <v>       0.03125000 </v>
   <v>       0.03125000 </v>
   <v>       0.03125000 </v>
   <v>       0.03125000 </v>
   <v>       0.03125000 </v>
   <v>       0.03125000 </v>
   <v>       0.03125000 </v>
   <v>       0.03125000 </v>
   <v>       0.03125000 </v>
   <v>       0.03125000 </v>
   <v>       0.03125000 </v>
   <v>       0.03125000 </v>
   <v>       0.03125000 </v>
   <v>       0.03125000 </v>
   <v>       0.03125000 </v>
   <v>       0.03125000 </v>
   <v>       0.01562500 </v>
   <v>       0.03125000 </v>
   <v>       0.01562500 </v>
   <v>       0.03125000 </v>
   <v>       0.03125000 </v>
   <v>       0.03125000 </v>
   <v>       0.03125000 </v>
   <v>       0.01562500 </v>
   <v>       0.03125000 </v>
   <v>       0.01562500 </v>
  </varray>
 </kpoints>
 <parameters>
  <separator name="general" >
   <i type="string" name="SYSTEM">unknown system</i>
   <i type="logical" name="LCOMPAT"> F  </i>
  </separator>
  <separator name="electronic" >
   <i type="string" name="PREC">accura</i>
   <i name="ENMAX">    600.00000000</i>
   <i name="ENAUG">    644.87300000</i>
   <i name="EDIFF">      0.00000100</i>
   <i type="int" name="IALGO">    68</i>
   <i type="int" name="IWAVPR">    11</i>
   <i type="int" name="NBANDS">    44</i>
   <i name="NELECT">     64.00000000</i>
   <i type="int" name="TURBO">     0</i>
   <i type="int" name="IRESTART">     0</i>
   <i type="int" name="NREBOOT">     0</i>
   <i type="int" name="NMIN">     0</i>
   <i name="EREF">      0.00000000</i>
   <separator name="electronic smearing" >
    <i type="int" name="ISMEAR">     0</i>
    <i name="SIGMA">      0.10000000</i>
    <i name="KSPACING">      0.50000000</i>
    <i type="logical" name="KGAMMA"> T  </i>
   </separator>
   <separator name="electronic projectors" >
    <i type="logical" name="LREAL"> F  </i>
    <v name="ROPT">      0.00000000      0.00000000      0.00000000      0.00000000</v>
    <i type="int" name="LMAXPAW">  -100</i>
    <i type="int" name="LMAXMIX">     2</i>
    <i type="logical" name="NLSPLINE"> F  </i>
   </separator>
   <separator name="electronic startup" >
    <i type="int" name="ISTART">     0</i>
    <i type="int" name="ICHARG">     2</i>
    <i type="int" name="INIWAV">     1</i>
   </separator>
   <separator name="electronic spin" >
    <i type="int" name="ISPIN">     1</i>
    <i type="logical" name="LNONCOLLINEAR"> F  </i>
    <v name="MAGMOM">      1.00000000      1.00000000      1.00000000      1.00000000      1.00000000      1.00000000      1.00000000      1.00000000      1.00000000      1.00000000      1.00000000      1.00000000      1.00000000      1.00000000      1.00000000      1.00000000</v>
    <i name="NUPDOWN">     -1.00000000</i>
    <i type="logical" name="LSORBIT"> F  </i>
    <v name="SAXIS">      0.00000000      0.00000000      1.00000000</v>
    <i type="logical" name="LSPIRAL"> F  </i>
    <v name="QSPIRAL">      0.00000000      0.00000000      0.00000000</v>
    <i type="logical" name="LZEROZ"> F  </i>
   </separator>
   <separator name="electronic exchange-correlation" >
    <i type="logical" name="LASPH"> F  </i>
    <i type="logical" name="LMETAGGA"> F  </i>
   </separator>
   <separator name="electronic convergence" >
    <i type="int" name="NELM">   100</i>
    <i type="int" name="NELMDL">     0</i>
    <i type="int" name="NELMIN">     4</i>
    <i name="ENINI">    600.00000000</i>
    <separator name="electronic convergence detail" >
     <i type="logical" name="LDIAG"> T  </i>
     <i type="logical" name="LSUBROT"> F  </i>
     <i name="WEIMIN">      0.00100000</i>
     <i name="EBREAK">      0.00000001</i>
     <i name="DEPER">      0.30000000</i>
     <i type="int" name="NRMM">     4</i>
     <i name="TIME">      0.40000000</i>
    </separator>
   </separator>
   <separator name="electronic mixer" >
    <i name="AMIX">      0.40000000</i>
    <i name="BMIX">      1.00000000</i>
    <i name="AMIN">      0.10000000</i>
    <i name="AMIX_MAG">      1.60000000</i>
    <i name="BMIX_MAG">      1.00000000</i>
    <separator name="electronic mixer details" >
     <i type="int" name="IMIX">     4</i>
     <i type="int" name="MAXMIX">   -45</i>
     <i name="WC">    100.00000000</i>
     <i type="int" name="INIMIX">     1</i>
     <i type="int" name="MIXPRE">     1</i>
     <i type="int" name="MREMOVE">     5</i>
    </separator>
   </separator>
   <separator name="electronic dipolcorrection" >
    <i type="logical" name="LDIPOL"> F  </i>
    <i type="logical" name="LMONO"> F  </i>
    <i type="int" name="IDIPOL">     0</i>
    <i name="EPSILON">      1.00000000</i>
    <v name="DIPOL">   -100.00000000   -100.00000000   -100.00000000</v>
    <i name="EFIELD">      0.00000000</i>
   </separator>
  </separator>
  <separator name="grids" >
   <i type="int" name="NGX">    48</i>
   <i type="int" name="NGY">    48</i>
   <i type="int" name="NGZ">    50</i>
   <i type="int" name="NGXF">    96</i>
   <i type="int" name="NGYF">    96</i>
   <i type="int" name="NGZF">   100</i>
   <i type="logical" name="ADDGRID"> T  </i>
  </separator>
  <separator name="ionic" >
   <i type="int" name="NSW">    30</i>
   <i type="int" name="IBRION">     2</i>
   <i type="int" name="ISIF">     3</i>
   <i name="PSTRESS">      0.00000000</i>
   <i name="EDIFFG">     -0.02000000</i>
   <i type="int" name="NFREE">     1</i>
   <i name="POTIM">      0.50000000</i>
   <i name="SMASS">     -3.00000000</i>
   <i name="SCALEE">      1.00000000</i>
  </separator>
  <separator name="ionic md" >
   <i name="TEBEG">      0.00010000</i>
   <i name="TEEND">      0.00010000</i>
   <i type="int" name="NBLOCK">     1</i>
   <i type="int" name="KBLOCK">    30</i>
   <i type="int" name="NPACO">   256</i>
   <i name="APACO">     16.00000000</i>
  </separator>
  <separator name="symmetry" >
   <i type="int" name="ISYM">     2</i>
   <i name="SYMPREC">      0.00001000</i>
  </separator>
  <separator name="dos" >
   <i type="logical" name="LORBIT"> F  </i>
   <v name="RWIGS">     -1.00000000     -1.00000000     -1.00000000     -1.00000000</v>
   <i type="int" name="NEDOS">   301</i>
   <i name="EMIN">     10.00000000</i>
   <i name="EMAX">    -10.00000000</i>
   <i name="EFERMI">      0.00000000</i>
  </separator>
  <separator name="writing" >
   <i type="int" name="NWRITE">     2</i>
   <i type="logical" name="LWAVE"> F  </i>
   <i type="logical" name="LCHARG"> F  </i>
   <i type="logical" name="LPARD"> F  </i>
   <i type="logical" name="LVTOT"> F  </i>
   <i type="logical" name="LVHAR"> F  </i>
   <i type="logical" name="LELF"> F  </i>
   <i type="logical" name="LOPTICS"> F  </i>
   <v name="STM">      0.00000000      0.00000000      0.00000000      0.00000000      0.00000000      0.00000000      0.00000000</v>
  </separator>
  <separator name="performance" >
   <i type="int" name="NPAR">     4</i>
   <i type="int" name="NSIM">     4</i>
   <i type="int" name="NBLK">    -1</i>
   <i type="logical" name="LPLANE"> T  </i>
   <i type="logical" name="LSCALAPACK"> T  </i>
   <i type="logical" name="LSCAAWARE"> F  </i>
   <i type="logical" name="LSCALU"> F  </i>
   <i type="logical" name="LASYNC"> F  </i>
   <i type="logical" name="LORBITALREAL"> F  </i>
  </separator>
  <separator name="miscellaneous" >
   <i type="int" name="IDIOT">     3</i>
   <i type="logical" name="LMUSIC"> F  </i>
   <v name="POMASS">     28.08500000     26.98100000     12.01100000     14.00100000</v>
   <v name="DARWINR">      0.00000000      0.00000000      0.00000000      0.00000000</v>
   <v name="DARWINV">      1.00000000      1.00000000      1.00000000      1.00000000</v>
   <i type="logical" name="LCORR"> T  </i>
  </separator>
  <i type="logical" name="GGA_COMPAT"> T  </i>
  <i type="logical" name="LBERRY"> F  </i>
  <i type="int" name="ICORELEVEL">     0</i>
  <i type="logical" name="LDAU"> F  </i>
  <i type="int" name="I_CONSTRAINED_M">     0</i>
  <separator name="electronic exchange-correlation" >
   <i type="string" name="GGA">--</i>
   <i type="int" name="VOSKOWN">     0</i>
   <i type="logical" name="LHFCALC"> F  </i>
   <i type="string" name="PRECFOCK"></i>
   <i type="logical" name="LSYMGRAD"> F  </i>
   <i type="logical" name="LHFONE"> F  </i>
   <i type="logical" name="LRHFCALC"> F  </i>
   <i type="logical" name="LTHOMAS"> F  </i>
   <i type="logical" name="LMODELHF"> F  </i>
   <i name="ENCUT4O">     -1.00000000</i>
   <i type="int" name="EXXOEP">     0</i>
   <i type="int" name="FOURORBIT">     0</i>
   <i name="AEXX">      0.00000000</i>
   <i name="HFALPHA">      0.00000000</i>
   <i name="MCALPHA">      0.00000000</i>
   <i name="ALDAX">      1.00000000</i>
   <i name="AGGAX">      1.00000000</i>
   <i name="ALDAC">      1.00000000</i>
   <i name="AGGAC">      1.00000000</i>
   <i type="int" name="NKREDX">     1</i>
   <i type="int" name="NKREDY">     1</i>
   <i type="int" name="NKREDZ">     1</i>
   <i type="logical" name="SHIFTRED"> F  </i>
   <i type="logical" name="ODDONLY"> F  </i>
   <i type="logical" name="EVENONLY"> F  </i>
   <i type="int" name="LMAXFOCK">     0</i>
   <i type="int" name="NMAXFOCKAE">     0</i>
   <i type="logical" name="LFOCKAEDFT"> F  </i>
   <i name="HFSCREEN">      0.00000000</i>
   <i name="HFSCREENC">      0.00000000</i>
   <i type="int" name="NBANDSGWLOW">     0</i>
  </separator>
  <separator name="vdW DFT" >
   <i type="logical" name="LUSE_VDW"> F  </i>
   <i name="Zab_VDW">     -0.84910000</i>
   <i name="PARAM1">      0.12340000</i>
   <i name="PARAM2">      1.00000000</i>
   <i name="PARAM3">      0.00000000</i>
  </separator>
  <separator name="model GW" >
   <i type="int" name="MODEL_GW">     0</i>
   <i name="MODEL_EPS0">      6.39459598</i>
   <i name="MODEL_ALPHA">      1.00000000</i>
  </separator>
  <separator name="linear response parameters" >
   <i type="logical" name="LEPSILON"> F  </i>
   <i type="logical" name="LRPA"> F  </i>
   <i type="logical" name="LNABLA"> F  </i>
   <i type="logical" name="LVEL"> F  </i>
   <i type="int" name="KINTER">     0</i>
   <i name="CSHIFT">      0.10000000</i>
   <i name="OMEGAMAX">     -1.00000000</i>
   <i name="DEG_THRESHOLD">      0.00200000</i>
  </separator>
  <separator name="orbital magnetization" >
   <i type="logical" name="NUCIND"> F  </i>
   <v name="MAGPOS">      0.00000000      0.00000000      0.00000000</v>
   <i type="logical" name="LNICSALL"> T  </i>
   <i type="logical" name="ORBITALMAG"> F  </i>
   <i type="logical" name="LMAGBLOCH"> F  </i>
   <i type="logical" name="LCHIMAG"> F  </i>
   <i type="logical" name="LGAUGE"> T  </i>
   <i type="int" name="MAGATOM">     0</i>
   <v name="MAGDIPOL">      0.00000000      0.00000000      0.00000000</v>
   <v name="AVECCONST">      0.00000000      0.00000000      0.00000000</v>
  </separator>
  <separator name="response functions" >
   <i type="logical" name="LADDER"> F  </i>
   <i type="logical" name="LFXC"> F  </i>
   <i type="logical" name="LHARTREE"> T  </i>
   <i type="int" name="IBSE">     0</i>
   <i type="logical" name="LTCTE"> F  </i>
   <i type="logical" name="LTETE"> F  </i>
   <i type="logical" name="LTRIPLET"> F  </i>
   <i type="logical" name="LFXCEPS"> F  </i>
   <i type="logical" name="LFXHEG"> F  </i>
   <i type="logical" name="L2ORDER"> F  </i>
   <i type="logical" name="LUSEW"> F  </i>
   <i name="ENCUTGW">     -2.00000000</i>
   <i name="ENCUTGWSOFT">     -2.00000000</i>
   <i name="ENCUTLF">     -1.00000000</i>
   <i type="int" name="LMAXMP2">    -1</i>
   <i name="SCISSOR">      0.00000000</i>
   <i type="int" name="NOMEGA">     0</i>
   <i type="int" name="NOMEGAR">     0</i>
   <i type="int" name="NBANDSGW">    -1</i>
   <i type="int" name="NBANDSO">    -1</i>
   <i type="int" name="NBANDSV">    -1</i>
   <i type="int" name="NELM">   100</i>
   <i type="int" name="DIM">     3</i>
   <i type="int" name="ANTIRES">     0</i>
   <i name="OMEGAMAX">    -30.00000000</i>
   <i name="OMEGAMIN">    -30.00000000</i>
   <i name="OMEGATL">   -200.00000000</i>
   <i type="int" name="OMEGAGRID">     0</i>
   <i name="CSHIFT">     -0.10000000</i>
   <i type="logical" name="SELFENERGY"> F  </i>
   <i type="logical" name="LSPECTRAL"> F  </i>
   <i type="logical" name="ODDONLYGW"> F  </i>
   <i type="logical" name="EVENONLYGW"> F  </i>
   <i type="int" name="NKREDLFX">     1</i>
   <i type="int" name="NKREDLFY">     1</i>
   <i type="int" name="NKREDLFZ">     1</i>
   <i type="int" name="MAXMEM">  1800</i>
   <i type="int" name="TELESCOPE">     0</i>
   <i type="int" name="TAUPAR">     1</i>
  </separator>
  <separator name="External order field" >
   <i name="OFIELD_KAPPA">      0.00000000</i>
   <v name="OFIELD_K">      0.00000000      0.00000000      0.00000000</v>
   <i name="OFIELD_Q6_NEAR">      0.00000000</i>
   <i name="OFIELD_Q6_FAR">      0.00000000</i>
   <i name="OFIELD_A">      0.00000000</i>
  </separator>
 </parameters>
 <atominfo>
  <atoms>      16 </atoms>
  <types>       4 </types>
  <array name="atoms" >
   <dimension dim="1">ion</dimension>
   <field type="string">element</field>
   <field type="int">atomtype</field>
   <set>
    <rc><c>Si</c><c>   1</c></rc>
    <rc><c>Si</c><c>   1</c></rc>
    <rc><c>Al</c><c>   2</c></rc>
    <rc><c>Al</c><c>   2</c></rc>
    <rc><c>Al</c><c>   2</c></rc>
    <rc><c>Al</c><c>   2</c></rc>
    <rc><c>Al</c><c>   2</c></rc>
    <rc><c>Al</c><c>   2</c></rc>
    <rc><c>C </c><c>   3</c></rc>
    <rc><c>C </c><c>   3</c></rc>
    <rc><c>N </c><c>   4</c></rc>
    <rc><c>N </c><c>   4</c></rc>
    <rc><c>N </c><c>   4</c></rc>
    <rc><c>N </c><c>   4</c></rc>
    <rc><c>N </c><c>   4</c></rc>
    <rc><c>N </c><c>   4</c></rc>
   </set>
  </array>
  <array name="atomtypes" >
   <dimension dim="1">type</dimension>
   <field type="int">atomspertype</field>
   <field type="string">element</field>
   <field>mass</field>
   <field>valence</field>
   <field type="string">pseudopotential</field>
   <set>
    <rc><c>   2</c><c>Si</c><c>     28.08500000</c><c>      4.00000000</c><c>  PAW_PBE Si 05Jan2001                  </c></rc>
    <rc><c>   6</c><c>Al</c><c>     26.98100000</c><c>      3.00000000</c><c>  PAW_PBE Al 04Jan2001                  </c></rc>
    <rc><c>   2</c><c>C </c><c>     12.01100000</c><c>      4.00000000</c><c>  PAW_PBE C 08Apr2002                   </c></rc>
    <rc><c>   6</c><c>N </c><c>     14.00100000</c><c>      5.00000000</c><c>  PAW_PBE N_s 07Sep2000                 </c></rc>
   </set>
  </array>
 </atominfo>
 <structure name="initialpos" >
  <crystal>
   <varray name="basis" >
    <v>       5.95055585      -0.01825866       0.01564348 </v>
    <v>      -2.62469592       5.30841996       0.00300061 </v>
    <v>      -1.64866056      -2.63496635       5.39726196 </v>
   </varray>
   <i name="volume">    170.52255937 </i>
   <varray name="rec_basis" >
    <v>       0.16806480       0.08304605       0.09188091 </v>
    <v>       0.00033618       0.18849412       0.09212633 </v>
    <v>      -0.00048731      -0.00034549       0.18496160 </v>
   </varray>
  </crystal>
  <varray name="positions" >
   <v>       0.08794122       0.58240151       0.16364879 </v>
   <v>       0.09312299       0.58398406       0.67478568 </v>
   <v>       0.16038801       0.16513374       0.33374850 </v>
   <v>       0.15458073       0.16938267       0.82782400 </v>
   <v>       0.66739414       0.67663810       0.33597409 </v>
   <v>       0.66634428       0.66912144       0.83347131 </v>
   <v>       0.58075984       0.07823760       0.16311605 </v>
   <v>       0.58009227       0.08060185       0.66745009 </v>
   <v>       0.87456804       0.48580904       0.84274094 </v>
   <v>       0.26950591       0.40320830       0.66444258 </v>
   <v>       0.34339808       0.95659719       0.32479944 </v>
   <v>       0.34030441       0.96534575       0.82834567 </v>
   <v>       0.87281005       0.49004119       0.33759103 </v>
   <v>       0.77161339       0.89877373       0.16721827 </v>
   <v>       0.76864244       0.89267934       0.66467316 </v>
   <v>       0.26853421       0.40204448       0.17017041 </v>
  </varray>
 </structure>
 <calculation>
  <scstep>
   <time name="dav">    0.79    0.79</time>
   <time name="total">    0.84    0.85</time>
   <energy>
    <i name="alphaZ">     52.21047326 </i>
    <i name="ewald">  -2306.47727912 </i>
    <i name="hartreedc">   -425.09025996 </i>
    <i name="XCdc">    -26.41432575 </i>
    <i name="pawpsdc">   2020.12302819 </i>
    <i name="pawaedc">  -1801.45995872 </i>
    <i name="eentropy">     -0.01097882 </i>
    <i name="bandstr">    459.75376455 </i>
    <i name="atom">   2408.94728812 </i>
    <i name="e_fr_energy">    381.58175174 </i>
    <i name="e_wo_entrp">    381.59273056 </i>
    <i name="e_0_energy">    381.58724115 </i>
   </energy>
  </scstep>
  <scstep>
   <time name="dav">    0.90    0.90</time>
   <time name="total">    0.90    0.91</time>
   <energy>
    <i name="e_fr_energy">   -100.81024419 </i>
    <i name="e_wo_entrp">   -100.81024419 </i>
    <i name="e_0_energy">   -100.81024419 </i>
   </energy>
  </scstep>
  <scstep>
   <time name="dav">    0.94    0.94</time>
   <time name="total">    0.94    0.96</time>
   <energy>
    <i name="e_fr_energy">   -135.64873870 </i>
    <i name="e_wo_entrp">   -135.64873870 </i>
    <i name="e_0_energy">   -135.64873870 </i>
   </energy>
  </scstep>
  <scstep>
   <time name="dav">    0.91    0.91</time>
   <time name="total">    0.91    0.93</time>
   <energy>
    <i name="e_fr_energy">   -136.43437048 </i>
    <i name="e_wo_entrp">   -136.43437048 </i>
    <i name="e_0_energy">   -136.43437048 </i>
   </energy>
  </scstep>
  <scstep>
   <time name="dav">    0.93    0.93</time>
   <time name="total">    1.02    1.03</time>
   <energy>
    <i name="e_fr_energy">   -136.45560131 </i>
    <i name="e_wo_entrp">   -136.45560131 </i>
    <i name="e_0_energy">   -136.45560131 </i>
   </energy>
  </scstep>
  <scstep>
   <time name="diag">    0.19    0.19</time>
   <time name="diis">    0.52    0.52</time>
   <time name="orth">    0.03    0.03</time>
   <time name="total">    0.87    0.89</time>
   <energy>
    <i name="e_fr_energy">   -117.76521162 </i>
    <i name="e_wo_entrp">   -117.76521162 </i>
    <i name="e_0_energy">   -117.76521162 </i>
   </energy>
  </scstep>
  <scstep>
   <time name="diag">    0.19    0.19</time>
   <time name="diis">    0.53    0.53</time>
   <time name="orth">    0.03    0.03</time>
   <time name="total">    0.88    0.90</time>
   <energy>
    <i name="e_fr_energy">   -117.76648761 </i>
    <i name="e_wo_entrp">   -117.76648761 </i>
    <i name="e_0_energy">   -117.76648761 </i>
   </energy>
  </scstep>
  <scstep>
   <time name="diag">    0.19    0.19</time>
   <time name="diis">    0.52    0.52</time>
   <time name="orth">    0.03    0.03</time>
   <time name="total">    0.87    0.88</time>
   <energy>
    <i name="e_fr_energy">   -118.36599355 </i>
    <i name="e_wo_entrp">   -118.36599355 </i>
    <i name="e_0_energy">   -118.36599355 </i>
   </energy>
  </scstep>
  <scstep>
   <time name="diag">    0.19    0.19</time>
   <time name="diis">    0.50    0.50</time>
   <time name="orth">    0.03    0.03</time>
   <time name="total">    0.85    0.87</time>
   <energy>
    <i name="e_fr_energy">   -117.64582691 </i>
    <i name="e_wo_entrp">   -117.64582691 </i>
    <i name="e_0_energy">   -117.64582691 </i>
   </energy>
  </scstep>
  <scstep>
   <time name="diag">    0.19    0.19</time>
   <time name="diis">    0.52    0.52</time>
   <time name="orth">    0.03    0.03</time>
   <time name="total">    0.87    0.89</time>
   <energy>
    <i name="e_fr_energy">   -117.65688182 </i>
    <i name="e_wo_entrp">   -117.65688182 </i>
    <i name="e_0_energy">   -117.65688182 </i>
   </energy>
  </scstep>
  <scstep>
   <time name="diag">    0.19    0.19</time>
   <time name="diis">    0.50    0.54</time>
   <time name="orth">    0.03    0.03</time>
   <time name="total">    0.86    0.91</time>
   <energy>
    <i name="e_fr_energy">   -117.65015385 </i>
    <i name="e_wo_entrp">   -117.65015385 </i>
    <i name="e_0_energy">   -117.65015385 </i>
   </energy>
  </scstep>
  <scstep>
   <time name="diag">    0.19    0.19</time>
   <time name="diis">    0.51    0.51</time>
   <time name="orth">    0.03    0.03</time>
   <time name="total">    0.86    0.87</time>
   <energy>
    <i name="e_fr_energy">   -117.64965901 </i>
    <i name="e_wo_entrp">   -117.64965901 </i>
    <i name="e_0_energy">   -117.64965901 </i>
   </energy>
  </scstep>
  <scstep>
   <time name="diag">    0.19    0.19</time>
   <time name="diis">    0.51    0.51</time>
   <time name="orth">    0.03    0.03</time>
   <time name="total">    0.86    0.87</time>
   <energy>
    <i name="e_fr_energy">   -117.64915778 </i>
    <i name="e_wo_entrp">   -117.64915778 </i>
    <i name="e_0_energy">   -117.64915778 </i>
   </energy>
  </scstep>
  <scstep>
   <time name="diag">    0.19    0.19</time>
   <time name="diis">    0.51    0.51</time>
   <time name="orth">    0.03    0.03</time>
   <time name="total">    0.86    0.87</time>
   <energy>
    <i name="e_fr_energy">   -117.64912372 </i>
    <i name="e_wo_entrp">   -117.64912372 </i>
    <i name="e_0_energy">   -117.64912372 </i>
   </energy>
  </scstep>
  <scstep>
   <time name="diag">    0.19    0.19</time>
   <time name="diis">    0.52    0.52</time>
   <time name="orth">    0.03    0.03</time>
   <time name="total">    0.87    0.89</time>
   <energy>
    <i name="e_fr_energy">   -117.64912419 </i>
    <i name="e_wo_entrp">   -117.64912419 </i>
    <i name="e_0_energy">   -117.64912419 </i>
   </energy>
  </scstep>
  <scstep>
   <time name="diag">    0.19    0.19</time>
   <time name="diis">    0.38    0.38</time>
   <time name="orth">    0.03    0.03</time>
   <time name="total">    0.64    0.66</time>
   <energy>
    <i name="alphaZ">     52.21047326 </i>
    <i name="ewald">  -2306.47727912 </i>
    <i name="hartreedc">   -549.88329092 </i>
    <i name="XCdc">    -15.90383522 </i>
    <i name="pawpsdc">  11044.08012286 </i>
    <i name="pawaedc"> -10831.18673571 </i>
    <i name="eentropy">      0.00000000 </i>
    <i name="bandstr">     80.56413231 </i>
    <i name="atom">   2408.94728812 </i>
    <i name="e_fr_energy">   -117.64912443 </i>
    <i name="e_wo_entrp">   -117.64912443 </i>
    <i name="e_0_energy">   -117.64912443 </i>
   </energy>
  </scstep>
  <structure>
   <crystal>
    <varray name="basis" >
     <v>       5.95055585      -0.01825866       0.01564348 </v>
     <v>      -2.62469592       5.30841996       0.00300061 </v>
     <v>      -1.64866056      -2.63496635       5.39726196 </v>
    </varray>
    <i name="volume">    170.52255937 </i>
    <varray name="rec_basis" >
     <v>       0.16806480       0.08304605       0.09188091 </v>
     <v>       0.00033618       0.18849412       0.09212633 </v>
     <v>      -0.00048731      -0.00034549       0.18496160 </v>
    </varray>
   </crystal>
   <varray name="positions" >
    <v>       0.08794122       0.58240151       0.16364879 </v>
    <v>       0.09312299       0.58398406       0.67478568 </v>
    <v>       0.16038801       0.16513374       0.33374850 </v>
    <v>       0.15458073       0.16938267       0.82782400 </v>
    <v>       0.66739414       0.67663810       0.33597409 </v>
    <v>       0.66634428       0.66912144       0.83347131 </v>
    <v>       0.58075984       0.07823760       0.16311605 </v>
    <v>       0.58009227       0.08060185       0.66745009 </v>
    <v>       0.87456804       0.48580904       0.84274094 </v>
    <v>       0.26950591       0.40320830       0.66444258 </v>
    <v>       0.34339808       0.95659719       0.32479944 </v>
    <v>       0.34030441       0.96534575       0.82834567 </v>
    <v>       0.87281005       0.49004119       0.33759103 </v>
    <v>       0.77161339       0.89877373       0.16721827 </v>
    <v>       0.76864244       0.89267934       0.66467316 </v>
    <v>       0.26853421       0.40204448       0.17017041 </v>
   </varray>
  </structure>
  <varray name="forces" >
   <v>      -0.00114745      -0.00340522       0.00091615 </v>
   <v>       0.00272829      -0.00551517       0.00505385 </v>
   <v>       0.00011762       0.00516958       0.00309416 </v>
   <v>      -0.00135129      -0.00363348       0.00040130 </v>
   <v>       0.00148362       0.00302959       0.00230317 </v>
   <v>      -0.00010688       0.00583903       0.00002838 </v>
   <v>       0.00177565      -0.00858965      -0.00566779 </v>
   <v>      -0.00249393      -0.00244503       0.00445865 </v>
   <v>      -0.00148484      -0.00467060      -0.00210764 </v>
   <v>       0.00233985       0.00131099      -0.00584328 </v>
   <v>       0.00059376       0.00472636       0.00341872 </v>
   <v>      -0.00252966      -0.00051198       0.00203246 </v>
   <v>      -0.00207633       0.00208719       0.00015187 </v>
   <v>       0.00281922       0.00324414      -0.00220977 </v>
   <v>       0.00084965       0.00041332      -0.00159788 </v>
   <v>      -0.00151727       0.00295092      -0.00443236 </v>
  </varray>
  <varray name="stress" >
   <v>      -0.28077461       0.03260300       0.03852955 </v>
   <v>       0.03260301       0.01644750       0.05816955 </v>
   <v>       0.03852944       0.05816951      -0.19323872 </v>
  </varray>
  <energy>
   <i name="e_fr_energy">   -117.64912443 </i>
   <i name="e_wo_entrp">   -117.64912443 </i>
   <i name="e_0_energy">      0.00000000 </i>
  </energy>
  <time name="totalsc">   15.62   15.98</time>
  <eigenvalues>
   <array>
    <dimension dim="1">band</dimension>
    <dimension dim="2">kpoint</dimension>
    <dimension dim="3">spin</dimension>
    <field>eigene</field>
    <field>occ</field>
    <set>
     <set comment="spin 1">
      <set comment="kpoint 1">
       <r>   -9.1015    1.0000 </r>
       <r>   -7.3064    1.0000 </r>
       <r>   -7.1863    1.0000 </r>
       <r>   -7.0160    1.0000 </r>
       <r>   -6.6489    1.0000 </r>
       <r>   -6.2737    1.0000 </r>
       <r>   -3.6166    1.0000 </r>
       <r>   -2.5205    1.0000 </r>
       <r>   -0.6257    1.0000 </r>
       <r>   -0.2050    1.0000 </r>
       <r>    0.3300    1.0000 </r>
       <r>    0.7160    1.0000 </r>
       <r>    0.9000    1.0000 </r>
       <r>    1.2513    1.0000 </r>
       <r>    2.1966    1.0000 </r>
       <r>    2.8265    1.0000 </r>
       <r>    3.5196    1.0000 </r>
       <r>    3.9108    1.0000 </r>
       <r>    4.3703    1.0000 </r>
       <r>    4.5999    1.0000 </r>
       <r>    4.6849    1.0000 </r>
       <r>    4.7188    1.0000 </r>
       <r>    5.0624    1.0000 </r>
       <r>    5.2958    1.0000 </r>
       <r>    5.3168    1.0000 </r>
       <r>    5.3800    1.0000 </r>
       <r>    5.5757    1.0000 </r>
       <r>    5.8131    1.0000 </r>
       <r>    6.4186    1.0000 </r>
       <r>    6.9746    1.0000 </r>
       <r>    7.1530    1.0000 </r>
       <r>    7.4735    1.0000 </r>
       <r>   10.3208    0.0000 </r>
       <r>   10.7740    0.0000 </r>
       <r>   10.9431    0.0000 </r>
       <r>   11.3641    0.0000 </r>
       <r>   11.6566    0.0000 </r>
       <r>   12.0397    0.0000 </r>
       <r>   12.1967    0.0000 </r>
       <r>   12.9298    0.0000 </r>
       <r>   14.3937    0.0000 </r>
       <r>   14.5968    0.0000 </r>
       <r>   14.7241    0.0000 </r>
       <r>   15.1622    0.0000 </r>
      </set>
      <set comment="kpoint 2">
       <r>   -8.8934    1.0000 </r>
       <r>   -7.4914    1.0000 </r>
       <r>   -7.2909    1.0000 </r>
       <r>   -7.0158    1.0000 </r>
       <r>   -6.7705    1.0000 </r>
       <r>   -6.2892    1.0000 </r>
       <r>   -3.6384    1.0000 </r>
       <r>   -2.7449    1.0000 </r>
       <r>   -0.3389    1.0000 </r>
       <r>    0.2112    1.0000 </r>
       <r>    0.7945    1.0000 </r>
       <r>    1.0806    1.0000 </r>
       <r>    1.2903    1.0000 </r>
       <r>    1.8814    1.0000 </r>
       <r>    2.2215    1.0000 </r>
       <r>    2.7776    1.0000 </r>
       <r>    3.2220    1.0000 </r>
       <r>    3.4975    1.0000 </r>
       <r>    3.8295    1.0000 </r>
       <r>    4.2600    1.0000 </r>
       <r>    4.4964    1.0000 </r>
       <r>    4.6236    1.0000 </r>
       <r>    4.7151    1.0000 </r>
       <r>    4.8520    1.0000 </r>
       <r>    5.1316    1.0000 </r>
       <r>    5.2929    1.0000 </r>
       <r>    5.4165    1.0000 </r>
       <r>    5.6596    1.0000 </r>
       <r>    6.1140    1.0000 </r>
       <r>    6.5894    1.0000 </r>
       <r>    6.8611    1.0000 </r>
       <r>    7.2435    1.0000 </r>
       <r>   10.9095    0.0000 </r>
       <r>   11.2508    0.0000 </r>
       <r>   11.5391    0.0000 </r>
       <r>   11.9988    0.0000 </r>
       <r>   12.1898    0.0000 </r>
       <r>   12.4376    0.0000 </r>
       <r>   13.0075    0.0000 </r>
       <r>   13.5324    0.0000 </r>
       <r>   14.4760    0.0000 </r>
       <r>   14.8819    0.0000 </r>
       <r>   15.1897    0.0000 </r>
       <r>   15.6870    0.0000 </r>
      </set>
      <set comment="kpoint 3">
       <r>   -8.5294    1.0000 </r>
       <r>   -7.9171    1.0000 </r>
       <r>   -7.3308    1.0000 </r>
       <r>   -7.0338    1.0000 </r>
       <r>   -6.8502    1.0000 </r>
       <r>   -6.3002    1.0000 </r>
       <r>   -3.6518    1.0000 </r>
       <r>   -2.9218    1.0000 </r>
       <r>    0.0284    1.0000 </r>
       <r>    0.7484    1.0000 </r>
       <r>    1.4837    1.0000 </r>
       <r>    1.6379    1.0000 </r>
       <r>    1.7460    1.0000 </r>
       <r>    2.0801    1.0000 </r>
       <r>    2.3410    1.0000 </r>
       <r>    2.8233    1.0000 </r>
       <r>    2.9496    1.0000 </r>
       <r>    3.2365    1.0000 </r>
       <r>    3.5886    1.0000 </r>
       <r>    3.6506    1.0000 </r>
       <r>    3.7397    1.0000 </r>
       <r>    4.0307    1.0000 </r>
       <r>    4.3768    1.0000 </r>
       <r>    4.6217    1.0000 </r>
       <r>    4.8953    1.0000 </r>
       <r>    5.1498    1.0000 </r>
       <r>    5.3053    1.0000 </r>
       <r>    5.7012    1.0000 </r>
       <r>    5.8906    1.0000 </r>
       <r>    6.2390    1.0000 </r>
       <r>    6.7114    1.0000 </r>
       <r>    7.0947    1.0000 </r>
       <r>   11.4590    0.0000 </r>
       <r>   12.0369    0.0000 </r>
       <r>   12.1718    0.0000 </r>
       <r>   12.5334    0.0000 </r>
       <r>   13.1309    0.0000 </r>
       <r>   13.3703    0.0000 </r>
       <r>   13.5495    0.0000 </r>
       <r>   13.8549    0.0000 </r>
       <r>   14.1875    0.0000 </r>
       <r>   14.4438    0.0000 </r>
       <r>   14.9774    0.0000 </r>
       <r>   15.1313    0.0000 </r>
      </set>
      <set comment="kpoint 4">
       <r>   -8.8939    1.0000 </r>
       <r>   -7.4855    1.0000 </r>
       <r>   -7.3460    1.0000 </r>
       <r>   -6.9816    1.0000 </r>
       <r>   -6.7234    1.0000 </r>
       <r>   -6.2817    1.0000 </r>
       <r>   -3.8475    1.0000 </r>
       <r>   -2.5650    1.0000 </r>
       <r>   -0.3406    1.0000 </r>
       <r>    0.2382    1.0000 </r>
       <r>    0.8168    1.0000 </r>
       <r>    1.0429    1.0000 </r>
       <r>    1.3259    1.0000 </r>
       <r>    1.8497    1.0000 </r>
       <r>    2.1279    1.0000 </r>
       <r>    2.9425    1.0000 </r>
       <r>    3.0821    1.0000 </r>
       <r>    3.6337    1.0000 </r>
       <r>    3.8532    1.0000 </r>
       <r>    4.2066    1.0000 </r>
       <r>    4.3633    1.0000 </r>
       <r>    4.6630    1.0000 </r>
       <r>    4.8420    1.0000 </r>
       <r>    4.9227    1.0000 </r>
       <r>    4.9836    1.0000 </r>
       <r>    5.2881    1.0000 </r>
       <r>    5.5056    1.0000 </r>
       <r>    5.7333    1.0000 </r>
       <r>    6.0204    1.0000 </r>
       <r>    6.3693    1.0000 </r>
       <r>    6.9350    1.0000 </r>
       <r>    7.2770    1.0000 </r>
       <r>   10.9270    0.0000 </r>
       <r>   11.2815    0.0000 </r>
       <r>   11.5804    0.0000 </r>
       <r>   11.8613    0.0000 </r>
       <r>   12.1628    0.0000 </r>
       <r>   12.4368    0.0000 </r>
       <r>   12.9534    0.0000 </r>
       <r>   13.6272    0.0000 </r>
       <r>   14.4608    0.0000 </r>
       <r>   14.9466    0.0000 </r>
       <r>   15.0767    0.0000 </r>
       <r>   15.2864    0.0000 </r>
      </set>
      <set comment="kpoint 5">
       <r>   -8.5567    1.0000 </r>
       <r>   -7.7904    1.0000 </r>
       <r>   -7.4725    1.0000 </r>
       <r>   -7.1018    1.0000 </r>
       <r>   -6.7093    1.0000 </r>
       <r>   -6.2959    1.0000 </r>
       <r>   -3.8771    1.0000 </r>
       <r>   -2.7087    1.0000 </r>
       <r>    0.0035    1.0000 </r>
       <r>    0.7849    1.0000 </r>
       <r>    1.4474    1.0000 </r>
       <r>    1.6059    1.0000 </r>
       <r>    1.9726    1.0000 </r>
       <r>    2.0784    1.0000 </r>
       <r>    2.3197    1.0000 </r>
       <r>    2.6534    1.0000 </r>
       <r>    2.7405    1.0000 </r>
       <r>    3.0098    1.0000 </r>
       <r>    3.5759    1.0000 </r>
       <r>    3.7434    1.0000 </r>
       <r>    3.9687    1.0000 </r>
       <r>    4.2616    1.0000 </r>
       <r>    4.6175    1.0000 </r>
       <r>    4.6545    1.0000 </r>
       <r>    4.9220    1.0000 </r>
       <r>    5.0947    1.0000 </r>
       <r>    5.1884    1.0000 </r>
       <r>    5.6718    1.0000 </r>
       <r>    5.8790    1.0000 </r>
       <r>    6.0053    1.0000 </r>
       <r>    6.6746    1.0000 </r>
       <r>    7.1538    1.0000 </r>
       <r>   11.5515    0.0000 </r>
       <r>   11.7461    0.0000 </r>
       <r>   12.3687    0.0000 </r>
       <r>   12.5351    0.0000 </r>
       <r>   12.8372    0.0000 </r>
       <r>   13.1242    0.0000 </r>
       <r>   13.4754    0.0000 </r>
       <r>   14.1348    0.0000 </r>
       <r>   14.3276    0.0000 </r>
       <r>   14.6638    0.0000 </r>
       <r>   14.8537    0.0000 </r>
       <r>   15.0076    0.0000 </r>
      </set>
      <set comment="kpoint 6">
       <r>   -8.6094    1.0000 </r>
       <r>   -7.7053    1.0000 </r>
       <r>   -7.4780    1.0000 </r>
       <r>   -7.1557    1.0000 </r>
       <r>   -6.6800    1.0000 </r>
       <r>   -6.2867    1.0000 </r>
       <r>   -3.6357    1.0000 </r>
       <r>   -2.8286    1.0000 </r>
       <r>   -0.2672    1.0000 </r>
       <r>    0.5638    1.0000 </r>
       <r>    1.0958    1.0000 </r>
       <r>    1.3402    1.0000 </r>
       <r>    1.7621    1.0000 </r>
       <r>    2.0220    1.0000 </r>
       <r>    2.4553    1.0000 </r>
       <r>    2.6376    1.0000 </r>
       <r>    2.9938    1.0000 </r>
       <r>    3.1505    1.0000 </r>
       <r>    3.6490    1.0000 </r>
       <r>    3.9692    1.0000 </r>
       <r>    4.1881    1.0000 </r>
       <r>    4.3727    1.0000 </r>
       <r>    4.7241    1.0000 </r>
       <r>    4.8426    1.0000 </r>
       <r>    5.0656    1.0000 </r>
       <r>    5.2982    1.0000 </r>
       <r>    5.5277    1.0000 </r>
       <r>    5.7053    1.0000 </r>
       <r>    5.8253    1.0000 </r>
       <r>    6.3159    1.0000 </r>
       <r>    6.7033    1.0000 </r>
       <r>    7.1885    1.0000 </r>
       <r>   11.0760    0.0000 </r>
       <r>   11.4338    0.0000 </r>
       <r>   11.6755    0.0000 </r>
       <r>   12.1904    0.0000 </r>
       <r>   12.4685    0.0000 </r>
       <r>   12.7802    0.0000 </r>
       <r>   13.1361    0.0000 </r>
       <r>   13.8484    0.0000 </r>
       <r>   14.2561    0.0000 </r>
       <r>   14.6674    0.0000 </r>
       <r>   15.0018    0.0000 </r>
       <r>   15.2433    0.0000 </r>
      </set>
      <set comment="kpoint 7">
       <r>   -8.9194    1.0000 </r>
       <r>   -7.4827    1.0000 </r>
       <r>   -7.2196    1.0000 </r>
       <r>   -7.1408    1.0000 </r>
       <r>   -6.6676    1.0000 </r>
       <r>   -6.2727    1.0000 </r>
       <r>   -3.5902    1.0000 </r>
       <r>   -2.6918    1.0000 </r>
       <r>   -0.5356    1.0000 </r>
       <r>    0.0252    1.0000 </r>
       <r>    0.6509    1.0000 </r>
       <r>    0.9963    1.0000 </r>
       <r>    1.2340    1.0000 </r>
       <r>    1.6229    1.0000 </r>
       <r>    1.7741    1.0000 </r>
       <r>    3.2059    1.0000 </r>
       <r>    3.4555    1.0000 </r>
       <r>    3.7042    1.0000 </r>
       <r>    3.8783    1.0000 </r>
       <r>    4.3101    1.0000 </r>
       <r>    4.4333    1.0000 </r>
       <r>    4.7516    1.0000 </r>
       <r>    5.0074    1.0000 </r>
       <r>    5.1561    1.0000 </r>
       <r>    5.3181    1.0000 </r>
       <r>    5.3943    1.0000 </r>
       <r>    5.5457    1.0000 </r>
       <r>    5.8202    1.0000 </r>
       <r>    6.1551    1.0000 </r>
       <r>    6.5825    1.0000 </r>
       <r>    7.2073    1.0000 </r>
       <r>    7.3713    1.0000 </r>
       <r>   10.5051    0.0000 </r>
       <r>   10.7270    0.0000 </r>
       <r>   11.0149    0.0000 </r>
       <r>   11.5674    0.0000 </r>
       <r>   11.6832    0.0000 </r>
       <r>   12.1046    0.0000 </r>
       <r>   12.3726    0.0000 </r>
       <r>   13.2383    0.0000 </r>
       <r>   14.6609    0.0000 </r>
       <r>   15.0815    0.0000 </r>
       <r>   15.2411    0.0000 </r>
       <r>   15.4840    0.0000 </r>
      </set>
      <set comment="kpoint 8">
       <r>   -8.5290    1.0000 </r>
       <r>   -7.9361    1.0000 </r>
       <r>   -7.3871    1.0000 </r>
       <r>   -6.9439    1.0000 </r>
       <r>   -6.7954    1.0000 </r>
       <r>   -6.3001    1.0000 </r>
       <r>   -4.0291    1.0000 </r>
       <r>   -2.6031    1.0000 </r>
       <r>   -0.0144    1.0000 </r>
       <r>    1.0219    1.0000 </r>
       <r>    1.4165    1.0000 </r>
       <r>    1.6608    1.0000 </r>
       <r>    1.7793    1.0000 </r>
       <r>    1.9402    1.0000 </r>
       <r>    2.2220    1.0000 </r>
       <r>    2.6217    1.0000 </r>
       <r>    2.8702    1.0000 </r>
       <r>    3.3278    1.0000 </r>
       <r>    3.5430    1.0000 </r>
       <r>    3.7819    1.0000 </r>
       <r>    3.9585    1.0000 </r>
       <r>    4.1952    1.0000 </r>
       <r>    4.4695    1.0000 </r>
       <r>    4.7247    1.0000 </r>
       <r>    4.7600    1.0000 </r>
       <r>    5.1122    1.0000 </r>
       <r>    5.4446    1.0000 </r>
       <r>    5.5359    1.0000 </r>
       <r>    5.8067    1.0000 </r>
       <r>    5.8346    1.0000 </r>
       <r>    6.8171    1.0000 </r>
       <r>    7.1907    1.0000 </r>
       <r>   11.5570    0.0000 </r>
       <r>   12.1255    0.0000 </r>
       <r>   12.2099    0.0000 </r>
       <r>   12.3528    0.0000 </r>
       <r>   12.7421    0.0000 </r>
       <r>   13.3788    0.0000 </r>
       <r>   13.5572    0.0000 </r>
       <r>   13.6802    0.0000 </r>
       <r>   14.3103    0.0000 </r>
       <r>   14.5311    0.0000 </r>
       <r>   14.7347    0.0000 </r>
       <r>   15.2232    0.0000 </r>
      </set>
      <set comment="kpoint 9">
       <r>   -8.6112    1.0000 </r>
       <r>   -7.6844    1.0000 </r>
       <r>   -7.5256    1.0000 </r>
       <r>   -7.1495    1.0000 </r>
       <r>   -6.6154    1.0000 </r>
       <r>   -6.2921    1.0000 </r>
       <r>   -3.8430    1.0000 </r>
       <r>   -2.6514    1.0000 </r>
       <r>   -0.2875    1.0000 </r>
       <r>    0.6189    1.0000 </r>
       <r>    1.0724    1.0000 </r>
       <r>    1.3603    1.0000 </r>
       <r>    1.7964    1.0000 </r>
       <r>    2.0635    1.0000 </r>
       <r>    2.2738    1.0000 </r>
       <r>    2.6957    1.0000 </r>
       <r>    2.9541    1.0000 </r>
       <r>    3.2995    1.0000 </r>
       <r>    3.6116    1.0000 </r>
       <r>    3.9053    1.0000 </r>
       <r>    4.2447    1.0000 </r>
       <r>    4.4142    1.0000 </r>
       <r>    4.7074    1.0000 </r>
       <r>    4.8674    1.0000 </r>
       <r>    5.0279    1.0000 </r>
       <r>    5.2173    1.0000 </r>
       <r>    5.4663    1.0000 </r>
       <r>    5.8096    1.0000 </r>
       <r>    5.9640    1.0000 </r>
       <r>    6.0431    1.0000 </r>
       <r>    6.7825    1.0000 </r>
       <r>    7.1992    1.0000 </r>
       <r>   11.1509    0.0000 </r>
       <r>   11.4311    0.0000 </r>
       <r>   11.7246    0.0000 </r>
       <r>   12.0836    0.0000 </r>
       <r>   12.2996    0.0000 </r>
       <r>   12.7072    0.0000 </r>
       <r>   13.1581    0.0000 </r>
       <r>   13.7549    0.0000 </r>
       <r>   14.2945    0.0000 </r>
       <r>   14.7395    0.0000 </r>
       <r>   15.0626    0.0000 </r>
       <r>   15.2713    0.0000 </r>
      </set>
      <set comment="kpoint 10">
       <r>   -8.6305    1.0000 </r>
       <r>   -7.8349    1.0000 </r>
       <r>   -7.2762    1.0000 </r>
       <r>   -7.1943    1.0000 </r>
       <r>   -6.6418    1.0000 </r>
       <r>   -6.2857    1.0000 </r>
       <r>   -3.5622    1.0000 </r>
       <r>   -2.8246    1.0000 </r>
       <r>   -0.5128    1.0000 </r>
       <r>    0.2996    1.0000 </r>
       <r>    0.8313    1.0000 </r>
       <r>    0.9731    1.0000 </r>
       <r>    2.0367    1.0000 </r>
       <r>    2.2684    1.0000 </r>
       <r>    2.3307    1.0000 </r>
       <r>    2.7143    1.0000 </r>
       <r>    2.9773    1.0000 </r>
       <r>    3.2619    1.0000 </r>
       <r>    3.5551    1.0000 </r>
       <r>    4.1608    1.0000 </r>
       <r>    4.3194    1.0000 </r>
       <r>    4.5359    1.0000 </r>
       <r>    4.7293    1.0000 </r>
       <r>    5.1032    1.0000 </r>
       <r>    5.1653    1.0000 </r>
       <r>    5.3819    1.0000 </r>
       <r>    5.6736    1.0000 </r>
       <r>    5.7388    1.0000 </r>
       <r>    5.9070    1.0000 </r>
       <r>    6.4968    1.0000 </r>
       <r>    7.2127    1.0000 </r>
       <r>    7.2975    1.0000 </r>
       <r>   10.6576    0.0000 </r>
       <r>   10.8484    0.0000 </r>
       <r>   11.3861    0.0000 </r>
       <r>   11.7051    0.0000 </r>
       <r>   12.0919    0.0000 </r>
       <r>   12.1926    0.0000 </r>
       <r>   12.7549    0.0000 </r>
       <r>   13.2860    0.0000 </r>
       <r>   14.2024    0.0000 </r>
       <r>   14.5908    0.0000 </r>
       <r>   14.7953    0.0000 </r>
       <r>   15.4013    0.0000 </r>
      </set>
      <set comment="kpoint 11">
       <r>   -8.9591    1.0000 </r>
       <r>   -7.5749    1.0000 </r>
       <r>   -7.1939    1.0000 </r>
       <r>   -6.9726    1.0000 </r>
       <r>   -6.6287    1.0000 </r>
       <r>   -6.3295    1.0000 </r>
       <r>   -3.8353    1.0000 </r>
       <r>   -2.4119    1.0000 </r>
       <r>   -0.3413    1.0000 </r>
       <r>    0.0818    1.0000 </r>
       <r>    0.5888    1.0000 </r>
       <r>    0.9977    1.0000 </r>
       <r>    1.3569    1.0000 </r>
       <r>    1.5311    1.0000 </r>
       <r>    2.1505    1.0000 </r>
       <r>    2.7632    1.0000 </r>
       <r>    3.1620    1.0000 </r>
       <r>    3.5767    1.0000 </r>
       <r>    3.9985    1.0000 </r>
       <r>    4.2257    1.0000 </r>
       <r>    4.3137    1.0000 </r>
       <r>    4.5067    1.0000 </r>
       <r>    4.7822    1.0000 </r>
       <r>    5.1243    1.0000 </r>
       <r>    5.2483    1.0000 </r>
       <r>    5.3074    1.0000 </r>
       <r>    5.5402    1.0000 </r>
       <r>    5.6268    1.0000 </r>
       <r>    6.3335    1.0000 </r>
       <r>    6.4945    1.0000 </r>
       <r>    7.0155    1.0000 </r>
       <r>    7.4838    1.0000 </r>
       <r>   11.0156    0.0000 </r>
       <r>   11.3635    0.0000 </r>
       <r>   11.6304    0.0000 </r>
       <r>   11.9316    0.0000 </r>
       <r>   12.2358    0.0000 </r>
       <r>   12.5161    0.0000 </r>
       <r>   12.7171    0.0000 </r>
       <r>   13.5564    0.0000 </r>
       <r>   14.4990    0.0000 </r>
       <r>   14.8340    0.0000 </r>
       <r>   14.9764    0.0000 </r>
       <r>   15.4049    0.0000 </r>
      </set>
      <set comment="kpoint 12">
       <r>   -8.6772    1.0000 </r>
       <r>   -7.7401    1.0000 </r>
       <r>   -7.4377    1.0000 </r>
       <r>   -6.9802    1.0000 </r>
       <r>   -6.7335    1.0000 </r>
       <r>   -6.3077    1.0000 </r>
       <r>   -3.8478    1.0000 </r>
       <r>   -2.6131    1.0000 </r>
       <r>    0.0067    1.0000 </r>
       <r>    0.5950    1.0000 </r>
       <r>    1.2472    1.0000 </r>
       <r>    1.4183    1.0000 </r>
       <r>    1.7151    1.0000 </r>
       <r>    2.1591    1.0000 </r>
       <r>    2.3245    1.0000 </r>
       <r>    2.5280    1.0000 </r>
       <r>    3.0024    1.0000 </r>
       <r>    3.1792    1.0000 </r>
       <r>    3.2961    1.0000 </r>
       <r>    3.6537    1.0000 </r>
       <r>    3.9699    1.0000 </r>
       <r>    4.2613    1.0000 </r>
       <r>    4.4743    1.0000 </r>
       <r>    4.7947    1.0000 </r>
       <r>    5.0409    1.0000 </r>
       <r>    5.2092    1.0000 </r>
       <r>    5.3628    1.0000 </r>
       <r>    5.5555    1.0000 </r>
       <r>    6.0669    1.0000 </r>
       <r>    6.3009    1.0000 </r>
       <r>    6.8270    1.0000 </r>
       <r>    7.1547    1.0000 </r>
       <r>   11.9563    0.0000 </r>
       <r>   12.0244    0.0000 </r>
       <r>   12.2931    0.0000 </r>
       <r>   12.7487    0.0000 </r>
       <r>   12.9635    0.0000 </r>
       <r>   13.2908    0.0000 </r>
       <r>   13.5389    0.0000 </r>
       <r>   13.8371    0.0000 </r>
       <r>   14.1738    0.0000 </r>
       <r>   14.3814    0.0000 </r>
       <r>   14.6078    0.0000 </r>
       <r>   15.0756    0.0000 </r>
      </set>
      <set comment="kpoint 13">
       <r>   -8.5067    1.0000 </r>
       <r>   -7.9741    1.0000 </r>
       <r>   -7.3428    1.0000 </r>
       <r>   -6.9957    1.0000 </r>
       <r>   -6.7487    1.0000 </r>
       <r>   -6.3855    1.0000 </r>
       <r>   -3.8059    1.0000 </r>
       <r>   -2.7672    1.0000 </r>
       <r>    0.1319    1.0000 </r>
       <r>    0.7194    1.0000 </r>
       <r>    1.4714    1.0000 </r>
       <r>    1.6442    1.0000 </r>
       <r>    1.7302    1.0000 </r>
       <r>    2.0091    1.0000 </r>
       <r>    2.2878    1.0000 </r>
       <r>    2.6691    1.0000 </r>
       <r>    3.0340    1.0000 </r>
       <r>    3.2845    1.0000 </r>
       <r>    3.5186    1.0000 </r>
       <r>    3.7161    1.0000 </r>
       <r>    3.9801    1.0000 </r>
       <r>    4.1828    1.0000 </r>
       <r>    4.4107    1.0000 </r>
       <r>    4.5585    1.0000 </r>
       <r>    4.8604    1.0000 </r>
       <r>    4.9870    1.0000 </r>
       <r>    5.2796    1.0000 </r>
       <r>    5.4968    1.0000 </r>
       <r>    5.9256    1.0000 </r>
       <r>    6.4114    1.0000 </r>
       <r>    6.7125    1.0000 </r>
       <r>    6.9045    1.0000 </r>
       <r>   11.6587    0.0000 </r>
       <r>   12.0448    0.0000 </r>
       <r>   12.2114    0.0000 </r>
       <r>   12.5844    0.0000 </r>
       <r>   13.0076    0.0000 </r>
       <r>   13.2442    0.0000 </r>
       <r>   13.6739    0.0000 </r>
       <r>   13.9156    0.0000 </r>
       <r>   14.3663    0.0000 </r>
       <r>   14.5327    0.0000 </r>
       <r>   14.8232    0.0000 </r>
       <r>   15.1460    0.0000 </r>
      </set>
      <set comment="kpoint 14">
       <r>   -8.8839    1.0000 </r>
       <r>   -7.6325    1.0000 </r>
       <r>   -7.1429    1.0000 </r>
       <r>   -7.0135    1.0000 </r>
       <r>   -6.6816    1.0000 </r>
       <r>   -6.3847    1.0000 </r>
       <r>   -3.8021    1.0000 </r>
       <r>   -2.5735    1.0000 </r>
       <r>   -0.2765    1.0000 </r>
       <r>    0.1978    1.0000 </r>
       <r>    0.7246    1.0000 </r>
       <r>    1.0843    1.0000 </r>
       <r>    1.3331    1.0000 </r>
       <r>    1.8646    1.0000 </r>
       <r>    2.1763    1.0000 </r>
       <r>    2.8398    1.0000 </r>
       <r>    3.2288    1.0000 </r>
       <r>    3.5514    1.0000 </r>
       <r>    3.9517    1.0000 </r>
       <r>    4.2709    1.0000 </r>
       <r>    4.3042    1.0000 </r>
       <r>    4.6094    1.0000 </r>
       <r>    4.6615    1.0000 </r>
       <r>    4.9251    1.0000 </r>
       <r>    5.0332    1.0000 </r>
       <r>    5.2093    1.0000 </r>
       <r>    5.3800    1.0000 </r>
       <r>    5.6469    1.0000 </r>
       <r>    6.2037    1.0000 </r>
       <r>    6.5933    1.0000 </r>
       <r>    6.9565    1.0000 </r>
       <r>    7.1884    1.0000 </r>
       <r>   10.8416    0.0000 </r>
       <r>   11.4171    0.0000 </r>
       <r>   11.5722    0.0000 </r>
       <r>   11.8986    0.0000 </r>
       <r>   12.1718    0.0000 </r>
       <r>   12.3907    0.0000 </r>
       <r>   12.9344    0.0000 </r>
       <r>   13.6355    0.0000 </r>
       <r>   14.4473    0.0000 </r>
       <r>   14.8916    0.0000 </r>
       <r>   15.1805    0.0000 </r>
       <r>   15.6298    0.0000 </r>
      </set>
      <set comment="kpoint 15">
       <r>   -8.6738    1.0000 </r>
       <r>   -7.8042    1.0000 </r>
       <r>   -7.3796    1.0000 </r>
       <r>   -6.9505    1.0000 </r>
       <r>   -6.6967    1.0000 </r>
       <r>   -6.3467    1.0000 </r>
       <r>   -3.9831    1.0000 </r>
       <r>   -2.4928    1.0000 </r>
       <r>   -0.0523    1.0000 </r>
       <r>    0.7140    1.0000 </r>
       <r>    1.2753    1.0000 </r>
       <r>    1.4466    1.0000 </r>
       <r>    1.7537    1.0000 </r>
       <r>    2.0074    1.0000 </r>
       <r>    2.2205    1.0000 </r>
       <r>    2.4777    1.0000 </r>
       <r>    3.0638    1.0000 </r>
       <r>    3.1709    1.0000 </r>
       <r>    3.3328    1.0000 </r>
       <r>    3.8126    1.0000 </r>
       <r>    4.0020    1.0000 </r>
       <r>    4.2049    1.0000 </r>
       <r>    4.5176    1.0000 </r>
       <r>    4.8179    1.0000 </r>
       <r>    5.0639    1.0000 </r>
       <r>    5.2052    1.0000 </r>
       <r>    5.2846    1.0000 </r>
       <r>    5.5647    1.0000 </r>
       <r>    5.9823    1.0000 </r>
       <r>    6.2390    1.0000 </r>
       <r>    6.7019    1.0000 </r>
       <r>    7.3069    1.0000 </r>
       <r>   11.7487    0.0000 </r>
       <r>   12.1741    0.0000 </r>
       <r>   12.4432    0.0000 </r>
       <r>   12.7575    0.0000 </r>
       <r>   12.8699    0.0000 </r>
       <r>   13.1064    0.0000 </r>
       <r>   13.5379    0.0000 </r>
       <r>   13.9759    0.0000 </r>
       <r>   14.1704    0.0000 </r>
       <r>   14.4515    0.0000 </r>
       <r>   14.6175    0.0000 </r>
       <r>   14.8929    0.0000 </r>
      </set>
      <set comment="kpoint 16">
       <r>   -8.4402    1.0000 </r>
       <r>   -7.9469    1.0000 </r>
       <r>   -7.5057    1.0000 </r>
       <r>   -7.1510    1.0000 </r>
       <r>   -6.5934    1.0000 </r>
       <r>   -6.2964    1.0000 </r>
       <r>   -3.9789    1.0000 </r>
       <r>   -2.4940    1.0000 </r>
       <r>   -0.0315    1.0000 </r>
       <r>    1.0611    1.0000 </r>
       <r>    1.4655    1.0000 </r>
       <r>    1.5984    1.0000 </r>
       <r>    1.9112    1.0000 </r>
       <r>    2.0323    1.0000 </r>
       <r>    2.1817    1.0000 </r>
       <r>    2.5220    1.0000 </r>
       <r>    2.7830    1.0000 </r>
       <r>    2.9676    1.0000 </r>
       <r>    3.3055    1.0000 </r>
       <r>    3.4658    1.0000 </r>
       <r>    3.9837    1.0000 </r>
       <r>    4.1477    1.0000 </r>
       <r>    4.5596    1.0000 </r>
       <r>    4.8741    1.0000 </r>
       <r>    5.0712    1.0000 </r>
       <r>    5.1804    1.0000 </r>
       <r>    5.3261    1.0000 </r>
       <r>    5.4272    1.0000 </r>
       <r>    6.0868    1.0000 </r>
       <r>    6.2286    1.0000 </r>
       <r>    6.6235    1.0000 </r>
       <r>    7.0362    1.0000 </r>
       <r>   12.2849    0.0000 </r>
       <r>   12.3749    0.0000 </r>
       <r>   12.5303    0.0000 </r>
       <r>   12.8114    0.0000 </r>
       <r>   13.0767    0.0000 </r>
       <r>   13.2150    0.0000 </r>
       <r>   13.4314    0.0000 </r>
       <r>   13.6509    0.0000 </r>
       <r>   13.9619    0.0000 </r>
       <r>   14.1805    0.0000 </r>
       <r>   14.5653    0.0000 </r>
       <r>   14.8432    0.0000 </r>
      </set>
      <set comment="kpoint 17">
       <r>   -8.5840    1.0000 </r>
       <r>   -7.8657    1.0000 </r>
       <r>   -7.3378    1.0000 </r>
       <r>   -7.1208    1.0000 </r>
       <r>   -6.6279    1.0000 </r>
       <r>   -6.3694    1.0000 </r>
       <r>   -3.8025    1.0000 </r>
       <r>   -2.6519    1.0000 </r>
       <r>   -0.2143    1.0000 </r>
       <r>    0.4774    1.0000 </r>
       <r>    1.1806    1.0000 </r>
       <r>    1.3829    1.0000 </r>
       <r>    1.7971    1.0000 </r>
       <r>    1.9326    1.0000 </r>
       <r>    2.2254    1.0000 </r>
       <r>    2.8610    1.0000 </r>
       <r>    3.0044    1.0000 </r>
       <r>    3.2500    1.0000 </r>
       <r>    3.6648    1.0000 </r>
       <r>    3.8168    1.0000 </r>
       <r>    4.2074    1.0000 </r>
       <r>    4.3444    1.0000 </r>
       <r>    4.7048    1.0000 </r>
       <r>    4.9177    1.0000 </r>
       <r>    5.0974    1.0000 </r>
       <r>    5.1929    1.0000 </r>
       <r>    5.3657    1.0000 </r>
       <r>    5.6717    1.0000 </r>
       <r>    5.8675    1.0000 </r>
       <r>    6.3245    1.0000 </r>
       <r>    6.8608    1.0000 </r>
       <r>    7.1331    1.0000 </r>
       <r>   11.0572    0.0000 </r>
       <r>   11.5700    0.0000 </r>
       <r>   11.7236    0.0000 </r>
       <r>   12.1429    0.0000 </r>
       <r>   12.3289    0.0000 </r>
       <r>   12.7814    0.0000 </r>
       <r>   12.9818    0.0000 </r>
       <r>   13.8243    0.0000 </r>
       <r>   14.3527    0.0000 </r>
       <r>   14.8432    0.0000 </r>
       <r>   14.9752    0.0000 </r>
       <r>   15.2554    0.0000 </r>
      </set>
      <set comment="kpoint 18">
       <r>   -8.7780    1.0000 </r>
       <r>   -7.6446    1.0000 </r>
       <r>   -7.2435    1.0000 </r>
       <r>   -7.1146    1.0000 </r>
       <r>   -6.6366    1.0000 </r>
       <r>   -6.4119    1.0000 </r>
       <r>   -3.8040    1.0000 </r>
       <r>   -2.6234    1.0000 </r>
       <r>   -0.2350    1.0000 </r>
       <r>    0.3166    1.0000 </r>
       <r>    1.0069    1.0000 </r>
       <r>    1.1758    1.0000 </r>
       <r>    1.6088    1.0000 </r>
       <r>    1.8915    1.0000 </r>
       <r>    2.1440    1.0000 </r>
       <r>    2.8411    1.0000 </r>
       <r>    3.1992    1.0000 </r>
       <r>    3.5273    1.0000 </r>
       <r>    3.7485    1.0000 </r>
       <r>    3.9223    1.0000 </r>
       <r>    4.2379    1.0000 </r>
       <r>    4.6223    1.0000 </r>
       <r>    4.6960    1.0000 </r>
       <r>    4.8663    1.0000 </r>
       <r>    5.0380    1.0000 </r>
       <r>    5.2700    1.0000 </r>
       <r>    5.3804    1.0000 </r>
       <r>    5.4702    1.0000 </r>
       <r>    6.0558    1.0000 </r>
       <r>    6.4637    1.0000 </r>
       <r>    6.8586    1.0000 </r>
       <r>    7.2820    1.0000 </r>
       <r>   10.8781    0.0000 </r>
       <r>   11.4178    0.0000 </r>
       <r>   11.6017    0.0000 </r>
       <r>   12.0029    0.0000 </r>
       <r>   12.2499    0.0000 </r>
       <r>   12.6730    0.0000 </r>
       <r>   13.0525    0.0000 </r>
       <r>   13.8049    0.0000 </r>
       <r>   14.4413    0.0000 </r>
       <r>   14.7858    0.0000 </r>
       <r>   15.0798    0.0000 </r>
       <r>   15.5583    0.0000 </r>
      </set>
      <set comment="kpoint 19">
       <r>   -8.5492    1.0000 </r>
       <r>   -7.8763    1.0000 </r>
       <r>   -7.4050    1.0000 </r>
       <r>   -7.0203    1.0000 </r>
       <r>   -6.7063    1.0000 </r>
       <r>   -6.3319    1.0000 </r>
       <r>   -4.0931    1.0000 </r>
       <r>   -2.5612    1.0000 </r>
       <r>    0.2206    1.0000 </r>
       <r>    0.8495    1.0000 </r>
       <r>    1.3805    1.0000 </r>
       <r>    1.5499    1.0000 </r>
       <r>    1.8281    1.0000 </r>
       <r>    2.0555    1.0000 </r>
       <r>    2.2446    1.0000 </r>
       <r>    2.5941    1.0000 </r>
       <r>    2.9797    1.0000 </r>
       <r>    3.1811    1.0000 </r>
       <r>    3.5937    1.0000 </r>
       <r>    3.7552    1.0000 </r>
       <r>    4.0110    1.0000 </r>
       <r>    4.1902    1.0000 </r>
       <r>    4.4293    1.0000 </r>
       <r>    4.5318    1.0000 </r>
       <r>    4.8525    1.0000 </r>
       <r>    5.1232    1.0000 </r>
       <r>    5.3146    1.0000 </r>
       <r>    5.5640    1.0000 </r>
       <r>    5.7616    1.0000 </r>
       <r>    6.0372    1.0000 </r>
       <r>    6.6358    1.0000 </r>
       <r>    7.2085    1.0000 </r>
       <r>   11.7813    0.0000 </r>
       <r>   11.9403    0.0000 </r>
       <r>   12.3278    0.0000 </r>
       <r>   12.7767    0.0000 </r>
       <r>   12.9465    0.0000 </r>
       <r>   13.2694    0.0000 </r>
       <r>   13.6904    0.0000 </r>
       <r>   14.0074    0.0000 </r>
       <r>   14.2494    0.0000 </r>
       <r>   14.4220    0.0000 </r>
       <r>   14.5313    0.0000 </r>
       <r>   15.0452    0.0000 </r>
      </set>
      <set comment="kpoint 20">
       <r>   -8.6165    1.0000 </r>
       <r>   -7.7180    1.0000 </r>
       <r>   -7.4492    1.0000 </r>
       <r>   -7.1559    1.0000 </r>
       <r>   -6.6313    1.0000 </r>
       <r>   -6.3020    1.0000 </r>
       <r>   -3.9414    1.0000 </r>
       <r>   -2.5732    1.0000 </r>
       <r>   -0.0814    1.0000 </r>
       <r>    0.4629    1.0000 </r>
       <r>    1.0683    1.0000 </r>
       <r>    1.3530    1.0000 </r>
       <r>    1.8707    1.0000 </r>
       <r>    1.9716    1.0000 </r>
       <r>    2.4475    1.0000 </r>
       <r>    2.6806    1.0000 </r>
       <r>    3.0145    1.0000 </r>
       <r>    3.1661    1.0000 </r>
       <r>    3.6149    1.0000 </r>
       <r>    3.8558    1.0000 </r>
       <r>    4.0598    1.0000 </r>
       <r>    4.4366    1.0000 </r>
       <r>    4.7573    1.0000 </r>
       <r>    4.8448    1.0000 </r>
       <r>    5.1252    1.0000 </r>
       <r>    5.1941    1.0000 </r>
       <r>    5.3392    1.0000 </r>
       <r>    5.5012    1.0000 </r>
       <r>    6.0477    1.0000 </r>
       <r>    6.2960    1.0000 </r>
       <r>    6.8970    1.0000 </r>
       <r>    7.1412    1.0000 </r>
       <r>   11.2318    0.0000 </r>
       <r>   11.4368    0.0000 </r>
       <r>   11.7017    0.0000 </r>
       <r>   12.2568    0.0000 </r>
       <r>   12.5455    0.0000 </r>
       <r>   12.7759    0.0000 </r>
       <r>   13.0212    0.0000 </r>
       <r>   13.7407    0.0000 </r>
       <r>   14.2861    0.0000 </r>
       <r>   14.6413    0.0000 </r>
       <r>   14.7858    0.0000 </r>
       <r>   15.0363    0.0000 </r>
      </set>
      <set comment="kpoint 21">
       <r>   -8.5188    1.0000 </r>
       <r>   -7.7512    1.0000 </r>
       <r>   -7.3674    1.0000 </r>
       <r>   -7.2436    1.0000 </r>
       <r>   -6.6966    1.0000 </r>
       <r>   -6.4199    1.0000 </r>
       <r>   -3.7323    1.0000 </r>
       <r>   -2.8748    1.0000 </r>
       <r>    0.0319    1.0000 </r>
       <r>    0.5794    1.0000 </r>
       <r>    1.1659    1.0000 </r>
       <r>    1.4921    1.0000 </r>
       <r>    2.1346    1.0000 </r>
       <r>    2.2934    1.0000 </r>
       <r>    2.5235    1.0000 </r>
       <r>    2.6440    1.0000 </r>
       <r>    2.9889    1.0000 </r>
       <r>    3.1212    1.0000 </r>
       <r>    3.2751    1.0000 </r>
       <r>    3.6295    1.0000 </r>
       <r>    4.3235    1.0000 </r>
       <r>    4.4603    1.0000 </r>
       <r>    4.7171    1.0000 </r>
       <r>    4.8899    1.0000 </r>
       <r>    5.0411    1.0000 </r>
       <r>    5.1186    1.0000 </r>
       <r>    5.2203    1.0000 </r>
       <r>    5.5061    1.0000 </r>
       <r>    5.6821    1.0000 </r>
       <r>    6.2883    1.0000 </r>
       <r>    6.7084    1.0000 </r>
       <r>    7.0599    1.0000 </r>
       <r>   11.0969    0.0000 </r>
       <r>   11.5611    0.0000 </r>
       <r>   11.7178    0.0000 </r>
       <r>   11.9909    0.0000 </r>
       <r>   12.3919    0.0000 </r>
       <r>   12.8295    0.0000 </r>
       <r>   13.1698    0.0000 </r>
       <r>   13.6522    0.0000 </r>
       <r>   14.4977    0.0000 </r>
       <r>   14.6776    0.0000 </r>
       <r>   14.8598    0.0000 </r>
       <r>   15.1098    0.0000 </r>
      </set>
      <set comment="kpoint 22">
       <r>   -8.4559    1.0000 </r>
       <r>   -7.7943    1.0000 </r>
       <r>   -7.4824    1.0000 </r>
       <r>   -7.1535    1.0000 </r>
       <r>   -6.6579    1.0000 </r>
       <r>   -6.4648    1.0000 </r>
       <r>   -3.9470    1.0000 </r>
       <r>   -2.7740    1.0000 </r>
       <r>    0.2977    1.0000 </r>
       <r>    1.1493    1.0000 </r>
       <r>    1.3918    1.0000 </r>
       <r>    1.7279    1.0000 </r>
       <r>    1.8919    1.0000 </r>
       <r>    2.1618    1.0000 </r>
       <r>    2.3242    1.0000 </r>
       <r>    2.5376    1.0000 </r>
       <r>    3.0112    1.0000 </r>
       <r>    3.3795    1.0000 </r>
       <r>    3.5578    1.0000 </r>
       <r>    3.7126    1.0000 </r>
       <r>    3.9557    1.0000 </r>
       <r>    4.1320    1.0000 </r>
       <r>    4.3119    1.0000 </r>
       <r>    4.5912    1.0000 </r>
       <r>    4.7594    1.0000 </r>
       <r>    4.9911    1.0000 </r>
       <r>    5.1821    1.0000 </r>
       <r>    5.4241    1.0000 </r>
       <r>    5.7730    1.0000 </r>
       <r>    5.9837    1.0000 </r>
       <r>    6.4379    1.0000 </r>
       <r>    7.0217    1.0000 </r>
       <r>   11.2692    0.0000 </r>
       <r>   11.9605    0.0000 </r>
       <r>   12.4304    0.0000 </r>
       <r>   12.7591    0.0000 </r>
       <r>   12.8886    0.0000 </r>
       <r>   13.0397    0.0000 </r>
       <r>   13.6889    0.0000 </r>
       <r>   14.0020    0.0000 </r>
       <r>   14.3901    0.0000 </r>
       <r>   14.7220    0.0000 </r>
       <r>   14.8388    0.0000 </r>
       <r>   15.3362    0.0000 </r>
      </set>
      <set comment="kpoint 23">
       <r>   -8.8964    1.0000 </r>
       <r>   -7.5278    1.0000 </r>
       <r>   -7.1908    1.0000 </r>
       <r>   -7.1127    1.0000 </r>
       <r>   -6.6616    1.0000 </r>
       <r>   -6.3159    1.0000 </r>
       <r>   -3.9424    1.0000 </r>
       <r>   -2.4978    1.0000 </r>
       <r>   -0.1670    1.0000 </r>
       <r>    0.2389    1.0000 </r>
       <r>    0.7436    1.0000 </r>
       <r>    1.0286    1.0000 </r>
       <r>    1.2769    1.0000 </r>
       <r>    1.8770    1.0000 </r>
       <r>    2.1925    1.0000 </r>
       <r>    2.9722    1.0000 </r>
       <r>    3.1112    1.0000 </r>
       <r>    3.3915    1.0000 </r>
       <r>    3.9136    1.0000 </r>
       <r>    4.2571    1.0000 </r>
       <r>    4.4096    1.0000 </r>
       <r>    4.6153    1.0000 </r>
       <r>    4.7158    1.0000 </r>
       <r>    4.8783    1.0000 </r>
       <r>    5.0725    1.0000 </r>
       <r>    5.1590    1.0000 </r>
       <r>    5.5070    1.0000 </r>
       <r>    5.5962    1.0000 </r>
       <r>    6.2074    1.0000 </r>
       <r>    6.3535    1.0000 </r>
       <r>    7.0284    1.0000 </r>
       <r>    7.2658    1.0000 </r>
       <r>   10.9244    0.0000 </r>
       <r>   11.3901    0.0000 </r>
       <r>   11.5613    0.0000 </r>
       <r>   12.0961    0.0000 </r>
       <r>   12.1933    0.0000 </r>
       <r>   12.4433    0.0000 </r>
       <r>   12.9291    0.0000 </r>
       <r>   13.6331    0.0000 </r>
       <r>   14.4726    0.0000 </r>
       <r>   14.7138    0.0000 </r>
       <r>   15.0708    0.0000 </r>
       <r>   15.3768    0.0000 </r>
      </set>
      <set comment="kpoint 24">
       <r>   -8.7935    1.0000 </r>
       <r>   -7.4928    1.0000 </r>
       <r>   -7.2998    1.0000 </r>
       <r>   -7.1898    1.0000 </r>
       <r>   -6.7432    1.0000 </r>
       <r>   -6.3148    1.0000 </r>
       <r>   -3.7689    1.0000 </r>
       <r>   -2.6947    1.0000 </r>
       <r>   -0.0586    1.0000 </r>
       <r>    0.2844    1.0000 </r>
       <r>    0.9303    1.0000 </r>
       <r>    1.2095    1.0000 </r>
       <r>    1.4691    1.0000 </r>
       <r>    2.0280    1.0000 </r>
       <r>    2.1806    1.0000 </r>
       <r>    3.0039    1.0000 </r>
       <r>    3.0213    1.0000 </r>
       <r>    3.3685    1.0000 </r>
       <r>    3.5995    1.0000 </r>
       <r>    3.9451    1.0000 </r>
       <r>    4.3139    1.0000 </r>
       <r>    4.4841    1.0000 </r>
       <r>    4.7010    1.0000 </r>
       <r>    4.9241    1.0000 </r>
       <r>    5.1682    1.0000 </r>
       <r>    5.3245    1.0000 </r>
       <r>    5.3574    1.0000 </r>
       <r>    5.5066    1.0000 </r>
       <r>    6.0964    1.0000 </r>
       <r>    6.4695    1.0000 </r>
       <r>    6.8063    1.0000 </r>
       <r>    7.2771    1.0000 </r>
       <r>   11.0691    0.0000 </r>
       <r>   11.3023    0.0000 </r>
       <r>   11.5123    0.0000 </r>
       <r>   12.1991    0.0000 </r>
       <r>   12.4783    0.0000 </r>
       <r>   12.7240    0.0000 </r>
       <r>   13.0558    0.0000 </r>
       <r>   13.6748    0.0000 </r>
       <r>   14.3228    0.0000 </r>
       <r>   14.7271    0.0000 </r>
       <r>   15.3864    0.0000 </r>
       <r>   15.4295    0.0000 </r>
      </set>
      <set comment="kpoint 25">
       <r>   -8.4587    1.0000 </r>
       <r>   -7.7752    1.0000 </r>
       <r>   -7.4057    1.0000 </r>
       <r>   -7.2615    1.0000 </r>
       <r>   -6.7309    1.0000 </r>
       <r>   -6.4057    1.0000 </r>
       <r>   -3.7642    1.0000 </r>
       <r>   -2.9347    1.0000 </r>
       <r>    0.3926    1.0000 </r>
       <r>    0.8514    1.0000 </r>
       <r>    1.4627    1.0000 </r>
       <r>    1.7189    1.0000 </r>
       <r>    1.9946    1.0000 </r>
       <r>    2.2297    1.0000 </r>
       <r>    2.4624    1.0000 </r>
       <r>    2.5614    1.0000 </r>
       <r>    2.9918    1.0000 </r>
       <r>    3.1839    1.0000 </r>
       <r>    3.3863    1.0000 </r>
       <r>    3.8721    1.0000 </r>
       <r>    3.9252    1.0000 </r>
       <r>    4.1316    1.0000 </r>
       <r>    4.2278    1.0000 </r>
       <r>    4.6703    1.0000 </r>
       <r>    4.7381    1.0000 </r>
       <r>    4.9665    1.0000 </r>
       <r>    5.1653    1.0000 </r>
       <r>    5.4320    1.0000 </r>
       <r>    5.8157    1.0000 </r>
       <r>    6.2428    1.0000 </r>
       <r>    6.4413    1.0000 </r>
       <r>    6.8636    1.0000 </r>
       <r>   11.2817    0.0000 </r>
       <r>   12.0624    0.0000 </r>
       <r>   12.2535    0.0000 </r>
       <r>   12.7616    0.0000 </r>
       <r>   12.8881    0.0000 </r>
       <r>   13.2617    0.0000 </r>
       <r>   13.7248    0.0000 </r>
       <r>   13.9944    0.0000 </r>
       <r>   14.3840    0.0000 </r>
       <r>   14.7702    0.0000 </r>
       <r>   15.0957    0.0000 </r>
       <r>   15.4141    0.0000 </r>
      </set>
      <set comment="kpoint 26">
       <r>   -8.6346    1.0000 </r>
       <r>   -7.7394    1.0000 </r>
       <r>   -7.3186    1.0000 </r>
       <r>   -7.0887    1.0000 </r>
       <r>   -6.7042    1.0000 </r>
       <r>   -6.4258    1.0000 </r>
       <r>   -3.9513    1.0000 </r>
       <r>   -2.7504    1.0000 </r>
       <r>    0.2563    1.0000 </r>
       <r>    0.6761    1.0000 </r>
       <r>    1.2288    1.0000 </r>
       <r>    1.5058    1.0000 </r>
       <r>    1.7724    1.0000 </r>
       <r>    2.1258    1.0000 </r>
       <r>    2.4164    1.0000 </r>
       <r>    2.8114    1.0000 </r>
       <r>    3.1253    1.0000 </r>
       <r>    3.4500    1.0000 </r>
       <r>    3.6274    1.0000 </r>
       <r>    3.8891    1.0000 </r>
       <r>    4.0333    1.0000 </r>
       <r>    4.2611    1.0000 </r>
       <r>    4.3850    1.0000 </r>
       <r>    4.5747    1.0000 </r>
       <r>    4.7082    1.0000 </r>
       <r>    4.9382    1.0000 </r>
       <r>    5.1579    1.0000 </r>
       <r>    5.3972    1.0000 </r>
       <r>    5.8402    1.0000 </r>
       <r>    6.1603    1.0000 </r>
       <r>    6.6463    1.0000 </r>
       <r>    6.9787    1.0000 </r>
       <r>   11.1019    0.0000 </r>
       <r>   11.9161    0.0000 </r>
       <r>   12.2428    0.0000 </r>
       <r>   12.4709    0.0000 </r>
       <r>   12.6691    0.0000 </r>
       <r>   12.8847    0.0000 </r>
       <r>   13.7574    0.0000 </r>
       <r>   14.3716    0.0000 </r>
       <r>   14.6725    0.0000 </r>
       <r>   14.8675    0.0000 </r>
       <r>   15.2161    0.0000 </r>
       <r>   15.6217    0.0000 </r>
      </set>
      <set comment="kpoint 27">
       <r>   -8.7498    1.0000 </r>
       <r>   -7.8910    1.0000 </r>
       <r>   -7.2101    1.0000 </r>
       <r>   -6.9383    1.0000 </r>
       <r>   -6.5412    1.0000 </r>
       <r>   -6.4494    1.0000 </r>
       <r>   -3.9897    1.0000 </r>
       <r>   -2.4043    1.0000 </r>
       <r>    0.0277    1.0000 </r>
       <r>    0.6458    1.0000 </r>
       <r>    0.9542    1.0000 </r>
       <r>    1.3226    1.0000 </r>
       <r>    1.4120    1.0000 </r>
       <r>    2.1082    1.0000 </r>
       <r>    2.1634    1.0000 </r>
       <r>    2.7090    1.0000 </r>
       <r>    2.9117    1.0000 </r>
       <r>    3.0224    1.0000 </r>
       <r>    3.5428    1.0000 </r>
       <r>    3.6582    1.0000 </r>
       <r>    4.0399    1.0000 </r>
       <r>    4.2047    1.0000 </r>
       <r>    4.4227    1.0000 </r>
       <r>    4.7504    1.0000 </r>
       <r>    5.1407    1.0000 </r>
       <r>    5.4605    1.0000 </r>
       <r>    5.5474    1.0000 </r>
       <r>    5.5629    1.0000 </r>
       <r>    5.8698    1.0000 </r>
       <r>    6.4182    1.0000 </r>
       <r>    7.0207    1.0000 </r>
       <r>    7.5116    1.0000 </r>
       <r>   11.6218    0.0000 </r>
       <r>   12.2791    0.0000 </r>
       <r>   12.5534    0.0000 </r>
       <r>   12.6935    0.0000 </r>
       <r>   12.7801    0.0000 </r>
       <r>   12.8889    0.0000 </r>
       <r>   13.6551    0.0000 </r>
       <r>   14.0184    0.0000 </r>
       <r>   14.1898    0.0000 </r>
       <r>   14.4364    0.0000 </r>
       <r>   14.8033    0.0000 </r>
       <r>   14.8938    0.0000 </r>
      </set>
      <set comment="kpoint 28">
       <r>   -8.6568    1.0000 </r>
       <r>   -7.8629    1.0000 </r>
       <r>   -7.3233    1.0000 </r>
       <r>   -6.9880    1.0000 </r>
       <r>   -6.6225    1.0000 </r>
       <r>   -6.4117    1.0000 </r>
       <r>   -3.9584    1.0000 </r>
       <r>   -2.5120    1.0000 </r>
       <r>    0.0463    1.0000 </r>
       <r>    0.7809    1.0000 </r>
       <r>    1.1122    1.0000 </r>
       <r>    1.4099    1.0000 </r>
       <r>    1.7768    1.0000 </r>
       <r>    2.0044    1.0000 </r>
       <r>    2.1480    1.0000 </r>
       <r>    2.5882    1.0000 </r>
       <r>    3.0178    1.0000 </r>
       <r>    3.2444    1.0000 </r>
       <r>    3.4789    1.0000 </r>
       <r>    3.8517    1.0000 </r>
       <r>    3.9388    1.0000 </r>
       <r>    4.0397    1.0000 </r>
       <r>    4.4462    1.0000 </r>
       <r>    4.7088    1.0000 </r>
       <r>    5.0015    1.0000 </r>
       <r>    5.1687    1.0000 </r>
       <r>    5.3993    1.0000 </r>
       <r>    5.5151    1.0000 </r>
       <r>    6.0137    1.0000 </r>
       <r>    6.4358    1.0000 </r>
       <r>    6.8104    1.0000 </r>
       <r>    7.1727    1.0000 </r>
       <r>   11.6328    0.0000 </r>
       <r>   12.2374    0.0000 </r>
       <r>   12.4636    0.0000 </r>
       <r>   12.7498    0.0000 </r>
       <r>   12.9808    0.0000 </r>
       <r>   13.2634    0.0000 </r>
       <r>   13.3448    0.0000 </r>
       <r>   13.8031    0.0000 </r>
       <r>   14.3276    0.0000 </r>
       <r>   14.4293    0.0000 </r>
       <r>   14.7654    0.0000 </r>
       <r>   14.8840    0.0000 </r>
      </set>
      <set comment="kpoint 29">
       <r>   -8.4271    1.0000 </r>
       <r>   -8.1521    1.0000 </r>
       <r>   -7.1474    1.0000 </r>
       <r>   -7.0311    1.0000 </r>
       <r>   -6.7314    1.0000 </r>
       <r>   -6.4497    1.0000 </r>
       <r>   -3.9446    1.0000 </r>
       <r>   -2.6479    1.0000 </r>
       <r>    0.2812    1.0000 </r>
       <r>    0.7405    1.0000 </r>
       <r>    1.4752    1.0000 </r>
       <r>    1.5921    1.0000 </r>
       <r>    1.7452    1.0000 </r>
       <r>    1.8754    1.0000 </r>
       <r>    2.1890    1.0000 </r>
       <r>    2.8036    1.0000 </r>
       <r>    3.0037    1.0000 </r>
       <r>    3.4425    1.0000 </r>
       <r>    3.5137    1.0000 </r>
       <r>    3.8449    1.0000 </r>
       <r>    3.9023    1.0000 </r>
       <r>    4.0593    1.0000 </r>
       <r>    4.1803    1.0000 </r>
       <r>    4.5305    1.0000 </r>
       <r>    4.6296    1.0000 </r>
       <r>    5.2361    1.0000 </r>
       <r>    5.3323    1.0000 </r>
       <r>    5.6460    1.0000 </r>
       <r>    5.7867    1.0000 </r>
       <r>    6.2905    1.0000 </r>
       <r>    6.8425    1.0000 </r>
       <r>    7.0470    1.0000 </r>
       <r>   11.5205    0.0000 </r>
       <r>   12.1124    0.0000 </r>
       <r>   12.2301    0.0000 </r>
       <r>   12.3960    0.0000 </r>
       <r>   12.7631    0.0000 </r>
       <r>   13.4330    0.0000 </r>
       <r>   13.5280    0.0000 </r>
       <r>   13.8139    0.0000 </r>
       <r>   14.1291    0.0000 </r>
       <r>   14.8153    0.0000 </r>
       <r>   14.9507    0.0000 </r>
       <r>   15.1071    0.0000 </r>
      </set>
      <set comment="kpoint 30">
       <r>   -8.6788    1.0000 </r>
       <r>   -7.8016    1.0000 </r>
       <r>   -7.3349    1.0000 </r>
       <r>   -7.0235    1.0000 </r>
       <r>   -6.5949    1.0000 </r>
       <r>   -6.4120    1.0000 </r>
       <r>   -4.0555    1.0000 </r>
       <r>   -2.4573    1.0000 </r>
       <r>    0.1134    1.0000 </r>
       <r>    0.9333    1.0000 </r>
       <r>    1.0858    1.0000 </r>
       <r>    1.3911    1.0000 </r>
       <r>    1.6346    1.0000 </r>
       <r>    2.0104    1.0000 </r>
       <r>    2.2664    1.0000 </r>
       <r>    2.5504    1.0000 </r>
       <r>    2.9049    1.0000 </r>
       <r>    3.2325    1.0000 </r>
       <r>    3.4914    1.0000 </r>
       <r>    3.6475    1.0000 </r>
       <r>    3.9957    1.0000 </r>
       <r>    4.1796    1.0000 </r>
       <r>    4.5297    1.0000 </r>
       <r>    4.6059    1.0000 </r>
       <r>    5.0475    1.0000 </r>
       <r>    5.1452    1.0000 </r>
       <r>    5.3990    1.0000 </r>
       <r>    5.5706    1.0000 </r>
       <r>    6.1278    1.0000 </r>
       <r>    6.2129    1.0000 </r>
       <r>    6.6825    1.0000 </r>
       <r>    7.3421    1.0000 </r>
       <r>   11.7835    0.0000 </r>
       <r>   12.2327    0.0000 </r>
       <r>   12.4320    0.0000 </r>
       <r>   12.8370    0.0000 </r>
       <r>   12.9584    0.0000 </r>
       <r>   13.3036    0.0000 </r>
       <r>   13.5204    0.0000 </r>
       <r>   13.9220    0.0000 </r>
       <r>   14.2445    0.0000 </r>
       <r>   14.3548    0.0000 </r>
       <r>   14.6770    0.0000 </r>
       <r>   14.8859    0.0000 </r>
      </set>
      <set comment="kpoint 31">
       <r>   -8.5322    1.0000 </r>
       <r>   -7.9305    1.0000 </r>
       <r>   -7.2746    1.0000 </r>
       <r>   -7.1519    1.0000 </r>
       <r>   -6.5987    1.0000 </r>
       <r>   -6.4223    1.0000 </r>
       <r>   -4.0727    1.0000 </r>
       <r>   -2.5423    1.0000 </r>
       <r>    0.2220    1.0000 </r>
       <r>    1.0238    1.0000 </r>
       <r>    1.2283    1.0000 </r>
       <r>    1.4286    1.0000 </r>
       <r>    1.7591    1.0000 </r>
       <r>    2.2610    1.0000 </r>
       <r>    2.4631    1.0000 </r>
       <r>    2.6451    1.0000 </r>
       <r>    2.8573    1.0000 </r>
       <r>    2.9872    1.0000 </r>
       <r>    3.4355    1.0000 </r>
       <r>    3.7745    1.0000 </r>
       <r>    3.9195    1.0000 </r>
       <r>    4.1336    1.0000 </r>
       <r>    4.4618    1.0000 </r>
       <r>    4.6725    1.0000 </r>
       <r>    4.8121    1.0000 </r>
       <r>    5.1037    1.0000 </r>
       <r>    5.2276    1.0000 </r>
       <r>    5.5331    1.0000 </r>
       <r>    5.9128    1.0000 </r>
       <r>    6.1585    1.0000 </r>
       <r>    6.8377    1.0000 </r>
[...]
       <r>   -6.5060    1.0000 </r>
       <r>   -4.0318    1.0000 </r>
       <r>   -2.7118    1.0000 </r>
       <r>    0.6275    1.0000 </r>
       <r>    0.9733    1.0000 </r>
       <r>    1.2826    1.0000 </r>
       <r>    1.7016    1.0000 </r>
       <r>    1.9930    1.0000 </r>
       <r>    2.1109    1.0000 </r>
       <r>    2.3013    1.0000 </r>
       <r>    2.7257    1.0000 </r>
       <r>    3.0042    1.0000 </r>
       <r>    3.2758    1.0000 </r>
       <r>    3.4305    1.0000 </r>
       <r>    3.7148    1.0000 </r>
       <r>    3.9585    1.0000 </r>
       <r>    4.0537    1.0000 </r>
       <r>    4.3961    1.0000 </r>
       <r>    4.4988    1.0000 </r>
       <r>    4.7301    1.0000 </r>
       <r>    4.9008    1.0000 </r>
       <r>    5.0965    1.0000 </r>
       <r>    5.4605    1.0000 </r>
       <r>    5.8697    1.0000 </r>
       <r>    6.0939    1.0000 </r>
       <r>    6.4687    1.0000 </r>
       <r>    7.0128    1.0000 </r>
       <r>   11.3227    0.0000 </r>
       <r>   11.9517    0.0000 </r>
       <r>   12.3885    0.0000 </r>
       <r>   12.8271    0.0000 </r>
       <r>   12.9895    0.0000 </r>
       <r>   13.4477    0.0000 </r>
       <r>   13.6627    0.0000 </r>
       <r>   14.0991    0.0000 </r>
       <r>   14.2943    0.0000 </r>
       <r>   14.5776    0.0000 </r>
       <r>   14.9431    0.0000 </r>
       <r>   15.2986    0.0000 </r>
      </set>
      <set comment="kpoint 36">
       <r>   -8.3710    1.0000 </r>
       <r>   -7.6463    1.0000 </r>
       <r>   -7.5208    1.0000 </r>
       <r>   -7.2835    1.0000 </r>
       <r>   -6.7022    1.0000 </r>
       <r>   -6.6090    1.0000 </r>
       <r>   -3.8541    1.0000 </r>
       <r>   -2.9365    1.0000 </r>
       <r>    0.7796    1.0000 </r>
       <r>    1.2624    1.0000 </r>
       <r>    1.4839    1.0000 </r>
       <r>    1.7323    1.0000 </r>
       <r>    2.2493    1.0000 </r>
       <r>    2.3102    1.0000 </r>
       <r>    2.4750    1.0000 </r>
       <r>    2.5562    1.0000 </r>
       <r>    2.6606    1.0000 </r>
       <r>    3.0861    1.0000 </r>
       <r>    3.1546    1.0000 </r>
       <r>    3.5476    1.0000 </r>
       <r>    4.0566    1.0000 </r>
       <r>    4.3517    1.0000 </r>
       <r>    4.4743    1.0000 </r>
       <r>    4.5270    1.0000 </r>
       <r>    4.6425    1.0000 </r>
       <r>    4.9406    1.0000 </r>
       <r>    5.2309    1.0000 </r>
       <r>    5.2535    1.0000 </r>
       <r>    5.5546    1.0000 </r>
       <r>    6.1198    1.0000 </r>
       <r>    6.2305    1.0000 </r>
       <r>    6.9096    1.0000 </r>
       <r>   11.4779    0.0000 </r>
       <r>   11.6168    0.0000 </r>
       <r>   12.1278    0.0000 </r>
       <r>   12.4785    0.0000 </r>
       <r>   12.6977    0.0000 </r>
       <r>   13.2258    0.0000 </r>
       <r>   13.9104    0.0000 </r>
       <r>   14.2609    0.0000 </r>
       <r>   14.6539    0.0000 </r>
       <r>   14.8981    0.0000 </r>
       <r>   15.0793    0.0000 </r>
       <r>   15.5287    0.0000 </r>
      </set>
     </set>
    </set>
   </array>
  </eigenvalues>
  <separator name="orbital magnetization" >
   <v name="MAGDIPOLOUT">      0.00000000      0.00000000      0.00000000</v>
  </separator>
  <dos>
   <i name="efermi">      7.93102168 </i>
   <total>
    <array>
     <dimension dim="1">gridpoints</dimension>
     <dimension dim="2">spin</dimension>
     <field>energy</field>
     <field>total</field>
     <field>integrated</field>
     <set>
      <set comment="spin 1">
       <r>   -10.3409     0.0000     0.0000 </r>
       <r>   -10.2500     0.0000     0.0000 </r>
       <r>   -10.1591     0.0000     0.0000 </r>
       <r>   -10.0682     0.0000     0.0000 </r>
       <r>    -9.9773     0.0000     0.0000 </r>
       <r>    -9.8864     0.0000     0.0000 </r>
       <r>    -9.7955     0.0000     0.0000 </r>
       <r>    -9.7047     0.0000     0.0000 </r>
       <r>    -9.6138     0.0000     0.0000 </r>
       <r>    -9.5229     0.0000     0.0000 </r>
       <r>    -9.4320     0.0000     0.0000 </r>
       <r>    -9.3411     0.0001     0.0000 </r>
       <r>    -9.2502     0.0060     0.0006 </r>
       <r>    -9.1593     0.0670     0.0066 </r>
       <r>    -9.0684     0.2322     0.0278 </r>
       <r>    -8.9775     0.7562     0.0965 </r>
       <r>    -8.8866     1.9076     0.2699 </r>
       <r>    -8.7957     2.0606     0.4572 </r>
       <r>    -8.7049     2.2321     0.6600 </r>
       <r>    -8.6140     3.8542     1.0104 </r>
       <r>    -8.5231     4.7464     1.4418 </r>
       <r>    -8.4322     3.8186     1.7888 </r>
       <r>    -8.3413     1.8816     1.9599 </r>
       <r>    -8.2504     0.4382     1.9997 </r>
       <r>    -8.1595     0.1665     2.0148 </r>
       <r>    -8.0686     0.3141     2.0434 </r>
       <r>    -7.9777     1.2785     2.1596 </r>
       <r>    -7.8868     3.1533     2.4462 </r>
       <r>    -7.7959     4.5131     2.8564 </r>
       <r>    -7.7051     4.5376     3.2688 </r>
       <r>    -7.6142     3.2355     3.5629 </r>
       <r>    -7.5233     3.6856     3.8979 </r>
       <r>    -7.4324     5.6131     4.4081 </r>
       <r>    -7.3415     6.4137     4.9910 </r>
       <r>    -7.2506     7.4759     5.6705 </r>
       <r>    -7.1597     8.4991     6.4430 </r>
       <r>    -7.0688     7.7624     7.1485 </r>
       <r>    -6.9779     5.6253     7.6598 </r>
       <r>    -6.8870     3.3036     7.9601 </r>
       <r>    -6.7961     2.4244     8.1804 </r>
       <r>    -6.7053     6.0510     8.7304 </r>
       <r>    -6.6144     8.7198     9.5230 </r>
       <r>    -6.5235     6.0805    10.0756 </r>
       <r>    -6.4326     4.9966    10.5298 </r>
       <r>    -6.3417     6.9093    11.1578 </r>
       <r>    -6.2508     6.4839    11.7471 </r>
       <r>    -6.1599     2.4969    11.9740 </r>
       <r>    -6.0690     0.2779    11.9993 </r>
       <r>    -5.9781     0.0076    12.0000 </r>
       <r>    -5.8872     0.0000    12.0000 </r>
       <r>    -5.7963     0.0000    12.0000 </r>
       <r>    -5.7055     0.0000    12.0000 </r>
       <r>    -5.6146     0.0000    12.0000 </r>
       <r>    -5.5237     0.0000    12.0000 </r>
       <r>    -5.4328     0.0000    12.0000 </r>
       <r>    -5.3419     0.0000    12.0000 </r>
       <r>    -5.2510     0.0000    12.0000 </r>
       <r>    -5.1601     0.0000    12.0000 </r>
       <r>    -5.0692     0.0000    12.0000 </r>
       <r>    -4.9783     0.0000    12.0000 </r>
       <r>    -4.8874     0.0000    12.0000 </r>
       <r>    -4.7965     0.0000    12.0000 </r>
       <r>    -4.7057     0.0000    12.0000 </r>
       <r>    -4.6148     0.0000    12.0000 </r>
       <r>    -4.5239     0.0000    12.0000 </r>
       <r>    -4.4330     0.0001    12.0000 </r>
       <r>    -4.3421     0.0042    12.0004 </r>
       <r>    -4.2512     0.0677    12.0065 </r>
       <r>    -4.1603     0.4311    12.0457 </r>
       <r>    -4.0694     1.5834    12.1896 </r>
       <r>    -3.9785     3.4919    12.5070 </r>
       <r>    -3.8876     4.8436    12.9473 </r>
       <r>    -3.7967     4.7641    13.3803 </r>
       <r>    -3.7059     3.2761    13.6780 </r>
       <r>    -3.6150     1.9796    13.8580 </r>
       <r>    -3.5241     1.2188    13.9687 </r>
       <r>    -3.4332     0.3185    13.9977 </r>
       <r>    -3.3423     0.0249    14.0000 </r>
       <r>    -3.2514     0.0005    14.0000 </r>
       <r>    -3.1605     0.0009    14.0001 </r>
       <r>    -3.0696     0.0374    14.0035 </r>
       <r>    -2.9787     0.3846    14.0384 </r>
       <r>    -2.8878     1.2723    14.1541 </r>
       <r>    -2.7969     2.4468    14.3765 </r>
       <r>    -2.7061     3.8737    14.7286 </r>
       <r>    -2.6152     4.5413    15.1413 </r>
       <r>    -2.5243     4.4852    15.5490 </r>
       <r>    -2.4334     3.3452    15.8530 </r>
       <r>    -2.3425     1.3559    15.9763 </r>
       <r>    -2.2516     0.2457    15.9986 </r>
       <r>    -2.1607     0.0151    16.0000 </r>
       <r>    -2.0698     0.0002    16.0000 </r>
       <r>    -1.9789     0.0000    16.0000 </r>
       <r>    -1.8880     0.0000    16.0000 </r>
       <r>    -1.7971     0.0000    16.0000 </r>
       <r>    -1.7063     0.0000    16.0000 </r>
       <r>    -1.6154     0.0000    16.0000 </r>
       <r>    -1.5245     0.0000    16.0000 </r>
       <r>    -1.4336     0.0000    16.0000 </r>
       <r>    -1.3427     0.0000    16.0000 </r>
       <r>    -1.2518     0.0000    16.0000 </r>
       <r>    -1.1609     0.0000    16.0000 </r>
       <r>    -1.0700     0.0000    16.0000 </r>
       <r>    -0.9791     0.0000    16.0000 </r>
       <r>    -0.8882     0.0000    16.0000 </r>
       <r>    -0.7973     0.0027    16.0002 </r>
       <r>    -0.7065     0.0473    16.0045 </r>
       <r>    -0.6156     0.2553    16.0278 </r>
       <r>    -0.5247     0.5570    16.0784 </r>
       <r>    -0.4338     0.6381    16.1364 </r>
       <r>    -0.3429     1.3181    16.2562 </r>
       <r>    -0.2520     2.3754    16.4721 </r>
       <r>    -0.1611     2.1598    16.6684 </r>
       <r>    -0.0702     2.1121    16.8603 </r>
       <r>     0.0207     3.2688    17.1575 </r>
       <r>     0.1116     3.2421    17.4521 </r>
       <r>     0.2025     3.0735    17.7315 </r>
       <r>     0.2933     3.8261    18.0792 </r>
       <r>     0.3842     2.8770    18.3407 </r>
       <r>     0.4751     1.9605    18.5189 </r>
       <r>     0.5660     2.5182    18.7478 </r>
       <r>     0.6569     3.4564    19.0619 </r>
       <r>     0.7478     4.0780    19.4326 </r>
       <r>     0.8387     4.1851    19.8130 </r>
       <r>     0.9296     4.1179    20.1873 </r>
       <r>     1.0205     4.9644    20.6385 </r>
       <r>     1.1114     5.5471    21.1427 </r>
       <r>     1.2023     5.2893    21.6234 </r>
       <r>     1.2931     6.0159    22.1702 </r>
       <r>     1.3840     6.8979    22.7972 </r>
       <r>     1.4749     7.4003    23.4698 </r>
       <r>     1.5658     5.9372    24.0094 </r>
       <r>     1.6567     5.0232    24.4660 </r>
       <r>     1.7476     6.4312    25.0505 </r>
       <r>     1.8385     6.9607    25.6832 </r>
       <r>     1.9294     6.2492    26.2512 </r>
       <r>     2.0203     6.5940    26.8505 </r>
       <r>     2.1112     7.5222    27.5342 </r>
       <r>     2.2021     8.3830    28.2962 </r>
       <r>     2.2929     7.6633    28.9927 </r>
       <r>     2.3838     5.4225    29.4855 </r>
       <r>     2.4747     4.4969    29.8943 </r>
       <r>     2.5656     5.0317    30.3516 </r>
       <r>     2.6565     5.2266    30.8266 </r>
       <r>     2.7474     5.0663    31.2871 </r>
       <r>     2.8383     5.0464    31.7458 </r>
       <r>     2.9292     5.8224    32.2750 </r>
       <r>     3.0201     8.4259    33.0408 </r>
       <r>     3.1110     8.1878    33.7850 </r>
       <r>     3.2019     7.6361    34.4791 </r>
       <r>     3.2927     7.2806    35.1408 </r>
       <r>     3.3836     5.5903    35.6489 </r>
       <r>     3.4745     5.6706    36.1643 </r>
       <r>     3.5654     7.2489    36.8232 </r>
       <r>     3.6563     7.9329    37.5442 </r>
       <r>     3.7472     7.3052    38.2082 </r>
       <r>     3.8381     7.0472    38.8487 </r>
       <r>     3.9290     8.5448    39.6254 </r>
       <r>     4.0199     9.2004    40.4616 </r>
       <r>     4.1108     6.8589    41.0850 </r>
       <r>     4.2017     7.4265    41.7600 </r>
       <r>     4.2925     9.3673    42.6114 </r>
       <r>     4.3834     8.9172    43.4219 </r>
       <r>     4.4743     8.7383    44.2161 </r>
       <r>     4.5652     8.5096    44.9896 </r>
       <r>     4.6561     9.2705    45.8322 </r>
       <r>     4.7470    10.1651    46.7561 </r>
       <r>     4.8379     9.2249    47.5946 </r>
       <r>     4.9288     8.8666    48.4004 </r>
       <r>     5.0197     8.7762    49.1981 </r>
       <r>     5.1106    10.3835    50.1419 </r>
       <r>     5.2015    11.9606    51.2290 </r>
       <r>     5.2923    10.9784    52.2268 </r>
       <r>     5.3832    10.2308    53.1567 </r>
       <r>     5.4741     9.9896    54.0647 </r>
       <r>     5.5650     9.2018    54.9010 </r>
       <r>     5.6559     6.7207    55.5119 </r>
       <r>     5.7468     5.4798    56.0100 </r>
       <r>     5.8377     5.6858    56.5267 </r>
       <r>     5.9286     5.1221    56.9923 </r>
       <r>     6.0195     4.8389    57.4321 </r>
       <r>     6.1104     5.4735    57.9296 </r>
       <r>     6.2013     5.6081    58.4393 </r>
       <r>     6.2921     5.6385    58.9518 </r>
       <r>     6.3830     4.8718    59.3946 </r>
       <r>     6.4739     4.1640    59.7731 </r>
       <r>     6.5648     3.3485    60.0774 </r>
       <r>     6.6557     3.7541    60.4186 </r>
       <r>     6.7466     4.5674    60.8338 </r>
       <r>     6.8375     5.0557    61.2933 </r>
       <r>     6.9284     5.0912    61.7560 </r>
       <r>     7.0193     4.4626    62.1616 </r>
       <r>     7.1102     4.5280    62.5732 </r>
       <r>     7.2011     5.4138    63.0653 </r>
       <r>     7.2919     5.2109    63.5389 </r>
       <r>     7.3828     2.9305    63.8052 </r>
       <r>     7.4737     1.2579    63.9196 </r>
       <r>     7.5646     0.6832    63.9817 </r>
       <r>     7.6555     0.1875    63.9987 </r>
       <r>     7.7464     0.0139    64.0000 </r>
       <r>     7.8373     0.0002    64.0000 </r>
       <r>     7.9282     0.0000    64.0000 </r>
       <r>     8.0191     0.0000    64.0000 </r>
       <r>     8.1100     0.0000    64.0000 </r>
       <r>     8.2009     0.0000    64.0000 </r>
       <r>     8.2917     0.0000    64.0000 </r>
       <r>     8.3826     0.0000    64.0000 </r>
       <r>     8.4735     0.0000    64.0000 </r>
       <r>     8.5644     0.0000    64.0000 </r>
       <r>     8.6553     0.0000    64.0000 </r>
       <r>     8.7462     0.0000    64.0000 </r>
       <r>     8.8371     0.0000    64.0000 </r>
       <r>     8.9280     0.0000    64.0000 </r>
       <r>     9.0189     0.0000    64.0000 </r>
       <r>     9.1098     0.0000    64.0000 </r>
       <r>     9.2007     0.0000    64.0000 </r>
       <r>     9.2915     0.0000    64.0000 </r>
       <r>     9.3824     0.0000    64.0000 </r>
       <r>     9.4733     0.0000    64.0000 </r>
       <r>     9.5642     0.0000    64.0000 </r>
       <r>     9.6551     0.0000    64.0000 </r>
       <r>     9.7460     0.0000    64.0000 </r>
       <r>     9.8369     0.0000    64.0000 </r>
       <r>     9.9278     0.0000    64.0000 </r>
       <r>    10.0187     0.0000    64.0000 </r>
       <r>    10.1096     0.0005    64.0000 </r>
       <r>    10.2005     0.0148    64.0014 </r>
       <r>    10.2913     0.1019    64.0107 </r>
       <r>    10.3822     0.1887    64.0278 </r>
       <r>    10.4731     0.2580    64.0513 </r>
       <r>    10.5640     0.3680    64.0847 </r>
       <r>    10.6549     0.3808    64.1193 </r>
       <r>    10.7458     0.6825    64.1813 </r>
       <r>    10.8367     1.2487    64.2948 </r>
       <r>    10.9276     2.0535    64.4815 </r>
       <r>    11.0185     2.4054    64.7001 </r>
       <r>    11.1094     2.5806    64.9347 </r>
       <r>    11.2003     2.2135    65.1358 </r>
       <r>    11.2911     2.8661    65.3963 </r>
       <r>    11.3820     3.8057    65.7423 </r>
       <r>    11.4729     4.2831    66.1315 </r>
       <r>    11.5638     5.4542    66.6273 </r>
       <r>    11.6547     6.1337    67.1848 </r>
       <r>    11.7456     5.3484    67.6709 </r>
       <r>    11.8365     3.6423    68.0020 </r>
       <r>    11.9274     3.3863    68.3097 </r>
       <r>    12.0183     4.9791    68.7623 </r>
       <r>    12.1092     5.8655    69.2954 </r>
       <r>    12.2001     7.2725    69.9564 </r>
       <r>    12.2909     7.8903    70.6736 </r>
       <r>    12.3818     7.0801    71.3171 </r>
       <r>    12.4727     7.2304    71.9743 </r>
       <r>    12.5636     5.8526    72.5062 </r>
       <r>    12.6545     4.1815    72.8863 </r>
       <r>    12.7454     5.8325    73.4164 </r>
       <r>    12.8363     7.2829    74.0784 </r>
       <r>    12.9272     6.6476    74.6826 </r>
       <r>    13.0181     6.6639    75.2882 </r>
       <r>    13.1090     5.3840    75.7776 </r>
       <r>    13.1999     4.3024    76.1687 </r>
       <r>    13.2907     4.4592    76.5740 </r>
       <r>    13.3816     3.5864    76.8999 </r>
       <r>    13.4725     2.9670    77.1696 </r>
       <r>    13.5634     3.9909    77.5323 </r>
       <r>    13.6543     5.5604    78.0377 </r>
       <r>    13.7452     5.7683    78.5620 </r>
       <r>    13.8361     4.2966    78.9525 </r>
       <r>    13.9270     3.4614    79.2671 </r>
       <r>    14.0179     3.5425    79.5891 </r>
       <r>    14.1088     3.2256    79.8823 </r>
       <r>    14.1997     3.9277    80.2393 </r>
       <r>    14.2905     5.9216    80.7775 </r>
       <r>    14.3814     7.1044    81.4232 </r>
       <r>    14.4723     6.9041    82.0507 </r>
       <r>    14.5632     6.1662    82.6112 </r>
       <r>    14.6541     6.0044    83.1569 </r>
       <r>    14.7450     6.5429    83.7516 </r>
       <r>    14.8359     7.2683    84.4123 </r>
       <r>    14.9268     7.4351    85.0880 </r>
       <r>    15.0177     6.2296    85.6542 </r>
       <r>    15.1086     5.7195    86.1741 </r>
       <r>    15.1995     5.0448    86.6326 </r>
       <r>    15.2903     4.6973    87.0596 </r>
       <r>    15.3812     3.7480    87.4002 </r>
       <r>    15.4721     2.6097    87.6374 </r>
       <r>    15.5630     1.6351    87.7860 </r>
       <r>    15.6539     1.3310    87.9070 </r>
       <r>    15.7448     0.8137    87.9810 </r>
       <r>    15.8357     0.1949    87.9987 </r>
       <r>    15.9266     0.0140    88.0000 </r>
       <r>    16.0175     0.0003    88.0000 </r>
       <r>    16.1084     0.0000    88.0000 </r>
       <r>    16.1993     0.0000    88.0000 </r>
       <r>    16.2901     0.0000    88.0000 </r>
       <r>    16.3810     0.0000    88.0000 </r>
       <r>    16.4719     0.0000    88.0000 </r>
       <r>    16.5628     0.0000    88.0000 </r>
       <r>    16.6537     0.0000    88.0000 </r>
       <r>    16.7446     0.0000    88.0000 </r>
       <r>    16.8355     0.0000    88.0000 </r>
       <r>    16.9264     0.0000    88.0000 </r>
      </set>
     </set>
    </array>
   </total>
  </dos>
 </calculation>
 <structure name="finalpos" >
  <crystal>
   <varray name="basis" >
    <v>       5.95055585      -0.01825866       0.01564348 </v>
    <v>      -2.62469592       5.30841996       0.00300061 </v>
    <v>      -1.64866056      -2.63496635       5.39726196 </v>
   </varray>
   <i name="volume">    170.52255937 </i>
   <varray name="rec_basis" >
    <v>       0.16806480       0.08304605       0.09188091 </v>
    <v>       0.00033618       0.18849412       0.09212633 </v>
    <v>      -0.00048731      -0.00034549       0.18496160 </v>
   </varray>
  </crystal>
  <varray name="positions" >
   <v>       0.08794122       0.58240151       0.16364879 </v>
   <v>       0.09312299       0.58398406       0.67478568 </v>
   <v>       0.16038801       0.16513374       0.33374850 </v>
   <v>       0.15458073       0.16938267       0.82782400 </v>
   <v>       0.66739414       0.67663810       0.33597409 </v>
   <v>       0.66634428       0.66912144       0.83347131 </v>
   <v>       0.58075984       0.07823760       0.16311605 </v>
   <v>       0.58009227       0.08060185       0.66745009 </v>
   <v>       0.87456804       0.48580904       0.84274094 </v>
   <v>       0.26950591       0.40320830       0.66444258 </v>
   <v>       0.34339808       0.95659719       0.32479944 </v>
   <v>       0.34030441       0.96534575       0.82834567 </v>
   <v>       0.87281005       0.49004119       0.33759103 </v>
   <v>       0.77161339       0.89877373       0.16721827 </v>
   <v>       0.76864244       0.89267934       0.66467316 </v>
   <v>       0.26853421       0.40204448       0.17017041 </v>
  </varray>
 </structure>
</modeling>
