<?xml version="1.0" encoding="ISO-8859-1"?>
<modeling>
 <generator>
  <i name="program" type="string">vasp </i>
  <i name="version" type="string">5.3.5  </i>
  <i name="subversion" type="string">31Mar14 (build Jun 20 2014 13:15:13) complex                          parallel </i>
  <i name="platform" type="string">LinuxIFC </i>
  <i name="date" type="string">2025 12 16 </i>
  <i name="time" type="string">17:06:00 </i>
 </generator>
 <incar>
  <i type="string" name="PREC">accurate</i>
  <i type="int" name="IALGO">    68</i>
  <i type="logical" name="ADDGRID"> T  </i>
  <i type="int" name="NELM">   100</i>
  <i type="int" name="NELMIN">     4</i>
  <i type="int" name="IBRION">     2</i>
  <i name="EDIFF">      0.00000100</i>
  <i name="EDIFFG">     -0.02000000</i>
  <i type="int" name="NSW">    30</i>
  <i type="int" name="ISIF">     3</i>
  <i name="ENCUT">    600.00000000</i>
  <i type="logical" name="LREAL"> F  </i>
  <i type="int" name="ISMEAR">     0</i>
  <i name="SIGMA">      0.10000000</i>
  <i type="logical" name="LWAVE"> F  </i>
  <i type="logical" name="LCHARG"> F  </i>
  <i type="int" name="NELM">   100</i>
 </incar>
 <kpoints>
  <generation param="Auto">
   <i name="subdivisionlength">     20.00000000 </i>
   <v type="int" name="divisions">       2        3        4 </v>
   <v name="usershift">      0.00000000       0.00000000       0.00000000 </v>
   <v name="genvec1">      0.50000000       0.00000000       0.00000000 </v>
   <v name="genvec2">      0.00000000       0.33333333       0.00000000 </v>
   <v name="genvec3">      0.00000000       0.00000000       0.25000000 </v>
   <v name="shift">      0.00000000       0.00000000       0.00000000 </v>
  </generation>
  <varray name="kpointlist" >
   <v>       0.00000000       0.00000000       0.00000000 </v>
   <v>       0.50000000       0.00000000       0.00000000 </v>
   <v>       0.00000000       0.33333333       0.00000000 </v>
   <v>       0.50000000       0.33333333       0.00000000 </v>
   <v>       0.00000000       0.00000000       0.25000000 </v>
   <v>       0.50000000       0.00000000       0.25000000 </v>
   <v>       0.00000000       0.33333333       0.25000000 </v>
   <v>       0.50000000       0.33333333       0.25000000 </v>
   <v>       0.00000000       0.00000000       0.50000000 </v>
   <v>       0.50000000       0.00000000       0.50000000 </v>
   <v>       0.00000000       0.33333333       0.50000000 </v>
   <v>       0.50000000       0.33333333       0.50000000 </v>
  </varray>
  <varray name="weights" >
   <v>       0.04166667 </v>
   <v>       0.04166667 </v>
   <v>       0.08333333 </v>
   <v>       0.08333333 </v>
   <v>       0.08333333 </v>
   <v>       0.08333333 </v>
   <v>       0.16666667 </v>
   <v>       0.16666667 </v>
   <v>       0.04166667 </v>
   <v>       0.04166667 </v>
   <v>       0.08333333 </v>
   <v>       0.08333333 </v>
  </varray>
 </kpoints>
 <parameters>
  <separator name="general" >
   <i type="string" name="SYSTEM">unknown system</i>
   <i type="logical" name="LCOMPAT"> F  </i>
  </separator>
  <separator name="electronic" >
   <i type="string" name="PREC">accura</i>
   <i name="ENMAX">    600.00000000</i>
   <i name="ENAUG">    644.87300000</i>
   <i name="EDIFF">      0.00000100</i>
   <i type="int" name="IALGO">    68</i>
   <i type="int" name="IWAVPR">    11</i>
   <i type="int" name="NBANDS">    84</i>
   <i name="NELECT">    128.00000000</i>
   <i type="int" name="TURBO">     0</i>
   <i type="int" name="IRESTART">     0</i>
   <i type="int" name="NREBOOT">     0</i>
   <i type="int" name="NMIN">     0</i>
   <i name="EREF">      0.00000000</i>
   <separator name="electronic smearing" >
    <i type="int" name="ISMEAR">     0</i>
    <i name="SIGMA">      0.10000000</i>
    <i name="KSPACING">      0.50000000</i>
    <i type="logical" name="KGAMMA"> T  </i>
   </separator>
   <separator name="electronic projectors" >
    <i type="logical" name="LREAL"> F  </i>
    <v name="ROPT">      0.00000000      0.00000000      0.00000000      0.00000000</v>
    <i type="int" name="LMAXPAW">  -100</i>
    <i type="int" name="LMAXMIX">     2</i>
    <i type="logical" name="NLSPLINE"> F  </i>
   </separator>
   <separator name="electronic startup" >
    <i type="int" name="ISTART">     0</i>
    <i type="int" name="ICHARG">     2</i>
    <i type="int" name="INIWAV">     1</i>
   </separator>
   <separator name="electronic spin" >
    <i type="int" name="ISPIN">     1</i>
    <i type="logical" name="LNONCOLLINEAR"> F  </i>
    <v name="MAGMOM">      1.00000000      1.00000000      1.00000000      1.00000000      1.00000000      1.00000000      1.00000000      1.00000000      1.00000000      1.00000000      1.00000000      1.00000000      1.00000000      1.00000000      1.00000000      1.00000000      1.00000000      1.00000000      1.00000000      1.00000000
      1.00000000      1.00000000      1.00000000      1.00000000      1.00000000      1.00000000      1.00000000      1.00000000      1.00000000      1.00000000      1.00000000      1.00000000</v>
    <i name="NUPDOWN">     -1.00000000</i>
    <i type="logical" name="LSORBIT"> F  </i>
    <v name="SAXIS">      0.00000000      0.00000000      1.00000000</v>
    <i type="logical" name="LSPIRAL"> F  </i>
    <v name="QSPIRAL">      0.00000000      0.00000000      0.00000000</v>
    <i type="logical" name="LZEROZ"> F  </i>
   </separator>
   <separator name="electronic exchange-correlation" >
    <i type="logical" name="LASPH"> F  </i>
    <i type="logical" name="LMETAGGA"> F  </i>
   </separator>
   <separator name="electronic convergence" >
    <i type="int" name="NELM">   100</i>
    <i type="int" name="NELMDL">     0</i>
    <i type="int" name="NELMIN">     4</i>
    <i name="ENINI">    600.00000000</i>
    <separator name="electronic convergence detail" >
     <i type="logical" name="LDIAG"> T  </i>
     <i type="logical" name="LSUBROT"> F  </i>
     <i name="WEIMIN">      0.00100000</i>
     <i name="EBREAK">      0.00000000</i>
     <i name="DEPER">      0.30000000</i>
     <i type="int" name="NRMM">     4</i>
     <i name="TIME">      0.40000000</i>
    </separator>
   </separator>
   <separator name="electronic mixer" >
    <i name="AMIX">      0.40000000</i>
    <i name="BMIX">      1.00000000</i>
    <i name="AMIN">      0.10000000</i>
    <i name="AMIX_MAG">      1.60000000</i>
    <i name="BMIX_MAG">      1.00000000</i>
    <separator name="electronic mixer details" >
     <i type="int" name="IMIX">     4</i>
     <i type="int" name="MAXMIX">   -45</i>
     <i name="WC">    100.00000000</i>
     <i type="int" name="INIMIX">     1</i>
     <i type="int" name="MIXPRE">     1</i>
     <i type="int" name="MREMOVE">     5</i>
    </separator>
   </separator>
   <separator name="electronic dipolcorrection" >
    <i type="logical" name="LDIPOL"> F  </i>
    <i type="logical" name="LMONO"> F  </i>
    <i type="int" name="IDIPOL">     0</i>
    <i name="EPSILON">      1.00000000</i>
    <v name="DIPOL">   -100.00000000   -100.00000000   -100.00000000</v>
    <i name="EFIELD">      0.00000000</i>
   </separator>
  </separator>
  <separator name="grids" >
   <i type="int" name="NGX">    90</i>
   <i type="int" name="NGY">    50</i>
   <i type="int" name="NGZ">    40</i>
   <i type="int" name="NGXF">   180</i>
   <i type="int" name="NGYF">   100</i>
   <i type="int" name="NGZF">    80</i>
   <i type="logical" name="ADDGRID"> T  </i>
  </separator>
  <separator name="ionic" >
   <i type="int" name="NSW">    30</i>
   <i type="int" name="IBRION">     2</i>
   <i type="int" name="ISIF">     3</i>
   <i name="PSTRESS">      0.00000000</i>
   <i name="EDIFFG">     -0.02000000</i>
   <i type="int" name="NFREE">     1</i>
   <i name="POTIM">      0.50000000</i>
   <i name="SMASS">     -3.00000000</i>
   <i name="SCALEE">      1.00000000</i>
  </separator>
  <separator name="ionic md" >
   <i name="TEBEG">      0.00010000</i>
   <i name="TEEND">      0.00010000</i>
   <i type="int" name="NBLOCK">     1</i>
   <i type="int" name="KBLOCK">    30</i>
   <i type="int" name="NPACO">   256</i>
   <i name="APACO">     16.00000000</i>
  </separator>
  <separator name="symmetry" >
   <i type="int" name="ISYM">     2</i>
   <i name="SYMPREC">      0.00001000</i>
  </separator>
  <separator name="dos" >
   <i type="logical" name="LORBIT"> F  </i>
   <v name="RWIGS">     -1.00000000     -1.00000000     -1.00000000     -1.00000000</v>
   <i type="int" name="NEDOS">   301</i>
   <i name="EMIN">     10.00000000</i>
   <i name="EMAX">    -10.00000000</i>
   <i name="EFERMI">      0.00000000</i>
  </separator>
  <separator name="writing" >
   <i type="int" name="NWRITE">     2</i>
   <i type="logical" name="LWAVE"> F  </i>
   <i type="logical" name="LCHARG"> F  </i>
   <i type="logical" name="LPARD"> F  </i>
   <i type="logical" name="LVTOT"> F  </i>
   <i type="logical" name="LVHAR"> F  </i>
   <i type="logical" name="LELF"> F  </i>
   <i type="logical" name="LOPTICS"> F  </i>
   <v name="STM">      0.00000000      0.00000000      0.00000000      0.00000000      0.00000000      0.00000000      0.00000000</v>
  </separator>
  <separator name="performance" >
   <i type="int" name="NPAR">     4</i>
   <i type="int" name="NSIM">     4</i>
   <i type="int" name="NBLK">    -1</i>
   <i type="logical" name="LPLANE"> T  </i>
   <i type="logical" name="LSCALAPACK"> T  </i>
   <i type="logical" name="LSCAAWARE"> F  </i>
   <i type="logical" name="LSCALU"> F  </i>
   <i type="logical" name="LASYNC"> F  </i>
   <i type="logical" name="LORBITALREAL"> F  </i>
  </separator>
  <separator name="miscellaneous" >
   <i type="int" name="IDIOT">     3</i>
   <i type="logical" name="LMUSIC"> F  </i>
   <v name="POMASS">     28.08500000     26.98100000     12.01100000     14.00100000</v>
   <v name="DARWINR">      0.00000000      0.00000000      0.00000000      0.00000000</v>
   <v name="DARWINV">      1.00000000      1.00000000      1.00000000      1.00000000</v>
   <i type="logical" name="LCORR"> T  </i>
  </separator>
  <i type="logical" name="GGA_COMPAT"> T  </i>
  <i type="logical" name="LBERRY"> F  </i>
  <i type="int" name="ICORELEVEL">     0</i>
  <i type="logical" name="LDAU"> F  </i>
  <i type="int" name="I_CONSTRAINED_M">     0</i>
  <separator name="electronic exchange-correlation" >
   <i type="string" name="GGA">--</i>
   <i type="int" name="VOSKOWN">     0</i>
   <i type="logical" name="LHFCALC"> F  </i>
   <i type="string" name="PRECFOCK"></i>
   <i type="logical" name="LSYMGRAD"> F  </i>
   <i type="logical" name="LHFONE"> F  </i>
   <i type="logical" name="LRHFCALC"> F  </i>
   <i type="logical" name="LTHOMAS"> F  </i>
   <i type="logical" name="LMODELHF"> F  </i>
   <i name="ENCUT4O">     -1.00000000</i>
   <i type="int" name="EXXOEP">     0</i>
   <i type="int" name="FOURORBIT">     0</i>
   <i name="AEXX">      0.00000000</i>
   <i name="HFALPHA">      0.00000000</i>
   <i name="MCALPHA">      0.00000000</i>
   <i name="ALDAX">      1.00000000</i>
   <i name="AGGAX">      1.00000000</i>
   <i name="ALDAC">      1.00000000</i>
   <i name="AGGAC">      1.00000000</i>
   <i type="int" name="NKREDX">     1</i>
   <i type="int" name="NKREDY">     1</i>
   <i type="int" name="NKREDZ">     1</i>
   <i type="logical" name="SHIFTRED"> F  </i>
   <i type="logical" name="ODDONLY"> F  </i>
   <i type="logical" name="EVENONLY"> F  </i>
   <i type="int" name="LMAXFOCK">     0</i>
   <i type="int" name="NMAXFOCKAE">     0</i>
   <i type="logical" name="LFOCKAEDFT"> F  </i>
   <i name="HFSCREEN">      0.00000000</i>
   <i name="HFSCREENC">      0.00000000</i>
   <i type="int" name="NBANDSGWLOW">     0</i>
  </separator>
  <separator name="vdW DFT" >
   <i type="logical" name="LUSE_VDW"> F  </i>
   <i name="Zab_VDW">     -0.84910000</i>
   <i name="PARAM1">      0.12340000</i>
   <i name="PARAM2">      1.00000000</i>
   <i name="PARAM3">      0.00000000</i>
  </separator>
  <separator name="model GW" >
   <i type="int" name="MODEL_GW">     0</i>
   <i name="MODEL_EPS0">      6.41726564</i>
   <i name="MODEL_ALPHA">      1.00000000</i>
  </separator>
  <separator name="linear response parameters" >
   <i type="logical" name="LEPSILON"> F  </i>
   <i type="logical" name="LRPA"> F  </i>
   <i type="logical" name="LNABLA"> F  </i>
   <i type="logical" name="LVEL"> F  </i>
   <i type="int" name="KINTER">     0</i>
   <i name="CSHIFT">      0.10000000</i>
   <i name="OMEGAMAX">     -1.00000000</i>
   <i name="DEG_THRESHOLD">      0.00200000</i>
  </separator>
  <separator name="orbital magnetization" >
   <i type="logical" name="NUCIND"> F  </i>
   <v name="MAGPOS">      0.00000000      0.00000000      0.00000000</v>
   <i type="logical" name="LNICSALL"> T  </i>
   <i type="logical" name="ORBITALMAG"> F  </i>
   <i type="logical" name="LMAGBLOCH"> F  </i>
   <i type="logical" name="LCHIMAG"> F  </i>
   <i type="logical" name="LGAUGE"> T  </i>
   <i type="int" name="MAGATOM">     0</i>
   <v name="MAGDIPOL">      0.00000000      0.00000000      0.00000000</v>
   <v name="AVECCONST">      0.00000000      0.00000000      0.00000000</v>
  </separator>
  <separator name="response functions" >
   <i type="logical" name="LADDER"> F  </i>
   <i type="logical" name="LFXC"> F  </i>
   <i type="logical" name="LHARTREE"> T  </i>
   <i type="int" name="IBSE">     0</i>
   <i type="logical" name="LTCTE"> F  </i>
   <i type="logical" name="LTETE"> F  </i>
   <i type="logical" name="LTRIPLET"> F  </i>
   <i type="logical" name="LFXCEPS"> F  </i>
   <i type="logical" name="LFXHEG"> F  </i>
   <i type="logical" name="L2ORDER"> F  </i>
   <i type="logical" name="LUSEW"> F  </i>
   <i name="ENCUTGW">     -2.00000000</i>
   <i name="ENCUTGWSOFT">     -2.00000000</i>
   <i name="ENCUTLF">     -1.00000000</i>
   <i type="int" name="LMAXMP2">    -1</i>
   <i name="SCISSOR">      0.00000000</i>
   <i type="int" name="NOMEGA">     0</i>
   <i type="int" name="NOMEGAR">     0</i>
   <i type="int" name="NBANDSGW">    -1</i>
   <i type="int" name="NBANDSO">    -1</i>
   <i type="int" name="NBANDSV">    -1</i>
   <i type="int" name="NELM">   100</i>
   <i type="int" name="DIM">     3</i>
   <i type="int" name="ANTIRES">     0</i>
   <i name="OMEGAMAX">    -30.00000000</i>
   <i name="OMEGAMIN">    -30.00000000</i>
   <i name="OMEGATL">   -200.00000000</i>
   <i type="int" name="OMEGAGRID">     0</i>
   <i name="CSHIFT">     -0.10000000</i>
   <i type="logical" name="SELFENERGY"> F  </i>
   <i type="logical" name="LSPECTRAL"> F  </i>
   <i type="logical" name="ODDONLYGW"> F  </i>
   <i type="logical" name="EVENONLYGW"> F  </i>
   <i type="int" name="NKREDLFX">     1</i>
   <i type="int" name="NKREDLFY">     1</i>
   <i type="int" name="NKREDLFZ">     1</i>
   <i type="int" name="MAXMEM">  1800</i>
   <i type="int" name="TELESCOPE">     0</i>
   <i type="int" name="TAUPAR">     1</i>
  </separator>
  <separator name="External order field" >
   <i name="OFIELD_KAPPA">      0.00000000</i>
   <v name="OFIELD_K">      0.00000000      0.00000000      0.00000000</v>
   <i name="OFIELD_Q6_NEAR">      0.00000000</i>
   <i name="OFIELD_Q6_FAR">      0.00000000</i>
   <i name="OFIELD_A">      0.00000000</i>
  </separator>
 </parameters>
 <atominfo>
  <atoms>      32 </atoms>
  <types>       4 </types>
  <array name="atoms" >
   <dimension dim="1">ion</dimension>
   <field type="string">element</field>
   <field type="int">atomtype</field>
   <set>
    <rc><c>Si</c><c>   1</c></rc>
    <rc><c>Si</c><c>   1</c></rc>
    <rc><c>Si</c><c>   1</c></rc>
    <rc><c>Si</c><c>   1</c></rc>
    <rc><c>Si</c><c>   1</c></rc>
    <rc><c>Si</c><c>   1</c></rc>
    <rc><c>Al</c><c>   2</c></rc>
    <rc><c>Al</c><c>   2</c></rc>
    <rc><c>Al</c><c>   2</c></rc>
    <rc><c>Al</c><c>   2</c></rc>
    <rc><c>Al</c><c>   2</c></rc>
    <rc><c>Al</c><c>   2</c></rc>
    <rc><c>Al</c><c>   2</c></rc>
    <rc><c>Al</c><c>   2</c></rc>
    <rc><c>Al</c><c>   2</c></rc>
    <rc><c>Al</c><c>   2</c></rc>
    <rc><c>C </c><c>   3</c></rc>
    <rc><c>C </c><c>   3</c></rc>
    <rc><c>C </c><c>   3</c></rc>
    <rc><c>C </c><c>   3</c></rc>
    <rc><c>C </c><c>   3</c></rc>
    <rc><c>C </c><c>   3</c></rc>
    <rc><c>N </c><c>   4</c></rc>
    <rc><c>N </c><c>   4</c></rc>
    <rc><c>N </c><c>   4</c></rc>
    <rc><c>N </c><c>   4</c></rc>
    <rc><c>N </c><c>   4</c></rc>
    <rc><c>N </c><c>   4</c></rc>
    <rc><c>N </c><c>   4</c></rc>
    <rc><c>N </c><c>   4</c></rc>
    <rc><c>N </c><c>   4</c></rc>
    <rc><c>N </c><c>   4</c></rc>
   </set>
  </array>
  <array name="atomtypes" >
   <dimension dim="1">type</dimension>
   <field type="int">atomspertype</field>
   <field type="string">element</field>
   <field>mass</field>
   <field>valence</field>
   <field type="string">pseudopotential</field>
   <set>
    <rc><c>   6</c><c>Si</c><c>     28.08500000</c><c>      4.00000000</c><c>  PAW_PBE Si 05Jan2001                  </c></rc>
    <rc><c>  10</c><c>Al</c><c>     26.98100000</c><c>      3.00000000</c><c>  PAW_PBE Al 04Jan2001                  </c></rc>
    <rc><c>   6</c><c>C </c><c>     12.01100000</c><c>      4.00000000</c><c>  PAW_PBE C 08Apr2002                   </c></rc>
    <rc><c>  10</c><c>N </c><c>     14.00100000</c><c>      5.00000000</c><c>  PAW_PBE N_s 07Sep2000                 </c></rc>
   </set>
  </array>
 </atominfo>
 <structure name="initialpos" >
  <crystal>
   <varray name="basis" >
    <v>      10.91982684       0.00000000      -0.01883593 </v>
    <v>       0.00000000       6.27537933       0.00000000 </v>
    <v>      -0.00899350       0.00000000       4.99452693 </v>
   </varray>
   <i name="volume">    342.25416733 </i>
   <varray name="rec_basis" >
    <v>       0.09157683       0.00000000       0.00016490 </v>
    <v>       0.00000000       0.15935292       0.00000000 </v>
    <v>       0.00034536       0.00000000       0.20021978 </v>
   </varray>
  </crystal>
  <varray name="positions" >
   <v>       0.66820557       0.50000000       0.98520823 </v>
   <v>       0.57998432       0.75402691       0.49981846 </v>
   <v>       0.57998432       0.24597309       0.49981846 </v>
   <v>       0.16820557       0.00000000       0.98520823 </v>
   <v>       0.07998432       0.25402691       0.49981846 </v>
   <v>       0.07998432       0.74597309       0.49981846 </v>
   <v>       0.41502555       0.74544193       0.99901906 </v>
   <v>       0.41502555       0.25455807       0.99901906 </v>
   <v>       0.67016159       0.00000000       0.98759232 </v>
   <v>       0.33537279       0.50000000       0.50307863 </v>
   <v>       0.33769572       0.00000000       0.49858036 </v>
   <v>       0.91502555       0.24544193       0.99901906 </v>
   <v>       0.91502555       0.75455807       0.99901906 </v>
   <v>       0.17016159       0.50000000       0.98759232 </v>
   <v>       0.83537279       0.00000000       0.50307863 </v>
   <v>       0.83769572       0.50000000       0.49858036 </v>
   <v>       0.65637396       0.00000000       0.38796278 </v>
   <v>       0.33471526       0.50000000       0.88574188 </v>
   <v>       0.32612798       0.00000000       0.89115324 </v>
   <v>       0.15637396       0.50000000       0.38796278 </v>
   <v>       0.83471526       0.00000000       0.88574188 </v>
   <v>       0.82612798       0.50000000       0.89115324 </v>
   <v>       0.42742774       0.75042060       0.38738831 </v>
   <v>       0.42742774       0.24957940       0.38738831 </v>
   <v>       0.65426243       0.50000000       0.36397311 </v>
   <v>       0.58610475       0.73295759       0.86212889 </v>
   <v>       0.58610475       0.26704241       0.86212889 </v>
   <v>       0.92742774       0.25042060       0.38738831 </v>
   <v>       0.92742774       0.74957940       0.38738831 </v>
   <v>       0.15426243       0.00000000       0.36397311 </v>
   <v>       0.08610475       0.23295759       0.86212889 </v>
   <v>       0.08610475       0.76704241       0.86212889 </v>
  </varray>
 </structure>
 <calculation>
  <scstep>
   <time name="dav">    2.09    2.09</time>
   <time name="total">    2.24    2.25</time>
   <energy>
    <i name="alphaZ">    115.58462236 </i>
    <i name="ewald">  -4535.22981424 </i>
    <i name="hartreedc">   -820.17736173 </i>
    <i name="XCdc">    -31.98300806 </i>
    <i name="pawpsdc">   3891.26063630 </i>
    <i name="pawaedc">  -3481.42518448 </i>
    <i name="eentropy">     -0.02545754 </i>
    <i name="bandstr">    931.75584367 </i>
    <i name="atom">   4682.15707303 </i>
    <i name="e_fr_energy">    751.91734930 </i>
    <i name="e_wo_entrp">    751.94280685 </i>
    <i name="e_0_energy">    751.93007807 </i>
   </energy>
  </scstep>
  <scstep>
   <time name="dav">    2.22    2.22</time>
   <time name="total">    2.22    2.23</time>
   <energy>
    <i name="e_fr_energy">   -186.77030310 </i>
    <i name="e_wo_entrp">   -186.77030310 </i>
    <i name="e_0_energy">   -186.77030310 </i>
   </energy>
  </scstep>
  <scstep>
   <time name="dav">    2.35    2.35</time>
   <time name="total">    2.35    2.37</time>
   <energy>
    <i name="e_fr_energy">   -268.30263842 </i>
    <i name="e_wo_entrp">   -268.30263842 </i>
    <i name="e_0_energy">   -268.30263842 </i>
   </energy>
  </scstep>
  <scstep>
   <time name="dav">    2.40    2.41</time>
   <time name="total">    2.41    2.42</time>
   <energy>
    <i name="e_fr_energy">   -270.59860384 </i>
    <i name="e_wo_entrp">   -270.59860384 </i>
    <i name="e_0_energy">   -270.59860384 </i>
   </energy>
  </scstep>
  <scstep>
   <time name="dav">    2.27    2.27</time>
   <time name="total">    2.51    2.53</time>
   <energy>
    <i name="e_fr_energy">   -270.67414698 </i>
    <i name="e_wo_entrp">   -270.67414698 </i>
    <i name="e_0_energy">   -270.67414698 </i>
   </energy>
  </scstep>
  <scstep>
   <time name="diag">    0.31    0.31</time>
   <time name="diis">    1.40    1.40</time>
   <time name="orth">    0.06    0.06</time>
   <time name="total">    2.15    2.17</time>
   <energy>
    <i name="e_fr_energy">   -232.30311918 </i>
    <i name="e_wo_entrp">   -232.30311918 </i>
    <i name="e_0_energy">   -232.30311918 </i>
   </energy>
  </scstep>
  <scstep>
   <time name="diag">    0.31    0.31</time>
   <time name="diis">    1.44    1.44</time>
   <time name="orth">    0.06    0.06</time>
   <time name="total">    2.20    2.21</time>
   <energy>
    <i name="e_fr_energy">   -232.19816993 </i>
    <i name="e_wo_entrp">   -232.19816993 </i>
    <i name="e_0_energy">   -232.19816993 </i>
   </energy>
  </scstep>
  <scstep>
   <time name="diag">    0.31    0.31</time>
   <time name="diis">    1.40    1.40</time>
   <time name="orth">    0.06    0.06</time>
   <time name="total">    2.15    2.17</time>
   <energy>
    <i name="e_fr_energy">   -235.64110082 </i>
    <i name="e_wo_entrp">   -235.64110082 </i>
    <i name="e_0_energy">   -235.64110082 </i>
   </energy>
  </scstep>
  <scstep>
   <time name="diag">    0.31    0.31</time>
   <time name="diis">    1.42    1.42</time>
   <time name="orth">    0.06    0.06</time>
   <time name="total">    2.18    2.20</time>
   <energy>
    <i name="e_fr_energy">   -231.89393552 </i>
    <i name="e_wo_entrp">   -231.89393552 </i>
    <i name="e_0_energy">   -231.89393552 </i>
   </energy>
  </scstep>
  <scstep>
   <time name="diag">    0.31    0.31</time>
   <time name="diis">    1.38    1.38</time>
   <time name="orth">    0.06    0.06</time>
   <time name="total">    2.14    2.15</time>
   <energy>
    <i name="e_fr_energy">   -231.88943190 </i>
    <i name="e_wo_entrp">   -231.88943190 </i>
    <i name="e_0_energy">   -231.88943190 </i>
   </energy>
  </scstep>
  <scstep>
   <time name="diag">    0.31    0.31</time>
   <time name="diis">    1.42    1.42</time>
   <time name="orth">    0.06    0.06</time>
   <time name="total">    2.17    2.19</time>
   <energy>
    <i name="e_fr_energy">   -231.90066319 </i>
    <i name="e_wo_entrp">   -231.90066319 </i>
    <i name="e_0_energy">   -231.90066319 </i>
   </energy>
  </scstep>
  <scstep>
   <time name="diag">    0.31    0.31</time>
   <time name="diis">    1.42    1.42</time>
   <time name="orth">    0.06    0.06</time>
   <time name="total">    2.17    2.19</time>
   <energy>
    <i name="e_fr_energy">   -231.90092065 </i>
    <i name="e_wo_entrp">   -231.90092065 </i>
    <i name="e_0_energy">   -231.90092065 </i>
   </energy>
  </scstep>
  <scstep>
   <time name="diag">    0.31    0.31</time>
   <time name="diis">    1.45    1.45</time>
   <time name="orth">    0.06    0.06</time>
   <time name="total">    2.20    2.22</time>
   <energy>
    <i name="e_fr_energy">   -231.90084645 </i>
    <i name="e_wo_entrp">   -231.90084645 </i>
    <i name="e_0_energy">   -231.90084645 </i>
   </energy>
  </scstep>
  <scstep>
   <time name="diag">    0.31    0.31</time>
   <time name="diis">    1.41    1.41</time>
   <time name="orth">    0.06    0.06</time>
   <time name="total">    2.17    2.19</time>
   <energy>
    <i name="e_fr_energy">   -231.90054322 </i>
    <i name="e_wo_entrp">   -231.90054322 </i>
    <i name="e_0_energy">   -231.90054322 </i>
   </energy>
  </scstep>
  <scstep>
   <time name="diag">    0.32    0.32</time>
   <time name="diis">    1.44    1.44</time>
   <time name="orth">    0.06    0.06</time>
   <time name="total">    2.21    2.23</time>
   <energy>
    <i name="e_fr_energy">   -231.90054782 </i>
    <i name="e_wo_entrp">   -231.90054782 </i>
    <i name="e_0_energy">   -231.90054782 </i>
   </energy>
  </scstep>
  <scstep>
   <time name="diag">    0.31    0.31</time>
   <time name="diis">    1.23    1.23</time>
   <time name="orth">    0.06    0.06</time>
   <time name="total">    1.99    2.00</time>
   <energy>
    <i name="e_fr_energy">   -231.90054636 </i>
    <i name="e_wo_entrp">   -231.90054636 </i>
    <i name="e_0_energy">   -231.90054636 </i>
   </energy>
  </scstep>
  <scstep>
   <time name="diag">    0.31    0.31</time>
   <time name="diis">    0.98    0.98</time>
   <time name="orth">    0.06    0.06</time>
   <time name="total">    1.50    1.51</time>
   <energy>
    <i name="alphaZ">    115.58462236 </i>
    <i name="ewald">  -4535.22981424 </i>
    <i name="hartreedc">  -1044.70528262 </i>
    <i name="XCdc">    -12.06791380 </i>
    <i name="pawpsdc">  21662.27149966 </i>
    <i name="pawaedc"> -21262.30045644 </i>
    <i name="eentropy">      0.00000000 </i>
    <i name="bandstr">    162.38972481 </i>
    <i name="atom">   4682.15707303 </i>
    <i name="e_fr_energy">   -231.90054724 </i>
    <i name="e_wo_entrp">   -231.90054724 </i>
    <i name="e_0_energy">   -231.90054724 </i>
   </energy>
  </scstep>
  <structure>
   <crystal>
    <varray name="basis" >
     <v>      10.91982684       0.00000000      -0.01883593 </v>
     <v>       0.00000000       6.27537933       0.00000000 </v>
     <v>      -0.00899350       0.00000000       4.99452693 </v>
    </varray>
    <i name="volume">    342.25416733 </i>
    <varray name="rec_basis" >
     <v>       0.09157683       0.00000000       0.00016490 </v>
     <v>       0.00000000       0.15935292       0.00000000 </v>
     <v>       0.00034536       0.00000000       0.20021978 </v>
    </varray>
   </crystal>
   <varray name="positions" >
    <v>       0.66820557       0.50000000       0.98520823 </v>
    <v>       0.57998432       0.75402691       0.49981846 </v>
    <v>       0.57998432       0.24597309       0.49981846 </v>
    <v>       0.16820557       0.00000000       0.98520823 </v>
    <v>       0.07998432       0.25402691       0.49981846 </v>
    <v>       0.07998432       0.74597309       0.49981846 </v>
    <v>       0.41502555       0.74544193       0.99901906 </v>
    <v>       0.41502555       0.25455807       0.99901906 </v>
    <v>       0.67016159       0.00000000       0.98759232 </v>
    <v>       0.33537279       0.50000000       0.50307863 </v>
    <v>       0.33769572       0.00000000       0.49858036 </v>
    <v>       0.91502555       0.24544193       0.99901906 </v>
    <v>       0.91502555       0.75455807       0.99901906 </v>
    <v>       0.17016159       0.50000000       0.98759232 </v>
    <v>       0.83537279       0.00000000       0.50307863 </v>
    <v>       0.83769572       0.50000000       0.49858036 </v>
    <v>       0.65637396       0.00000000       0.38796278 </v>
    <v>       0.33471526       0.50000000       0.88574188 </v>
    <v>       0.32612798       0.00000000       0.89115324 </v>
    <v>       0.15637396       0.50000000       0.38796278 </v>
    <v>       0.83471526       0.00000000       0.88574188 </v>
    <v>       0.82612798       0.50000000       0.89115324 </v>
    <v>       0.42742774       0.75042060       0.38738831 </v>
    <v>       0.42742774       0.24957940       0.38738831 </v>
    <v>       0.65426243       0.50000000       0.36397311 </v>
    <v>       0.58610475       0.73295759       0.86212889 </v>
    <v>       0.58610475       0.26704241       0.86212889 </v>
    <v>       0.92742774       0.25042060       0.38738831 </v>
    <v>       0.92742774       0.74957940       0.38738831 </v>
    <v>       0.15426243       0.00000000       0.36397311 </v>
    <v>       0.08610475       0.23295759       0.86212889 </v>
    <v>       0.08610475       0.76704241       0.86212889 </v>
   </varray>
  </structure>
  <varray name="forces" >
   <v>       0.01254709       0.00000000       0.00251100 </v>
   <v>      -0.00938132      -0.01191767      -0.00543134 </v>
   <v>      -0.00938132       0.01191767      -0.00543134 </v>
   <v>       0.01254709       0.00000000       0.00251100 </v>
   <v>      -0.00938132      -0.01191767      -0.00543134 </v>
   <v>      -0.00938132       0.01191767      -0.00543134 </v>
   <v>       0.00430051       0.00405358       0.01045212 </v>
   <v>       0.00430051      -0.00405358       0.01045212 </v>
   <v>      -0.00243845       0.00000000       0.00445194 </v>
   <v>      -0.00545469       0.00000000       0.00780270 </v>
   <v>      -0.00462907       0.00000000       0.00223953 </v>
   <v>       0.00430051       0.00405358       0.01045212 </v>
   <v>       0.00430051      -0.00405358       0.01045212 </v>
   <v>      -0.00243845       0.00000000       0.00445194 </v>
   <v>      -0.00545469       0.00000000       0.00780270 </v>
   <v>      -0.00462907       0.00000000       0.00223953 </v>
   <v>      -0.00013867       0.00000000      -0.00687165 </v>
   <v>      -0.00034259       0.00000000      -0.01366871 </v>
   <v>       0.00162192       0.00000000       0.00319090 </v>
   <v>      -0.00013867       0.00000000      -0.00687165 </v>
   <v>      -0.00034259       0.00000000      -0.01366871 </v>
   <v>       0.00162192       0.00000000       0.00319090 </v>
   <v>       0.00248591       0.00005255       0.00181489 </v>
   <v>       0.00248591      -0.00005255       0.00181489 </v>
   <v>       0.00360788       0.00000000      -0.01038852 </v>
   <v>       0.00020818      -0.00040121      -0.00146925 </v>
   <v>       0.00020818       0.00040121      -0.00146925 </v>
   <v>       0.00248591       0.00005255       0.00181489 </v>
   <v>       0.00248591      -0.00005255       0.00181489 </v>
   <v>       0.00360788       0.00000000      -0.01038852 </v>
   <v>       0.00020818      -0.00040121      -0.00146925 </v>
   <v>       0.00020818       0.00040121      -0.00146925 </v>
  </varray>
  <varray name="stress" >
   <v>      -0.79305851       0.00000000       0.01461007 </v>
   <v>       0.00000000       0.21436687       0.00000000 </v>
   <v>       0.01461009       0.00000000      -0.01217982 </v>
  </varray>
  <energy>
   <i name="e_fr_energy">   -231.90054724 </i>
   <i name="e_wo_entrp">   -231.90054724 </i>
   <i name="e_0_energy">      0.00000000 </i>
  </energy>
  <time name="totalsc">   42.10   42.39</time>
  <eigenvalues>
   <array>
    <dimension dim="1">band</dimension>
    <dimension dim="2">kpoint</dimension>
    <dimension dim="3">spin</dimension>
    <field>eigene</field>
    <field>occ</field>
    <set>
     <set comment="spin 1">
      <set comment="kpoint 1">
       <r>   -9.6658    1.0000 </r>
       <r>   -9.5003    1.0000 </r>
       <r>   -8.0097    1.0000 </r>
       <r>   -7.9506    1.0000 </r>
       <r>   -7.8772    1.0000 </r>
       <r>   -7.5527    1.0000 </r>
       <r>   -7.5137    1.0000 </r>
       <r>   -7.4679    1.0000 </r>
       <r>   -6.8624    1.0000 </r>
       <r>   -6.8146    1.0000 </r>
       <r>   -4.0772    1.0000 </r>
       <r>   -3.7518    1.0000 </r>
       <r>   -3.2517    1.0000 </r>
       <r>   -3.2167    1.0000 </r>
       <r>   -1.7505    1.0000 </r>
       <r>   -1.4512    1.0000 </r>
       <r>   -0.8824    1.0000 </r>
       <r>   -0.7961    1.0000 </r>
       <r>   -0.5718    1.0000 </r>
       <r>   -0.0530    1.0000 </r>
       <r>    0.3043    1.0000 </r>
       <r>    0.6593    1.0000 </r>
       <r>    1.0390    1.0000 </r>
       <r>    1.1459    1.0000 </r>
       <r>    1.3018    1.0000 </r>
       <r>    1.5285    1.0000 </r>
       <r>    1.6105    1.0000 </r>
       <r>    1.9405    1.0000 </r>
       <r>    2.2060    1.0000 </r>
       <r>    2.2082    1.0000 </r>
       <r>    2.3608    1.0000 </r>
       <r>    2.4321    1.0000 </r>
       <r>    2.4920    1.0000 </r>
       <r>    3.0125    1.0000 </r>
       <r>    3.1587    1.0000 </r>
       <r>    3.1885    1.0000 </r>
       <r>    3.2258    1.0000 </r>
       <r>    3.3421    1.0000 </r>
       <r>    3.5443    1.0000 </r>
       <r>    3.7111    1.0000 </r>
       <r>    3.7717    1.0000 </r>
       <r>    4.1472    1.0000 </r>
       <r>    4.2474    1.0000 </r>
       <r>    4.2766    1.0000 </r>
       <r>    4.2848    1.0000 </r>
       <r>    4.6206    1.0000 </r>
       <r>    4.6329    1.0000 </r>
       <r>    4.9242    1.0000 </r>
       <r>    5.0000    1.0000 </r>
       <r>    5.1264    1.0000 </r>
       <r>    5.4024    1.0000 </r>
       <r>    5.4645    1.0000 </r>
       <r>    5.6084    1.0000 </r>
       <r>    5.7070    1.0000 </r>
       <r>    5.9174    1.0000 </r>
       <r>    6.0175    1.0000 </r>
       <r>    6.0779    1.0000 </r>
       <r>    6.3403    1.0000 </r>
       <r>    6.3639    1.0000 </r>
       <r>    7.0369    1.0000 </r>
       <r>    7.4109    1.0000 </r>
       <r>    7.6227    1.0000 </r>
       <r>    8.2881    1.0000 </r>
       <r>    8.3072    1.0000 </r>
       <r>   10.1156    0.0000 </r>
       <r>   10.8438    0.0000 </r>
       <r>   10.9881    0.0000 </r>
       <r>   11.0624    0.0000 </r>
       <r>   11.4891    0.0000 </r>
       <r>   11.6157    0.0000 </r>
       <r>   11.7432    0.0000 </r>
       <r>   11.7643    0.0000 </r>
       <r>   11.9282    0.0000 </r>
       <r>   12.1855    0.0000 </r>
       <r>   12.7722    0.0000 </r>
       <r>   12.8492    0.0000 </r>
       <r>   13.1703    0.0000 </r>
       <r>   13.4901    0.0000 </r>
       <r>   13.6044    0.0000 </r>
       <r>   13.7193    0.0000 </r>
       <r>   13.7618    0.0000 </r>
       <r>   14.5161    0.0000 </r>
       <r>   14.7651    0.0000 </r>
       <r>   14.7923    0.0000 </r>
      </set>
      <set comment="kpoint 2">
       <r>   -9.5889    1.0000 </r>
       <r>   -9.5889    1.0000 </r>
       <r>   -7.9809    1.0000 </r>
       <r>   -7.9809    1.0000 </r>
       <r>   -7.7173    1.0000 </r>
       <r>   -7.7173    1.0000 </r>
       <r>   -7.4840    1.0000 </r>
       <r>   -7.4840    1.0000 </r>
       <r>   -6.8376    1.0000 </r>
       <r>   -6.8376    1.0000 </r>
       <r>   -3.9383    1.0000 </r>
       <r>   -3.9383    1.0000 </r>
       <r>   -3.2193    1.0000 </r>
       <r>   -3.2193    1.0000 </r>
       <r>   -1.5714    1.0000 </r>
       <r>   -1.5714    1.0000 </r>
       <r>   -0.8624    1.0000 </r>
       <r>   -0.8624    1.0000 </r>
       <r>   -0.3527    1.0000 </r>
       <r>   -0.3527    1.0000 </r>
       <r>    0.5773    1.0000 </r>
       <r>    0.5773    1.0000 </r>
       <r>    1.0949    1.0000 </r>
       <r>    1.0949    1.0000 </r>
       <r>    1.2486    1.0000 </r>
       <r>    1.2486    1.0000 </r>
       <r>    1.7745    1.0000 </r>
       <r>    1.7745    1.0000 </r>
       <r>    2.2625    1.0000 </r>
       <r>    2.2625    1.0000 </r>
       <r>    2.5099    1.0000 </r>
       <r>    2.5099    1.0000 </r>
       <r>    2.7580    1.0000 </r>
       <r>    2.7580    1.0000 </r>
       <r>    3.0571    1.0000 </r>
       <r>    3.0571    1.0000 </r>
       <r>    3.2099    1.0000 </r>
       <r>    3.2099    1.0000 </r>
       <r>    3.6159    1.0000 </r>
       <r>    3.6159    1.0000 </r>
       <r>    3.7906    1.0000 </r>
       <r>    3.7906    1.0000 </r>
       <r>    4.2659    1.0000 </r>
       <r>    4.2659    1.0000 </r>
       <r>    4.9478    1.0000 </r>
       <r>    4.9478    1.0000 </r>
       <r>    5.0107    1.0000 </r>
       <r>    5.0107    1.0000 </r>
       <r>    5.2372    1.0000 </r>
       <r>    5.2372    1.0000 </r>
       <r>    5.3111    1.0000 </r>
       <r>    5.3111    1.0000 </r>
       <r>    5.5047    1.0000 </r>
       <r>    5.5047    1.0000 </r>
       <r>    5.6765    1.0000 </r>
       <r>    5.6765    1.0000 </r>
       <r>    6.0238    1.0000 </r>
       <r>    6.0238    1.0000 </r>
       <r>    6.9501    1.0000 </r>
       <r>    6.9501    1.0000 </r>
       <r>    7.2297    1.0000 </r>
       <r>    7.2297    1.0000 </r>
       <r>    8.3042    1.0000 </r>
       <r>    8.3042    1.0000 </r>
       <r>   10.5913    0.0000 </r>
       <r>   10.5913    0.0000 </r>
       <r>   11.5084    0.0000 </r>
       <r>   11.5085    0.0000 </r>
       <r>   11.5483    0.0000 </r>
       <r>   11.5483    0.0000 </r>
       <r>   12.0412    0.0000 </r>
       <r>   12.0413    0.0000 </r>
       <r>   12.1516    0.0000 </r>
       <r>   12.1516    0.0000 </r>
       <r>   12.2975    0.0000 </r>
       <r>   12.2975    0.0000 </r>
       <r>   12.9568    0.0000 </r>
       <r>   12.9582    0.0000 </r>
       <r>   13.4158    0.0000 </r>
       <r>   13.4162    0.0000 </r>
       <r>   14.3335    0.0000 </r>
       <r>   14.4731    0.0000 </r>
       <r>   14.5466    0.0000 </r>
       <r>   15.1099    0.0000 </r>
      </set>
      <set comment="kpoint 3">
       <r>   -9.5142    1.0000 </r>
       <r>   -9.4089    1.0000 </r>
       <r>   -8.3684    1.0000 </r>
       <r>   -8.2888    1.0000 </r>
       <r>   -7.6092    1.0000 </r>
       <r>   -7.4786    1.0000 </r>
       <r>   -7.3853    1.0000 </r>
       <r>   -7.3549    1.0000 </r>
       <r>   -7.0567    1.0000 </r>
       <r>   -6.9858    1.0000 </r>
       <r>   -3.9193    1.0000 </r>
       <r>   -3.7672    1.0000 </r>
       <r>   -3.1619    1.0000 </r>
       <r>   -3.1499    1.0000 </r>
       <r>   -1.8696    1.0000 </r>
       <r>   -1.7725    1.0000 </r>
       <r>   -0.9234    1.0000 </r>
       <r>   -0.7858    1.0000 </r>
       <r>    0.1425    1.0000 </r>
       <r>    0.5450    1.0000 </r>
       <r>    0.6446    1.0000 </r>
       <r>    0.7385    1.0000 </r>
       <r>    0.9515    1.0000 </r>
       <r>    1.0617    1.0000 </r>
       <r>    1.3178    1.0000 </r>
       <r>    1.4809    1.0000 </r>
       <r>    1.9305    1.0000 </r>
       <r>    1.9790    1.0000 </r>
       <r>    2.0813    1.0000 </r>
       <r>    2.2791    1.0000 </r>
       <r>    2.4439    1.0000 </r>
       <r>    2.4840    1.0000 </r>
       <r>    2.6046    1.0000 </r>
       <r>    2.8666    1.0000 </r>
       <r>    3.0041    1.0000 </r>
       <r>    3.0224    1.0000 </r>
       <r>    3.1457    1.0000 </r>
       <r>    3.1746    1.0000 </r>
       <r>    3.4232    1.0000 </r>
       <r>    3.5530    1.0000 </r>
       <r>    3.6712    1.0000 </r>
       <r>    3.8753    1.0000 </r>
       <r>    4.0753    1.0000 </r>
       <r>    4.1932    1.0000 </r>
       <r>    4.2837    1.0000 </r>
       <r>    4.3055    1.0000 </r>
       <r>    4.5720    1.0000 </r>
       <r>    4.6813    1.0000 </r>
       <r>    4.8244    1.0000 </r>
       <r>    5.0383    1.0000 </r>
       <r>    5.1601    1.0000 </r>
       <r>    5.3549    1.0000 </r>
       <r>    5.5671    1.0000 </r>
       <r>    5.6141    1.0000 </r>
       <r>    5.8550    1.0000 </r>
       <r>    6.0957    1.0000 </r>
       <r>    6.2623    1.0000 </r>
       <r>    6.2898    1.0000 </r>
       <r>    6.8552    1.0000 </r>
       <r>    7.0665    1.0000 </r>
       <r>    7.2065    1.0000 </r>
       <r>    7.2849    1.0000 </r>
       <r>    7.3602    1.0000 </r>
       <r>    7.4467    1.0000 </r>
       <r>   10.8846    0.0000 </r>
       <r>   11.1280    0.0000 </r>
       <r>   11.5980    0.0000 </r>
       <r>   11.8260    0.0000 </r>
       <r>   11.8389    0.0000 </r>
       <r>   12.2427    0.0000 </r>
       <r>   12.4226    0.0000 </r>
       <r>   12.6392    0.0000 </r>
       <r>   12.8294    0.0000 </r>
       <r>   12.9074    0.0000 </r>
       <r>   12.9586    0.0000 </r>
       <r>   13.1921    0.0000 </r>
       <r>   13.3931    0.0000 </r>
       <r>   13.4279    0.0000 </r>
       <r>   13.5570    0.0000 </r>
       <r>   13.8693    0.0000 </r>
       <r>   13.8922    0.0000 </r>
       <r>   14.0064    0.0000 </r>
       <r>   14.3240    0.0000 </r>
       <r>   14.6066    0.0000 </r>
      </set>
      <set comment="kpoint 4">
       <r>   -9.4630    1.0000 </r>
       <r>   -9.4630    1.0000 </r>
       <r>   -8.3363    1.0000 </r>
       <r>   -8.3363    1.0000 </r>
       <r>   -7.5143    1.0000 </r>
       <r>   -7.5143    1.0000 </r>
       <r>   -7.3852    1.0000 </r>
       <r>   -7.3852    1.0000 </r>
       <r>   -7.0253    1.0000 </r>
       <r>   -7.0253    1.0000 </r>
       <r>   -3.8678    1.0000 </r>
       <r>   -3.8678    1.0000 </r>
       <r>   -3.1324    1.0000 </r>
       <r>   -3.1324    1.0000 </r>
       <r>   -1.8257    1.0000 </r>
       <r>   -1.8257    1.0000 </r>
       <r>   -0.8472    1.0000 </r>
       <r>   -0.8472    1.0000 </r>
       <r>    0.2943    1.0000 </r>
       <r>    0.2943    1.0000 </r>
       <r>    0.7128    1.0000 </r>
       <r>    0.7128    1.0000 </r>
       <r>    1.1057    1.0000 </r>
       <r>    1.1057    1.0000 </r>
       <r>    1.4092    1.0000 </r>
       <r>    1.4092    1.0000 </r>
       <r>    1.8844    1.0000 </r>
       <r>    1.8844    1.0000 </r>
       <r>    2.1721    1.0000 </r>
       <r>    2.1721    1.0000 </r>
       <r>    2.4025    1.0000 </r>
       <r>    2.4025    1.0000 </r>
       <r>    2.6216    1.0000 </r>
       <r>    2.6216    1.0000 </r>
       <r>    3.1135    1.0000 </r>
       <r>    3.1135    1.0000 </r>
       <r>    3.2376    1.0000 </r>
       <r>    3.2376    1.0000 </r>
       <r>    3.3818    1.0000 </r>
       <r>    3.3818    1.0000 </r>
       <r>    3.8565    1.0000 </r>
       <r>    3.8565    1.0000 </r>
       <r>    4.1304    1.0000 </r>
       <r>    4.1304    1.0000 </r>
       <r>    4.3274    1.0000 </r>
       <r>    4.3274    1.0000 </r>
       <r>    4.5690    1.0000 </r>
       <r>    4.5690    1.0000 </r>
       <r>    5.0455    1.0000 </r>
       <r>    5.0455    1.0000 </r>
       <r>    5.2052    1.0000 </r>
       <r>    5.2052    1.0000 </r>
       <r>    5.5825    1.0000 </r>
       <r>    5.5825    1.0000 </r>
       <r>    5.9457    1.0000 </r>
       <r>    5.9457    1.0000 </r>
       <r>    6.2754    1.0000 </r>
       <r>    6.2754    1.0000 </r>
       <r>    6.9171    1.0000 </r>
       <r>    6.9171    1.0000 </r>
       <r>    7.2399    1.0000 </r>
       <r>    7.2399    1.0000 </r>
       <r>    7.5044    1.0000 </r>
       <r>    7.5044    1.0000 </r>
       <r>   11.2780    0.0000 </r>
       <r>   11.2780    0.0000 </r>
       <r>   11.6612    0.0000 </r>
       <r>   11.6612    0.0000 </r>
       <r>   12.0410    0.0000 </r>
       <r>   12.0410    0.0000 </r>
       <r>   12.1941    0.0000 </r>
       <r>   12.1942    0.0000 </r>
       <r>   12.5032    0.0000 </r>
       <r>   12.5032    0.0000 </r>
       <r>   12.9981    0.0000 </r>
       <r>   12.9986    0.0000 </r>
       <r>   13.2530    0.0000 </r>
       <r>   13.2531    0.0000 </r>
       <r>   13.8462    0.0000 </r>
       <r>   13.8549    0.0000 </r>
       <r>   14.0427    0.0000 </r>
       <r>   14.0567    0.0000 </r>
       <r>   14.6806    0.0000 </r>
       <r>   14.8396    0.0000 </r>
      </set>
      <set comment="kpoint 5">
       <r>   -9.4409    1.0000 </r>
       <r>   -9.2792    1.0000 </r>
       <r>   -7.9690    1.0000 </r>
       <r>   -7.9439    1.0000 </r>
       <r>   -7.8853    1.0000 </r>
       <r>   -7.8374    1.0000 </r>
       <r>   -7.7066    1.0000 </r>
       <r>   -7.4439    1.0000 </r>
       <r>   -6.9651    1.0000 </r>
       <r>   -6.9457    1.0000 </r>
       <r>   -4.0309    1.0000 </r>
       <r>   -3.7435    1.0000 </r>
       <r>   -3.5020    1.0000 </r>
       <r>   -3.1961    1.0000 </r>
       <r>   -1.7580    1.0000 </r>
       <r>   -1.6825    1.0000 </r>
       <r>   -1.0002    1.0000 </r>
       <r>   -0.5644    1.0000 </r>
       <r>   -0.5307    1.0000 </r>
       <r>   -0.1733    1.0000 </r>
       <r>    0.0139    1.0000 </r>
       <r>    0.6061    1.0000 </r>
       <r>    0.7188    1.0000 </r>
       <r>    1.4925    1.0000 </r>
       <r>    1.5392    1.0000 </r>
       <r>    1.5461    1.0000 </r>
       <r>    1.6968    1.0000 </r>
       <r>    1.7330    1.0000 </r>
       <r>    1.9117    1.0000 </r>
       <r>    2.3297    1.0000 </r>
       <r>    2.4781    1.0000 </r>
       <r>    2.5557    1.0000 </r>
       <r>    2.8717    1.0000 </r>
       <r>    2.9790    1.0000 </r>
       <r>    3.1974    1.0000 </r>
       <r>    3.2861    1.0000 </r>
       <r>    3.3243    1.0000 </r>
       <r>    3.6232    1.0000 </r>
       <r>    3.8076    1.0000 </r>
       <r>    3.8306    1.0000 </r>
       <r>    3.8449    1.0000 </r>
       <r>    3.9743    1.0000 </r>
       <r>    4.1694    1.0000 </r>
       <r>    4.4224    1.0000 </r>
       <r>    4.5262    1.0000 </r>
       <r>    4.5518    1.0000 </r>
       <r>    4.9789    1.0000 </r>
       <r>    4.9824    1.0000 </r>
       <r>    5.1055    1.0000 </r>
       <r>    5.2973    1.0000 </r>
       <r>    5.3027    1.0000 </r>
       <r>    5.4454    1.0000 </r>
       <r>    5.6150    1.0000 </r>
       <r>    5.6877    1.0000 </r>
       <r>    5.8852    1.0000 </r>
       <r>    5.9098    1.0000 </r>
       <r>    6.2101    1.0000 </r>
       <r>    6.3301    1.0000 </r>
       <r>    6.6830    1.0000 </r>
       <r>    6.9000    1.0000 </r>
       <r>    7.5228    1.0000 </r>
       <r>    7.5289    1.0000 </r>
       <r>    8.1765    1.0000 </r>
       <r>    8.2547    1.0000 </r>
       <r>   10.3540    0.0000 </r>
       <r>   10.4692    0.0000 </r>
       <r>   10.9662    0.0000 </r>
       <r>   11.1614    0.0000 </r>
       <r>   11.3990    0.0000 </r>
       <r>   11.5919    0.0000 </r>
       <r>   11.7736    0.0000 </r>
       <r>   11.7949    0.0000 </r>
       <r>   12.0315    0.0000 </r>
       <r>   12.3130    0.0000 </r>
       <r>   12.4311    0.0000 </r>
       <r>   12.8384    0.0000 </r>
       <r>   13.0845    0.0000 </r>
       <r>   13.4383    0.0000 </r>
       <r>   13.5426    0.0000 </r>
       <r>   13.7554    0.0000 </r>
       <r>   14.0974    0.0000 </r>
       <r>   14.2060    0.0000 </r>
       <r>   14.3597    0.0000 </r>
       <r>   14.6109    0.0000 </r>
      </set>
      <set comment="kpoint 6">
       <r>   -9.3707    1.0000 </r>
       <r>   -9.3606    1.0000 </r>
       <r>   -7.9915    1.0000 </r>
       <r>   -7.9053    1.0000 </r>
       <r>   -7.8648    1.0000 </r>
       <r>   -7.8588    1.0000 </r>
       <r>   -7.6176    1.0000 </r>
       <r>   -7.5395    1.0000 </r>
       <r>   -6.9603    1.0000 </r>
       <r>   -6.9495    1.0000 </r>
       <r>   -3.9191    1.0000 </r>
       <r>   -3.8917    1.0000 </r>
       <r>   -3.3561    1.0000 </r>
       <r>   -3.3457    1.0000 </r>
       <r>   -1.7097    1.0000 </r>
       <r>   -1.6755    1.0000 </r>
       <r>   -0.8332    1.0000 </r>
       <r>   -0.7761    1.0000 </r>
       <r>   -0.4150    1.0000 </r>
       <r>   -0.3265    1.0000 </r>
       <r>    0.2620    1.0000 </r>
       <r>    0.4392    1.0000 </r>
       <r>    0.9611    1.0000 </r>
       <r>    0.9752    1.0000 </r>
       <r>    1.5928    1.0000 </r>
       <r>    1.6280    1.0000 </r>
       <r>    1.7074    1.0000 </r>
       <r>    1.7979    1.0000 </r>
       <r>    2.1354    1.0000 </r>
       <r>    2.1797    1.0000 </r>
       <r>    2.1921    1.0000 </r>
       <r>    2.6998    1.0000 </r>
       <r>    2.9121    1.0000 </r>
       <r>    2.9527    1.0000 </r>
       <r>    3.0010    1.0000 </r>
       <r>    3.0857    1.0000 </r>
       <r>    3.6447    1.0000 </r>
       <r>    3.6763    1.0000 </r>
       <r>    3.8452    1.0000 </r>
       <r>    3.8683    1.0000 </r>
       <r>    3.8786    1.0000 </r>
       <r>    3.9794    1.0000 </r>
       <r>    4.2290    1.0000 </r>
       <r>    4.3821    1.0000 </r>
       <r>    4.8200    1.0000 </r>
       <r>    4.8434    1.0000 </r>
       <r>    4.9583    1.0000 </r>
       <r>    5.0063    1.0000 </r>
       <r>    5.2305    1.0000 </r>
       <r>    5.2324    1.0000 </r>
       <r>    5.3396    1.0000 </r>
       <r>    5.4297    1.0000 </r>
       <r>    5.4839    1.0000 </r>
       <r>    5.5629    1.0000 </r>
       <r>    5.6095    1.0000 </r>
       <r>    5.6558    1.0000 </r>
       <r>    6.1846    1.0000 </r>
       <r>    6.2583    1.0000 </r>
       <r>    6.9100    1.0000 </r>
       <r>    7.0479    1.0000 </r>
       <r>    7.2613    1.0000 </r>
       <r>    7.3341    1.0000 </r>
       <r>    8.2198    1.0000 </r>
       <r>    8.2209    1.0000 </r>
       <r>   10.7002    0.0000 </r>
       <r>   10.7004    0.0000 </r>
       <r>   11.0359    0.0000 </r>
       <r>   11.1339    0.0000 </r>
       <r>   11.4101    0.0000 </r>
       <r>   11.4293    0.0000 </r>
       <r>   12.0009    0.0000 </r>
       <r>   12.0808    0.0000 </r>
       <r>   12.1106    0.0000 </r>
       <r>   12.1788    0.0000 </r>
       <r>   12.3890    0.0000 </r>
       <r>   12.4388    0.0000 </r>
       <r>   13.0745    0.0000 </r>
       <r>   13.2040    0.0000 </r>
       <r>   13.7623    0.0000 </r>
       <r>   13.8621    0.0000 </r>
       <r>   14.2771    0.0000 </r>
       <r>   14.3424    0.0000 </r>
       <r>   14.4302    0.0000 </r>
       <r>   14.6438    0.0000 </r>
      </set>
      <set comment="kpoint 7">
       <r>   -9.2936    1.0000 </r>
       <r>   -9.1905    1.0000 </r>
       <r>   -8.2305    1.0000 </r>
       <r>   -8.1516    1.0000 </r>
       <r>   -7.8570    1.0000 </r>
       <r>   -7.8021    1.0000 </r>
       <r>   -7.5251    1.0000 </r>
       <r>   -7.3226    1.0000 </r>
       <r>   -7.1689    1.0000 </r>
       <r>   -7.1014    1.0000 </r>
       <r>   -3.9799    1.0000 </r>
       <r>   -3.8616    1.0000 </r>
       <r>   -3.3371    1.0000 </r>
       <r>   -3.1725    1.0000 </r>
       <r>   -1.9702    1.0000 </r>
       <r>   -1.9520    1.0000 </r>
       <r>   -0.7366    1.0000 </r>
       <r>   -0.3542    1.0000 </r>
       <r>    0.1186    1.0000 </r>
       <r>    0.2124    1.0000 </r>
       <r>    0.4465    1.0000 </r>
       <r>    0.8053    1.0000 </r>
       <r>    0.8064    1.0000 </r>
       <r>    1.3367    1.0000 </r>
       <r>    1.4917    1.0000 </r>
       <r>    1.7186    1.0000 </r>
       <r>    1.8014    1.0000 </r>
       <r>    1.9205    1.0000 </r>
       <r>    2.0126    1.0000 </r>
       <r>    2.3091    1.0000 </r>
       <r>    2.5090    1.0000 </r>
       <r>    2.5388    1.0000 </r>
       <r>    2.6108    1.0000 </r>
       <r>    2.6325    1.0000 </r>
       <r>    2.9073    1.0000 </r>
       <r>    3.1709    1.0000 </r>
       <r>    3.1943    1.0000 </r>
       <r>    3.4066    1.0000 </r>
       <r>    3.5913    1.0000 </r>
       <r>    3.7129    1.0000 </r>
       <r>    3.7239    1.0000 </r>
       <r>    3.9246    1.0000 </r>
       <r>    4.0173    1.0000 </r>
       <r>    4.3383    1.0000 </r>
       <r>    4.3685    1.0000 </r>
       <r>    4.4254    1.0000 </r>
       <r>    4.4886    1.0000 </r>
       <r>    4.7616    1.0000 </r>
       <r>    4.9519    1.0000 </r>
       <r>    5.1074    1.0000 </r>
       <r>    5.3646    1.0000 </r>
       <r>    5.3976    1.0000 </r>
       <r>    5.6132    1.0000 </r>
       <r>    5.7175    1.0000 </r>
       <r>    5.8480    1.0000 </r>
       <r>    6.0766    1.0000 </r>
       <r>    6.2462    1.0000 </r>
       <r>    6.4169    1.0000 </r>
       <r>    6.8498    1.0000 </r>
       <r>    7.0372    1.0000 </r>
       <r>    7.1744    1.0000 </r>
       <r>    7.2042    1.0000 </r>
       <r>    7.4096    1.0000 </r>
       <r>    7.4870    1.0000 </r>
       <r>   11.0900    0.0000 </r>
       <r>   11.3399    0.0000 </r>
       <r>   11.6406    0.0000 </r>
       <r>   11.6539    0.0000 </r>
       <r>   11.9816    0.0000 </r>
       <r>   12.0451    0.0000 </r>
       <r>   12.3335    0.0000 </r>
       <r>   12.5859    0.0000 </r>
       <r>   12.7203    0.0000 </r>
       <r>   12.7583    0.0000 </r>
       <r>   13.0871    0.0000 </r>
       <r>   13.1256    0.0000 </r>
       <r>   13.2096    0.0000 </r>
       <r>   13.3793    0.0000 </r>
       <r>   13.3886    0.0000 </r>
       <r>   13.5116    0.0000 </r>
       <r>   14.1014    0.0000 </r>
       <r>   14.2391    0.0000 </r>
       <r>   14.3869    0.0000 </r>
       <r>   14.6576    0.0000 </r>
      </set>
      <set comment="kpoint 8">
       <r>   -9.2469    1.0000 </r>
       <r>   -9.2401    1.0000 </r>
       <r>   -8.2048    1.0000 </r>
       <r>   -8.1900    1.0000 </r>
       <r>   -7.8448    1.0000 </r>
       <r>   -7.8169    1.0000 </r>
       <r>   -7.4362    1.0000 </r>
       <r>   -7.3980    1.0000 </r>
       <r>   -7.1316    1.0000 </r>
       <r>   -7.1302    1.0000 </r>
       <r>   -3.9453    1.0000 </r>
       <r>   -3.9306    1.0000 </r>
       <r>   -3.2476    1.0000 </r>
       <r>   -3.2427    1.0000 </r>
       <r>   -1.9756    1.0000 </r>
       <r>   -1.9412    1.0000 </r>
       <r>   -0.5560    1.0000 </r>
       <r>   -0.5460    1.0000 </r>
       <r>    0.0735    1.0000 </r>
       <r>    0.1267    1.0000 </r>
       <r>    0.6709    1.0000 </r>
       <r>    0.7247    1.0000 </r>
       <r>    1.0737    1.0000 </r>
       <r>    1.1255    1.0000 </r>
       <r>    1.3990    1.0000 </r>
       <r>    1.6422    1.0000 </r>
       <r>    1.7874    1.0000 </r>
       <r>    2.0891    1.0000 </r>
       <r>    2.1946    1.0000 </r>
       <r>    2.2190    1.0000 </r>
       <r>    2.4526    1.0000 </r>
       <r>    2.5095    1.0000 </r>
       <r>    2.7047    1.0000 </r>
       <r>    2.7132    1.0000 </r>
       <r>    2.8089    1.0000 </r>
       <r>    2.9732    1.0000 </r>
       <r>    3.1938    1.0000 </r>
       <r>    3.2991    1.0000 </r>
       <r>    3.6343    1.0000 </r>
       <r>    3.7285    1.0000 </r>
       <r>    3.9042    1.0000 </r>
       <r>    3.9728    1.0000 </r>
       <r>    4.0735    1.0000 </r>
       <r>    4.1672    1.0000 </r>
       <r>    4.3157    1.0000 </r>
       <r>    4.3547    1.0000 </r>
       <r>    4.4640    1.0000 </r>
       <r>    4.5892    1.0000 </r>
       <r>    5.1507    1.0000 </r>
       <r>    5.1926    1.0000 </r>
       <r>    5.4095    1.0000 </r>
       <r>    5.4757    1.0000 </r>
       <r>    5.5834    1.0000 </r>
       <r>    5.6009    1.0000 </r>
       <r>    5.9329    1.0000 </r>
       <r>    5.9866    1.0000 </r>
       <r>    6.3051    1.0000 </r>
       <r>    6.4459    1.0000 </r>
       <r>    6.8152    1.0000 </r>
       <r>    6.9122    1.0000 </r>
       <r>    7.2986    1.0000 </r>
       <r>    7.3500    1.0000 </r>
       <r>    7.4047    1.0000 </r>
       <r>    7.4645    1.0000 </r>
       <r>   11.3232    0.0000 </r>
       <r>   11.3400    0.0000 </r>
       <r>   11.6257    0.0000 </r>
       <r>   11.7096    0.0000 </r>
       <r>   11.9595    0.0000 </r>
       <r>   11.9772    0.0000 </r>
       <r>   12.2634    0.0000 </r>
       <r>   12.3413    0.0000 </r>
       <r>   12.5183    0.0000 </r>
       <r>   12.5840    0.0000 </r>
       <r>   12.7436    0.0000 </r>
       <r>   12.9051    0.0000 </r>
       <r>   13.1552    0.0000 </r>
       <r>   13.4524    0.0000 </r>
       <r>   13.7627    0.0000 </r>
       <r>   13.9059    0.0000 </r>
       <r>   14.0799    0.0000 </r>
       <r>   14.3427    0.0000 </r>
       <r>   14.4021    0.0000 </r>
       <r>   14.5686    0.0000 </r>
      </set>
      <set comment="kpoint 9">
       <r>   -8.9728    1.0000 </r>
       <r>   -8.7951    1.0000 </r>
       <r>   -8.5889    1.0000 </r>
       <r>   -8.5124    1.0000 </r>
       <r>   -7.7049    1.0000 </r>
       <r>   -7.6945    1.0000 </r>
       <r>   -7.6802    1.0000 </r>
       <r>   -7.4035    1.0000 </r>
       <r>   -7.1345    1.0000 </r>
       <r>   -7.1136    1.0000 </r>
       <r>   -3.9299    1.0000 </r>
       <r>   -3.7398    1.0000 </r>
       <r>   -3.6545    1.0000 </r>
       <r>   -3.2002    1.0000 </r>
       <r>   -1.9620    1.0000 </r>
       <r>   -1.8481    1.0000 </r>
       <r>   -1.2723    1.0000 </r>
       <r>   -0.8539    1.0000 </r>
       <r>   -0.5148    1.0000 </r>
       <r>   -0.2221    1.0000 </r>
       <r>    0.3563    1.0000 </r>
       <r>    0.9093    1.0000 </r>
       <r>    1.0198    1.0000 </r>
       <r>    1.0201    1.0000 </r>
       <r>    1.2178    1.0000 </r>
       <r>    1.6736    1.0000 </r>
       <r>    1.8834    1.0000 </r>
       <r>    2.0424    1.0000 </r>
       <r>    2.1828    1.0000 </r>
       <r>    2.2547    1.0000 </r>
       <r>    2.5062    1.0000 </r>
       <r>    2.6248    1.0000 </r>
       <r>    2.9230    1.0000 </r>
       <r>    2.9446    1.0000 </r>
       <r>    3.0795    1.0000 </r>
       <r>    3.2893    1.0000 </r>
       <r>    3.3804    1.0000 </r>
       <r>    3.6585    1.0000 </r>
       <r>    3.7221    1.0000 </r>
       <r>    3.9506    1.0000 </r>
       <r>    4.2251    1.0000 </r>
       <r>    4.2451    1.0000 </r>
       <r>    4.3474    1.0000 </r>
       <r>    4.3896    1.0000 </r>
       <r>    4.5734    1.0000 </r>
       <r>    4.6750    1.0000 </r>
       <r>    4.7077    1.0000 </r>
       <r>    4.8242    1.0000 </r>
       <r>    5.3279    1.0000 </r>
       <r>    5.4358    1.0000 </r>
       <r>    5.4536    1.0000 </r>
       <r>    5.5967    1.0000 </r>
       <r>    5.6871    1.0000 </r>
       <r>    5.7957    1.0000 </r>
       <r>    5.8126    1.0000 </r>
       <r>    6.0753    1.0000 </r>
       <r>    6.1729    1.0000 </r>
       <r>    6.3094    1.0000 </r>
       <r>    6.7741    1.0000 </r>
       <r>    7.0635    1.0000 </r>
       <r>    7.4279    1.0000 </r>
       <r>    7.5575    1.0000 </r>
       <r>    8.0647    1.0000 </r>
       <r>    8.2077    1.0000 </r>
       <r>   10.4009    0.0000 </r>
       <r>   10.5249    0.0000 </r>
       <r>   11.0597    0.0000 </r>
       <r>   11.1077    0.0000 </r>
       <r>   11.3144    0.0000 </r>
       <r>   11.6297    0.0000 </r>
       <r>   11.7757    0.0000 </r>
       <r>   12.0710    0.0000 </r>
       <r>   12.1577    0.0000 </r>
       <r>   12.2025    0.0000 </r>
       <r>   12.3946    0.0000 </r>
       <r>   12.4099    0.0000 </r>
       <r>   12.6810    0.0000 </r>
       <r>   13.2735    0.0000 </r>
       <r>   13.5992    0.0000 </r>
       <r>   13.7204    0.0000 </r>
       <r>   13.7846    0.0000 </r>
       <r>   14.1842    0.0000 </r>
       <r>   14.3778    0.0000 </r>
       <r>   14.7208    0.0000 </r>
      </set>
      <set comment="kpoint 10">
       <r>   -8.8908    1.0000 </r>
       <r>   -8.8908    1.0000 </r>
       <r>   -8.5550    1.0000 </r>
       <r>   -8.5550    1.0000 </r>
       <r>   -7.6926    1.0000 </r>
       <r>   -7.6926    1.0000 </r>
       <r>   -7.5385    1.0000 </r>
       <r>   -7.5385    1.0000 </r>
       <r>   -7.1241    1.0000 </r>
       <r>   -7.1241    1.0000 </r>
       <r>   -3.8048    1.0000 </r>
       <r>   -3.8048    1.0000 </r>
       <r>   -3.5009    1.0000 </r>
       <r>   -3.5009    1.0000 </r>
       <r>   -1.8829    1.0000 </r>
       <r>   -1.8829    1.0000 </r>
       <r>   -1.0802    1.0000 </r>
       <r>   -1.0802    1.0000 </r>
       <r>   -0.1262    1.0000 </r>
       <r>   -0.1262    1.0000 </r>
       <r>    0.2901    1.0000 </r>
       <r>    0.2901    1.0000 </r>
       <r>    1.3132    1.0000 </r>
       <r>    1.3132    1.0000 </r>
       <r>    1.4872    1.0000 </r>
       <r>    1.4872    1.0000 </r>
       <r>    1.5014    1.0000 </r>
       <r>    1.5014    1.0000 </r>
       <r>    2.2609    1.0000 </r>
       <r>    2.2609    1.0000 </r>
       <r>    2.6047    1.0000 </r>
       <r>    2.6047    1.0000 </r>
       <r>    2.8512    1.0000 </r>
       <r>    2.8512    1.0000 </r>
       <r>    3.3984    1.0000 </r>
       <r>    3.3984    1.0000 </r>
       <r>    3.6469    1.0000 </r>
       <r>    3.6469    1.0000 </r>
       <r>    3.9670    1.0000 </r>
       <r>    3.9670    1.0000 </r>
       <r>    4.3035    1.0000 </r>
       <r>    4.3035    1.0000 </r>
       <r>    4.3075    1.0000 </r>
       <r>    4.3075    1.0000 </r>
       <r>    4.6767    1.0000 </r>
       <r>    4.6767    1.0000 </r>
       <r>    4.9085    1.0000 </r>
       <r>    4.9085    1.0000 </r>
       <r>    4.9908    1.0000 </r>
       <r>    4.9908    1.0000 </r>
       <r>    5.4831    1.0000 </r>
       <r>    5.4831    1.0000 </r>
       <r>    5.8045    1.0000 </r>
       <r>    5.8045    1.0000 </r>
       <r>    5.8164    1.0000 </r>
       <r>    5.8164    1.0000 </r>
       <r>    6.1817    1.0000 </r>
       <r>    6.1817    1.0000 </r>
       <r>    7.0505    1.0000 </r>
       <r>    7.0505    1.0000 </r>
       <r>    7.4111    1.0000 </r>
       <r>    7.4111    1.0000 </r>
       <r>    8.1380    1.0000 </r>
       <r>    8.1380    1.0000 </r>
       <r>   10.8242    0.0000 </r>
       <r>   10.8242    0.0000 </r>
       <r>   11.1921    0.0000 </r>
       <r>   11.1921    0.0000 </r>
       <r>   11.4144    0.0000 </r>
       <r>   11.4144    0.0000 </r>
       <r>   11.5597    0.0000 </r>
       <r>   11.5597    0.0000 </r>
       <r>   12.0507    0.0000 </r>
       <r>   12.0508    0.0000 </r>
       <r>   12.6574    0.0000 </r>
       <r>   12.6577    0.0000 </r>
       <r>   12.7921    0.0000 </r>
       <r>   12.7972    0.0000 </r>
       <r>   13.8090    0.0000 </r>
       <r>   13.8959    0.0000 </r>
       <r>   14.1116    0.0000 </r>
       <r>   14.1258    0.0000 </r>
       <r>   14.4304    0.0000 </r>
       <r>   14.6687    0.0000 </r>
      </set>
      <set comment="kpoint 11">
       <r>   -8.8304    1.0000 </r>
       <r>   -8.7094    1.0000 </r>
       <r>   -8.4761    1.0000 </r>
       <r>   -8.4465    1.0000 </r>
       <r>   -7.9709    1.0000 </r>
       <r>   -7.9258    1.0000 </r>
       <r>   -7.5737    1.0000 </r>
       <r>   -7.4268    1.0000 </r>
       <r>   -7.2334    1.0000 </r>
       <r>   -7.2283    1.0000 </r>
       <r>   -4.0151    1.0000 </r>
       <r>   -3.9191    1.0000 </r>
       <r>   -3.5207    1.0000 </r>
       <r>   -3.2049    1.0000 </r>
       <r>   -2.0666    1.0000 </r>
       <r>   -2.0435    1.0000 </r>
       <r>   -0.4898    1.0000 </r>
       <r>   -0.2997    1.0000 </r>
       <r>   -0.1680    1.0000 </r>
       <r>    0.0040    1.0000 </r>
       <r>    0.3279    1.0000 </r>
       <r>    0.8466    1.0000 </r>
       <r>    1.3853    1.0000 </r>
       <r>    1.4111    1.0000 </r>
       <r>    1.4398    1.0000 </r>
       <r>    1.5531    1.0000 </r>
       <r>    1.7371    1.0000 </r>
       <r>    1.9998    1.0000 </r>
       <r>    2.1818    1.0000 </r>
       <r>    2.2444    1.0000 </r>
       <r>    2.4880    1.0000 </r>
       <r>    2.5021    1.0000 </r>
       <r>    2.7965    1.0000 </r>
       <r>    3.0977    1.0000 </r>
       <r>    3.1278    1.0000 </r>
       <r>    3.1721    1.0000 </r>
       <r>    3.2456    1.0000 </r>
       <r>    3.3920    1.0000 </r>
       <r>    3.6030    1.0000 </r>
       <r>    3.6300    1.0000 </r>
       <r>    3.7681    1.0000 </r>
       <r>    4.0266    1.0000 </r>
       <r>    4.0639    1.0000 </r>
       <r>    4.1861    1.0000 </r>
       <r>    4.2266    1.0000 </r>
       <r>    4.3775    1.0000 </r>
       <r>    4.5298    1.0000 </r>
       <r>    4.7249    1.0000 </r>
       <r>    5.0626    1.0000 </r>
       <r>    5.1826    1.0000 </r>
       <r>    5.4894    1.0000 </r>
       <r>    5.6567    1.0000 </r>
       <r>    5.7780    1.0000 </r>
       <r>    5.8818    1.0000 </r>
       <r>    5.9982    1.0000 </r>
       <r>    6.1972    1.0000 </r>
       <r>    6.2882    1.0000 </r>
       <r>    6.3045    1.0000 </r>
       <r>    6.8702    1.0000 </r>
       <r>    7.0582    1.0000 </r>
       <r>    7.0720    1.0000 </r>
       <r>    7.2023    1.0000 </r>
       <r>    7.3093    1.0000 </r>
       <r>    7.4355    1.0000 </r>
       <r>   11.1871    0.0000 </r>
       <r>   11.3954    0.0000 </r>
       <r>   11.7045    0.0000 </r>
       <r>   11.9123    0.0000 </r>
       <r>   11.9816    0.0000 </r>
       <r>   12.1283    0.0000 </r>
       <r>   12.3969    0.0000 </r>
       <r>   12.4214    0.0000 </r>
       <r>   12.6507    0.0000 </r>
       <r>   12.6808    0.0000 </r>
       <r>   12.8054    0.0000 </r>
       <r>   13.0297    0.0000 </r>
       <r>   13.1936    0.0000 </r>
       <r>   13.3506    0.0000 </r>
       <r>   13.6339    0.0000 </r>
       <r>   13.7011    0.0000 </r>
       <r>   13.8073    0.0000 </r>
       <r>   13.9767    0.0000 </r>
       <r>   14.2048    0.0000 </r>
       <r>   14.3979    0.0000 </r>
      </set>
      <set comment="kpoint 12">
       <r>   -8.7730    1.0000 </r>
       <r>   -8.7730    1.0000 </r>
       <r>   -8.4606    1.0000 </r>
       <r>   -8.4606    1.0000 </r>
       <r>   -7.9511    1.0000 </r>
       <r>   -7.9511    1.0000 </r>
       <r>   -7.5055    1.0000 </r>
       <r>   -7.5055    1.0000 </r>
       <r>   -7.2186    1.0000 </r>
       <r>   -7.2186    1.0000 </r>
       <r>   -3.9753    1.0000 </r>
       <r>   -3.9753    1.0000 </r>
       <r>   -3.3660    1.0000 </r>
       <r>   -3.3660    1.0000 </r>
       <r>   -2.0627    1.0000 </r>
       <r>   -2.0627    1.0000 </r>
       <r>   -0.4019    1.0000 </r>
       <r>   -0.4019    1.0000 </r>
       <r>    0.0369    1.0000 </r>
       <r>    0.0369    1.0000 </r>
       <r>    0.3698    1.0000 </r>
       <r>    0.3698    1.0000 </r>
       <r>    1.5550    1.0000 </r>
       <r>    1.5550    1.0000 </r>
       <r>    1.6304    1.0000 </r>
       <r>    1.6304    1.0000 </r>
       <r>    1.9163    1.0000 </r>
       <r>    1.9163    1.0000 </r>
       <r>    2.0100    1.0000 </r>
       <r>    2.0100    1.0000 </r>
       <r>    2.6025    1.0000 </r>
       <r>    2.6025    1.0000 </r>
       <r>    2.7735    1.0000 </r>
       <r>    2.7735    1.0000 </r>
       <r>    3.1682    1.0000 </r>
       <r>    3.1682    1.0000 </r>
       <r>    3.3615    1.0000 </r>
       <r>    3.3615    1.0000 </r>
       <r>    3.6010    1.0000 </r>
       <r>    3.6010    1.0000 </r>
       <r>    3.8255    1.0000 </r>
       <r>    3.8255    1.0000 </r>
       <r>    4.1586    1.0000 </r>
       <r>    4.1586    1.0000 </r>
       <r>    4.2596    1.0000 </r>
       <r>    4.2596    1.0000 </r>
       <r>    4.5297    1.0000 </r>
       <r>    4.5297    1.0000 </r>
       <r>    5.3111    1.0000 </r>
       <r>    5.3111    1.0000 </r>
       <r>    5.5245    1.0000 </r>
       <r>    5.5245    1.0000 </r>
       <r>    5.8686    1.0000 </r>
       <r>    5.8686    1.0000 </r>
       <r>    6.1057    1.0000 </r>
       <r>    6.1057    1.0000 </r>
       <r>    6.3040    1.0000 </r>
       <r>    6.3040    1.0000 </r>
       <r>    6.8318    1.0000 </r>
       <r>    6.8318    1.0000 </r>
       <r>    7.3019    1.0000 </r>
       <r>    7.3019    1.0000 </r>
       <r>    7.3871    1.0000 </r>
       <r>    7.3871    1.0000 </r>
       <r>   11.4914    0.0000 </r>
       <r>   11.4915    0.0000 </r>
       <r>   11.7191    0.0000 </r>
       <r>   11.7191    0.0000 </r>
       <r>   11.9175    0.0000 </r>
       <r>   11.9176    0.0000 </r>
       <r>   12.2825    0.0000 </r>
       <r>   12.2825    0.0000 </r>
       <r>   12.7238    0.0000 </r>
       <r>   12.7240    0.0000 </r>
       <r>   12.8532    0.0000 </r>
       <r>   12.8540    0.0000 </r>
       <r>   13.1839    0.0000 </r>
       <r>   13.1849    0.0000 </r>
       <r>   13.4281    0.0000 </r>
       <r>   13.4497    0.0000 </r>
       <r>   13.6425    0.0000 </r>
       <r>   13.6670    0.0000 </r>
       <r>   14.3029    0.0000 </r>
       <r>   14.3433    0.0000 </r>
      </set>
     </set>
    </set>
   </array>
  </eigenvalues>
  <separator name="orbital magnetization" >
   <v name="MAGDIPOLOUT">      0.00000000      0.00000000      0.00000000</v>
  </separator>
  <dos>
   <i name="efermi">      8.81006260 </i>
   <total>
    <array>
     <dimension dim="1">gridpoints</dimension>
     <dimension dim="2">spin</dimension>
     <field>energy</field>
     <field>total</field>
     <field>integrated</field>
     <set>
      <set comment="spin 1">
       <r>   -10.9046     0.0000     0.0000 </r>
       <r>   -10.8137     0.0000     0.0000 </r>
       <r>   -10.7229     0.0000     0.0000 </r>
       <r>   -10.6320     0.0000     0.0000 </r>
       <r>   -10.5412     0.0000     0.0000 </r>
       <r>   -10.4503     0.0000     0.0000 </r>
       <r>   -10.3595     0.0000     0.0000 </r>
       <r>   -10.2687     0.0000     0.0000 </r>
       <r>   -10.1778     0.0000     0.0000 </r>
       <r>   -10.0870     0.0000     0.0000 </r>
       <r>    -9.9961     0.0000     0.0000 </r>
       <r>    -9.9053     0.0003     0.0000 </r>
       <r>    -9.8144     0.0173     0.0016 </r>
       <r>    -9.7236     0.2283     0.0223 </r>
       <r>    -9.6327     1.0206     0.1151 </r>
       <r>    -9.5419     2.5823     0.3496 </r>
       <r>    -9.4511     4.9332     0.7978 </r>
       <r>    -9.3602     6.2656     1.3670 </r>
       <r>    -9.2694     7.5264     2.0507 </r>
       <r>    -9.1785     7.1981     2.7046 </r>
       <r>    -9.0877     2.9220     2.9701 </r>
       <r>    -8.9968     0.7977     3.0425 </r>
       <r>    -8.9060     1.4828     3.1772 </r>
       <r>    -8.8151     3.0947     3.4584 </r>
       <r>    -8.7243     3.7492     3.7990 </r>
       <r>    -8.6335     2.4351     4.0202 </r>
       <r>    -8.5426     2.7425     4.2693 </r>
       <r>    -8.4518     4.8451     4.7095 </r>
       <r>    -8.3609     5.4000     5.2000 </r>
       <r>    -8.2701     5.9445     5.7401 </r>
       <r>    -8.1792     7.5489     6.4258 </r>
       <r>    -8.0884     5.8573     6.9579 </r>
       <r>    -7.9975     6.2707     7.5276 </r>
       <r>    -7.9067    12.3929     8.6534 </r>
       <r>    -7.8159    14.6311     9.9826 </r>
       <r>    -7.7250    10.3962    10.9270 </r>
       <r>    -7.6342     7.6625    11.6231 </r>
       <r>    -7.5433    10.6731    12.5927 </r>
       <r>    -7.4525    15.3109    13.9836 </r>
       <r>    -7.3616    13.8914    15.2455 </r>
       <r>    -7.2708     9.1540    16.0771 </r>
       <r>    -7.1799     9.2598    16.9183 </r>
       <r>    -7.0891    11.7522    17.9859 </r>
       <r>    -6.9983     9.8392    18.8798 </r>
       <r>    -6.9074     6.9692    19.5129 </r>
       <r>    -6.8166     3.7431    19.8529 </r>
       <r>    -6.7257     1.3898    19.9792 </r>
       <r>    -6.6349     0.2197    19.9991 </r>
       <r>    -6.5440     0.0094    20.0000 </r>
       <r>    -6.4532     0.0001    20.0000 </r>
       <r>    -6.3624     0.0000    20.0000 </r>
       <r>    -6.2715     0.0000    20.0000 </r>
       <r>    -6.1807     0.0000    20.0000 </r>
       <r>    -6.0898     0.0000    20.0000 </r>
       <r>    -5.9990     0.0000    20.0000 </r>
       <r>    -5.9081     0.0000    20.0000 </r>
       <r>    -5.8173     0.0000    20.0000 </r>
       <r>    -5.7264     0.0000    20.0000 </r>
       <r>    -5.6356     0.0000    20.0000 </r>
       <r>    -5.5448     0.0000    20.0000 </r>
       <r>    -5.4539     0.0000    20.0000 </r>
       <r>    -5.3631     0.0000    20.0000 </r>
       <r>    -5.2722     0.0000    20.0000 </r>
       <r>    -5.1814     0.0000    20.0000 </r>
       <r>    -5.0905     0.0000    20.0000 </r>
       <r>    -4.9997     0.0000    20.0000 </r>
       <r>    -4.9088     0.0000    20.0000 </r>
       <r>    -4.8180     0.0000    20.0000 </r>
       <r>    -4.7272     0.0000    20.0000 </r>
       <r>    -4.6363     0.0000    20.0000 </r>
       <r>    -4.5455     0.0000    20.0000 </r>
       <r>    -4.4546     0.0000    20.0000 </r>
       <r>    -4.3638     0.0000    20.0000 </r>
       <r>    -4.2729     0.0035    20.0003 </r>
       <r>    -4.1821     0.1240    20.0116 </r>
       <r>    -4.0912     1.4785    20.1459 </r>
       <r>    -4.0004     7.1200    20.7927 </r>
       <r>    -3.9096    14.2522    22.0874 </r>
       <r>    -3.8187    12.2930    23.2042 </r>
       <r>    -3.7279     6.3769    23.7835 </r>
       <r>    -3.6370     2.8068    24.0385 </r>
       <r>    -3.5462     2.0874    24.2281 </r>
       <r>    -3.4553     3.4638    24.5428 </r>
       <r>    -3.3645     5.5364    25.0457 </r>
       <r>    -3.2736     9.0806    25.8706 </r>
       <r>    -3.1828    11.8913    26.9509 </r>
       <r>    -3.0920     8.8533    27.7552 </r>
       <r>    -3.0011     2.4810    27.9805 </r>
       <r>    -2.9103     0.2096    27.9996 </r>
       <r>    -2.8194     0.0046    28.0000 </r>
       <r>    -2.7286     0.0000    28.0000 </r>
       <r>    -2.6377     0.0000    28.0000 </r>
       <r>    -2.5469     0.0000    28.0000 </r>
       <r>    -2.4560     0.0000    28.0000 </r>
       <r>    -2.3652     0.0001    28.0000 </r>
       <r>    -2.2744     0.0091    28.0008 </r>
       <r>    -2.1835     0.2998    28.0281 </r>
       <r>    -2.0927     2.5344    28.2583 </r>
       <r>    -2.0018     7.4891    28.9386 </r>
       <r>    -1.9110    10.4122    29.8845 </r>
       <r>    -1.8201     8.3590    30.6439 </r>
       <r>    -1.7293     6.3728    31.2228 </r>
       <r>    -1.6384     4.5876    31.6396 </r>
       <r>    -1.5476     2.3109    31.8495 </r>
       <r>    -1.4568     1.0734    31.9470 </r>
       <r>    -1.3659     0.5603    31.9979 </r>
       <r>    -1.2751     0.4666    32.0403 </r>
       <r>    -1.1842     0.5140    32.0870 </r>
       <r>    -1.0934     0.9267    32.1712 </r>
       <r>    -1.0025     1.9247    32.3461 </r>
       <r>    -0.9117     3.6512    32.6778 </r>
       <r>    -0.8209     6.7304    33.2892 </r>
       <r>    -0.7300     6.5882    33.8877 </r>
       <r>    -0.6392     4.0455    34.2552 </r>
       <r>    -0.5483     5.9967    34.7999 </r>
       <r>    -0.4575     7.5600    35.4867 </r>
       <r>    -0.3666     7.1328    36.1347 </r>
       <r>    -0.2758     6.1417    36.6926 </r>
       <r>    -0.1849     3.9590    37.0523 </r>
       <r>    -0.0941     3.5494    37.3747 </r>
       <r>    -0.0033     4.5051    37.7840 </r>
       <r>     0.0876     7.7982    38.4924 </r>
       <r>     0.1784     8.4981    39.2644 </r>
       <r>     0.2693     7.5399    39.9494 </r>
       <r>     0.3601     7.7952    40.6575 </r>
       <r>     0.4510     6.2957    41.2295 </r>
       <r>     0.5418     4.6306    41.6501 </r>
       <r>     0.6327     5.9930    42.1945 </r>
       <r>     0.7235     9.4694    43.0548 </r>
       <r>     0.8143     9.4398    43.9123 </r>
       <r>     0.9052     6.3263    44.4870 </r>
       <r>     0.9960     5.9836    45.0306 </r>
       <r>     1.0869     8.5136    45.8040 </r>
       <r>     1.1777     7.8969    46.5214 </r>
       <r>     1.2686     5.4353    47.0152 </r>
       <r>     1.3594     8.1441    47.7550 </r>
       <r>     1.4503    12.0632    48.8509 </r>
       <r>     1.5411    13.9545    50.1186 </r>
       <r>     1.6319    13.4587    51.3412 </r>
       <r>     1.7228    12.6244    52.4881 </r>
       <r>     1.8136    12.0015    53.5784 </r>
       <r>     1.9045    11.6917    54.6405 </r>
       <r>     1.9953    12.3440    55.7619 </r>
       <r>     2.0862    10.9827    56.7596 </r>
       <r>     2.1770    12.4381    57.8895 </r>
       <r>     2.2679    14.3876    59.1965 </r>
       <r>     2.3587    10.8319    60.1806 </r>
       <r>     2.4495    11.6296    61.2370 </r>
       <r>     2.5404    17.2006    62.7996 </r>
       <r>     2.6312    17.4852    64.3880 </r>
       <r>     2.7221    13.9037    65.6511 </r>
       <r>     2.8129    11.3005    66.6777 </r>
       <r>     2.9038    10.9560    67.6730 </r>
       <r>     2.9946    11.8067    68.7456 </r>
       <r>     3.0855    12.8292    69.9110 </r>
       <r>     3.1763    17.6149    71.5112 </r>
       <r>     3.2671    18.3339    73.1768 </r>
       <r>     3.3580    14.0738    74.4553 </r>
       <r>     3.4488    10.7869    75.4352 </r>
       <r>     3.5397     7.6736    76.1323 </r>
       <r>     3.6305    13.4053    77.3501 </r>
       <r>     3.7214    17.2452    78.9167 </r>
       <r>     3.8122    16.1634    80.3851 </r>
       <r>     3.9031    16.4222    81.8769 </r>
       <r>     3.9939    14.8668    83.2275 </r>
       <r>     4.0847    12.9187    84.4011 </r>
       <r>     4.1756    14.0442    85.6769 </r>
       <r>     4.2664    17.6884    87.2838 </r>
       <r>     4.3573    20.5306    89.1489 </r>
       <r>     4.4481    17.1985    90.7113 </r>
       <r>     4.5390    14.1234    91.9943 </r>
       <r>     4.6298    12.1373    93.0969 </r>
       <r>     4.7207     8.3567    93.8561 </r>
       <r>     4.8115     6.9935    94.4914 </r>
       <r>     4.9023     7.7393    95.1945 </r>
       <r>     4.9932    11.5369    96.2425 </r>
       <r>     5.0840    13.1975    97.4414 </r>
       <r>     5.1749    13.0630    98.6281 </r>
       <r>     5.2657    13.3681    99.8426 </r>
       <r>     5.3566    14.0735   101.1211 </r>
       <r>     5.4474    15.9880   102.5735 </r>
       <r>     5.5382    17.5454   104.1674 </r>
       <r>     5.6291    18.8832   105.8828 </r>
       <r>     5.7199    14.6298   107.2118 </r>
       <r>     5.8108    10.9017   108.2022 </r>
       <r>     5.9016    12.9688   109.3803 </r>
       <r>     5.9925    12.6979   110.5339 </r>
       <r>     6.0833    10.5707   111.4941 </r>
       <r>     6.1742    10.2626   112.4264 </r>
       <r>     6.2650    13.7597   113.6764 </r>
       <r>     6.3558    14.5844   115.0014 </r>
       <r>     6.4467     8.2650   115.7522 </r>
       <r>     6.5375     3.1443   116.0378 </r>
       <r>     6.6284     0.9273   116.1221 </r>
       <r>     6.7192     1.8129   116.2868 </r>
       <r>     6.8101     6.0739   116.8385 </r>
       <r>     6.9009    11.6755   117.8992 </r>
       <r>     6.9918    11.0308   118.9013 </r>
       <r>     7.0826     9.6048   119.7738 </r>
       <r>     7.1734     9.6030   120.6462 </r>
       <r>     7.2643    13.1306   121.8390 </r>
       <r>     7.3551    16.4077   123.3296 </r>
       <r>     7.4460    17.2895   124.9002 </r>
       <r>     7.5368    12.9983   126.0811 </r>
       <r>     7.6277     5.2880   126.5614 </r>
       <r>     7.7185     1.0482   126.6567 </r>
       <r>     7.8094     0.1062   126.6663 </r>
       <r>     7.9002     0.0139   126.6676 </r>
       <r>     7.9910     0.1725   126.6832 </r>
       <r>     8.0819     1.0663   126.7801 </r>
       <r>     8.1727     3.3129   127.0811 </r>
       <r>     8.2636     5.2596   127.5589 </r>
       <r>     8.3544     3.7453   127.8991 </r>
       <r>     8.4453     1.0235   127.9921 </r>
       <r>     8.5361     0.0854   127.9998 </r>
       <r>     8.6270     0.0018   128.0000 </r>
       <r>     8.7178     0.0000   128.0000 </r>
       <r>     8.8086     0.0000   128.0000 </r>
       <r>     8.8995     0.0000   128.0000 </r>
       <r>     8.9903     0.0000   128.0000 </r>
       <r>     9.0812     0.0000   128.0000 </r>
       <r>     9.1720     0.0000   128.0000 </r>
       <r>     9.2629     0.0000   128.0000 </r>
       <r>     9.3537     0.0000   128.0000 </r>
       <r>     9.4446     0.0000   128.0000 </r>
       <r>     9.5354     0.0000   128.0000 </r>
       <r>     9.6262     0.0000   128.0000 </r>
       <r>     9.7171     0.0000   128.0000 </r>
       <r>     9.8079     0.0000   128.0000 </r>
       <r>     9.8988     0.0010   128.0001 </r>
       <r>     9.9896     0.0333   128.0031 </r>
       <r>    10.0805     0.2498   128.0258 </r>
       <r>    10.1713     0.4451   128.0662 </r>
       <r>    10.2622     0.3745   128.1003 </r>
       <r>    10.3530     1.0481   128.1955 </r>
       <r>    10.4438     1.8911   128.3673 </r>
       <r>    10.5347     2.0315   128.5518 </r>
       <r>    10.6255     2.0461   128.7377 </r>
       <r>    10.7164     2.3910   128.9549 </r>
       <r>    10.8072     2.4721   129.1795 </r>
       <r>    10.8981     2.7469   129.4290 </r>
       <r>    10.9889     3.4005   129.7379 </r>
       <r>    11.0798     5.6531   130.2515 </r>
       <r>    11.1706     7.3755   130.9215 </r>
       <r>    11.2614     7.2181   131.5772 </r>
       <r>    11.3523     9.7338   132.4615 </r>
       <r>    11.4431    10.4414   133.4100 </r>
       <r>    11.5340     9.3002   134.2549 </r>
       <r>    11.6248    12.0661   135.3510 </r>
       <r>    11.7157    14.3143   136.6514 </r>
       <r>    11.8065    10.7545   137.6284 </r>
       <r>    11.8973     8.7290   138.4214 </r>
       <r>    11.9882    13.1434   139.6154 </r>
       <r>    12.0790    15.3003   141.0053 </r>
       <r>    12.1699    12.0018   142.0956 </r>
       <r>    12.2607    11.3047   143.1226 </r>
       <r>    12.3516    12.5108   144.2591 </r>
       <r>    12.4424    11.7125   145.3231 </r>
       <r>    12.5333     9.7529   146.2091 </r>
       <r>    12.6241     9.6527   147.0860 </r>
       <r>    12.7149    11.7531   148.1537 </r>
       <r>    12.8058    13.0724   149.3413 </r>
       <r>    12.8966    11.0670   150.3467 </r>
       <r>    12.9875     8.8932   151.1546 </r>
       <r>    13.0783     9.2244   151.9925 </r>
       <r>    13.1692    12.1885   153.0998 </r>
       <r>    13.2600    11.8156   154.1732 </r>
       <r>    13.3509     9.1721   155.0064 </r>
       <r>    13.4417    11.9531   156.0923 </r>
       <r>    13.5325    10.8893   157.0815 </r>
       <r>    13.6234     7.5622   157.7685 </r>
       <r>    13.7142     7.8564   158.4822 </r>
       <r>    13.8051     9.9939   159.3901 </r>
       <r>    13.8959    10.1522   160.3124 </r>
       <r>    13.9868     7.8682   161.0271 </r>
       <r>    14.0776     8.0639   161.7597 </r>
       <r>    14.1685     8.5306   162.5347 </r>
       <r>    14.2593     8.3944   163.2972 </r>
       <r>    14.3501    11.7692   164.3664 </r>
       <r>    14.4410    11.9926   165.4559 </r>
       <r>    14.5318     7.2076   166.1106 </r>
       <r>    14.6227     7.0157   166.7480 </r>
       <r>    14.7135     6.8497   167.3702 </r>
       <r>    14.8044     3.7758   167.7132 </r>
       <r>    14.8952     1.7369   167.8710 </r>
       <r>    14.9861     0.5001   167.9165 </r>
       <r>    15.0769     0.2952   167.9433 </r>
       <r>    15.1677     0.4347   167.9828 </r>
       <r>    15.2586     0.1734   167.9985 </r>
       <r>    15.3494     0.0160   168.0000 </r>
       <r>    15.4403     0.0003   168.0000 </r>
       <r>    15.5311     0.0000   168.0000 </r>
       <r>    15.6220     0.0000   168.0000 </r>
       <r>    15.7128     0.0000   168.0000 </r>
       <r>    15.8037     0.0000   168.0000 </r>
       <r>    15.8945     0.0000   168.0000 </r>
       <r>    15.9853     0.0000   168.0000 </r>
       <r>    16.0762     0.0000   168.0000 </r>
       <r>    16.1670     0.0000   168.0000 </r>
       <r>    16.2579     0.0000   168.0000 </r>
       <r>    16.3487     0.0000   168.0000 </r>
      </set>
     </set>
    </array>
   </total>
  </dos>
 </calculation>
 <structure name="finalpos" >
  <crystal>
   <varray name="basis" >
    <v>      10.91982684       0.00000000      -0.01883593 </v>
    <v>       0.00000000       6.27537933       0.00000000 </v>
    <v>      -0.00899350       0.00000000       4.99452693 </v>
   </varray>
   <i name="volume">    342.25416733 </i>
   <varray name="rec_basis" >
    <v>       0.09157683       0.00000000       0.00016490 </v>
    <v>       0.00000000       0.15935292       0.00000000 </v>
    <v>       0.00034536       0.00000000       0.20021978 </v>
   </varray>
  </crystal>
  <varray name="positions" >
   <v>       0.66820557       0.50000000       0.98520823 </v>
   <v>       0.57998432       0.75402691       0.49981846 </v>
   <v>       0.57998432       0.24597309       0.49981846 </v>
   <v>       0.16820557       0.00000000       0.98520823 </v>
   <v>       0.07998432       0.25402691       0.49981846 </v>
   <v>       0.07998432       0.74597309       0.49981846 </v>
   <v>       0.41502555       0.74544193       0.99901906 </v>
   <v>       0.41502555       0.25455807       0.99901906 </v>
   <v>       0.67016159       0.00000000       0.98759232 </v>
   <v>       0.33537279       0.50000000       0.50307863 </v>
   <v>       0.33769572       0.00000000       0.49858036 </v>
   <v>       0.91502555       0.24544193       0.99901906 </v>
   <v>       0.91502555       0.75455807       0.99901906 </v>
   <v>       0.17016159       0.50000000       0.98759232 </v>
   <v>       0.83537279       0.00000000       0.50307863 </v>
   <v>       0.83769572       0.50000000       0.49858036 </v>
   <v>       0.65637396       0.00000000       0.38796278 </v>
   <v>       0.33471526       0.50000000       0.88574188 </v>
   <v>       0.32612798       0.00000000       0.89115324 </v>
   <v>       0.15637396       0.50000000       0.38796278 </v>
   <v>       0.83471526       0.00000000       0.88574188 </v>
   <v>       0.82612798       0.50000000       0.89115324 </v>
   <v>       0.42742774       0.75042060       0.38738831 </v>
   <v>       0.42742774       0.24957940       0.38738831 </v>
   <v>       0.65426243       0.50000000       0.36397311 </v>
   <v>       0.58610475       0.73295759       0.86212889 </v>
   <v>       0.58610475       0.26704241       0.86212889 </v>
   <v>       0.92742774       0.25042060       0.38738831 </v>
   <v>       0.92742774       0.74957940       0.38738831 </v>
   <v>       0.15426243       0.00000000       0.36397311 </v>
   <v>       0.08610475       0.23295759       0.86212889 </v>
   <v>       0.08610475       0.76704241       0.86212889 </v>
  </varray>
 </structure>
</modeling>
