<?xml version="1.0" encoding="ISO-8859-1"?>
<modeling>
 <generator>
  <i name="program" type="string">vasp </i>
  <i name="version" type="string">5.3.5  </i>
  <i name="subversion" type="string">31Mar14 (build Jun 20 2014 13:15:13) complex                          parallel </i>
  <i name="platform" type="string">LinuxIFC </i>
  <i name="date" type="string">2025 12 12 </i>
  <i name="time" type="string">12:12:08 </i>
 </generator>
 <incar>
  <i type="string" name="PREC">accurate</i>
  <i type="int" name="IALGO">    38</i>
  <i type="logical" name="ADDGRID"> T  </i>
  <i type="int" name="ISPIN">     2</i>
  <i type="int" name="NELM">   100</i>
  <i type="int" name="NELMIN">     4</i>
  <i name="EDIFF">      0.00000100</i>
  <i name="ENCUT">    500.00000000</i>
  <i type="logical" name="LREAL"> F  </i>
  <i type="int" name="ISMEAR">     0</i>
  <i name="SIGMA">      0.05000000</i>
  <i type="logical" name="LWAVE"> F  </i>
  <i type="logical" name="LCHARG"> F  </i>
  <i type="int" name="NELM">   100</i>
  <i type="logical" name="LDAU"> T  </i>
  <v name="LDAUU">      0.00000000      4.00000000      0.00000000</v>
  <v name="LDAUJ">      0.00000000      0.00000000      0.00000000</v>
 </incar>
 <kpoints>
  <generation param="Auto">
   <i name="subdivisionlength">     20.00000000 </i>
   <v type="int" name="divisions">       4        4        2 </v>
   <v name="usershift">      0.00000000       0.00000000       0.00000000 </v>
   <v name="genvec1">      0.25000000       0.00000000       0.00000000 </v>
   <v name="genvec2">      0.00000000       0.25000000       0.00000000 </v>
   <v name="genvec3">      0.00000000       0.00000000       0.50000000 </v>
   <v name="shift">      0.00000000       0.00000000       0.00000000 </v>
  </generation>
  <varray name="kpointlist" >
   <v>       0.00000000       0.00000000       0.00000000 </v>
   <v>       0.25000000       0.00000000       0.00000000 </v>
   <v>       0.50000000       0.00000000       0.00000000 </v>
   <v>       0.00000000       0.25000000       0.00000000 </v>
   <v>       0.25000000       0.25000000       0.00000000 </v>
   <v>       0.50000000       0.25000000       0.00000000 </v>
   <v>      -0.25000000       0.25000000       0.00000000 </v>
   <v>       0.00000000       0.50000000       0.00000000 </v>
   <v>       0.25000000       0.50000000       0.00000000 </v>
   <v>       0.50000000       0.50000000       0.00000000 </v>
   <v>       0.00000000       0.00000000       0.50000000 </v>
   <v>       0.25000000       0.00000000       0.50000000 </v>
   <v>       0.50000000       0.00000000       0.50000000 </v>
   <v>       0.00000000       0.25000000       0.50000000 </v>
   <v>       0.25000000       0.25000000       0.50000000 </v>
   <v>       0.50000000       0.25000000       0.50000000 </v>
   <v>      -0.25000000       0.25000000       0.50000000 </v>
   <v>       0.00000000       0.50000000       0.50000000 </v>
   <v>       0.25000000       0.50000000       0.50000000 </v>
   <v>       0.50000000       0.50000000       0.50000000 </v>
  </varray>
  <varray name="weights" >
   <v>       0.03125000 </v>
   <v>       0.06250000 </v>
   <v>       0.03125000 </v>
   <v>       0.06250000 </v>
   <v>       0.06250000 </v>
   <v>       0.06250000 </v>
   <v>       0.06250000 </v>
   <v>       0.03125000 </v>
   <v>       0.06250000 </v>
   <v>       0.03125000 </v>
   <v>       0.03125000 </v>
   <v>       0.06250000 </v>
   <v>       0.03125000 </v>
   <v>       0.06250000 </v>
   <v>       0.06250000 </v>
   <v>       0.06250000 </v>
   <v>       0.06250000 </v>
   <v>       0.03125000 </v>
   <v>       0.06250000 </v>
   <v>       0.03125000 </v>
  </varray>
 </kpoints>
 <parameters>
  <separator name="general" >
   <i type="string" name="SYSTEM">unknown system</i>
   <i type="logical" name="LCOMPAT"> F  </i>
  </separator>
  <separator name="electronic" >
   <i type="string" name="PREC">accura</i>
   <i name="ENMAX">    500.00000000</i>
   <i name="ENAUG">    586.98000000</i>
   <i name="EDIFF">      0.00000100</i>
   <i type="int" name="IALGO">    38</i>
   <i type="int" name="IWAVPR">    10</i>
   <i type="int" name="NBANDS">    92</i>
   <i name="NELECT">    138.00000000</i>
   <i type="int" name="TURBO">     0</i>
   <i type="int" name="IRESTART">     0</i>
   <i type="int" name="NREBOOT">     0</i>
   <i type="int" name="NMIN">     0</i>
   <i name="EREF">      0.00000000</i>
   <separator name="electronic smearing" >
    <i type="int" name="ISMEAR">     0</i>
    <i name="SIGMA">      0.05000000</i>
    <i name="KSPACING">      0.50000000</i>
    <i type="logical" name="KGAMMA"> T  </i>
   </separator>
   <separator name="electronic projectors" >
    <i type="logical" name="LREAL"> F  </i>
    <v name="ROPT">      0.00000000      0.00000000      0.00000000</v>
    <i type="int" name="LMAXPAW">  -100</i>
    <i type="int" name="LMAXMIX">     2</i>
    <i type="logical" name="NLSPLINE"> F  </i>
   </separator>
   <separator name="electronic startup" >
    <i type="int" name="ISTART">     0</i>
    <i type="int" name="ICHARG">     2</i>
    <i type="int" name="INIWAV">     1</i>
   </separator>
   <separator name="electronic spin" >
    <i type="int" name="ISPIN">     2</i>
    <i type="logical" name="LNONCOLLINEAR"> F  </i>
    <v name="MAGMOM">      1.00000000      1.00000000      1.00000000      1.00000000      1.00000000      1.00000000      1.00000000      1.00000000      1.00000000      1.00000000      1.00000000      1.00000000      1.00000000      1.00000000      1.00000000      1.00000000      1.00000000</v>
    <i name="NUPDOWN">     -1.00000000</i>
    <i type="logical" name="LSORBIT"> F  </i>
    <v name="SAXIS">      0.00000000      0.00000000      1.00000000</v>
    <i type="logical" name="LSPIRAL"> F  </i>
    <v name="QSPIRAL">      0.00000000      0.00000000      0.00000000</v>
    <i type="logical" name="LZEROZ"> F  </i>
   </separator>
   <separator name="electronic exchange-correlation" >
    <i type="logical" name="LASPH"> F  </i>
    <i type="logical" name="LMETAGGA"> F  </i>
   </separator>
   <separator name="electronic convergence" >
    <i type="int" name="NELM">   100</i>
    <i type="int" name="NELMDL">    -5</i>
    <i type="int" name="NELMIN">     4</i>
    <i name="ENINI">    500.00000000</i>
    <separator name="electronic convergence detail" >
     <i type="logical" name="LDIAG"> T  </i>
     <i type="logical" name="LSUBROT"> F  </i>
     <i name="WEIMIN">      0.00000000</i>
     <i name="EBREAK">      0.00000000</i>
     <i name="DEPER">      0.30000000</i>
     <i type="int" name="NRMM">     4</i>
     <i name="TIME">      0.40000000</i>
    </separator>
   </separator>
   <separator name="electronic mixer" >
    <i name="AMIX">      0.40000000</i>
    <i name="BMIX">      1.00000000</i>
    <i name="AMIN">      0.10000000</i>
    <i name="AMIX_MAG">      1.60000000</i>
    <i name="BMIX_MAG">      1.00000000</i>
    <separator name="electronic mixer details" >
     <i type="int" name="IMIX">     4</i>
     <i type="int" name="MAXMIX">   -45</i>
     <i name="WC">    100.00000000</i>
     <i type="int" name="INIMIX">     1</i>
     <i type="int" name="MIXPRE">     1</i>
     <i type="int" name="MREMOVE">     5</i>
    </separator>
   </separator>
   <separator name="electronic dipolcorrection" >
    <i type="logical" name="LDIPOL"> F  </i>
    <i type="logical" name="LMONO"> F  </i>
    <i type="int" name="IDIPOL">     0</i>
    <i name="EPSILON">      1.00000000</i>
    <v name="DIPOL">   -100.00000000   -100.00000000   -100.00000000</v>
    <i name="EFIELD">      0.00000000</i>
   </separator>
  </separator>
  <separator name="grids" >
   <i type="int" name="NGX">    42</i>
   <i type="int" name="NGY">    42</i>
   <i type="int" name="NGZ">    72</i>
   <i type="int" name="NGXF">    84</i>
   <i type="int" name="NGYF">    84</i>
   <i type="int" name="NGZF">   144</i>
   <i type="logical" name="ADDGRID"> T  </i>
  </separator>
  <separator name="ionic" >
   <i type="int" name="NSW">     0</i>
   <i type="int" name="IBRION">    -1</i>
   <i type="int" name="ISIF">     2</i>
   <i name="PSTRESS">      0.00000000</i>
   <i name="EDIFFG">      0.00001000</i>
   <i type="int" name="NFREE">     0</i>
   <i name="POTIM">      0.50000000</i>
   <i name="SMASS">     -3.00000000</i>
   <i name="SCALEE">      1.00000000</i>
  </separator>
  <separator name="ionic md" >
   <i name="TEBEG">      0.00010000</i>
   <i name="TEEND">      0.00010000</i>
   <i type="int" name="NBLOCK">     1</i>
   <i type="int" name="KBLOCK">     1</i>
   <i type="int" name="NPACO">   256</i>
   <i name="APACO">     16.00000000</i>
  </separator>
  <separator name="symmetry" >
   <i type="int" name="ISYM">     2</i>
   <i name="SYMPREC">      0.00001000</i>
  </separator>
  <separator name="dos" >
   <i type="logical" name="LORBIT"> F  </i>
   <v name="RWIGS">     -1.00000000     -1.00000000     -1.00000000</v>
   <i type="int" name="NEDOS">   301</i>
   <i name="EMIN">     10.00000000</i>
   <i name="EMAX">    -10.00000000</i>
   <i name="EFERMI">      0.00000000</i>
  </separator>
  <separator name="writing" >
   <i type="int" name="NWRITE">     2</i>
   <i type="logical" name="LWAVE"> F  </i>
   <i type="logical" name="LCHARG"> F  </i>
   <i type="logical" name="LPARD"> F  </i>
   <i type="logical" name="LVTOT"> F  </i>
   <i type="logical" name="LVHAR"> F  </i>
   <i type="logical" name="LELF"> F  </i>
   <i type="logical" name="LOPTICS"> F  </i>
   <v name="STM">      0.00000000      0.00000000      0.00000000      0.00000000      0.00000000      0.00000000      0.00000000</v>
  </separator>
  <separator name="performance" >
   <i type="int" name="NPAR">     4</i>
   <i type="int" name="NSIM">     4</i>
   <i type="int" name="NBLK">    -1</i>
   <i type="logical" name="LPLANE"> T  </i>
   <i type="logical" name="LSCALAPACK"> T  </i>
   <i type="logical" name="LSCAAWARE"> F  </i>
   <i type="logical" name="LSCALU"> F  </i>
   <i type="logical" name="LASYNC"> F  </i>
   <i type="logical" name="LORBITALREAL"> F  </i>
  </separator>
  <separator name="miscellaneous" >
   <i type="int" name="IDIOT">     3</i>
   <i type="logical" name="LMUSIC"> F  </i>
   <v name="POMASS">     87.62000000     63.54600000     16.00000000</v>
   <v name="DARWINR">      0.00000000      0.00000000      0.00000000</v>
   <v name="DARWINV">      1.00000000      1.00000000      1.00000000</v>
   <i type="logical" name="LCORR"> T  </i>
  </separator>
  <i type="logical" name="GGA_COMPAT"> T  </i>
  <i type="logical" name="LBERRY"> F  </i>
  <i type="int" name="ICORELEVEL">     0</i>
  <i type="logical" name="LDAU"> T  </i>
  <v type="int" name="LDAUTYPE">     2</v>
  <v type="int" name="LDAUL">     2</v>
  <v name="LDAUU">      0.00000000</v>
  <v name="LDAUJ">      0.00000000</v>
  <i type="int" name="LDAUPRINT">     0</i>
  <i type="int" name="I_CONSTRAINED_M">     0</i>
  <separator name="electronic exchange-correlation" >
   <i type="string" name="GGA">--</i>
   <i type="int" name="VOSKOWN">     0</i>
   <i type="logical" name="LHFCALC"> F  </i>
   <i type="string" name="PRECFOCK"></i>
   <i type="logical" name="LSYMGRAD"> F  </i>
   <i type="logical" name="LHFONE"> F  </i>
   <i type="logical" name="LRHFCALC"> F  </i>
   <i type="logical" name="LTHOMAS"> F  </i>
   <i type="logical" name="LMODELHF"> F  </i>
   <i name="ENCUT4O">     -1.00000000</i>
   <i type="int" name="EXXOEP">     0</i>
   <i type="int" name="FOURORBIT">     0</i>
   <i name="AEXX">      0.00000000</i>
   <i name="HFALPHA">      0.00000000</i>
   <i name="MCALPHA">      0.00000000</i>
   <i name="ALDAX">      1.00000000</i>
   <i name="AGGAX">      1.00000000</i>
   <i name="ALDAC">      1.00000000</i>
   <i name="AGGAC">      1.00000000</i>
   <i type="int" name="NKREDX">     1</i>
   <i type="int" name="NKREDY">     1</i>
   <i type="int" name="NKREDZ">     1</i>
   <i type="logical" name="SHIFTRED"> F  </i>
   <i type="logical" name="ODDONLY"> F  </i>
   <i type="logical" name="EVENONLY"> F  </i>
   <i type="int" name="LMAXFOCK">     0</i>
   <i type="int" name="NMAXFOCKAE">     0</i>
   <i type="logical" name="LFOCKAEDFT"> F  </i>
   <i name="HFSCREEN">      0.00000000</i>
   <i name="HFSCREENC">      0.00000000</i>
   <i type="int" name="NBANDSGWLOW">     0</i>
  </separator>
  <separator name="vdW DFT" >
   <i type="logical" name="LUSE_VDW"> F  </i>
   <i name="Zab_VDW">     -0.84910000</i>
   <i name="PARAM1">      0.12340000</i>
   <i name="PARAM2">      1.00000000</i>
   <i name="PARAM3">      0.00000000</i>
  </separator>
  <separator name="model GW" >
   <i type="int" name="MODEL_GW">     0</i>
   <i name="MODEL_EPS0">      9.03529412</i>
   <i name="MODEL_ALPHA">      1.00000000</i>
  </separator>
  <separator name="linear response parameters" >
   <i type="logical" name="LEPSILON"> F  </i>
   <i type="logical" name="LRPA"> F  </i>
   <i type="logical" name="LNABLA"> F  </i>
   <i type="logical" name="LVEL"> F  </i>
   <i type="int" name="KINTER">     0</i>
   <i name="CSHIFT">      0.10000000</i>
   <i name="OMEGAMAX">     -1.00000000</i>
   <i name="DEG_THRESHOLD">      0.00200000</i>
  </separator>
  <separator name="orbital magnetization" >
   <i type="logical" name="NUCIND"> F  </i>
   <v name="MAGPOS">      0.00000000      0.00000000      0.00000000</v>
   <i type="logical" name="LNICSALL"> T  </i>
   <i type="logical" name="ORBITALMAG"> F  </i>
   <i type="logical" name="LMAGBLOCH"> F  </i>
   <i type="logical" name="LCHIMAG"> F  </i>
   <i type="logical" name="LGAUGE"> T  </i>
   <i type="int" name="MAGATOM">     0</i>
   <v name="MAGDIPOL">      0.00000000      0.00000000      0.00000000</v>
   <v name="AVECCONST">      0.00000000      0.00000000      0.00000000</v>
  </separator>
  <separator name="response functions" >
   <i type="logical" name="LADDER"> F  </i>
   <i type="logical" name="LFXC"> F  </i>
   <i type="logical" name="LHARTREE"> T  </i>
   <i type="int" name="IBSE">     0</i>
   <i type="logical" name="LTCTE"> F  </i>
   <i type="logical" name="LTETE"> F  </i>
   <i type="logical" name="LTRIPLET"> F  </i>
   <i type="logical" name="LFXCEPS"> F  </i>
   <i type="logical" name="LFXHEG"> F  </i>
   <i type="logical" name="L2ORDER"> F  </i>
   <i type="logical" name="LUSEW"> F  </i>
   <i name="ENCUTGW">     -2.00000000</i>
   <i name="ENCUTGWSOFT">     -2.00000000</i>
   <i name="ENCUTLF">     -1.00000000</i>
   <i type="int" name="LMAXMP2">    -1</i>
   <i name="SCISSOR">      0.00000000</i>
   <i type="int" name="NOMEGA">     0</i>
   <i type="int" name="NOMEGAR">     0</i>
   <i type="int" name="NBANDSGW">    -1</i>
   <i type="int" name="NBANDSO">    -1</i>
   <i type="int" name="NBANDSV">    -1</i>
   <i type="int" name="NELM">   100</i>
   <i type="int" name="DIM">     3</i>
   <i type="int" name="ANTIRES">     0</i>
   <i name="OMEGAMAX">    -30.00000000</i>
   <i name="OMEGAMIN">    -30.00000000</i>
   <i name="OMEGATL">   -200.00000000</i>
   <i type="int" name="OMEGAGRID">     0</i>
   <i name="CSHIFT">     -0.10000000</i>
   <i type="logical" name="SELFENERGY"> F  </i>
   <i type="logical" name="LSPECTRAL"> F  </i>
   <i type="logical" name="ODDONLYGW"> F  </i>
   <i type="logical" name="EVENONLYGW"> F  </i>
   <i type="int" name="NKREDLFX">     1</i>
   <i type="int" name="NKREDLFY">     1</i>
   <i type="int" name="NKREDLFZ">     1</i>
   <i type="int" name="MAXMEM">  1800</i>
   <i type="int" name="TELESCOPE">     0</i>
   <i type="int" name="TAUPAR">     1</i>
  </separator>
  <separator name="External order field" >
   <i name="OFIELD_KAPPA">      0.00000000</i>
   <v name="OFIELD_K">      0.00000000      0.00000000      0.00000000</v>
   <i name="OFIELD_Q6_NEAR">      0.00000000</i>
   <i name="OFIELD_Q6_FAR">      0.00000000</i>
   <i name="OFIELD_A">      0.00000000</i>
  </separator>
 </parameters>
 <atominfo>
  <atoms>      17 </atoms>
  <types>       3 </types>
  <array name="atoms" >
   <dimension dim="1">ion</dimension>
   <field type="string">element</field>
   <field type="int">atomtype</field>
   <set>
    <rc><c>Sr</c><c>   1</c></rc>
    <rc><c>Sr</c><c>   1</c></rc>
    <rc><c>Sr</c><c>   1</c></rc>
    <rc><c>Sr</c><c>   1</c></rc>
    <rc><c>Cu</c><c>   2</c></rc>
    <rc><c>Cu</c><c>   2</c></rc>
    <rc><c>Cu</c><c>   2</c></rc>
    <rc><c>Cu</c><c>   2</c></rc>
    <rc><c>O </c><c>   3</c></rc>
    <rc><c>O </c><c>   3</c></rc>
    <rc><c>O </c><c>   3</c></rc>
    <rc><c>O </c><c>   3</c></rc>
    <rc><c>O </c><c>   3</c></rc>
    <rc><c>O </c><c>   3</c></rc>
    <rc><c>O </c><c>   3</c></rc>
    <rc><c>O </c><c>   3</c></rc>
    <rc><c>O </c><c>   3</c></rc>
   </set>
  </array>
  <array name="atomtypes" >
   <dimension dim="1">type</dimension>
   <field type="int">atomspertype</field>
   <field type="string">element</field>
   <field>mass</field>
   <field>valence</field>
   <field type="string">pseudopotential</field>
   <set>
    <rc><c>   4</c><c>Sr</c><c>     87.62000000</c><c>     10.00000000</c><c>  PAW_PBE Sr_sv 07Sep2000               </c></rc>
    <rc><c>   4</c><c>Cu</c><c>     63.54600000</c><c>     11.00000000</c><c>  PAW_PBE Cu 22Jun2005                  </c></rc>
    <rc><c>   9</c><c>O </c><c>     16.00000000</c><c>      6.00000000</c><c>  PAW_PBE O_s 07Sep2000                 </c></rc>
   </set>
  </array>
 </atominfo>
 <structure name="initialpos" >
  <crystal>
   <varray name="basis" >
    <v>       5.65685425       0.00000000       0.00000000 </v>
    <v>       2.82842712       4.89897949       0.00000000 </v>
    <v>       2.82842712       1.63299316       9.23760431 </v>
   </varray>
   <i name="volume">    256.00000000 </i>
   <varray name="rec_basis" >
    <v>       0.17677670      -0.10206207      -0.03608439 </v>
    <v>       0.00000000       0.20412415      -0.03608439 </v>
    <v>       0.00000000       0.00000000       0.10825318 </v>
   </varray>
  </crystal>
  <varray name="positions" >
   <v>       0.00000000       0.00000000       0.00000000 </v>
   <v>       0.75000000       0.75000000       0.75000000 </v>
   <v>       0.50000000       0.50000000       0.50000000 </v>
   <v>       0.25000000       0.25000000       0.25000000 </v>
   <v>       0.62500000       0.62500000       0.12500000 </v>
   <v>       0.37500000       0.37500000       0.87500000 </v>
   <v>       0.12500000       0.12500000       0.62500000 </v>
   <v>       0.87500000       0.87500000       0.37500000 </v>
   <v>       0.50000000       0.00000000       0.00000000 </v>
   <v>       0.00000000       0.50000000       0.50000000 </v>
   <v>       0.75000000       0.25000000       0.75000000 </v>
   <v>       0.50000000       0.00000000       0.50000000 </v>
   <v>       0.25000000       0.75000000       0.25000000 </v>
   <v>       0.50000000       0.50000000       0.00000000 </v>
   <v>       0.25000000       0.25000000       0.75000000 </v>
   <v>       0.00000000       0.00000000       0.50000000 </v>
   <v>       0.75000000       0.75000000       0.25000000 </v>
  </varray>
 </structure>
 <calculation>
  <scstep>
   <time name="dav">    4.42    4.42</time>
   <time name="total">    4.67    4.68</time>
   <energy>
    <i name="alphaZ">    635.64916683 </i>
    <i name="ewald">  -9115.94549955 </i>
    <i name="hartreedc">  -3820.25489031 </i>
    <i name="XCdc">    571.21486920 </i>
    <i name="pawpsdc">  10532.98817047 </i>
    <i name="pawaedc"> -10865.93268589 </i>
    <i name="eentropy">     -0.00304711 </i>
    <i name="bandstr">    968.97950934 </i>
    <i name="atom">  12827.37956309 </i>
    <i name="e_fr_energy">   1734.07515606 </i>
    <i name="e_wo_entrp">   1734.07820317 </i>
    <i name="e_0_energy">   1734.07667961 </i>
   </energy>
  </scstep>
  <scstep>
   <time name="dav">    4.80    4.80</time>
   <time name="total">    4.80    4.81</time>
   <energy>
    <i name="e_fr_energy">    153.75170338 </i>
    <i name="e_wo_entrp">    153.75897934 </i>
    <i name="e_0_energy">    153.75534136 </i>
   </energy>
  </scstep>
  <scstep>
   <time name="dav">    4.95    4.95</time>
   <time name="total">    4.95    4.96</time>
   <energy>
    <i name="e_fr_energy">    -87.18767429 </i>
    <i name="e_wo_entrp">    -87.16986337 </i>
    <i name="e_0_energy">    -87.17876883 </i>
   </energy>
  </scstep>
  <scstep>
   <time name="dav">    6.36    6.36</time>
   <time name="total">    6.36    6.38</time>
   <energy>
    <i name="e_fr_energy">   -105.45851945 </i>
    <i name="e_wo_entrp">   -105.43565757 </i>
    <i name="e_0_energy">   -105.44708851 </i>
   </energy>
  </scstep>
  <scstep>
   <time name="dav">    8.04    8.05</time>
   <time name="total">    8.52    8.53</time>
   <energy>
    <i name="e_fr_energy">   -106.49737176 </i>
    <i name="e_wo_entrp">   -106.47431245 </i>
    <i name="e_0_energy">   -106.48584211 </i>
   </energy>
  </scstep>
  <scstep>
   <time name="dav">    6.05    6.05</time>
   <time name="total">    6.76    6.78</time>
   <energy>
    <i name="e_fr_energy">    -98.21243777 </i>
    <i name="e_wo_entrp">    -98.19314246 </i>
    <i name="e_0_energy">    -98.20279011 </i>
   </energy>
  </scstep>
  <scstep>
   <time name="dav">    6.44    6.44</time>
   <time name="total">    7.15    7.16</time>
   <energy>
    <i name="e_fr_energy">    -85.70268340 </i>
    <i name="e_wo_entrp">    -85.68340337 </i>
    <i name="e_0_energy">    -85.69304339 </i>
   </energy>
  </scstep>
  <scstep>
   <time name="dav">    7.11    7.11</time>
   <time name="total">    7.82    7.84</time>
   <energy>
    <i name="e_fr_energy">    -91.09632170 </i>
    <i name="e_wo_entrp">    -91.08922676 </i>
    <i name="e_0_energy">    -91.09277423 </i>
   </energy>
  </scstep>
  <scstep>
   <time name="dav">    6.76    6.76</time>
   <time name="total">    7.47    7.49</time>
   <energy>
    <i name="e_fr_energy">    -88.88290427 </i>
    <i name="e_wo_entrp">    -88.87400573 </i>
    <i name="e_0_energy">    -88.87845500 </i>
   </energy>
  </scstep>
  <scstep>
   <time name="dav">    6.34    6.34</time>
   <time name="total">    7.05    7.07</time>
   <energy>
    <i name="e_fr_energy">    -85.53340437 </i>
    <i name="e_wo_entrp">    -85.52693614 </i>
    <i name="e_0_energy">    -85.53017025 </i>
   </energy>
  </scstep>
  <scstep>
   <time name="dav">    6.71    6.71</time>
   <time name="total">    7.44    7.45</time>
   <energy>
    <i name="e_fr_energy">    -84.06542557 </i>
    <i name="e_wo_entrp">    -84.05838133 </i>
    <i name="e_0_energy">    -84.06190345 </i>
   </energy>
  </scstep>
  <scstep>
   <time name="dav">    6.22    6.22</time>
   <time name="total">    6.94    6.96</time>
   <energy>
    <i name="e_fr_energy">    -84.23964808 </i>
    <i name="e_wo_entrp">    -84.23121674 </i>
    <i name="e_0_energy">    -84.23543241 </i>
   </energy>
  </scstep>
  <scstep>
   <time name="dav">    6.15    6.15</time>
   <time name="total">    6.85    6.87</time>
   <energy>
    <i name="e_fr_energy">    -84.22536644 </i>
    <i name="e_wo_entrp">    -84.21862390 </i>
    <i name="e_0_energy">    -84.22199517 </i>
   </energy>
  </scstep>
  <scstep>
   <time name="dav">    6.34    6.35</time>
   <time name="total">    7.05    7.07</time>
   <energy>
    <i name="e_fr_energy">    -84.21422372 </i>
    <i name="e_wo_entrp">    -84.20655215 </i>
    <i name="e_0_energy">    -84.21038794 </i>
   </energy>
  </scstep>
  <scstep>
   <time name="dav">    6.97    6.98</time>
   <time name="total">    7.68    7.70</time>
   <energy>
    <i name="e_fr_energy">    -84.17039634 </i>
    <i name="e_wo_entrp">    -84.16373917 </i>
    <i name="e_0_energy">    -84.16706776 </i>
   </energy>
  </scstep>
  <scstep>
   <time name="dav">    6.11    6.11</time>
   <time name="total">    6.81    6.83</time>
   <energy>
    <i name="e_fr_energy">    -84.14932582 </i>
    <i name="e_wo_entrp">    -84.14142322 </i>
    <i name="e_0_energy">    -84.14537452 </i>
   </energy>
  </scstep>
  <scstep>
   <time name="dav">    6.62    6.62</time>
   <time name="total">    7.32    7.34</time>
   <energy>
    <i name="e_fr_energy">    -84.14866844 </i>
    <i name="e_wo_entrp">    -84.14033216 </i>
    <i name="e_0_energy">    -84.14450030 </i>
   </energy>
  </scstep>
  <scstep>
   <time name="dav">    6.51    6.51</time>
   <time name="total">    7.21    7.23</time>
   <energy>
    <i name="e_fr_energy">    -84.14912220 </i>
    <i name="e_wo_entrp">    -84.14099589 </i>
    <i name="e_0_energy">    -84.14505904 </i>
   </energy>
  </scstep>
  <scstep>
   <time name="dav">    7.04    7.04</time>
   <time name="total">    7.74    7.76</time>
   <energy>
    <i name="e_fr_energy">    -84.14938947 </i>
    <i name="e_wo_entrp">    -84.14127024 </i>
    <i name="e_0_energy">    -84.14532985 </i>
   </energy>
  </scstep>
  <scstep>
   <time name="dav">    6.57    6.58</time>
   <time name="total">    7.28    7.30</time>
   <energy>
    <i name="e_fr_energy">    -84.14953430 </i>
    <i name="e_wo_entrp">    -84.14110390 </i>
    <i name="e_0_energy">    -84.14531910 </i>
   </energy>
  </scstep>
  <scstep>
   <time name="dav">    6.41    6.41</time>
   <time name="total">    7.12    7.14</time>
   <energy>
    <i name="e_fr_energy">    -84.14970802 </i>
    <i name="e_wo_entrp">    -84.14123472 </i>
    <i name="e_0_energy">    -84.14547137 </i>
   </energy>
  </scstep>
  <scstep>
   <time name="dav">    6.29    6.30</time>
   <time name="total">    7.25    7.27</time>
   <energy>
    <i name="e_fr_energy">    -84.14975829 </i>
    <i name="e_wo_entrp">    -84.14126947 </i>
    <i name="e_0_energy">    -84.14551388 </i>
   </energy>
  </scstep>
  <scstep>
   <time name="dav">    6.80    6.80</time>
   <time name="total">    7.50    7.53</time>
   <energy>
    <i name="e_fr_energy">    -84.14979489 </i>
    <i name="e_wo_entrp">    -84.14122193 </i>
    <i name="e_0_energy">    -84.14550841 </i>
   </energy>
  </scstep>
  <scstep>
   <time name="dav">    6.82    6.82</time>
   <time name="total">    7.77    7.78</time>
   <energy>
    <i name="e_fr_energy">    -84.14983992 </i>
    <i name="e_wo_entrp">    -84.14119525 </i>
    <i name="e_0_energy">    -84.14551759 </i>
   </energy>
  </scstep>
  <scstep>
   <time name="dav">    6.30    6.30</time>
   <time name="total">    7.01    7.03</time>
   <energy>
    <i name="e_fr_energy">    -84.14986710 </i>
    <i name="e_wo_entrp">    -84.14120529 </i>
    <i name="e_0_energy">    -84.14553619 </i>
   </energy>
  </scstep>
  <scstep>
   <time name="dav">    5.78    5.78</time>
   <time name="total">    6.49    6.50</time>
   <energy>
    <i name="e_fr_energy">    -84.14987937 </i>
    <i name="e_wo_entrp">    -84.14119804 </i>
    <i name="e_0_energy">    -84.14553871 </i>
   </energy>
  </scstep>
  <scstep>
   <time name="dav">    5.60    5.60</time>
   <time name="total">    6.31    6.32</time>
   <energy>
    <i name="e_fr_energy">    -84.14988914 </i>
    <i name="e_wo_entrp">    -84.14119149 </i>
    <i name="e_0_energy">    -84.14554032 </i>
   </energy>
  </scstep>
  <scstep>
   <time name="dav">    5.75    5.75</time>
   <time name="total">    6.46    6.48</time>
   <energy>
    <i name="e_fr_energy">    -84.14989697 </i>
    <i name="e_wo_entrp">    -84.14118339 </i>
    <i name="e_0_energy">    -84.14554018 </i>
   </energy>
  </scstep>
  <scstep>
   <time name="dav">    5.08    5.08</time>
   <time name="total">    5.79    5.81</time>
   <energy>
    <i name="e_fr_energy">    -84.14990304 </i>
    <i name="e_wo_entrp">    -84.14118416 </i>
    <i name="e_0_energy">    -84.14554360 </i>
   </energy>
  </scstep>
  <scstep>
   <time name="dav">    4.32    4.32</time>
   <time name="total">    5.03    5.05</time>
   <energy>
    <i name="e_fr_energy">    -84.14990658 </i>
    <i name="e_wo_entrp">    -84.14118177 </i>
    <i name="e_0_energy">    -84.14554417 </i>
   </energy>
  </scstep>
  <scstep>
   <time name="dav">    4.26    4.27</time>
   <time name="total">    4.98    4.99</time>
   <energy>
    <i name="e_fr_energy">    -84.14990909 </i>
    <i name="e_wo_entrp">    -84.14118146 </i>
    <i name="e_0_energy">    -84.14554528 </i>
   </energy>
  </scstep>
  <scstep>
   <time name="dav">    4.05    4.05</time>
   <time name="total">    4.77    4.78</time>
   <energy>
    <i name="e_fr_energy">    -84.14991066 </i>
    <i name="e_wo_entrp">    -84.14117965 </i>
    <i name="e_0_energy">    -84.14554516 </i>
   </energy>
  </scstep>
  <scstep>
   <time name="dav">    4.21    4.21</time>
   <time name="total">    4.93    4.94</time>
   <energy>
    <i name="e_fr_energy">    -84.14991200 </i>
    <i name="e_wo_entrp">    -84.14118117 </i>
    <i name="e_0_energy">    -84.14554658 </i>
   </energy>
  </scstep>
  <scstep>
   <time name="dav">    3.55    3.55</time>
   <time name="total">    3.79    3.80</time>
   <energy>
    <i name="alphaZ">    635.64916683 </i>
    <i name="ewald">  -9115.94549955 </i>
    <i name="hartreedc">  -3814.00248539 </i>
    <i name="XCdc">    571.36901814 </i>
    <i name="pawpsdc">  16296.52745442 </i>
    <i name="pawaedc"> -16667.65714462 </i>
    <i name="eentropy">     -0.00873276 </i>
    <i name="bandstr">   -817.46125276 </i>
    <i name="atom">  12827.37956309 </i>
    <i name="e_fr_energy">    -84.14991262 </i>
    <i name="e_wo_entrp">    -84.14117986 </i>
    <i name="e_0_energy">    -84.14554624 </i>
   </energy>
  </scstep>
  <structure>
   <crystal>
    <varray name="basis" >
     <v>       5.65685425       0.00000000       0.00000000 </v>
     <v>       2.82842712       4.89897949       0.00000000 </v>
     <v>       2.82842712       1.63299316       9.23760431 </v>
    </varray>
    <i name="volume">    256.00000000 </i>
    <varray name="rec_basis" >
     <v>       0.17677670      -0.10206207      -0.03608439 </v>
     <v>       0.00000000       0.20412415      -0.03608439 </v>
     <v>       0.00000000       0.00000000       0.10825318 </v>
    </varray>
   </crystal>
   <varray name="positions" >
    <v>       0.00000000       0.00000000       0.00000000 </v>
    <v>       0.75000000       0.75000000       0.75000000 </v>
    <v>       0.50000000       0.50000000       0.50000000 </v>
    <v>       0.25000000       0.25000000       0.25000000 </v>
    <v>       0.62500000       0.62500000       0.12500000 </v>
    <v>       0.37500000       0.37500000       0.87500000 </v>
    <v>       0.12500000       0.12500000       0.62500000 </v>
    <v>       0.87500000       0.87500000       0.37500000 </v>
    <v>       0.50000000       0.00000000       0.00000000 </v>
    <v>       0.00000000       0.50000000       0.50000000 </v>
    <v>       0.75000000       0.25000000       0.75000000 </v>
    <v>       0.50000000       0.00000000       0.50000000 </v>
    <v>       0.25000000       0.75000000       0.25000000 </v>
    <v>       0.50000000       0.50000000       0.00000000 </v>
    <v>       0.25000000       0.25000000       0.75000000 </v>
    <v>       0.00000000       0.00000000       0.50000000 </v>
    <v>       0.75000000       0.75000000       0.25000000 </v>
   </varray>
  </structure>
  <varray name="forces" >
   <v>       0.00000000       0.00000000       0.00000000 </v>
   <v>      -0.43191585       0.26384055      -0.89887986 </v>
   <v>       0.00000000       0.00000000       0.00000000 </v>
   <v>       0.43191585      -0.26384055       0.89887986 </v>
   <v>      -0.57158916       1.53046737      -0.09445293 </v>
   <v>       0.57158916      -1.53046737       0.09445293 </v>
   <v>      -0.32629312       1.27573313      -0.86998650 </v>
   <v>       0.32629312      -1.27573313       0.86998650 </v>
   <v>       0.00000000       0.00000000       0.00000000 </v>
   <v>       0.00000000       0.00000000       0.00000000 </v>
   <v>       0.74128507      -0.50345630      -0.34650055 </v>
   <v>       0.00000000       0.00000000       0.00000000 </v>
   <v>      -0.74128507       0.50345630       0.34650055 </v>
   <v>       0.00000000       0.00000000       0.00000000 </v>
   <v>       0.20361022       0.56063873       0.91557008 </v>
   <v>       0.00000000       0.00000000       0.00000000 </v>
   <v>      -0.20361022      -0.56063873      -0.91557008 </v>
  </varray>
  <varray name="stress" >
   <v>     -84.53789561       6.27095075     -10.77368804 </v>
   <v>       6.27095138    -102.44787571       2.24173811 </v>
   <v>     -10.77368812       2.24173782     -83.63595604 </v>
  </varray>
  <energy>
   <i name="e_fr_energy">    -84.14991262 </i>
   <i name="e_wo_entrp">    -84.14554624 </i>
   <i name="e_0_energy">     -0.00873276 </i>
  </energy>
  <time name="totalsc">  231.54  232.13</time>
  <eigenvalues>
   <array>
    <dimension dim="1">band</dimension>
    <dimension dim="2">kpoint</dimension>
    <dimension dim="3">spin</dimension>
    <field>eigene</field>
    <field>occ</field>
    <set>
     <set comment="spin 1">
      <set comment="kpoint 1">
       <r>  -31.4986    1.0000 </r>
       <r>  -31.0455    1.0000 </r>
       <r>  -31.0447    1.0000 </r>
       <r>  -30.5965    1.0000 </r>
       <r>  -14.6559    1.0000 </r>
       <r>  -14.5810    1.0000 </r>
       <r>  -14.5145    1.0000 </r>
       <r>  -13.9984    1.0000 </r>
       <r>  -13.9334    1.0000 </r>
       <r>  -13.8346    1.0000 </r>
       <r>  -13.7333    1.0000 </r>
       <r>  -13.7079    1.0000 </r>
       <r>  -13.5960    1.0000 </r>
       <r>  -13.5754    1.0000 </r>
       <r>  -13.3225    1.0000 </r>
       <r>  -13.2784    1.0000 </r>
       <r>  -13.1738    1.0000 </r>
       <r>  -13.0186    1.0000 </r>
       <r>  -13.0105    1.0000 </r>
       <r>  -12.9883    1.0000 </r>
       <r>  -12.7739    1.0000 </r>
       <r>  -12.7315    1.0000 </r>
       <r>  -12.6087    1.0000 </r>
       <r>  -12.4808    1.0000 </r>
       <r>  -12.3947    1.0000 </r>
       <r>   -2.9837    1.0000 </r>
       <r>   -2.3024    1.0000 </r>
       <r>   -2.1276    1.0000 </r>
       <r>   -2.0769    1.0000 </r>
       <r>   -2.0132    1.0000 </r>
       <r>   -1.8703    1.0000 </r>
       <r>   -1.8005    1.0000 </r>
       <r>   -1.7515    1.0000 </r>
       <r>   -1.6301    1.0000 </r>
       <r>   -1.5937    1.0000 </r>
       <r>   -1.4296    1.0000 </r>
       <r>   -1.4229    1.0000 </r>
       <r>   -1.2146    1.0000 </r>
       <r>   -1.1416    1.0000 </r>
       <r>   -1.1043    1.0000 </r>
       <r>   -1.0949    1.0000 </r>
       <r>   -1.0617    1.0000 </r>
       <r>   -0.7246    1.0000 </r>
       <r>   -0.6878    1.0000 </r>
       <r>   -0.6762    1.0000 </r>
       <r>   -0.6026    1.0000 </r>
       <r>   -0.2128    1.0000 </r>
       <r>    0.1903    1.0000 </r>
       <r>    0.4136    1.0000 </r>
       <r>    0.5016    1.0000 </r>
       <r>    0.5254    1.0000 </r>
       <r>    0.7390    1.0000 </r>
       <r>    1.0455    1.0000 </r>
       <r>    1.1670    1.0000 </r>
       <r>    1.1974    1.0000 </r>
       <r>    1.3197    1.0000 </r>
       <r>    1.3380    1.0000 </r>
       <r>    1.3562    1.0000 </r>
       <r>    1.4457    1.0000 </r>
       <r>    1.4662    1.0000 </r>
       <r>    1.4812    1.0000 </r>
       <r>    1.5560    1.0000 </r>
       <r>    1.6281    1.0000 </r>
       <r>    1.8328    1.0000 </r>
       <r>    2.1171    1.0000 </r>
       <r>    2.2880    1.0000 </r>
       <r>    2.5072    0.9994 </r>
       <r>    2.5175    0.9983 </r>
       <r>    2.6083    0.6414 </r>
       <r>    2.8218    0.0000 </r>
       <r>    3.2251    0.0000 </r>
       <r>    3.2588    0.0000 </r>
       <r>    4.0353    0.0000 </r>
       <r>    4.9558    0.0000 </r>
       <r>    5.2981    0.0000 </r>
       <r>    7.4397    0.0000 </r>
       <r>    7.6357    0.0000 </r>
       <r>    8.1281    0.0000 </r>
       <r>    8.5428    0.0000 </r>
       <r>    8.7987    0.0000 </r>
       <r>    8.9203    0.0000 </r>
       <r>    8.9481    0.0000 </r>
       <r>    9.0710    0.0000 </r>
       <r>    9.2057    0.0000 </r>
       <r>    9.5058    0.0000 </r>
       <r>    9.5435    0.0000 </r>
       <r>    9.8371    0.0000 </r>
       <r>    9.8607    0.0000 </r>
       <r>    9.9551    0.0000 </r>
       <r>   10.4017    0.0000 </r>
       <r>   10.7079    0.0000 </r>
       <r>   10.7819    0.0000 </r>
      </set>
      <set comment="kpoint 2">
       <r>  -31.4981    1.0000 </r>
       <r>  -31.0452    1.0000 </r>
       <r>  -31.0446    1.0000 </r>
       <r>  -30.5964    1.0000 </r>
       <r>  -14.7994    1.0000 </r>
       <r>  -14.6156    1.0000 </r>
       <r>  -14.5157    1.0000 </r>
       <r>  -14.1896    1.0000 </r>
       <r>  -14.0437    1.0000 </r>
       <r>  -13.9153    1.0000 </r>
       <r>  -13.7780    1.0000 </r>
       <r>  -13.7057    1.0000 </r>
       <r>  -13.6069    1.0000 </r>
       <r>  -13.5207    1.0000 </r>
       <r>  -13.2496    1.0000 </r>
       <r>  -13.1688    1.0000 </r>
       <r>  -13.1028    1.0000 </r>
       <r>  -13.0275    1.0000 </r>
       <r>  -12.9274    1.0000 </r>
       <r>  -12.8292    1.0000 </r>
       <r>  -12.7522    1.0000 </r>
       <r>  -12.6645    1.0000 </r>
       <r>  -12.6372    1.0000 </r>
       <r>  -12.3556    1.0000 </r>
       <r>  -12.3102    1.0000 </r>
       <r>   -2.8364    1.0000 </r>
       <r>   -2.4129    1.0000 </r>
       <r>   -2.3019    1.0000 </r>
       <r>   -2.0330    1.0000 </r>
       <r>   -1.9929    1.0000 </r>
       <r>   -1.8959    1.0000 </r>
       <r>   -1.7319    1.0000 </r>
       <r>   -1.6770    1.0000 </r>
       <r>   -1.6444    1.0000 </r>
       <r>   -1.5306    1.0000 </r>
       <r>   -1.4945    1.0000 </r>
       <r>   -1.4286    1.0000 </r>
       <r>   -1.2675    1.0000 </r>
       <r>   -1.2344    1.0000 </r>
       <r>   -1.0364    1.0000 </r>
       <r>   -1.0165    1.0000 </r>
       <r>   -0.9149    1.0000 </r>
       <r>   -0.9038    1.0000 </r>
       <r>   -0.7243    1.0000 </r>
       <r>   -0.6887    1.0000 </r>
       <r>   -0.6613    1.0000 </r>
       <r>   -0.1033    1.0000 </r>
       <r>    0.0724    1.0000 </r>
       <r>    0.2403    1.0000 </r>
       <r>    0.4628    1.0000 </r>
       <r>    0.5892    1.0000 </r>
       <r>    0.7532    1.0000 </r>
       <r>    0.8982    1.0000 </r>
       <r>    1.0103    1.0000 </r>
       <r>    1.1068    1.0000 </r>
       <r>    1.2194    1.0000 </r>
       <r>    1.2658    1.0000 </r>
       <r>    1.3026    1.0000 </r>
       <r>    1.3917    1.0000 </r>
       <r>    1.4165    1.0000 </r>
       <r>    1.4841    1.0000 </r>
       <r>    1.6122    1.0000 </r>
       <r>    1.6640    1.0000 </r>
       <r>    1.8019    1.0000 </r>
       <r>    1.9753    1.0000 </r>
       <r>    2.1174    1.0000 </r>
       <r>    2.2501    1.0000 </r>
       <r>    2.3036    1.0000 </r>
       <r>    2.6561    0.1612 </r>
       <r>    2.8581    0.0000 </r>
       <r>    3.0621    0.0000 </r>
       <r>    3.5103    0.0000 </r>
       <r>    3.7551    0.0000 </r>
       <r>    5.4791    0.0000 </r>
       <r>    5.7006    0.0000 </r>
       <r>    7.6264    0.0000 </r>
       <r>    7.8712    0.0000 </r>
       <r>    8.4338    0.0000 </r>
       <r>    8.5075    0.0000 </r>
       <r>    8.8292    0.0000 </r>
       <r>    8.9273    0.0000 </r>
       <r>    9.0982    0.0000 </r>
       <r>    9.2726    0.0000 </r>
       <r>    9.5517    0.0000 </r>
       <r>    9.6435    0.0000 </r>
       <r>    9.7585    0.0000 </r>
       <r>    9.9875    0.0000 </r>
       <r>   10.0497    0.0000 </r>
       <r>   10.1371    0.0000 </r>
       <r>   10.2917    0.0000 </r>
       <r>   10.4076    0.0000 </r>
       <r>   10.6964    0.0000 </r>
      </set>
      <set comment="kpoint 3">
       <r>  -31.4976    1.0000 </r>
       <r>  -31.0448    1.0000 </r>
       <r>  -31.0446    1.0000 </r>
       <r>  -30.5963    1.0000 </r>
       <r>  -14.9210    1.0000 </r>
       <r>  -14.6264    1.0000 </r>
       <r>  -14.5118    1.0000 </r>
       <r>  -14.2941    1.0000 </r>
       <r>  -14.2248    1.0000 </r>
       <r>  -13.9241    1.0000 </r>
       <r>  -13.8568    1.0000 </r>
       <r>  -13.7159    1.0000 </r>
       <r>  -13.6674    1.0000 </r>
       <r>  -13.4194    1.0000 </r>
       <r>  -13.2023    1.0000 </r>
       <r>  -13.0962    1.0000 </r>
       <r>  -13.0799    1.0000 </r>
       <r>  -12.9681    1.0000 </r>
       <r>  -12.8714    1.0000 </r>
       <r>  -12.7377    1.0000 </r>
       <r>  -12.6909    1.0000 </r>
       <r>  -12.6160    1.0000 </r>
       <r>  -12.6059    1.0000 </r>
       <r>  -12.3023    1.0000 </r>
       <r>  -12.1826    1.0000 </r>
       <r>   -2.7028    1.0000 </r>
       <r>   -2.4876    1.0000 </r>
       <r>   -2.3839    1.0000 </r>
       <r>   -2.0507    1.0000 </r>
       <r>   -1.9985    1.0000 </r>
       <r>   -1.8972    1.0000 </r>
       <r>   -1.8127    1.0000 </r>
       <r>   -1.7730    1.0000 </r>
       <r>   -1.5366    1.0000 </r>
       <r>   -1.4330    1.0000 </r>
       <r>   -1.3663    1.0000 </r>
       <r>   -1.3461    1.0000 </r>
       <r>   -1.2923    1.0000 </r>
       <r>   -1.1903    1.0000 </r>
       <r>   -1.0732    1.0000 </r>
       <r>   -1.0652    1.0000 </r>
       <r>   -0.9846    1.0000 </r>
       <r>   -0.9350    1.0000 </r>
       <r>   -0.8952    1.0000 </r>
       <r>   -0.7555    1.0000 </r>
       <r>   -0.6506    1.0000 </r>
       <r>   -0.0117    1.0000 </r>
       <r>    0.0631    1.0000 </r>
       <r>    0.1141    1.0000 </r>
       <r>    0.4504    1.0000 </r>
       <r>    0.4821    1.0000 </r>
       <r>    0.8622    1.0000 </r>
       <r>    0.8807    1.0000 </r>
       <r>    0.9669    1.0000 </r>
       <r>    1.0331    1.0000 </r>
       <r>    1.0478    1.0000 </r>
       <r>    1.1551    1.0000 </r>
       <r>    1.3303    1.0000 </r>
       <r>    1.3348    1.0000 </r>
       <r>    1.4574    1.0000 </r>
       <r>    1.4764    1.0000 </r>
       <r>    1.5117    1.0000 </r>
       <r>    1.6988    1.0000 </r>
       <r>    1.7682    1.0000 </r>
       <r>    1.8063    1.0000 </r>
       <r>    1.9441    1.0000 </r>
       <r>    2.0896    1.0000 </r>
       <r>    2.1001    1.0000 </r>
       <r>    2.5488    0.9796 </r>
       <r>    2.6341    0.3565 </r>
       <r>    3.0777    0.0000 </r>
       <r>    3.1142    0.0000 </r>
       <r>    4.9130    0.0000 </r>
       <r>    5.3178    0.0000 </r>
       <r>    6.8241    0.0000 </r>
       <r>    7.2590    0.0000 </r>
       <r>    7.8205    0.0000 </r>
       <r>    8.1994    0.0000 </r>
       <r>    8.4401    0.0000 </r>
       <r>    8.5293    0.0000 </r>
       <r>    8.9837    0.0000 </r>
       <r>    9.1314    0.0000 </r>
       <r>    9.3733    0.0000 </r>
       <r>    9.8169    0.0000 </r>
       <r>    9.8724    0.0000 </r>
       <r>   10.0665    0.0000 </r>
       <r>   10.1359    0.0000 </r>
       <r>   10.1520    0.0000 </r>
       <r>   10.4460    0.0000 </r>
       <r>   10.5298    0.0000 </r>
       <r>   10.6576    0.0000 </r>
       <r>   10.6601    0.0000 </r>
      </set>
      <set comment="kpoint 4">
       <r>  -31.4982    1.0000 </r>
       <r>  -31.0451    1.0000 </r>
       <r>  -31.0445    1.0000 </r>
       <r>  -30.5964    1.0000 </r>
       <r>  -14.7377    1.0000 </r>
       <r>  -14.6789    1.0000 </r>
       <r>  -14.5629    1.0000 </r>
       <r>  -14.2046    1.0000 </r>
       <r>  -14.0374    1.0000 </r>
       <r>  -13.9255    1.0000 </r>
       <r>  -13.8497    1.0000 </r>
       <r>  -13.7281    1.0000 </r>
       <r>  -13.5347    1.0000 </r>
       <r>  -13.5124    1.0000 </r>
       <r>  -13.2787    1.0000 </r>
       <r>  -13.2027    1.0000 </r>
       <r>  -13.0888    1.0000 </r>
       <r>  -12.9966    1.0000 </r>
       <r>  -12.9064    1.0000 </r>
       <r>  -12.7815    1.0000 </r>
       <r>  -12.7088    1.0000 </r>
       <r>  -12.6938    1.0000 </r>
       <r>  -12.5577    1.0000 </r>
       <r>  -12.3865    1.0000 </r>
       <r>  -12.2914    1.0000 </r>
       <r>   -2.9299    1.0000 </r>
       <r>   -2.4077    1.0000 </r>
       <r>   -2.1803    1.0000 </r>
       <r>   -2.0436    1.0000 </r>
       <r>   -2.0226    1.0000 </r>
       <r>   -1.8970    1.0000 </r>
       <r>   -1.8661    1.0000 </r>
       <r>   -1.6454    1.0000 </r>
       <r>   -1.5790    1.0000 </r>
       <r>   -1.5388    1.0000 </r>
       <r>   -1.4840    1.0000 </r>
       <r>   -1.4058    1.0000 </r>
       <r>   -1.2265    1.0000 </r>
       <r>   -1.1970    1.0000 </r>
       <r>   -1.1678    1.0000 </r>
       <r>   -1.0395    1.0000 </r>
       <r>   -1.0187    1.0000 </r>
       <r>   -0.9150    1.0000 </r>
       <r>   -0.7595    1.0000 </r>
       <r>   -0.6753    1.0000 </r>
       <r>   -0.6274    1.0000 </r>
       <r>   -0.1165    1.0000 </r>
       <r>    0.0505    1.0000 </r>
       <r>    0.1132    1.0000 </r>
       <r>    0.3540    1.0000 </r>
       <r>    0.5341    1.0000 </r>
       <r>    0.7815    1.0000 </r>
       <r>    0.9357    1.0000 </r>
       <r>    1.0630    1.0000 </r>
       <r>    1.0940    1.0000 </r>
       <r>    1.2001    1.0000 </r>
       <r>    1.2928    1.0000 </r>
       <r>    1.3340    1.0000 </r>
       <r>    1.4024    1.0000 </r>
       <r>    1.4477    1.0000 </r>
       <r>    1.5227    1.0000 </r>
       <r>    1.5460    1.0000 </r>
       <r>    1.5808    1.0000 </r>
       <r>    1.8163    1.0000 </r>
       <r>    2.0305    1.0000 </r>
       <r>    2.0614    1.0000 </r>
       <r>    2.3449    1.0000 </r>
       <r>    2.4611    1.0000 </r>
       <r>    2.5744    0.9069 </r>
       <r>    2.7768    0.0000 </r>
       <r>    2.9779    0.0000 </r>
       <r>    3.6216    0.0000 </r>
       <r>    4.0957    0.0000 </r>
       <r>    5.4370    0.0000 </r>
       <r>    5.6943    0.0000 </r>
       <r>    7.6612    0.0000 </r>
       <r>    8.0131    0.0000 </r>
       <r>    8.4605    0.0000 </r>
       <r>    8.6233    0.0000 </r>
       <r>    8.7271    0.0000 </r>
       <r>    8.9623    0.0000 </r>
       <r>    9.1409    0.0000 </r>
       <r>    9.2307    0.0000 </r>
       <r>    9.3681    0.0000 </r>
       <r>    9.6246    0.0000 </r>
       <r>    9.8399    0.0000 </r>
       <r>    9.9386    0.0000 </r>
       <r>   10.0148    0.0000 </r>
       <r>   10.2284    0.0000 </r>
       <r>   10.4371    0.0000 </r>
       <r>   10.7212    0.0000 </r>
       <r>   10.7716    0.0000 </r>
      </set>
      <set comment="kpoint 5">
       <r>  -31.4982    1.0000 </r>
       <r>  -31.0452    1.0000 </r>
       <r>  -31.0446    1.0000 </r>
       <r>  -30.5964    1.0000 </r>
       <r>  -14.6806    1.0000 </r>
       <r>  -14.6278    1.0000 </r>
       <r>  -14.4373    1.0000 </r>
       <r>  -14.2416    1.0000 </r>
       <r>  -13.9936    1.0000 </r>
       <r>  -13.8927    1.0000 </r>
       <r>  -13.8083    1.0000 </r>
       <r>  -13.7367    1.0000 </r>
       <r>  -13.6960    1.0000 </r>
       <r>  -13.6299    1.0000 </r>
       <r>  -13.2357    1.0000 </r>
       <r>  -13.1770    1.0000 </r>
       <r>  -13.1491    1.0000 </r>
       <r>  -13.0455    1.0000 </r>
       <r>  -12.8886    1.0000 </r>
       <r>  -12.7990    1.0000 </r>
       <r>  -12.7504    1.0000 </r>
       <r>  -12.6916    1.0000 </r>
       <r>  -12.6323    1.0000 </r>
       <r>  -12.3440    1.0000 </r>
       <r>  -12.3078    1.0000 </r>
       <r>   -2.7340    1.0000 </r>
       <r>   -2.4917    1.0000 </r>
       <r>   -2.3140    1.0000 </r>
       <r>   -2.0259    1.0000 </r>
       <r>   -2.0094    1.0000 </r>
       <r>   -1.8896    1.0000 </r>
       <r>   -1.7120    1.0000 </r>
       <r>   -1.7044    1.0000 </r>
       <r>   -1.5915    1.0000 </r>
       <r>   -1.4305    1.0000 </r>
       <r>   -1.3534    1.0000 </r>
       <r>   -1.3070    1.0000 </r>
       <r>   -1.2578    1.0000 </r>
       <r>   -1.1663    1.0000 </r>
       <r>   -1.1399    1.0000 </r>
       <r>   -1.0864    1.0000 </r>
       <r>   -0.9080    1.0000 </r>
       <r>   -0.8735    1.0000 </r>
       <r>   -0.8163    1.0000 </r>
       <r>   -0.7637    1.0000 </r>
       <r>   -0.6599    1.0000 </r>
       <r>   -0.0627    1.0000 </r>
       <r>    0.1426    1.0000 </r>
       <r>    0.3560    1.0000 </r>
       <r>    0.5453    1.0000 </r>
       <r>    0.6235    1.0000 </r>
       <r>    0.7340    1.0000 </r>
       <r>    0.8761    1.0000 </r>
       <r>    1.0393    1.0000 </r>
       <r>    1.0987    1.0000 </r>
       <r>    1.2316    1.0000 </r>
       <r>    1.3174    1.0000 </r>
       <r>    1.3530    1.0000 </r>
       <r>    1.3998    1.0000 </r>
       <r>    1.4442    1.0000 </r>
       <r>    1.5114    1.0000 </r>
       <r>    1.5971    1.0000 </r>
       <r>    1.6561    1.0000 </r>
       <r>    1.7868    1.0000 </r>
       <r>    1.9484    1.0000 </r>
       <r>    1.9810    1.0000 </r>
       <r>    2.1299    1.0000 </r>
       <r>    2.2424    1.0000 </r>
       <r>    2.4348    1.0000 </r>
       <r>    2.7637    0.0000 </r>
       <r>    3.0404    0.0000 </r>
       <r>    3.6189    0.0000 </r>
       <r>    3.7268    0.0000 </r>
       <r>    5.4351    0.0000 </r>
       <r>    5.8222    0.0000 </r>
       <r>    7.3474    0.0000 </r>
       <r>    7.8564    0.0000 </r>
       <r>    8.2227    0.0000 </r>
       <r>    8.3874    0.0000 </r>
       <r>    8.6074    0.0000 </r>
       <r>    8.7297    0.0000 </r>
       <r>    9.1314    0.0000 </r>
       <r>    9.3953    0.0000 </r>
       <r>    9.4085    0.0000 </r>
       <r>    9.6212    0.0000 </r>
       <r>    9.8892    0.0000 </r>
       <r>   10.0185    0.0000 </r>
       <r>   10.1574    0.0000 </r>
       <r>   10.3694    0.0000 </r>
       <r>   10.4147    0.0000 </r>
       <r>   10.5423    0.0000 </r>
       <r>   10.7100    0.0000 </r>
      </set>
      <set comment="kpoint 6">
       <r>  -31.4978    1.0000 </r>
       <r>  -31.0448    1.0000 </r>
       <r>  -31.0446    1.0000 </r>
       <r>  -30.5963    1.0000 </r>
       <r>  -14.8235    1.0000 </r>
       <r>  -14.6253    1.0000 </r>
       <r>  -14.4989    1.0000 </r>
       <r>  -14.2696    1.0000 </r>
       <r>  -14.1147    1.0000 </r>
       <r>  -14.0312    1.0000 </r>
       <r>  -13.8957    1.0000 </r>
       <r>  -13.8458    1.0000 </r>
       <r>  -13.5672    1.0000 </r>
       <r>  -13.5245    1.0000 </r>
       <r>  -13.1866    1.0000 </r>
       <r>  -13.1161    1.0000 </r>
       <r>  -13.0700    1.0000 </r>
       <r>  -13.0127    1.0000 </r>
       <r>  -12.8376    1.0000 </r>
       <r>  -12.7537    1.0000 </r>
       <r>  -12.7114    1.0000 </r>
       <r>  -12.6494    1.0000 </r>
       <r>  -12.5447    1.0000 </r>
       <r>  -12.2819    1.0000 </r>
       <r>  -12.2058    1.0000 </r>
       <r>   -2.6833    1.0000 </r>
       <r>   -2.4183    1.0000 </r>
       <r>   -2.3392    1.0000 </r>
       <r>   -2.0397    1.0000 </r>
       <r>   -1.9943    1.0000 </r>
       <r>   -1.9121    1.0000 </r>
       <r>   -1.7331    1.0000 </r>
       <r>   -1.6858    1.0000 </r>
       <r>   -1.5546    1.0000 </r>
       <r>   -1.5314    1.0000 </r>
       <r>   -1.4396    1.0000 </r>
       <r>   -1.4069    1.0000 </r>
       <r>   -1.2547    1.0000 </r>
       <r>   -1.1967    1.0000 </r>
       <r>   -1.0728    1.0000 </r>
       <r>   -1.0421    1.0000 </r>
       <r>   -1.0235    1.0000 </r>
       <r>   -0.9130    1.0000 </r>
       <r>   -0.8674    1.0000 </r>
       <r>   -0.6234    1.0000 </r>
       <r>   -0.5382    1.0000 </r>
       <r>   -0.0492    1.0000 </r>
       <r>    0.0499    1.0000 </r>
       <r>    0.2085    1.0000 </r>
       <r>    0.4703    1.0000 </r>
       <r>    0.6672    1.0000 </r>
       <r>    0.8903    1.0000 </r>
       <r>    0.9160    1.0000 </r>
       <r>    0.9494    1.0000 </r>
       <r>    1.0179    1.0000 </r>
       <r>    1.0537    1.0000 </r>
       <r>    1.1690    1.0000 </r>
       <r>    1.2790    1.0000 </r>
       <r>    1.3028    1.0000 </r>
       <r>    1.3694    1.0000 </r>
       <r>    1.4806    1.0000 </r>
       <r>    1.5161    1.0000 </r>
       <r>    1.6480    1.0000 </r>
       <r>    1.7335    1.0000 </r>
       <r>    1.8261    1.0000 </r>
       <r>    1.8855    1.0000 </r>
       <r>    1.9832    1.0000 </r>
       <r>    2.1762    1.0000 </r>
       <r>    2.2752    1.0000 </r>
       <r>    2.7310    0.0009 </r>
       <r>    3.0228    0.0000 </r>
       <r>    3.0997    0.0000 </r>
       <r>    4.6893    0.0000 </r>
       <r>    5.5069    0.0000 </r>
       <r>    6.7336    0.0000 </r>
       <r>    7.3066    0.0000 </r>
       <r>    7.7155    0.0000 </r>
       <r>    8.0533    0.0000 </r>
       <r>    8.4898    0.0000 </r>
       <r>    8.5987    0.0000 </r>
       <r>    8.7082    0.0000 </r>
       <r>    8.9682    0.0000 </r>
       <r>    9.3418    0.0000 </r>
       <r>    9.6791    0.0000 </r>
       <r>    9.9018    0.0000 </r>
       <r>    9.9052    0.0000 </r>
       <r>   10.1750    0.0000 </r>
       <r>   10.3675    0.0000 </r>
       <r>   10.3726    0.0000 </r>
       <r>   10.5119    0.0000 </r>
       <r>   10.5593    0.0000 </r>
       <r>   10.6997    0.0000 </r>
      </set>
      <set comment="kpoint 7">
       <r>  -31.4978    1.0000 </r>
       <r>  -31.0447    1.0000 </r>
       <r>  -31.0444    1.0000 </r>
       <r>  -30.5963    1.0000 </r>
       <r>  -14.8434    1.0000 </r>
       <r>  -14.7145    1.0000 </r>
       <r>  -14.6183    1.0000 </r>
       <r>  -14.2438    1.0000 </r>
       <r>  -14.1499    1.0000 </r>
       <r>  -13.9871    1.0000 </r>
       <r>  -13.8973    1.0000 </r>
       <r>  -13.8271    1.0000 </r>
       <r>  -13.5209    1.0000 </r>
       <r>  -13.4325    1.0000 </r>
       <r>  -13.2593    1.0000 </r>
       <r>  -13.1006    1.0000 </r>
       <r>  -13.0144    1.0000 </r>
       <r>  -12.9626    1.0000 </r>
       <r>  -12.8694    1.0000 </r>
       <r>  -12.7165    1.0000 </r>
       <r>  -12.6850    1.0000 </r>
       <r>  -12.6228    1.0000 </r>
       <r>  -12.5143    1.0000 </r>
       <r>  -12.2708    1.0000 </r>
       <r>  -12.2138    1.0000 </r>
       <r>   -2.8246    1.0000 </r>
       <r>   -2.4650    1.0000 </r>
       <r>   -2.1367    1.0000 </r>
       <r>   -2.0540    1.0000 </r>
       <r>   -1.9010    1.0000 </r>
       <r>   -1.8916    1.0000 </r>
       <r>   -1.8739    1.0000 </r>
       <r>   -1.8099    1.0000 </r>
       <r>   -1.6715    1.0000 </r>
       <r>   -1.6306    1.0000 </r>
       <r>   -1.4898    1.0000 </r>
       <r>   -1.4457    1.0000 </r>
       <r>   -1.3044    1.0000 </r>
       <r>   -1.2381    1.0000 </r>
       <r>   -1.1115    1.0000 </r>
       <r>   -1.0239    1.0000 </r>
       <r>   -0.9738    1.0000 </r>
       <r>   -0.8698    1.0000 </r>
       <r>   -0.8078    1.0000 </r>
       <r>   -0.7069    1.0000 </r>
       <r>   -0.4750    1.0000 </r>
       <r>   -0.1592    1.0000 </r>
       <r>   -0.0530    1.0000 </r>
       <r>    0.2075    1.0000 </r>
       <r>    0.2869    1.0000 </r>
       <r>    0.7097    1.0000 </r>
       <r>    0.7777    1.0000 </r>
       <r>    0.8730    1.0000 </r>
       <r>    0.9237    1.0000 </r>
       <r>    0.9900    1.0000 </r>
       <r>    1.0991    1.0000 </r>
       <r>    1.1237    1.0000 </r>
       <r>    1.1786    1.0000 </r>
       <r>    1.2969    1.0000 </r>
       <r>    1.3812    1.0000 </r>
       <r>    1.5311    1.0000 </r>
       <r>    1.5855    1.0000 </r>
       <r>    1.6826    1.0000 </r>
       <r>    1.6973    1.0000 </r>
       <r>    1.7543    1.0000 </r>
       <r>    1.9574    1.0000 </r>
       <r>    2.0004    1.0000 </r>
       <r>    2.2937    1.0000 </r>
       <r>    2.7590    0.0000 </r>
       <r>    2.7957    0.0000 </r>
       <r>    2.8818    0.0000 </r>
       <r>    3.4375    0.0000 </r>
       <r>    4.6525    0.0000 </r>
       <r>    5.6356    0.0000 </r>
       <r>    6.3952    0.0000 </r>
       <r>    7.7040    0.0000 </r>
       <r>    8.1489    0.0000 </r>
       <r>    8.3726    0.0000 </r>
       <r>    8.5683    0.0000 </r>
       <r>    8.6122    0.0000 </r>
       <r>    8.8922    0.0000 </r>
       <r>    9.0766    0.0000 </r>
       <r>    9.2051    0.0000 </r>
       <r>    9.7176    0.0000 </r>
       <r>    9.9045    0.0000 </r>
       <r>    9.9860    0.0000 </r>
       <r>   10.0764    0.0000 </r>
       <r>   10.2494    0.0000 </r>
       <r>   10.3117    0.0000 </r>
       <r>   10.5416    0.0000 </r>
       <r>   10.5765    0.0000 </r>
       <r>   10.7278    0.0000 </r>
      </set>
      <set comment="kpoint 8">
       <r>  -31.4979    1.0000 </r>
       <r>  -31.0445    1.0000 </r>
       <r>  -31.0444    1.0000 </r>
       <r>  -30.5963    1.0000 </r>
       <r>  -14.8237    1.0000 </r>
       <r>  -14.7938    1.0000 </r>
       <r>  -14.5149    1.0000 </r>
       <r>  -14.3741    1.0000 </r>
       <r>  -14.1237    1.0000 </r>
       <r>  -14.0344    1.0000 </r>
       <r>  -13.8825    1.0000 </r>
       <r>  -13.8135    1.0000 </r>
       <r>  -13.4838    1.0000 </r>
       <r>  -13.4762    1.0000 </r>
       <r>  -13.2772    1.0000 </r>
       <r>  -13.1548    1.0000 </r>
       <r>  -12.9618    1.0000 </r>
       <r>  -12.9564    1.0000 </r>
       <r>  -12.8044    1.0000 </r>
       <r>  -12.7203    1.0000 </r>
       <r>  -12.7100    1.0000 </r>
       <r>  -12.5363    1.0000 </r>
       <r>  -12.4845    1.0000 </r>
       <r>  -12.3127    1.0000 </r>
       <r>  -12.1736    1.0000 </r>
       <r>   -2.8094    1.0000 </r>
       <r>   -2.6047    1.0000 </r>
       <r>   -2.1885    1.0000 </r>
       <r>   -2.0263    1.0000 </r>
       <r>   -2.0228    1.0000 </r>
       <r>   -1.9792    1.0000 </r>
       <r>   -1.9019    1.0000 </r>
       <r>   -1.7480    1.0000 </r>
       <r>   -1.4359    1.0000 </r>
       <r>   -1.3975    1.0000 </r>
       <r>   -1.3613    1.0000 </r>
       <r>   -1.3445    1.0000 </r>
       <r>   -1.2929    1.0000 </r>
       <r>   -1.2183    1.0000 </r>
       <r>   -1.1950    1.0000 </r>
       <r>   -1.1410    1.0000 </r>
       <r>   -1.0628    1.0000 </r>
       <r>   -1.0027    1.0000 </r>
       <r>   -0.9396    1.0000 </r>
       <r>   -0.6964    1.0000 </r>
       <r>   -0.6627    1.0000 </r>
       <r>   -0.2492    1.0000 </r>
       <r>   -0.1623    1.0000 </r>
       <r>    0.2561    1.0000 </r>
       <r>    0.3357    1.0000 </r>
       <r>    0.6580    1.0000 </r>
       <r>    0.7744    1.0000 </r>
       <r>    0.9191    1.0000 </r>
       <r>    1.0091    1.0000 </r>
       <r>    1.0579    1.0000 </r>
       <r>    1.0610    1.0000 </r>
       <r>    1.1452    1.0000 </r>
       <r>    1.2364    1.0000 </r>
       <r>    1.3769    1.0000 </r>
       <r>    1.3790    1.0000 </r>
       <r>    1.4772    1.0000 </r>
       <r>    1.5392    1.0000 </r>
       <r>    1.5413    1.0000 </r>
       <r>    1.6542    1.0000 </r>
       <r>    1.7990    1.0000 </r>
       <r>    1.9984    1.0000 </r>
       <r>    2.2005    1.0000 </r>
       <r>    2.3954    1.0000 </r>
       <r>    2.4055    1.0000 </r>
       <r>    2.4603    1.0000 </r>
       <r>    3.2109    0.0000 </r>
       <r>    3.8625    0.0000 </r>
       <r>    4.7260    0.0000 </r>
       <r>    5.4151    0.0000 </r>
       <r>    6.8386    0.0000 </r>
       <r>    7.3227    0.0000 </r>
       <r>    7.8294    0.0000 </r>
       <r>    8.3211    0.0000 </r>
       <r>    8.6679    0.0000 </r>
       <r>    8.6994    0.0000 </r>
       <r>    9.0737    0.0000 </r>
       <r>    9.2219    0.0000 </r>
       <r>    9.5583    0.0000 </r>
       <r>    9.6511    0.0000 </r>
       <r>    9.8651    0.0000 </r>
       <r>    9.9479    0.0000 </r>
       <r>    9.9854    0.0000 </r>
       <r>   10.4085    0.0000 </r>
       <r>   10.5161    0.0000 </r>
       <r>   10.5217    0.0000 </r>
       <r>   10.7926    0.0000 </r>
       <r>   10.8733    0.0000 </r>
      </set>
      <set comment="kpoint 9">
       <r>  -31.4979    1.0000 </r>
       <r>  -31.0447    1.0000 </r>
       <r>  -31.0445    1.0000 </r>
       <r>  -30.5963    1.0000 </r>
       <r>  -14.7500    1.0000 </r>
       <r>  -14.7119    1.0000 </r>
       <r>  -14.4980    1.0000 </r>
       <r>  -14.3877    1.0000 </r>
       <r>  -14.0923    1.0000 </r>
       <r>  -13.9840    1.0000 </r>
       <r>  -13.9063    1.0000 </r>
       <r>  -13.8499    1.0000 </r>
       <r>  -13.5726    1.0000 </r>
       <r>  -13.5086    1.0000 </r>
       <r>  -13.2293    1.0000 </r>
       <r>  -13.1542    1.0000 </r>
       <r>  -13.0563    1.0000 </r>
       <r>  -12.9758    1.0000 </r>
       <r>  -12.7867    1.0000 </r>
       <r>  -12.7773    1.0000 </r>
       <r>  -12.6938    1.0000 </r>
       <r>  -12.5790    1.0000 </r>
       <r>  -12.5276    1.0000 </r>
       <r>  -12.2716    1.0000 </r>
       <r>  -12.2023    1.0000 </r>
       <r>   -2.6628    1.0000 </r>
       <r>   -2.6022    1.0000 </r>
       <r>   -2.1912    1.0000 </r>
       <r>   -2.0302    1.0000 </r>
       <r>   -2.0158    1.0000 </r>
       <r>   -1.8963    1.0000 </r>
       <r>   -1.8216    1.0000 </r>
       <r>   -1.6712    1.0000 </r>
       <r>   -1.6115    1.0000 </r>
       <r>   -1.5202    1.0000 </r>
       <r>   -1.4163    1.0000 </r>
       <r>   -1.3115    1.0000 </r>
       <r>   -1.3033    1.0000 </r>
       <r>   -1.2167    1.0000 </r>
       <r>   -1.1315    1.0000 </r>
       <r>   -1.0955    1.0000 </r>
       <r>   -1.0469    1.0000 </r>
       <r>   -0.9306    1.0000 </r>
       <r>   -0.8095    1.0000 </r>
       <r>   -0.6936    1.0000 </r>
       <r>   -0.5274    1.0000 </r>
       <r>   -0.1573    1.0000 </r>
       <r>    0.0246    1.0000 </r>
       <r>    0.2960    1.0000 </r>
       <r>    0.4802    1.0000 </r>
       <r>    0.6397    1.0000 </r>
       <r>    0.8174    1.0000 </r>
       <r>    0.9088    1.0000 </r>
       <r>    0.9700    1.0000 </r>
       <r>    1.0093    1.0000 </r>
       <r>    1.1127    1.0000 </r>
       <r>    1.1773    1.0000 </r>
       <r>    1.2448    1.0000 </r>
       <r>    1.2754    1.0000 </r>
       <r>    1.3581    1.0000 </r>
       <r>    1.3830    1.0000 </r>
       <r>    1.5285    1.0000 </r>
       <r>    1.6824    1.0000 </r>
       <r>    1.6935    1.0000 </r>
       <r>    1.7503    1.0000 </r>
       <r>    1.8794    1.0000 </r>
       <r>    2.0155    1.0000 </r>
       <r>    2.1962    1.0000 </r>
       <r>    2.4337    1.0000 </r>
       <r>    2.6447    0.2522 </r>
       <r>    2.9117    0.0000 </r>
       <r>    3.6370    0.0000 </r>
       <r>    4.6176    0.0000 </r>
       <r>    5.5719    0.0000 </r>
       <r>    6.6881    0.0000 </r>
       <r>    7.3605    0.0000 </r>
       <r>    7.8310    0.0000 </r>
       <r>    8.0439    0.0000 </r>
       <r>    8.1804    0.0000 </r>
       <r>    8.8163    0.0000 </r>
       <r>    8.9268    0.0000 </r>
       <r>    9.1348    0.0000 </r>
       <r>    9.4834    0.0000 </r>
       <r>    9.6775    0.0000 </r>
       <r>    9.8335    0.0000 </r>
       <r>    9.9537    0.0000 </r>
       <r>   10.1937    0.0000 </r>
       <r>   10.3042    0.0000 </r>
       <r>   10.4910    0.0000 </r>
       <r>   10.5781    0.0000 </r>
       <r>   10.6286    0.0000 </r>
       <r>   10.7494    0.0000 </r>
      </set>
      <set comment="kpoint 10">
       <r>  -31.4979    1.0000 </r>
       <r>  -31.0448    1.0000 </r>
       <r>  -31.0446    1.0000 </r>
       <r>  -30.5963    1.0000 </r>
       <r>  -14.7428    1.0000 </r>
       <r>  -14.6015    1.0000 </r>
       <r>  -14.5244    1.0000 </r>
       <r>  -14.1292    1.0000 </r>
       <r>  -14.1151    1.0000 </r>
       <r>  -13.9581    1.0000 </r>
       <r>  -13.9229    1.0000 </r>
       <r>  -13.7980    1.0000 </r>
       <r>  -13.7649    1.0000 </r>
       <r>  -13.6736    1.0000 </r>
       <r>  -13.2127    1.0000 </r>
       <r>  -13.1521    1.0000 </r>
       <r>  -13.1009    1.0000 </r>
       <r>  -13.0447    1.0000 </r>
       <r>  -12.7830    1.0000 </r>
       <r>  -12.7750    1.0000 </r>
       <r>  -12.6639    1.0000 </r>
       <r>  -12.6337    1.0000 </r>
       <r>  -12.5786    1.0000 </r>
       <r>  -12.2742    1.0000 </r>
       <r>  -12.1638    1.0000 </r>
       <r>   -2.6491    1.0000 </r>
       <r>   -2.4514    1.0000 </r>
       <r>   -2.1766    1.0000 </r>
       <r>   -2.0760    1.0000 </r>
       <r>   -2.0120    1.0000 </r>
       <r>   -1.8698    1.0000 </r>
       <r>   -1.8432    1.0000 </r>
       <r>   -1.8039    1.0000 </r>
       <r>   -1.4886    1.0000 </r>
       <r>   -1.4405    1.0000 </r>
       <r>   -1.4145    1.0000 </r>
       <r>   -1.2544    1.0000 </r>
       <r>   -1.1887    1.0000 </r>
       <r>   -1.1431    1.0000 </r>
       <r>   -1.1154    1.0000 </r>
       <r>   -1.0777    1.0000 </r>
       <r>   -1.0736    1.0000 </r>
       <r>   -1.0718    1.0000 </r>
       <r>   -0.8991    1.0000 </r>
       <r>   -0.5899    1.0000 </r>
       <r>   -0.2474    1.0000 </r>
       <r>   -0.2083    1.0000 </r>
       <r>    0.3538    1.0000 </r>
       <r>    0.4303    1.0000 </r>
       <r>    0.4735    1.0000 </r>
       <r>    0.7466    1.0000 </r>
       <r>    0.7837    1.0000 </r>
       <r>    0.8365    1.0000 </r>
       <r>    0.8423    1.0000 </r>
       <r>    1.1258    1.0000 </r>
       <r>    1.1710    1.0000 </r>
       <r>    1.2230    1.0000 </r>
       <r>    1.2469    1.0000 </r>
       <r>    1.3311    1.0000 </r>
       <r>    1.3364    1.0000 </r>
       <r>    1.3461    1.0000 </r>
       <r>    1.4511    1.0000 </r>
       <r>    1.5587    1.0000 </r>
       <r>    1.5680    1.0000 </r>
       <r>    1.7476    1.0000 </r>
       <r>    1.8408    1.0000 </r>
       <r>    1.9328    1.0000 </r>
       <r>    1.9502    1.0000 </r>
       <r>    2.4096    1.0000 </r>
       <r>    2.7544    0.0001 </r>
       <r>    2.9226    0.0000 </r>
       <r>    3.3018    0.0000 </r>
       <r>    4.8772    0.0000 </r>
       <r>    5.2480    0.0000 </r>
       <r>    6.8686    0.0000 </r>
       <r>    7.1382    0.0000 </r>
       <r>    7.3043    0.0000 </r>
       <r>    7.7858    0.0000 </r>
       <r>    8.2244    0.0000 </r>
       <r>    8.3607    0.0000 </r>
       <r>    8.9013    0.0000 </r>
       <r>    9.0950    0.0000 </r>
       <r>    9.4199    0.0000 </r>
       <r>    9.5244    0.0000 </r>
       <r>    9.7257    0.0000 </r>
       <r>    9.9617    0.0000 </r>
       <r>   10.0502    0.0000 </r>
       <r>   10.3297    0.0000 </r>
       <r>   10.3456    0.0000 </r>
       <r>   10.5100    0.0000 </r>
       <r>   10.7781    0.0000 </r>
       <r>   10.8768    0.0000 </r>
      </set>
      <set comment="kpoint 11">
       <r>  -31.4986    1.0000 </r>
       <r>  -31.0455    1.0000 </r>
       <r>  -31.0446    1.0000 </r>
       <r>  -30.5965    1.0000 </r>
       <r>  -14.6749    1.0000 </r>
       <r>  -14.6670    1.0000 </r>
       <r>  -14.1822    1.0000 </r>
       <r>  -14.1813    1.0000 </r>
       <r>  -13.9446    1.0000 </r>
       <r>  -13.9193    1.0000 </r>
       <r>  -13.7536    1.0000 </r>
       <r>  -13.7086    1.0000 </r>
       <r>  -13.6684    1.0000 </r>
       <r>  -13.6028    1.0000 </r>
       <r>  -13.2588    1.0000 </r>
       <r>  -13.2324    1.0000 </r>
       <r>  -13.1380    1.0000 </r>
       <r>  -13.0058    1.0000 </r>
       <r>  -12.9143    1.0000 </r>
       <r>  -12.8386    1.0000 </r>
       <r>  -12.8285    1.0000 </r>
       <r>  -12.7592    1.0000 </r>
       <r>  -12.7286    1.0000 </r>
       <r>  -12.4874    1.0000 </r>
       <r>  -12.4207    1.0000 </r>
       <r>   -2.7836    1.0000 </r>
       <r>   -2.6502    1.0000 </r>
       <r>   -2.1806    1.0000 </r>
       <r>   -2.0293    1.0000 </r>
       <r>   -1.9889    1.0000 </r>
       <r>   -1.8918    1.0000 </r>
       <r>   -1.7868    1.0000 </r>
       <r>   -1.6204    1.0000 </r>
       <r>   -1.5880    1.0000 </r>
       <r>   -1.5626    1.0000 </r>
       <r>   -1.5542    1.0000 </r>
       <r>   -1.2467    1.0000 </r>
       <r>   -1.2325    1.0000 </r>
       <r>   -1.1958    1.0000 </r>
       <r>   -1.1739    1.0000 </r>
       <r>   -0.9329    1.0000 </r>
       <r>   -0.9235    1.0000 </r>
       <r>   -0.8641    1.0000 </r>
       <r>   -0.7615    1.0000 </r>
       <r>   -0.7086    1.0000 </r>
       <r>   -0.6556    1.0000 </r>
       <r>   -0.0292    1.0000 </r>
       <r>    0.1817    1.0000 </r>
       <r>    0.3426    1.0000 </r>
       <r>    0.3708    1.0000 </r>
       <r>    0.5962    1.0000 </r>
       <r>    0.6370    1.0000 </r>
       <r>    0.8755    1.0000 </r>
       <r>    1.2181    1.0000 </r>
       <r>    1.2402    1.0000 </r>
       <r>    1.3135    1.0000 </r>
       <r>    1.3910    1.0000 </r>
       <r>    1.4298    1.0000 </r>
       <r>    1.4424    1.0000 </r>
       <r>    1.4568    1.0000 </r>
       <r>    1.5298    1.0000 </r>
       <r>    1.5579    1.0000 </r>
       <r>    1.8594    1.0000 </r>
       <r>    1.9947    1.0000 </r>
       <r>    2.0067    1.0000 </r>
       <r>    2.0492    1.0000 </r>
       <r>    2.2872    1.0000 </r>
       <r>    2.4865    0.9999 </r>
       <r>    2.6996    0.0133 </r>
       <r>    3.0516    0.0000 </r>
       <r>    3.1551    0.0000 </r>
       <r>    3.2790    0.0000 </r>
       <r>    4.1109    0.0000 </r>
       <r>    4.3717    0.0000 </r>
       <r>    5.5542    0.0000 </r>
       <r>    7.8107    0.0000 </r>
       <r>    7.9416    0.0000 </r>
       <r>    8.1959    0.0000 </r>
       <r>    8.3478    0.0000 </r>
       <r>    8.5310    0.0000 </r>
       <r>    8.8084    0.0000 </r>
       <r>    9.1046    0.0000 </r>
       <r>    9.1508    0.0000 </r>
       <r>    9.3795    0.0000 </r>
       <r>    9.4750    0.0000 </r>
       <r>    9.5227    0.0000 </r>
       <r>    9.9055    0.0000 </r>
       <r>   10.0490    0.0000 </r>
       <r>   10.0558    0.0000 </r>
       <r>   10.4010    0.0000 </r>
       <r>   10.5465    0.0000 </r>
       <r>   10.6762    0.0000 </r>
      </set>
      <set comment="kpoint 12">
       <r>  -31.4981    1.0000 </r>
       <r>  -31.0452    1.0000 </r>
       <r>  -31.0446    1.0000 </r>
       <r>  -30.5964    1.0000 </r>
       <r>  -14.8245    1.0000 </r>
       <r>  -14.6720    1.0000 </r>
       <r>  -14.3286    1.0000 </r>
       <r>  -14.2039    1.0000 </r>
       <r>  -14.1102    1.0000 </r>
       <r>  -13.9022    1.0000 </r>
       <r>  -13.8477    1.0000 </r>
       <r>  -13.7149    1.0000 </r>
       <r>  -13.6125    1.0000 </r>
       <r>  -13.5159    1.0000 </r>
       <r>  -13.2341    1.0000 </r>
       <r>  -13.1474    1.0000 </r>
       <r>  -13.0997    1.0000 </r>
       <r>  -13.0584    1.0000 </r>
       <r>  -12.8589    1.0000 </r>
       <r>  -12.8116    1.0000 </r>
       <r>  -12.7527    1.0000 </r>
       <r>  -12.7251    1.0000 </r>
       <r>  -12.6244    1.0000 </r>
       <r>  -12.3643    1.0000 </r>
       <r>  -12.3067    1.0000 </r>
       <r>   -2.7457    1.0000 </r>
       <r>   -2.6262    1.0000 </r>
       <r>   -2.1445    1.0000 </r>
       <r>   -2.0275    1.0000 </r>
       <r>   -1.9897    1.0000 </r>
       <r>   -1.8877    1.0000 </r>
       <r>   -1.8436    1.0000 </r>
       <r>   -1.7356    1.0000 </r>
       <r>   -1.6169    1.0000 </r>
       <r>   -1.5279    1.0000 </r>
       <r>   -1.4488    1.0000 </r>
       <r>   -1.4226    1.0000 </r>
       <r>   -1.1955    1.0000 </r>
       <r>   -1.1588    1.0000 </r>
       <r>   -1.0871    1.0000 </r>
       <r>   -1.0519    1.0000 </r>
       <r>   -1.0180    1.0000 </r>
       <r>   -0.8118    1.0000 </r>
       <r>   -0.7452    1.0000 </r>
       <r>   -0.6667    1.0000 </r>
       <r>   -0.6124    1.0000 </r>
       <r>   -0.0645    1.0000 </r>
       <r>    0.0634    1.0000 </r>
       <r>    0.1730    1.0000 </r>
       <r>    0.3577    1.0000 </r>
       <r>    0.4892    1.0000 </r>
       <r>    0.8263    1.0000 </r>
       <r>    0.8876    1.0000 </r>
       <r>    1.0791    1.0000 </r>
       <r>    1.1688    1.0000 </r>
       <r>    1.2387    1.0000 </r>
       <r>    1.2930    1.0000 </r>
       <r>    1.3244    1.0000 </r>
       <r>    1.3726    1.0000 </r>
       <r>    1.4269    1.0000 </r>
       <r>    1.5354    1.0000 </r>
       <r>    1.7101    1.0000 </r>
       <r>    1.7498    1.0000 </r>
       <r>    1.7696    1.0000 </r>
       <r>    1.8809    1.0000 </r>
       <r>    2.0365    1.0000 </r>
       <r>    2.2594    1.0000 </r>
       <r>    2.2974    1.0000 </r>
       <r>    2.3029    1.0000 </r>
       <r>    2.8561    0.0000 </r>
       <r>    3.2256    0.0000 </r>
       <r>    3.4695    0.0000 </r>
       <r>    4.1077    0.0000 </r>
       <r>    4.8789    0.0000 </r>
       <r>    6.0377    0.0000 </r>
       <r>    7.6301    0.0000 </r>
       <r>    8.1770    0.0000 </r>
       <r>    8.5484    0.0000 </r>
       <r>    8.6256    0.0000 </r>
       <r>    8.6650    0.0000 </r>
       <r>    8.7451    0.0000 </r>
       <r>    8.8896    0.0000 </r>
       <r>    9.1042    0.0000 </r>
       <r>    9.4237    0.0000 </r>
       <r>    9.7554    0.0000 </r>
       <r>    9.8959    0.0000 </r>
       <r>   10.0091    0.0000 </r>
       <r>   10.1040    0.0000 </r>
       <r>   10.2539    0.0000 </r>
       <r>   10.4191    0.0000 </r>
       <r>   10.4879    0.0000 </r>
       <r>   10.5726    0.0000 </r>
      </set>
      <set comment="kpoint 13">
       <r>  -31.4976    1.0000 </r>
       <r>  -31.0449    1.0000 </r>
       <r>  -31.0444    1.0000 </r>
       <r>  -30.5963    1.0000 </r>
       <r>  -14.9491    1.0000 </r>
       <r>  -14.6652    1.0000 </r>
       <r>  -14.3859    1.0000 </r>
       <r>  -14.3597    1.0000 </r>
       <r>  -14.1166    1.0000 </r>
       <r>  -13.9202    1.0000 </r>
       <r>  -13.8848    1.0000 </r>
       <r>  -13.7600    1.0000 </r>
       <r>  -13.7292    1.0000 </r>
       <r>  -13.4014    1.0000 </r>
       <r>  -13.1624    1.0000 </r>
       <r>  -13.1537    1.0000 </r>
       <r>  -13.0442    1.0000 </r>
       <r>  -13.0194    1.0000 </r>
       <r>  -12.8819    1.0000 </r>
       <r>  -12.6987    1.0000 </r>
       <r>  -12.6881    1.0000 </r>
       <r>  -12.6668    1.0000 </r>
       <r>  -12.5679    1.0000 </r>
       <r>  -12.2883    1.0000 </r>
       <r>  -12.1688    1.0000 </r>
       <r>   -2.7884    1.0000 </r>
       <r>   -2.3684    1.0000 </r>
       <r>   -2.3394    1.0000 </r>
       <r>   -2.0223    1.0000 </r>
       <r>   -1.9947    1.0000 </r>
       <r>   -1.9245    1.0000 </r>
       <r>   -1.8862    1.0000 </r>
       <r>   -1.8322    1.0000 </r>
       <r>   -1.5772    1.0000 </r>
       <r>   -1.4312    1.0000 </r>
       <r>   -1.4250    1.0000 </r>
       <r>   -1.3620    1.0000 </r>
       <r>   -1.2795    1.0000 </r>
       <r>   -1.2455    1.0000 </r>
       <r>   -1.1365    1.0000 </r>
       <r>   -1.0840    1.0000 </r>
       <r>   -0.9808    1.0000 </r>
       <r>   -0.8366    1.0000 </r>
       <r>   -0.6747    1.0000 </r>
       <r>   -0.6581    1.0000 </r>
       <r>   -0.5938    1.0000 </r>
       <r>   -0.1609    1.0000 </r>
       <r>   -0.1046    1.0000 </r>
       <r>    0.2844    1.0000 </r>
       <r>    0.3965    1.0000 </r>
       <r>    0.4750    1.0000 </r>
       <r>    0.8308    1.0000 </r>
       <r>    0.9683    1.0000 </r>
       <r>    1.0653    1.0000 </r>
       <r>    1.1406    1.0000 </r>
       <r>    1.1452    1.0000 </r>
       <r>    1.1855    1.0000 </r>
       <r>    1.2567    1.0000 </r>
       <r>    1.3342    1.0000 </r>
       <r>    1.3701    1.0000 </r>
       <r>    1.4265    1.0000 </r>
       <r>    1.4438    1.0000 </r>
       <r>    1.6023    1.0000 </r>
       <r>    1.6181    1.0000 </r>
       <r>    1.7571    1.0000 </r>
       <r>    1.9696    1.0000 </r>
       <r>    2.0191    1.0000 </r>
       <r>    2.1676    1.0000 </r>
       <r>    2.4552    1.0000 </r>
       <r>    2.8545    0.0000 </r>
       <r>    3.0302    0.0000 </r>
       <r>    3.2980    0.0000 </r>
       <r>    4.7819    0.0000 </r>
       <r>    5.6270    0.0000 </r>
       <r>    6.4335    0.0000 </r>
       <r>    7.4710    0.0000 </r>
       <r>    7.6133    0.0000 </r>
       <r>    8.3268    0.0000 </r>
       <r>    8.4388    0.0000 </r>
       <r>    8.4723    0.0000 </r>
       <r>    9.0966    0.0000 </r>
       <r>    9.1718    0.0000 </r>
       <r>    9.2203    0.0000 </r>
       <r>    9.2388    0.0000 </r>
       <r>    9.6309    0.0000 </r>
       <r>   10.0151    0.0000 </r>
       <r>   10.1577    0.0000 </r>
       <r>   10.3539    0.0000 </r>
       <r>   10.3622    0.0000 </r>
       <r>   10.5728    0.0000 </r>
       <r>   10.6904    0.0000 </r>
       <r>   10.9147    0.0000 </r>
      </set>
      <set comment="kpoint 14">
       <r>  -31.4982    1.0000 </r>
       <r>  -31.0450    1.0000 </r>
       <r>  -31.0445    1.0000 </r>
       <r>  -30.5964    1.0000 </r>
       <r>  -14.8149    1.0000 </r>
       <r>  -14.6854    1.0000 </r>
       <r>  -14.3752    1.0000 </r>
       <r>  -14.2339    1.0000 </r>
       <r>  -14.0645    1.0000 </r>
       <r>  -13.9728    1.0000 </r>
       <r>  -13.8652    1.0000 </r>
       <r>  -13.6939    1.0000 </r>
       <r>  -13.6177    1.0000 </r>
       <r>  -13.4857    1.0000 </r>
       <r>  -13.2907    1.0000 </r>
       <r>  -13.2120    1.0000 </r>
       <r>  -13.0376    1.0000 </r>
       <r>  -13.0138    1.0000 </r>
       <r>  -12.8388    1.0000 </r>
       <r>  -12.7928    1.0000 </r>
       <r>  -12.7463    1.0000 </r>
       <r>  -12.6650    1.0000 </r>
       <r>  -12.5772    1.0000 </r>
       <r>  -12.3906    1.0000 </r>
       <r>  -12.2908    1.0000 </r>
       <r>   -2.8928    1.0000 </r>
       <r>   -2.4752    1.0000 </r>
       <r>   -2.1897    1.0000 </r>
       <r>   -2.0157    1.0000 </r>
       <r>   -1.9767    1.0000 </r>
       <r>   -1.9563    1.0000 </r>
       <r>   -1.9038    1.0000 </r>
       <r>   -1.6885    1.0000 </r>
       <r>   -1.5491    1.0000 </r>
       <r>   -1.4768    1.0000 </r>
       <r>   -1.4543    1.0000 </r>
       <r>   -1.4463    1.0000 </r>
       <r>   -1.2744    1.0000 </r>
       <r>   -1.2055    1.0000 </r>
       <r>   -1.0762    1.0000 </r>
       <r>   -1.0161    1.0000 </r>
       <r>   -0.9180    1.0000 </r>
       <r>   -0.8994    1.0000 </r>
       <r>   -0.8135    1.0000 </r>
       <r>   -0.7013    1.0000 </r>
       <r>   -0.6595    1.0000 </r>
       <r>   -0.2392    1.0000 </r>
       <r>   -0.0284    1.0000 </r>
       <r>    0.2342    1.0000 </r>
       <r>    0.4266    1.0000 </r>
       <r>    0.6223    1.0000 </r>
       <r>    0.6898    1.0000 </r>
       <r>    0.8775    1.0000 </r>
       <r>    1.0492    1.0000 </r>
       <r>    1.1612    1.0000 </r>
       <r>    1.1924    1.0000 </r>
       <r>    1.3087    1.0000 </r>
       <r>    1.3634    1.0000 </r>
       <r>    1.4083    1.0000 </r>
       <r>    1.4384    1.0000 </r>
       <r>    1.5408    1.0000 </r>
       <r>    1.5880    1.0000 </r>
       <r>    1.7175    1.0000 </r>
       <r>    1.8052    1.0000 </r>
       <r>    1.8671    1.0000 </r>
       <r>    2.0136    1.0000 </r>
       <r>    2.2296    1.0000 </r>
       <r>    2.3600    1.0000 </r>
       <r>    2.4686    1.0000 </r>
       <r>    2.9337    0.0000 </r>
       <r>    3.1207    0.0000 </r>
       <r>    3.7186    0.0000 </r>
       <r>    4.1737    0.0000 </r>
       <r>    4.8836    0.0000 </r>
       <r>    6.0126    0.0000 </r>
       <r>    7.6100    0.0000 </r>
       <r>    8.3311    0.0000 </r>
       <r>    8.3731    0.0000 </r>
       <r>    8.5022    0.0000 </r>
       <r>    8.7209    0.0000 </r>
       <r>    8.8855    0.0000 </r>
       <r>    9.2900    0.0000 </r>
       <r>    9.3396    0.0000 </r>
       <r>    9.4689    0.0000 </r>
       <r>    9.6658    0.0000 </r>
       <r>    9.6846    0.0000 </r>
       <r>   10.1265    0.0000 </r>
       <r>   10.1625    0.0000 </r>
       <r>   10.2674    0.0000 </r>
       <r>   10.3323    0.0000 </r>
       <r>   10.4321    0.0000 </r>
       <r>   10.5737    0.0000 </r>
      </set>
      <set comment="kpoint 15">
       <r>  -31.4982    1.0000 </r>
       <r>  -31.0452    1.0000 </r>
       <r>  -31.0446    1.0000 </r>
[...]
       <r>     2.3360     6.4057    67.8563 </r>
       <r>     2.4917     4.7231    68.5915 </r>
       <r>     2.6473     3.2035    69.0902 </r>
       <r>     2.8030     3.4091    69.6208 </r>
       <r>     2.9587     3.7036    70.1973 </r>
       <r>     3.1143     4.6014    70.9136 </r>
       <r>     3.2700     1.9611    71.2188 </r>
       <r>     3.4256     0.8942    71.3580 </r>
       <r>     3.5813     1.9644    71.6638 </r>
       <r>     3.7370     2.0041    71.9758 </r>
       <r>     3.8926     0.7185    72.0876 </r>
       <r>     4.0483     0.4328    72.1550 </r>
       <r>     4.2039     1.7329    72.4247 </r>
       <r>     4.3596     0.1557    72.4489 </r>
       <r>     4.5152     0.1280    72.4689 </r>
       <r>     4.6709     1.0816    72.6372 </r>
       <r>     4.8266     1.6578    72.8953 </r>
       <r>     4.9822     2.0200    73.2097 </r>
       <r>     5.1379     0.2587    73.2500 </r>
       <r>     5.2935     0.3251    73.3006 </r>
       <r>     5.4492     1.3410    73.5093 </r>
       <r>     5.6049     2.6419    73.9206 </r>
       <r>     5.7605     1.7008    74.1853 </r>
       <r>     5.9162     0.7602    74.3036 </r>
       <r>     6.0718     0.7739    74.4241 </r>
       <r>     6.2275     0.1061    74.4406 </r>
       <r>     6.3832     0.9429    74.5874 </r>
       <r>     6.5388     0.8318    74.7169 </r>
       <r>     6.6945     0.2957    74.7629 </r>
       <r>     6.8501     1.2154    74.9521 </r>
       <r>     7.0058     0.4607    75.0238 </r>
       <r>     7.1615     0.1983    75.0546 </r>
       <r>     7.3171     1.1729    75.2372 </r>
       <r>     7.4728     1.5578    75.4797 </r>
       <r>     7.6284     1.6952    75.7436 </r>
       <r>     7.7841     2.7105    76.1655 </r>
       <r>     7.9397     3.2151    76.6660 </r>
       <r>     8.0954     2.5751    77.0668 </r>
       <r>     8.2511     3.8891    77.6722 </r>
       <r>     8.4067     4.1454    78.3174 </r>
       <r>     8.5624     4.2990    78.9866 </r>
       <r>     8.7180     5.7264    79.8780 </r>
       <r>     8.8737     3.8104    80.4711 </r>
       <r>     9.0294     4.1267    81.1135 </r>
       <r>     9.1850     4.7325    81.8501 </r>
       <r>     9.3407     4.1654    82.4985 </r>
       <r>     9.4963     5.0563    83.2856 </r>
       <r>     9.6520     4.7158    84.0196 </r>
       <r>     9.8077     4.7515    84.7592 </r>
       <r>     9.9633     7.0862    85.8623 </r>
       <r>    10.1190     7.0516    86.9599 </r>
       <r>    10.2746     5.9454    87.8854 </r>
       <r>    10.4303     8.1915    89.1605 </r>
       <r>    10.5860     8.5091    90.4850 </r>
       <r>    10.7416     6.4962    91.4962 </r>
       <r>    10.8973     2.9550    91.9561 </r>
       <r>    11.0529     0.2818    92.0000 </r>
       <r>    11.2086     0.0000    92.0000 </r>
       <r>    11.3642     0.0000    92.0000 </r>
       <r>    11.5199     0.0000    92.0000 </r>
       <r>    11.6756     0.0000    92.0000 </r>
       <r>    11.8312     0.0000    92.0000 </r>
       <r>    11.9869     0.0000    92.0000 </r>
       <r>    12.1425     0.0000    92.0000 </r>
       <r>    12.2982     0.0000    92.0000 </r>
       <r>    12.4539     0.0000    92.0000 </r>
       <r>    12.6095     0.0000    92.0000 </r>
       <r>    12.7652     0.0000    92.0000 </r>
       <r>    12.9208     0.0000    92.0000 </r>
       <r>    13.0765     0.0000    92.0000 </r>
      </set>
      <set comment="spin 2">
       <r>   -33.6212     0.0000     0.0000 </r>
       <r>   -33.4656     0.0000     0.0000 </r>
       <r>   -33.3099     0.0000     0.0000 </r>
       <r>   -33.1543     0.0000     0.0000 </r>
       <r>   -32.9986     0.0000     0.0000 </r>
       <r>   -32.8429     0.0000     0.0000 </r>
       <r>   -32.6873     0.0000     0.0000 </r>
       <r>   -32.5316     0.0000     0.0000 </r>
       <r>   -32.3760     0.0000     0.0000 </r>
       <r>   -32.2203     0.0000     0.0000 </r>
       <r>   -32.0647     0.0000     0.0000 </r>
       <r>   -31.9090     0.0000     0.0000 </r>
       <r>   -31.7533     0.0000     0.0000 </r>
       <r>   -31.5977     0.0154     0.0024 </r>
       <r>   -31.4420     6.0441     0.9432 </r>
       <r>   -31.2864     0.3647     1.0000 </r>
       <r>   -31.1307     0.0964     1.0150 </r>
       <r>   -30.9750    12.4387     2.9512 </r>
       <r>   -30.8194     0.3135     3.0000 </r>
       <r>   -30.6637     0.1818     3.0283 </r>
       <r>   -30.5081     6.2022     3.9937 </r>
       <r>   -30.3524     0.0403     4.0000 </r>
       <r>   -30.1967     0.0000     4.0000 </r>
       <r>   -30.0411     0.0000     4.0000 </r>
       <r>   -29.8854     0.0000     4.0000 </r>
       <r>   -29.7298     0.0000     4.0000 </r>
       <r>   -29.5741     0.0000     4.0000 </r>
       <r>   -29.4184     0.0000     4.0000 </r>
       <r>   -29.2628     0.0000     4.0000 </r>
       <r>   -29.1071     0.0000     4.0000 </r>
       <r>   -28.9515     0.0000     4.0000 </r>
       <r>   -28.7958     0.0000     4.0000 </r>
       <r>   -28.6402     0.0000     4.0000 </r>
       <r>   -28.4845     0.0000     4.0000 </r>
       <r>   -28.3288     0.0000     4.0000 </r>
       <r>   -28.1732     0.0000     4.0000 </r>
       <r>   -28.0175     0.0000     4.0000 </r>
       <r>   -27.8619     0.0000     4.0000 </r>
       <r>   -27.7062     0.0000     4.0000 </r>
       <r>   -27.5505     0.0000     4.0000 </r>
       <r>   -27.3949     0.0000     4.0000 </r>
       <r>   -27.2392     0.0000     4.0000 </r>
       <r>   -27.0836     0.0000     4.0000 </r>
       <r>   -26.9279     0.0000     4.0000 </r>
       <r>   -26.7722     0.0000     4.0000 </r>
       <r>   -26.6166     0.0000     4.0000 </r>
       <r>   -26.4609     0.0000     4.0000 </r>
       <r>   -26.3053     0.0000     4.0000 </r>
       <r>   -26.1496     0.0000     4.0000 </r>
       <r>   -25.9939     0.0000     4.0000 </r>
       <r>   -25.8383     0.0000     4.0000 </r>
       <r>   -25.6826     0.0000     4.0000 </r>
       <r>   -25.5270     0.0000     4.0000 </r>
       <r>   -25.3713     0.0000     4.0000 </r>
       <r>   -25.2157     0.0000     4.0000 </r>
       <r>   -25.0600     0.0000     4.0000 </r>
       <r>   -24.9043     0.0000     4.0000 </r>
       <r>   -24.7487     0.0000     4.0000 </r>
       <r>   -24.5930     0.0000     4.0000 </r>
       <r>   -24.4374     0.0000     4.0000 </r>
       <r>   -24.2817     0.0000     4.0000 </r>
       <r>   -24.1260     0.0000     4.0000 </r>
       <r>   -23.9704     0.0000     4.0000 </r>
       <r>   -23.8147     0.0000     4.0000 </r>
       <r>   -23.6591     0.0000     4.0000 </r>
       <r>   -23.5034     0.0000     4.0000 </r>
       <r>   -23.3477     0.0000     4.0000 </r>
       <r>   -23.1921     0.0000     4.0000 </r>
       <r>   -23.0364     0.0000     4.0000 </r>
       <r>   -22.8808     0.0000     4.0000 </r>
       <r>   -22.7251     0.0000     4.0000 </r>
       <r>   -22.5694     0.0000     4.0000 </r>
       <r>   -22.4138     0.0000     4.0000 </r>
       <r>   -22.2581     0.0000     4.0000 </r>
       <r>   -22.1025     0.0000     4.0000 </r>
       <r>   -21.9468     0.0000     4.0000 </r>
       <r>   -21.7911     0.0000     4.0000 </r>
       <r>   -21.6355     0.0000     4.0000 </r>
       <r>   -21.4798     0.0000     4.0000 </r>
       <r>   -21.3242     0.0000     4.0000 </r>
       <r>   -21.1685     0.0000     4.0000 </r>
       <r>   -21.0129     0.0000     4.0000 </r>
       <r>   -20.8572     0.0000     4.0000 </r>
       <r>   -20.7015     0.0000     4.0000 </r>
       <r>   -20.5459     0.0000     4.0000 </r>
       <r>   -20.3902     0.0000     4.0000 </r>
       <r>   -20.2346     0.0000     4.0000 </r>
       <r>   -20.0789     0.0000     4.0000 </r>
       <r>   -19.9232     0.0000     4.0000 </r>
       <r>   -19.7676     0.0000     4.0000 </r>
       <r>   -19.6119     0.0000     4.0000 </r>
       <r>   -19.4563     0.0000     4.0000 </r>
       <r>   -19.3006     0.0000     4.0000 </r>
       <r>   -19.1449     0.0000     4.0000 </r>
       <r>   -18.9893     0.0000     4.0000 </r>
       <r>   -18.8336     0.0000     4.0000 </r>
       <r>   -18.6780     0.0000     4.0000 </r>
       <r>   -18.5223     0.0000     4.0000 </r>
       <r>   -18.3666     0.0000     4.0000 </r>
       <r>   -18.2110     0.0000     4.0000 </r>
       <r>   -18.0553     0.0000     4.0000 </r>
       <r>   -17.8997     0.0000     4.0000 </r>
       <r>   -17.7440     0.0000     4.0000 </r>
       <r>   -17.5884     0.0000     4.0000 </r>
       <r>   -17.4327     0.0000     4.0000 </r>
       <r>   -17.2770     0.0000     4.0000 </r>
       <r>   -17.1214     0.0000     4.0000 </r>
       <r>   -16.9657     0.0000     4.0000 </r>
       <r>   -16.8101     0.0000     4.0000 </r>
       <r>   -16.6544     0.0000     4.0000 </r>
       <r>   -16.4987     0.0000     4.0000 </r>
       <r>   -16.3431     0.0000     4.0000 </r>
       <r>   -16.1874     0.0000     4.0000 </r>
       <r>   -16.0318     0.0000     4.0000 </r>
       <r>   -15.8761     0.0000     4.0000 </r>
       <r>   -15.7204     0.0000     4.0000 </r>
       <r>   -15.5648     0.0000     4.0000 </r>
       <r>   -15.4091     0.0000     4.0000 </r>
       <r>   -15.2535     0.0000     4.0000 </r>
       <r>   -15.0978     0.0000     4.0000 </r>
       <r>   -14.9421     0.2636     4.0410 </r>
       <r>   -14.7865     3.4884     4.5840 </r>
       <r>   -14.6308     7.2905     5.7189 </r>
       <r>   -14.4752     5.1245     6.5165 </r>
       <r>   -14.3195     4.4759     7.2133 </r>
       <r>   -14.1639     5.3448     8.0452 </r>
       <r>   -14.0082     6.5695     9.0678 </r>
       <r>   -13.8525    10.4116    10.6885 </r>
       <r>   -13.6969     8.3667    11.9909 </r>
       <r>   -13.5412     7.4746    13.1544 </r>
       <r>   -13.3856     5.2249    13.9677 </r>
       <r>   -13.2299     4.7432    14.7060 </r>
       <r>   -13.0742    11.6680    16.5222 </r>
       <r>   -12.9186    10.5383    18.1626 </r>
       <r>   -12.7629    10.2735    19.7618 </r>
       <r>   -12.6073    14.3614    21.9972 </r>
       <r>   -12.4516     6.6507    23.0325 </r>
       <r>   -12.2959     5.5910    23.9028 </r>
       <r>   -12.1403     6.7322    24.9507 </r>
       <r>   -11.9846     0.3166    25.0000 </r>
       <r>   -11.8290     0.0000    25.0000 </r>
       <r>   -11.6733     0.0000    25.0000 </r>
       <r>   -11.5176     0.0000    25.0000 </r>
       <r>   -11.3620     0.0000    25.0000 </r>
       <r>   -11.2063     0.0000    25.0000 </r>
       <r>   -11.0507     0.0000    25.0000 </r>
       <r>   -10.8950     0.0000    25.0000 </r>
       <r>   -10.7394     0.0000    25.0000 </r>
       <r>   -10.5837     0.0000    25.0000 </r>
       <r>   -10.4280     0.0000    25.0000 </r>
       <r>   -10.2724     0.0000    25.0000 </r>
       <r>   -10.1167     0.0000    25.0000 </r>
       <r>    -9.9611     0.0000    25.0000 </r>
       <r>    -9.8054     0.0000    25.0000 </r>
       <r>    -9.6497     0.0000    25.0000 </r>
       <r>    -9.4941     0.0000    25.0000 </r>
       <r>    -9.3384     0.0000    25.0000 </r>
       <r>    -9.1828     0.0000    25.0000 </r>
       <r>    -9.0271     0.0000    25.0000 </r>
       <r>    -8.8714     0.0000    25.0000 </r>
       <r>    -8.7158     0.0000    25.0000 </r>
       <r>    -8.5601     0.0000    25.0000 </r>
       <r>    -8.4045     0.0000    25.0000 </r>
       <r>    -8.2488     0.0000    25.0000 </r>
       <r>    -8.0931     0.0000    25.0000 </r>
       <r>    -7.9375     0.0000    25.0000 </r>
       <r>    -7.7818     0.0000    25.0000 </r>
       <r>    -7.6262     0.0000    25.0000 </r>
       <r>    -7.4705     0.0000    25.0000 </r>
       <r>    -7.3148     0.0000    25.0000 </r>
       <r>    -7.1592     0.0000    25.0000 </r>
       <r>    -7.0035     0.0000    25.0000 </r>
       <r>    -6.8479     0.0000    25.0000 </r>
       <r>    -6.6922     0.0000    25.0000 </r>
       <r>    -6.5366     0.0000    25.0000 </r>
       <r>    -6.3809     0.0000    25.0000 </r>
       <r>    -6.2252     0.0000    25.0000 </r>
       <r>    -6.0696     0.0000    25.0000 </r>
       <r>    -5.9139     0.0000    25.0000 </r>
       <r>    -5.7583     0.0000    25.0000 </r>
       <r>    -5.6026     0.0000    25.0000 </r>
       <r>    -5.4469     0.0000    25.0000 </r>
       <r>    -5.2913     0.0000    25.0000 </r>
       <r>    -5.1356     0.0000    25.0000 </r>
       <r>    -4.9800     0.0000    25.0000 </r>
       <r>    -4.8243     0.0000    25.0000 </r>
       <r>    -4.6686     0.0000    25.0000 </r>
       <r>    -4.5130     0.0000    25.0000 </r>
       <r>    -4.3573     0.0000    25.0000 </r>
       <r>    -4.2017     0.0000    25.0000 </r>
       <r>    -4.0460     0.0000    25.0000 </r>
       <r>    -3.8903     0.0000    25.0000 </r>
       <r>    -3.7347     0.0000    25.0000 </r>
       <r>    -3.5790     0.0000    25.0000 </r>
       <r>    -3.4234     0.0000    25.0000 </r>
       <r>    -3.2677     0.0000    25.0000 </r>
       <r>    -3.1121     0.0000    25.0000 </r>
       <r>    -2.9564     0.3335    25.0519 </r>
       <r>    -2.8007     2.0745    25.3748 </r>
       <r>    -2.6451     3.8342    25.9717 </r>
       <r>    -2.4894     2.7679    26.4025 </r>
       <r>    -2.3338     4.6212    27.1218 </r>
       <r>    -2.1781     3.6211    27.6855 </r>
       <r>    -2.0224     8.1561    28.9551 </r>
       <r>    -1.8668    13.8889    31.1170 </r>
       <r>    -1.7111     8.6146    32.4580 </r>
       <r>    -1.5555     8.7227    33.8157 </r>
       <r>    -1.3998    13.4142    35.9038 </r>
       <r>    -1.2441    12.5473    37.8569 </r>
       <r>    -1.0885    13.8248    40.0088 </r>
       <r>    -0.9328    13.9250    42.1764 </r>
       <r>    -0.7772    10.0787    43.7452 </r>
       <r>    -0.6215    10.1542    45.3258 </r>
       <r>    -0.4658     3.9465    45.9401 </r>
       <r>    -0.3102     0.5656    46.0282 </r>
       <r>    -0.1545     2.9402    46.4859 </r>
       <r>     0.0011     4.7500    47.2252 </r>
       <r>     0.1568     5.3937    48.0648 </r>
       <r>     0.3124     4.4386    48.7557 </r>
       <r>     0.4681     5.9308    49.6789 </r>
       <r>     0.6238     5.4332    50.5246 </r>
       <r>     0.7794     5.3802    51.3621 </r>
       <r>     0.9351    10.2861    52.9632 </r>
       <r>     1.0907    10.9648    54.6700 </r>
       <r>     1.2464    13.0162    56.6961 </r>
       <r>     1.4021    16.2675    59.2283 </r>
       <r>     1.5577    13.8782    61.3885 </r>
       <r>     1.7134    11.7914    63.2240 </r>
       <r>     1.8690    10.1395    64.8023 </r>
       <r>     2.0247     7.8178    66.0192 </r>
       <r>     2.1804     5.4269    66.8639 </r>
       <r>     2.3360     6.4040    67.8608 </r>
       <r>     2.4917     4.7146    68.5947 </r>
       <r>     2.6473     3.2265    69.0969 </r>
       <r>     2.8030     3.4282    69.6305 </r>
       <r>     2.9587     3.6590    70.2001 </r>
       <r>     3.1143     4.6050    70.9169 </r>
       <r>     3.2700     1.9518    71.2207 </r>
       <r>     3.4256     0.8796    71.3576 </r>
       <r>     3.5813     1.9683    71.6640 </r>
       <r>     3.7370     2.0101    71.9769 </r>
       <r>     3.8926     0.7105    72.0875 </r>
       <r>     4.0483     0.4346    72.1551 </r>
       <r>     4.2039     1.7327    72.4249 </r>
       <r>     4.3596     0.1585    72.4495 </r>
       <r>     4.5152     0.1243    72.4689 </r>
       <r>     4.6709     1.0918    72.6388 </r>
       <r>     4.8266     1.6546    72.8964 </r>
       <r>     4.9822     2.0145    73.2100 </r>
       <r>     5.1379     0.2572    73.2500 </r>
       <r>     5.2935     0.3297    73.3013 </r>
       <r>     5.4492     1.3494    73.5114 </r>
       <r>     5.6049     2.6404    73.9224 </r>
       <r>     5.7605     1.6898    74.1854 </r>
       <r>     5.9162     0.7605    74.3038 </r>
       <r>     6.0718     0.7735    74.4242 </r>
       <r>     6.2275     0.1057    74.4406 </r>
       <r>     6.3832     0.9442    74.5876 </r>
       <r>     6.5388     0.8305    74.7169 </r>
       <r>     6.6945     0.2963    74.7630 </r>
       <r>     6.8501     1.2167    74.9524 </r>
       <r>     7.0058     0.4585    75.0238 </r>
       <r>     7.1615     0.1983    75.0546 </r>
       <r>     7.3171     1.1719    75.2371 </r>
       <r>     7.4728     1.5589    75.4797 </r>
       <r>     7.6284     1.6950    75.7436 </r>
       <r>     7.7841     2.7111    76.1656 </r>
       <r>     7.9397     3.2143    76.6659 </r>
       <r>     8.0954     2.5777    77.0671 </r>
       <r>     8.2511     3.8878    77.6723 </r>
       <r>     8.4067     4.1465    78.3177 </r>
       <r>     8.5624     4.2991    78.9869 </r>
       <r>     8.7180     5.7250    79.8781 </r>
       <r>     8.8737     3.8108    80.4713 </r>
       <r>     9.0294     4.1267    81.1136 </r>
       <r>     9.1850     4.7334    81.8504 </r>
       <r>     9.3407     4.1654    82.4988 </r>
       <r>     9.4963     5.0555    83.2857 </r>
       <r>     9.6520     4.7176    84.0201 </r>
       <r>     9.8077     4.7501    84.7595 </r>
       <r>     9.9633     7.0872    85.8627 </r>
       <r>    10.1190     7.0510    86.9602 </r>
       <r>    10.2746     5.9460    87.8858 </r>
       <r>    10.4303     8.1935    89.1612 </r>
       <r>    10.5860     8.5399    90.4905 </r>
       <r>    10.7416     6.4286    91.4912 </r>
       <r>    10.8973     2.7460    91.9186 </r>
       <r>    11.0529     0.5224    91.9999 </r>
       <r>    11.2086     0.0005    92.0000 </r>
       <r>    11.3642     0.0000    92.0000 </r>
       <r>    11.5199     0.0000    92.0000 </r>
       <r>    11.6756     0.0000    92.0000 </r>
       <r>    11.8312     0.0000    92.0000 </r>
       <r>    11.9869     0.0000    92.0000 </r>
       <r>    12.1425     0.0000    92.0000 </r>
       <r>    12.2982     0.0000    92.0000 </r>
       <r>    12.4539     0.0000    92.0000 </r>
       <r>    12.6095     0.0000    92.0000 </r>
       <r>    12.7652     0.0000    92.0000 </r>
       <r>    12.9208     0.0000    92.0000 </r>
       <r>    13.0765     0.0000    92.0000 </r>
      </set>
     </set>
    </array>
   </total>
  </dos>
 </calculation>
 <structure name="finalpos" >
  <crystal>
   <varray name="basis" >
    <v>       5.65685425       0.00000000       0.00000000 </v>
    <v>       2.82842712       4.89897949       0.00000000 </v>
    <v>       2.82842712       1.63299316       9.23760431 </v>
   </varray>
   <i name="volume">    256.00000000 </i>
   <varray name="rec_basis" >
    <v>       0.17677670      -0.10206207      -0.03608439 </v>
    <v>       0.00000000       0.20412415      -0.03608439 </v>
    <v>       0.00000000       0.00000000       0.10825318 </v>
   </varray>
  </crystal>
  <varray name="positions" >
   <v>       0.00000000       0.00000000       0.00000000 </v>
   <v>       0.75000000       0.75000000       0.75000000 </v>
   <v>       0.50000000       0.50000000       0.50000000 </v>
   <v>       0.25000000       0.25000000       0.25000000 </v>
   <v>       0.62500000       0.62500000       0.12500000 </v>
   <v>       0.37500000       0.37500000       0.87500000 </v>
   <v>       0.12500000       0.12500000       0.62500000 </v>
   <v>       0.87500000       0.87500000       0.37500000 </v>
   <v>       0.50000000       0.00000000       0.00000000 </v>
   <v>       0.00000000       0.50000000       0.50000000 </v>
   <v>       0.75000000       0.25000000       0.75000000 </v>
   <v>       0.50000000       0.00000000       0.50000000 </v>
   <v>       0.25000000       0.75000000       0.25000000 </v>
   <v>       0.50000000       0.50000000       0.00000000 </v>
   <v>       0.25000000       0.25000000       0.75000000 </v>
   <v>       0.00000000       0.00000000       0.50000000 </v>
   <v>       0.75000000       0.75000000       0.25000000 </v>
  </varray>
 </structure>
</modeling>
