<?xml version="1.0" encoding="ISO-8859-1"?>
<modeling>
 <generator>
  <i name="program" type="string">vasp </i>
  <i name="version" type="string">5.3.5  </i>
  <i name="subversion" type="string">31Mar14 (build Jun 20 2014 13:15:13) complex                          parallel </i>
  <i name="platform" type="string">LinuxIFC </i>
  <i name="date" type="string">2025 11 21 </i>
  <i name="time" type="string">11:33:45 </i>
 </generator>
 <incar>
  <i type="string" name="PREC">accurate</i>
  <i type="int" name="IALGO">    68</i>
  <i type="logical" name="ADDGRID"> T  </i>
  <i type="int" name="NELM">   100</i>
  <i type="int" name="NELMIN">     4</i>
  <i type="int" name="IBRION">     2</i>
  <i name="EDIFF">      0.00000100</i>
  <i name="EDIFFG">     -0.02000000</i>
  <i type="int" name="NSW">    30</i>
  <i type="int" name="ISIF">     3</i>
  <i name="ENCUT">    500.00000000</i>
  <i type="logical" name="LREAL"> F  </i>
  <i type="int" name="ISMEAR">     1</i>
  <i name="SIGMA">      0.30000000</i>
  <i type="logical" name="LWAVE"> F  </i>
  <i type="logical" name="LCHARG"> F  </i>
  <i type="int" name="NELM">   100</i>
 </incar>
 <kpoints>
  <generation param="Auto">
   <i name="subdivisionlength">     70.00000000 </i>
   <v type="int" name="divisions">      28       28        5 </v>
   <v name="usershift">      0.00000000       0.00000000       0.00000000 </v>
   <v name="genvec1">      0.03571429       0.00000000       0.00000000 </v>
   <v name="genvec2">      0.00000000       0.03571429       0.00000000 </v>
   <v name="genvec3">      0.00000000       0.00000000       0.20000000 </v>
   <v name="shift">      0.00000000       0.00000000       0.00000000 </v>
  </generation>
  <varray name="kpointlist" >
   <v>       0.00000000       0.00000000       0.00000000 </v>
   <v>       0.03571429       0.00000000       0.00000000 </v>
   <v>       0.07142857       0.00000000       0.00000000 </v>
   <v>       0.10714286       0.00000000       0.00000000 </v>
   <v>       0.14285714       0.00000000       0.00000000 </v>
   <v>       0.17857143       0.00000000       0.00000000 </v>
   <v>       0.21428571       0.00000000       0.00000000 </v>
   <v>       0.25000000       0.00000000       0.00000000 </v>
   <v>       0.28571429       0.00000000       0.00000000 </v>
   <v>       0.32142857       0.00000000       0.00000000 </v>
   <v>       0.35714286       0.00000000       0.00000000 </v>
   <v>       0.39285714       0.00000000       0.00000000 </v>
   <v>       0.42857143       0.00000000       0.00000000 </v>
   <v>       0.46428571       0.00000000       0.00000000 </v>
   <v>       0.50000000       0.00000000       0.00000000 </v>
   <v>       0.03571429       0.03571429       0.00000000 </v>
   <v>       0.07142857       0.03571429       0.00000000 </v>
   <v>       0.10714286       0.03571429       0.00000000 </v>
   <v>       0.14285714       0.03571429       0.00000000 </v>
   <v>       0.17857143       0.03571429       0.00000000 </v>
   <v>       0.21428571       0.03571429       0.00000000 </v>
   <v>       0.25000000       0.03571429       0.00000000 </v>
   <v>       0.28571429       0.03571429       0.00000000 </v>
   <v>       0.32142857       0.03571429       0.00000000 </v>
   <v>       0.35714286       0.03571429       0.00000000 </v>
   <v>       0.39285714       0.03571429       0.00000000 </v>
   <v>       0.42857143       0.03571429       0.00000000 </v>
   <v>       0.46428571       0.03571429       0.00000000 </v>
   <v>       0.07142857       0.07142857       0.00000000 </v>
   <v>       0.10714286       0.07142857       0.00000000 </v>
   <v>       0.14285714       0.07142857       0.00000000 </v>
   <v>       0.17857143       0.07142857       0.00000000 </v>
   <v>       0.21428571       0.07142857       0.00000000 </v>
   <v>       0.25000000       0.07142857       0.00000000 </v>
   <v>       0.28571429       0.07142857       0.00000000 </v>
   <v>       0.32142857       0.07142857       0.00000000 </v>
   <v>       0.35714286       0.07142857       0.00000000 </v>
   <v>       0.39285714       0.07142857       0.00000000 </v>
   <v>       0.42857143       0.07142857       0.00000000 </v>
   <v>       0.46428571       0.07142857       0.00000000 </v>
   <v>       0.10714286       0.10714286       0.00000000 </v>
   <v>       0.14285714       0.10714286       0.00000000 </v>
   <v>       0.17857143       0.10714286       0.00000000 </v>
   <v>       0.21428571       0.10714286       0.00000000 </v>
   <v>       0.25000000       0.10714286       0.00000000 </v>
   <v>       0.28571429       0.10714286       0.00000000 </v>
   <v>       0.32142857       0.10714286       0.00000000 </v>
   <v>       0.35714286       0.10714286       0.00000000 </v>
   <v>       0.39285714       0.10714286       0.00000000 </v>
   <v>       0.42857143       0.10714286       0.00000000 </v>
   <v>       0.14285714       0.14285714       0.00000000 </v>
   <v>       0.17857143       0.14285714       0.00000000 </v>
   <v>       0.21428571       0.14285714       0.00000000 </v>
   <v>       0.25000000       0.14285714       0.00000000 </v>
   <v>       0.28571429       0.14285714       0.00000000 </v>
   <v>       0.32142857       0.14285714       0.00000000 </v>
   <v>       0.35714286       0.14285714       0.00000000 </v>
   <v>       0.39285714       0.14285714       0.00000000 </v>
   <v>       0.42857143       0.14285714       0.00000000 </v>
   <v>       0.17857143       0.17857143       0.00000000 </v>
   <v>       0.21428571       0.17857143       0.00000000 </v>
   <v>       0.25000000       0.17857143       0.00000000 </v>
   <v>       0.28571429       0.17857143       0.00000000 </v>
   <v>       0.32142857       0.17857143       0.00000000 </v>
   <v>       0.35714286       0.17857143       0.00000000 </v>
   <v>       0.39285714       0.17857143       0.00000000 </v>
   <v>       0.21428571       0.21428571       0.00000000 </v>
   <v>       0.25000000       0.21428571       0.00000000 </v>
   <v>       0.28571429       0.21428571       0.00000000 </v>
   <v>       0.32142857       0.21428571       0.00000000 </v>
   <v>       0.35714286       0.21428571       0.00000000 </v>
   <v>       0.39285714       0.21428571       0.00000000 </v>
   <v>       0.25000000       0.25000000       0.00000000 </v>
   <v>       0.28571429       0.25000000       0.00000000 </v>
   <v>       0.32142857       0.25000000       0.00000000 </v>
   <v>       0.35714286       0.25000000       0.00000000 </v>
   <v>       0.28571429       0.28571429       0.00000000 </v>
   <v>       0.32142857       0.28571429       0.00000000 </v>
   <v>       0.35714286       0.28571429       0.00000000 </v>
   <v>       0.32142857       0.32142857       0.00000000 </v>
   <v>       0.00000000       0.00000000       0.20000000 </v>
   <v>       0.03571429       0.00000000       0.20000000 </v>
   <v>       0.07142857       0.00000000       0.20000000 </v>
   <v>       0.10714286       0.00000000       0.20000000 </v>
   <v>       0.14285714       0.00000000       0.20000000 </v>
   <v>       0.17857143       0.00000000       0.20000000 </v>
   <v>       0.21428571       0.00000000       0.20000000 </v>
   <v>       0.25000000       0.00000000       0.20000000 </v>
   <v>       0.28571429       0.00000000       0.20000000 </v>
   <v>       0.32142857       0.00000000       0.20000000 </v>
   <v>       0.35714286       0.00000000       0.20000000 </v>
   <v>       0.39285714       0.00000000       0.20000000 </v>
   <v>       0.42857143       0.00000000       0.20000000 </v>
   <v>       0.46428571       0.00000000       0.20000000 </v>
   <v>       0.50000000       0.00000000       0.20000000 </v>
   <v>      -0.46428571       0.00000000       0.20000000 </v>
   <v>      -0.42857143       0.00000000       0.20000000 </v>
   <v>      -0.39285714       0.00000000       0.20000000 </v>
   <v>      -0.35714286       0.00000000       0.20000000 </v>
   <v>      -0.32142857       0.00000000       0.20000000 </v>
   <v>      -0.28571429       0.00000000       0.20000000 </v>
   <v>      -0.25000000       0.00000000       0.20000000 </v>
   <v>      -0.21428571       0.00000000       0.20000000 </v>
   <v>      -0.17857143       0.00000000       0.20000000 </v>
   <v>      -0.14285714       0.00000000       0.20000000 </v>
   <v>      -0.10714286       0.00000000       0.20000000 </v>
   <v>      -0.07142857       0.00000000       0.20000000 </v>
   <v>      -0.03571429       0.00000000       0.20000000 </v>
   <v>       0.03571429       0.03571429       0.20000000 </v>
   <v>       0.07142857       0.03571429       0.20000000 </v>
   <v>       0.10714286       0.03571429       0.20000000 </v>
   <v>       0.14285714       0.03571429       0.20000000 </v>
   <v>       0.17857143       0.03571429       0.20000000 </v>
   <v>       0.21428571       0.03571429       0.20000000 </v>
   <v>       0.25000000       0.03571429       0.20000000 </v>
   <v>       0.28571429       0.03571429       0.20000000 </v>
   <v>       0.32142857       0.03571429       0.20000000 </v>
   <v>       0.35714286       0.03571429       0.20000000 </v>
   <v>       0.39285714       0.03571429       0.20000000 </v>
   <v>       0.42857143       0.03571429       0.20000000 </v>
   <v>       0.46428571       0.03571429       0.20000000 </v>
   <v>       0.50000000       0.03571429       0.20000000 </v>
   <v>      -0.46428571       0.03571429       0.20000000 </v>
   <v>      -0.42857143       0.03571429       0.20000000 </v>
   <v>      -0.39285714       0.03571429       0.20000000 </v>
   <v>      -0.35714286       0.03571429       0.20000000 </v>
   <v>      -0.32142857       0.03571429       0.20000000 </v>
   <v>      -0.28571429       0.03571429       0.20000000 </v>
   <v>      -0.25000000       0.03571429       0.20000000 </v>
   <v>      -0.21428571       0.03571429       0.20000000 </v>
   <v>      -0.17857143       0.03571429       0.20000000 </v>
   <v>      -0.14285714       0.03571429       0.20000000 </v>
   <v>      -0.10714286       0.03571429       0.20000000 </v>
   <v>       0.07142857       0.07142857       0.20000000 </v>
   <v>       0.10714286       0.07142857       0.20000000 </v>
   <v>       0.14285714       0.07142857       0.20000000 </v>
   <v>       0.17857143       0.07142857       0.20000000 </v>
   <v>       0.21428571       0.07142857       0.20000000 </v>
   <v>       0.25000000       0.07142857       0.20000000 </v>
   <v>       0.28571429       0.07142857       0.20000000 </v>
   <v>       0.32142857       0.07142857       0.20000000 </v>
   <v>       0.35714286       0.07142857       0.20000000 </v>
   <v>       0.39285714       0.07142857       0.20000000 </v>
   <v>       0.42857143       0.07142857       0.20000000 </v>
   <v>       0.46428571       0.07142857       0.20000000 </v>
   <v>       0.50000000       0.07142857       0.20000000 </v>
   <v>      -0.46428571       0.07142857       0.20000000 </v>
   <v>      -0.42857143       0.07142857       0.20000000 </v>
   <v>      -0.39285714       0.07142857       0.20000000 </v>
   <v>      -0.35714286       0.07142857       0.20000000 </v>
   <v>      -0.32142857       0.07142857       0.20000000 </v>
   <v>      -0.28571429       0.07142857       0.20000000 </v>
   <v>      -0.25000000       0.07142857       0.20000000 </v>
   <v>      -0.21428571       0.07142857       0.20000000 </v>
   <v>      -0.17857143       0.07142857       0.20000000 </v>
   <v>       0.10714286       0.10714286       0.20000000 </v>
   <v>       0.14285714       0.10714286       0.20000000 </v>
   <v>       0.17857143       0.10714286       0.20000000 </v>
   <v>       0.21428571       0.10714286       0.20000000 </v>
   <v>       0.25000000       0.10714286       0.20000000 </v>
   <v>       0.28571429       0.10714286       0.20000000 </v>
   <v>       0.32142857       0.10714286       0.20000000 </v>
   <v>       0.35714286       0.10714286       0.20000000 </v>
   <v>       0.39285714       0.10714286       0.20000000 </v>
   <v>       0.42857143       0.10714286       0.20000000 </v>
   <v>       0.46428571       0.10714286       0.20000000 </v>
   <v>       0.50000000       0.10714286       0.20000000 </v>
   <v>      -0.46428571       0.10714286       0.20000000 </v>
   <v>      -0.42857143       0.10714286       0.20000000 </v>
   <v>      -0.39285714       0.10714286       0.20000000 </v>
   <v>      -0.35714286       0.10714286       0.20000000 </v>
   <v>      -0.32142857       0.10714286       0.20000000 </v>
   <v>      -0.28571429       0.10714286       0.20000000 </v>
   <v>      -0.25000000       0.10714286       0.20000000 </v>
   <v>       0.14285714       0.14285714       0.20000000 </v>
   <v>       0.17857143       0.14285714       0.20000000 </v>
   <v>       0.21428571       0.14285714       0.20000000 </v>
   <v>       0.25000000       0.14285714       0.20000000 </v>
   <v>       0.28571429       0.14285714       0.20000000 </v>
   <v>       0.32142857       0.14285714       0.20000000 </v>
   <v>       0.35714286       0.14285714       0.20000000 </v>
   <v>       0.39285714       0.14285714       0.20000000 </v>
   <v>       0.42857143       0.14285714       0.20000000 </v>
   <v>       0.46428571       0.14285714       0.20000000 </v>
   <v>       0.50000000       0.14285714       0.20000000 </v>
   <v>      -0.46428571       0.14285714       0.20000000 </v>
   <v>      -0.42857143       0.14285714       0.20000000 </v>
   <v>      -0.39285714       0.14285714       0.20000000 </v>
   <v>      -0.35714286       0.14285714       0.20000000 </v>
   <v>      -0.32142857       0.14285714       0.20000000 </v>
   <v>       0.17857143       0.17857143       0.20000000 </v>
   <v>       0.21428571       0.17857143       0.20000000 </v>
   <v>       0.25000000       0.17857143       0.20000000 </v>
   <v>       0.28571429       0.17857143       0.20000000 </v>
   <v>       0.32142857       0.17857143       0.20000000 </v>
   <v>       0.35714286       0.17857143       0.20000000 </v>
   <v>       0.39285714       0.17857143       0.20000000 </v>
   <v>       0.42857143       0.17857143       0.20000000 </v>
   <v>       0.46428571       0.17857143       0.20000000 </v>
   <v>       0.50000000       0.17857143       0.20000000 </v>
   <v>      -0.46428571       0.17857143       0.20000000 </v>
   <v>      -0.42857143       0.17857143       0.20000000 </v>
   <v>      -0.39285714       0.17857143       0.20000000 </v>
   <v>       0.21428571       0.21428571       0.20000000 </v>
   <v>       0.25000000       0.21428571       0.20000000 </v>
   <v>       0.28571429       0.21428571       0.20000000 </v>
   <v>       0.32142857       0.21428571       0.20000000 </v>
   <v>       0.35714286       0.21428571       0.20000000 </v>
   <v>       0.39285714       0.21428571       0.20000000 </v>
   <v>       0.42857143       0.21428571       0.20000000 </v>
   <v>       0.46428571       0.21428571       0.20000000 </v>
   <v>       0.50000000       0.21428571       0.20000000 </v>
   <v>      -0.46428571       0.21428571       0.20000000 </v>
   <v>       0.25000000       0.25000000       0.20000000 </v>
   <v>       0.28571429       0.25000000       0.20000000 </v>
   <v>       0.32142857       0.25000000       0.20000000 </v>
   <v>       0.35714286       0.25000000       0.20000000 </v>
   <v>       0.39285714       0.25000000       0.20000000 </v>
   <v>       0.42857143       0.25000000       0.20000000 </v>
   <v>       0.46428571       0.25000000       0.20000000 </v>
   <v>       0.28571429       0.28571429       0.20000000 </v>
   <v>       0.32142857       0.28571429       0.20000000 </v>
   <v>       0.35714286       0.28571429       0.20000000 </v>
   <v>       0.39285714       0.28571429       0.20000000 </v>
   <v>       0.32142857       0.32142857       0.20000000 </v>
   <v>       0.00000000       0.00000000       0.40000000 </v>
   <v>       0.03571429       0.00000000       0.40000000 </v>
   <v>       0.07142857       0.00000000       0.40000000 </v>
   <v>       0.10714286       0.00000000       0.40000000 </v>
   <v>       0.14285714       0.00000000       0.40000000 </v>
   <v>       0.17857143       0.00000000       0.40000000 </v>
   <v>       0.21428571       0.00000000       0.40000000 </v>
   <v>       0.25000000       0.00000000       0.40000000 </v>
   <v>       0.28571429       0.00000000       0.40000000 </v>
   <v>       0.32142857       0.00000000       0.40000000 </v>
   <v>       0.35714286       0.00000000       0.40000000 </v>
   <v>       0.39285714       0.00000000       0.40000000 </v>
   <v>       0.42857143       0.00000000       0.40000000 </v>
   <v>       0.46428571       0.00000000       0.40000000 </v>
   <v>       0.50000000       0.00000000       0.40000000 </v>
   <v>      -0.46428571       0.00000000       0.40000000 </v>
   <v>      -0.42857143       0.00000000       0.40000000 </v>
   <v>      -0.39285714       0.00000000       0.40000000 </v>
   <v>      -0.35714286       0.00000000       0.40000000 </v>
   <v>      -0.32142857       0.00000000       0.40000000 </v>
   <v>      -0.28571429       0.00000000       0.40000000 </v>
   <v>      -0.25000000       0.00000000       0.40000000 </v>
   <v>      -0.21428571       0.00000000       0.40000000 </v>
   <v>      -0.17857143       0.00000000       0.40000000 </v>
   <v>      -0.14285714       0.00000000       0.40000000 </v>
   <v>      -0.10714286       0.00000000       0.40000000 </v>
   <v>      -0.07142857       0.00000000       0.40000000 </v>
   <v>      -0.03571429       0.00000000       0.40000000 </v>
   <v>       0.03571429       0.03571429       0.40000000 </v>
   <v>       0.07142857       0.03571429       0.40000000 </v>
   <v>       0.10714286       0.03571429       0.40000000 </v>
   <v>       0.14285714       0.03571429       0.40000000 </v>
   <v>       0.17857143       0.03571429       0.40000000 </v>
   <v>       0.21428571       0.03571429       0.40000000 </v>
   <v>       0.25000000       0.03571429       0.40000000 </v>
   <v>       0.28571429       0.03571429       0.40000000 </v>
   <v>       0.32142857       0.03571429       0.40000000 </v>
   <v>       0.35714286       0.03571429       0.40000000 </v>
   <v>       0.39285714       0.03571429       0.40000000 </v>
   <v>       0.42857143       0.03571429       0.40000000 </v>
   <v>       0.46428571       0.03571429       0.40000000 </v>
   <v>       0.50000000       0.03571429       0.40000000 </v>
   <v>      -0.46428571       0.03571429       0.40000000 </v>
   <v>      -0.42857143       0.03571429       0.40000000 </v>
   <v>      -0.39285714       0.03571429       0.40000000 </v>
   <v>      -0.35714286       0.03571429       0.40000000 </v>
   <v>      -0.32142857       0.03571429       0.40000000 </v>
   <v>      -0.28571429       0.03571429       0.40000000 </v>
   <v>      -0.25000000       0.03571429       0.40000000 </v>
   <v>      -0.21428571       0.03571429       0.40000000 </v>
   <v>      -0.17857143       0.03571429       0.40000000 </v>
   <v>      -0.14285714       0.03571429       0.40000000 </v>
   <v>      -0.10714286       0.03571429       0.40000000 </v>
   <v>       0.07142857       0.07142857       0.40000000 </v>
   <v>       0.10714286       0.07142857       0.40000000 </v>
   <v>       0.14285714       0.07142857       0.40000000 </v>
   <v>       0.17857143       0.07142857       0.40000000 </v>
   <v>       0.21428571       0.07142857       0.40000000 </v>
   <v>       0.25000000       0.07142857       0.40000000 </v>
   <v>       0.28571429       0.07142857       0.40000000 </v>
   <v>       0.32142857       0.07142857       0.40000000 </v>
   <v>       0.35714286       0.07142857       0.40000000 </v>
   <v>       0.39285714       0.07142857       0.40000000 </v>
   <v>       0.42857143       0.07142857       0.40000000 </v>
   <v>       0.46428571       0.07142857       0.40000000 </v>
   <v>       0.50000000       0.07142857       0.40000000 </v>
   <v>      -0.46428571       0.07142857       0.40000000 </v>
   <v>      -0.42857143       0.07142857       0.40000000 </v>
   <v>      -0.39285714       0.07142857       0.40000000 </v>
   <v>      -0.35714286       0.07142857       0.40000000 </v>
   <v>      -0.32142857       0.07142857       0.40000000 </v>
   <v>      -0.28571429       0.07142857       0.40000000 </v>
   <v>      -0.25000000       0.07142857       0.40000000 </v>
   <v>      -0.21428571       0.07142857       0.40000000 </v>
   <v>      -0.17857143       0.07142857       0.40000000 </v>
   <v>       0.10714286       0.10714286       0.40000000 </v>
   <v>       0.14285714       0.10714286       0.40000000 </v>
   <v>       0.17857143       0.10714286       0.40000000 </v>
   <v>       0.21428571       0.10714286       0.40000000 </v>
   <v>       0.25000000       0.10714286       0.40000000 </v>
   <v>       0.28571429       0.10714286       0.40000000 </v>
   <v>       0.32142857       0.10714286       0.40000000 </v>
   <v>       0.35714286       0.10714286       0.40000000 </v>
   <v>       0.39285714       0.10714286       0.40000000 </v>
   <v>       0.42857143       0.10714286       0.40000000 </v>
   <v>       0.46428571       0.10714286       0.40000000 </v>
   <v>       0.50000000       0.10714286       0.40000000 </v>
   <v>      -0.46428571       0.10714286       0.40000000 </v>
   <v>      -0.42857143       0.10714286       0.40000000 </v>
   <v>      -0.39285714       0.10714286       0.40000000 </v>
   <v>      -0.35714286       0.10714286       0.40000000 </v>
   <v>      -0.32142857       0.10714286       0.40000000 </v>
   <v>      -0.28571429       0.10714286       0.40000000 </v>
   <v>      -0.25000000       0.10714286       0.40000000 </v>
   <v>       0.14285714       0.14285714       0.40000000 </v>
   <v>       0.17857143       0.14285714       0.40000000 </v>
   <v>       0.21428571       0.14285714       0.40000000 </v>
   <v>       0.25000000       0.14285714       0.40000000 </v>
   <v>       0.28571429       0.14285714       0.40000000 </v>
   <v>       0.32142857       0.14285714       0.40000000 </v>
   <v>       0.35714286       0.14285714       0.40000000 </v>
   <v>       0.39285714       0.14285714       0.40000000 </v>
   <v>       0.42857143       0.14285714       0.40000000 </v>
   <v>       0.46428571       0.14285714       0.40000000 </v>
   <v>       0.50000000       0.14285714       0.40000000 </v>
   <v>      -0.46428571       0.14285714       0.40000000 </v>
   <v>      -0.42857143       0.14285714       0.40000000 </v>
   <v>      -0.39285714       0.14285714       0.40000000 </v>
   <v>      -0.35714286       0.14285714       0.40000000 </v>
   <v>      -0.32142857       0.14285714       0.40000000 </v>
   <v>       0.17857143       0.17857143       0.40000000 </v>
   <v>       0.21428571       0.17857143       0.40000000 </v>
   <v>       0.25000000       0.17857143       0.40000000 </v>
   <v>       0.28571429       0.17857143       0.40000000 </v>
   <v>       0.32142857       0.17857143       0.40000000 </v>
   <v>       0.35714286       0.17857143       0.40000000 </v>
   <v>       0.39285714       0.17857143       0.40000000 </v>
   <v>       0.42857143       0.17857143       0.40000000 </v>
   <v>       0.46428571       0.17857143       0.40000000 </v>
   <v>       0.50000000       0.17857143       0.40000000 </v>
   <v>      -0.46428571       0.17857143       0.40000000 </v>
   <v>      -0.42857143       0.17857143       0.40000000 </v>
   <v>      -0.39285714       0.17857143       0.40000000 </v>
   <v>       0.21428571       0.21428571       0.40000000 </v>
   <v>       0.25000000       0.21428571       0.40000000 </v>
   <v>       0.28571429       0.21428571       0.40000000 </v>
   <v>       0.32142857       0.21428571       0.40000000 </v>
   <v>       0.35714286       0.21428571       0.40000000 </v>
   <v>       0.39285714       0.21428571       0.40000000 </v>
   <v>       0.42857143       0.21428571       0.40000000 </v>
   <v>       0.46428571       0.21428571       0.40000000 </v>
   <v>       0.50000000       0.21428571       0.40000000 </v>
   <v>      -0.46428571       0.21428571       0.40000000 </v>
   <v>       0.25000000       0.25000000       0.40000000 </v>
   <v>       0.28571429       0.25000000       0.40000000 </v>
   <v>       0.32142857       0.25000000       0.40000000 </v>
   <v>       0.35714286       0.25000000       0.40000000 </v>
   <v>       0.39285714       0.25000000       0.40000000 </v>
   <v>       0.42857143       0.25000000       0.40000000 </v>
   <v>       0.46428571       0.25000000       0.40000000 </v>
   <v>       0.28571429       0.28571429       0.40000000 </v>
   <v>       0.32142857       0.28571429       0.40000000 </v>
   <v>       0.35714286       0.28571429       0.40000000 </v>
   <v>       0.39285714       0.28571429       0.40000000 </v>
   <v>       0.32142857       0.32142857       0.40000000 </v>
  </varray>
  <varray name="weights" >
   <v>       0.00025510 </v>
   <v>       0.00153061 </v>
   <v>       0.00153061 </v>
   <v>       0.00153061 </v>
   <v>       0.00153061 </v>
   <v>       0.00153061 </v>
   <v>       0.00153061 </v>
   <v>       0.00153061 </v>
   <v>       0.00153061 </v>
   <v>       0.00153061 </v>
   <v>       0.00153061 </v>
   <v>       0.00153061 </v>
   <v>       0.00153061 </v>
   <v>       0.00153061 </v>
   <v>       0.00076531 </v>
   <v>       0.00153061 </v>
   <v>       0.00306122 </v>
   <v>       0.00306122 </v>
   <v>       0.00306122 </v>
   <v>       0.00306122 </v>
   <v>       0.00306122 </v>
   <v>       0.00306122 </v>
   <v>       0.00306122 </v>
   <v>       0.00306122 </v>
   <v>       0.00306122 </v>
   <v>       0.00306122 </v>
   <v>       0.00306122 </v>
   <v>       0.00306122 </v>
   <v>       0.00153061 </v>
   <v>       0.00306122 </v>
   <v>       0.00306122 </v>
   <v>       0.00306122 </v>
   <v>       0.00306122 </v>
   <v>       0.00306122 </v>
   <v>       0.00306122 </v>
   <v>       0.00306122 </v>
   <v>       0.00306122 </v>
   <v>       0.00306122 </v>
   <v>       0.00306122 </v>
   <v>       0.00153061 </v>
   <v>       0.00153061 </v>
   <v>       0.00306122 </v>
   <v>       0.00306122 </v>
   <v>       0.00306122 </v>
   <v>       0.00306122 </v>
   <v>       0.00306122 </v>
   <v>       0.00306122 </v>
   <v>       0.00306122 </v>
   <v>       0.00306122 </v>
   <v>       0.00306122 </v>
   <v>       0.00153061 </v>
   <v>       0.00306122 </v>
   <v>       0.00306122 </v>
   <v>       0.00306122 </v>
   <v>       0.00306122 </v>
   <v>       0.00306122 </v>
   <v>       0.00306122 </v>
   <v>       0.00306122 </v>
   <v>       0.00153061 </v>
   <v>       0.00153061 </v>
   <v>       0.00306122 </v>
   <v>       0.00306122 </v>
   <v>       0.00306122 </v>
   <v>       0.00306122 </v>
   <v>       0.00306122 </v>
   <v>       0.00306122 </v>
   <v>       0.00153061 </v>
   <v>       0.00306122 </v>
   <v>       0.00306122 </v>
   <v>       0.00306122 </v>
   <v>       0.00306122 </v>
   <v>       0.00153061 </v>
   <v>       0.00153061 </v>
   <v>       0.00306122 </v>
   <v>       0.00306122 </v>
   <v>       0.00306122 </v>
   <v>       0.00153061 </v>
   <v>       0.00306122 </v>
   <v>       0.00153061 </v>
   <v>       0.00153061 </v>
   <v>       0.00051020 </v>
   <v>       0.00153061 </v>
   <v>       0.00153061 </v>
   <v>       0.00153061 </v>
   <v>       0.00153061 </v>
   <v>       0.00153061 </v>
   <v>       0.00153061 </v>
   <v>       0.00153061 </v>
   <v>       0.00153061 </v>
   <v>       0.00153061 </v>
   <v>       0.00153061 </v>
   <v>       0.00153061 </v>
   <v>       0.00153061 </v>
   <v>       0.00153061 </v>
   <v>       0.00153061 </v>
   <v>       0.00153061 </v>
   <v>       0.00153061 </v>
   <v>       0.00153061 </v>
   <v>       0.00153061 </v>
   <v>       0.00153061 </v>
   <v>       0.00153061 </v>
   <v>       0.00153061 </v>
   <v>       0.00153061 </v>
   <v>       0.00153061 </v>
   <v>       0.00153061 </v>
   <v>       0.00153061 </v>
   <v>       0.00153061 </v>
   <v>       0.00153061 </v>
   <v>       0.00306122 </v>
   <v>       0.00306122 </v>
   <v>       0.00306122 </v>
   <v>       0.00306122 </v>
   <v>       0.00306122 </v>
   <v>       0.00306122 </v>
   <v>       0.00306122 </v>
   <v>       0.00306122 </v>
   <v>       0.00306122 </v>
   <v>       0.00306122 </v>
   <v>       0.00306122 </v>
   <v>       0.00306122 </v>
   <v>       0.00306122 </v>
   <v>       0.00306122 </v>
   <v>       0.00306122 </v>
   <v>       0.00306122 </v>
   <v>       0.00306122 </v>
   <v>       0.00306122 </v>
   <v>       0.00306122 </v>
   <v>       0.00306122 </v>
   <v>       0.00306122 </v>
   <v>       0.00306122 </v>
   <v>       0.00306122 </v>
   <v>       0.00306122 </v>
   <v>       0.00306122 </v>
   <v>       0.00306122 </v>
   <v>       0.00306122 </v>
   <v>       0.00306122 </v>
   <v>       0.00306122 </v>
   <v>       0.00306122 </v>
   <v>       0.00306122 </v>
   <v>       0.00306122 </v>
   <v>       0.00306122 </v>
   <v>       0.00306122 </v>
   <v>       0.00306122 </v>
   <v>       0.00306122 </v>
   <v>       0.00306122 </v>
   <v>       0.00306122 </v>
   <v>       0.00306122 </v>
   <v>       0.00306122 </v>
   <v>       0.00306122 </v>
   <v>       0.00306122 </v>
   <v>       0.00306122 </v>
   <v>       0.00306122 </v>
   <v>       0.00306122 </v>
   <v>       0.00306122 </v>
   <v>       0.00306122 </v>
   <v>       0.00306122 </v>
   <v>       0.00306122 </v>
   <v>       0.00306122 </v>
   <v>       0.00306122 </v>
   <v>       0.00306122 </v>
   <v>       0.00306122 </v>
   <v>       0.00306122 </v>
   <v>       0.00306122 </v>
   <v>       0.00306122 </v>
   <v>       0.00306122 </v>
   <v>       0.00306122 </v>
   <v>       0.00306122 </v>
   <v>       0.00306122 </v>
   <v>       0.00306122 </v>
   <v>       0.00306122 </v>
   <v>       0.00306122 </v>
   <v>       0.00306122 </v>
   <v>       0.00306122 </v>
   <v>       0.00306122 </v>
   <v>       0.00306122 </v>
   <v>       0.00306122 </v>
   <v>       0.00306122 </v>
   <v>       0.00306122 </v>
   <v>       0.00306122 </v>
   <v>       0.00306122 </v>
   <v>       0.00306122 </v>
   <v>       0.00306122 </v>
   <v>       0.00306122 </v>
   <v>       0.00306122 </v>
   <v>       0.00306122 </v>
   <v>       0.00306122 </v>
   <v>       0.00306122 </v>
   <v>       0.00306122 </v>
   <v>       0.00306122 </v>
   <v>       0.00306122 </v>
   <v>       0.00306122 </v>
   <v>       0.00306122 </v>
   <v>       0.00306122 </v>
   <v>       0.00306122 </v>
   <v>       0.00306122 </v>
   <v>       0.00306122 </v>
   <v>       0.00306122 </v>
   <v>       0.00306122 </v>
   <v>       0.00306122 </v>
   <v>       0.00306122 </v>
   <v>       0.00306122 </v>
   <v>       0.00306122 </v>
   <v>       0.00306122 </v>
   <v>       0.00306122 </v>
   <v>       0.00306122 </v>
   <v>       0.00306122 </v>
   <v>       0.00306122 </v>
   <v>       0.00306122 </v>
   <v>       0.00306122 </v>
   <v>       0.00306122 </v>
   <v>       0.00306122 </v>
   <v>       0.00306122 </v>
   <v>       0.00306122 </v>
   <v>       0.00306122 </v>
   <v>       0.00306122 </v>
   <v>       0.00306122 </v>
   <v>       0.00306122 </v>
   <v>       0.00306122 </v>
   <v>       0.00306122 </v>
   <v>       0.00306122 </v>
   <v>       0.00306122 </v>
   <v>       0.00306122 </v>
   <v>       0.00306122 </v>
   <v>       0.00306122 </v>
   <v>       0.00306122 </v>
   <v>       0.00051020 </v>
   <v>       0.00153061 </v>
   <v>       0.00153061 </v>
   <v>       0.00153061 </v>
   <v>       0.00153061 </v>
   <v>       0.00153061 </v>
   <v>       0.00153061 </v>
   <v>       0.00153061 </v>
   <v>       0.00153061 </v>
   <v>       0.00153061 </v>
   <v>       0.00153061 </v>
   <v>       0.00153061 </v>
   <v>       0.00153061 </v>
   <v>       0.00153061 </v>
   <v>       0.00153061 </v>
   <v>       0.00153061 </v>
   <v>       0.00153061 </v>
   <v>       0.00153061 </v>
   <v>       0.00153061 </v>
   <v>       0.00153061 </v>
   <v>       0.00153061 </v>
   <v>       0.00153061 </v>
   <v>       0.00153061 </v>
   <v>       0.00153061 </v>
   <v>       0.00153061 </v>
   <v>       0.00153061 </v>
   <v>       0.00153061 </v>
   <v>       0.00153061 </v>
   <v>       0.00306122 </v>
   <v>       0.00306122 </v>
   <v>       0.00306122 </v>
   <v>       0.00306122 </v>
   <v>       0.00306122 </v>
   <v>       0.00306122 </v>
   <v>       0.00306122 </v>
   <v>       0.00306122 </v>
   <v>       0.00306122 </v>
   <v>       0.00306122 </v>
   <v>       0.00306122 </v>
   <v>       0.00306122 </v>
   <v>       0.00306122 </v>
   <v>       0.00306122 </v>
   <v>       0.00306122 </v>
   <v>       0.00306122 </v>
   <v>       0.00306122 </v>
   <v>       0.00306122 </v>
   <v>       0.00306122 </v>
   <v>       0.00306122 </v>
   <v>       0.00306122 </v>
   <v>       0.00306122 </v>
   <v>       0.00306122 </v>
   <v>       0.00306122 </v>
   <v>       0.00306122 </v>
   <v>       0.00306122 </v>
   <v>       0.00306122 </v>
   <v>       0.00306122 </v>
   <v>       0.00306122 </v>
   <v>       0.00306122 </v>
   <v>       0.00306122 </v>
   <v>       0.00306122 </v>
   <v>       0.00306122 </v>
   <v>       0.00306122 </v>
   <v>       0.00306122 </v>
   <v>       0.00306122 </v>
   <v>       0.00306122 </v>
   <v>       0.00306122 </v>
   <v>       0.00306122 </v>
   <v>       0.00306122 </v>
   <v>       0.00306122 </v>
   <v>       0.00306122 </v>
   <v>       0.00306122 </v>
   <v>       0.00306122 </v>
   <v>       0.00306122 </v>
   <v>       0.00306122 </v>
   <v>       0.00306122 </v>
   <v>       0.00306122 </v>
   <v>       0.00306122 </v>
   <v>       0.00306122 </v>
   <v>       0.00306122 </v>
   <v>       0.00306122 </v>
   <v>       0.00306122 </v>
   <v>       0.00306122 </v>
   <v>       0.00306122 </v>
   <v>       0.00306122 </v>
   <v>       0.00306122 </v>
   <v>       0.00306122 </v>
   <v>       0.00306122 </v>
   <v>       0.00306122 </v>
   <v>       0.00306122 </v>
   <v>       0.00306122 </v>
   <v>       0.00306122 </v>
   <v>       0.00306122 </v>
   <v>       0.00306122 </v>
   <v>       0.00306122 </v>
   <v>       0.00306122 </v>
   <v>       0.00306122 </v>
   <v>       0.00306122 </v>
   <v>       0.00306122 </v>
   <v>       0.00306122 </v>
   <v>       0.00306122 </v>
   <v>       0.00306122 </v>
   <v>       0.00306122 </v>
   <v>       0.00306122 </v>
   <v>       0.00306122 </v>
   <v>       0.00306122 </v>
   <v>       0.00306122 </v>
   <v>       0.00306122 </v>
   <v>       0.00306122 </v>
   <v>       0.00306122 </v>
   <v>       0.00306122 </v>
   <v>       0.00306122 </v>
   <v>       0.00306122 </v>
   <v>       0.00306122 </v>
   <v>       0.00306122 </v>
   <v>       0.00306122 </v>
   <v>       0.00306122 </v>
   <v>       0.00306122 </v>
   <v>       0.00306122 </v>
   <v>       0.00306122 </v>
   <v>       0.00306122 </v>
   <v>       0.00306122 </v>
   <v>       0.00306122 </v>
   <v>       0.00306122 </v>
   <v>       0.00306122 </v>
   <v>       0.00306122 </v>
   <v>       0.00306122 </v>
   <v>       0.00306122 </v>
   <v>       0.00306122 </v>
   <v>       0.00306122 </v>
   <v>       0.00306122 </v>
   <v>       0.00306122 </v>
   <v>       0.00306122 </v>
   <v>       0.00306122 </v>
   <v>       0.00306122 </v>
   <v>       0.00306122 </v>
   <v>       0.00306122 </v>
   <v>       0.00306122 </v>
   <v>       0.00306122 </v>
   <v>       0.00306122 </v>
   <v>       0.00306122 </v>
   <v>       0.00306122 </v>
   <v>       0.00306122 </v>
   <v>       0.00306122 </v>
   <v>       0.00306122 </v>
   <v>       0.00306122 </v>
  </varray>
 </kpoints>
 <parameters>
  <separator name="general" >
   <i type="string" name="SYSTEM">unknown system</i>
   <i type="logical" name="LCOMPAT"> F  </i>
  </separator>
  <separator name="electronic" >
   <i type="string" name="PREC">accura</i>
   <i name="ENMAX">    500.00000000</i>
   <i name="ENAUG">    412.49600000</i>
   <i name="EDIFF">      0.00000100</i>
   <i type="int" name="IALGO">    68</i>
   <i type="int" name="IWAVPR">    11</i>
   <i type="int" name="NBANDS">    40</i>
   <i name="NELECT">     66.00000000</i>
   <i type="int" name="TURBO">     0</i>
   <i type="int" name="IRESTART">     0</i>
   <i type="int" name="NREBOOT">     0</i>
   <i type="int" name="NMIN">     0</i>
   <i name="EREF">      0.00000000</i>
   <separator name="electronic smearing" >
    <i type="int" name="ISMEAR">     1</i>
    <i name="SIGMA">      0.30000000</i>
    <i name="KSPACING">      0.50000000</i>
    <i type="logical" name="KGAMMA"> T  </i>
   </separator>
   <separator name="electronic projectors" >
    <i type="logical" name="LREAL"> F  </i>
    <v name="ROPT">      0.00000000      0.00000000</v>
    <i type="int" name="LMAXPAW">  -100</i>
    <i type="int" name="LMAXMIX">     2</i>
    <i type="logical" name="NLSPLINE"> F  </i>
   </separator>
   <separator name="electronic startup" >
    <i type="int" name="ISTART">     0</i>
    <i type="int" name="ICHARG">     2</i>
    <i type="int" name="INIWAV">     1</i>
   </separator>
   <separator name="electronic spin" >
    <i type="int" name="ISPIN">     1</i>
    <i type="logical" name="LNONCOLLINEAR"> F  </i>
    <v name="MAGMOM">      1.00000000      1.00000000      1.00000000      1.00000000      1.00000000      1.00000000</v>
    <i name="NUPDOWN">     -1.00000000</i>
    <i type="logical" name="LSORBIT"> F  </i>
    <v name="SAXIS">      0.00000000      0.00000000      1.00000000</v>
    <i type="logical" name="LSPIRAL"> F  </i>
    <v name="QSPIRAL">      0.00000000      0.00000000      0.00000000</v>
    <i type="logical" name="LZEROZ"> F  </i>
   </separator>
   <separator name="electronic exchange-correlation" >
    <i type="logical" name="LASPH"> F  </i>
    <i type="logical" name="LMETAGGA"> F  </i>
   </separator>
   <separator name="electronic convergence" >
    <i type="int" name="NELM">   100</i>
    <i type="int" name="NELMDL">     0</i>
    <i type="int" name="NELMIN">     4</i>
    <i name="ENINI">    500.00000000</i>
    <separator name="electronic convergence detail" >
     <i type="logical" name="LDIAG"> T  </i>
     <i type="logical" name="LSUBROT"> F  </i>
     <i name="WEIMIN">      0.00100000</i>
     <i name="EBREAK">      0.00000001</i>
     <i name="DEPER">      0.30000000</i>
     <i type="int" name="NRMM">     4</i>
     <i name="TIME">      0.40000000</i>
    </separator>
   </separator>
   <separator name="electronic mixer" >
    <i name="AMIX">      0.40000000</i>
    <i name="BMIX">      1.00000000</i>
    <i name="AMIN">      0.10000000</i>
    <i name="AMIX_MAG">      1.60000000</i>
    <i name="BMIX_MAG">      1.00000000</i>
    <separator name="electronic mixer details" >
     <i type="int" name="IMIX">     4</i>
     <i type="int" name="MAXMIX">   -45</i>
     <i name="WC">    100.00000000</i>
     <i type="int" name="INIMIX">     1</i>
     <i type="int" name="MIXPRE">     1</i>
     <i type="int" name="MREMOVE">     5</i>
    </separator>
   </separator>
   <separator name="electronic dipolcorrection" >
    <i type="logical" name="LDIPOL"> F  </i>
    <i type="logical" name="LMONO"> F  </i>
    <i type="int" name="IDIPOL">     0</i>
    <i name="EPSILON">      1.00000000</i>
    <v name="DIPOL">   -100.00000000   -100.00000000   -100.00000000</v>
    <i name="EFIELD">      0.00000000</i>
   </separator>
  </separator>
  <separator name="grids" >
   <i type="int" name="NGX">    24</i>
   <i type="int" name="NGY">    24</i>
   <i type="int" name="NGZ">   108</i>
   <i type="int" name="NGXF">    48</i>
   <i type="int" name="NGYF">    48</i>
   <i type="int" name="NGZF">   216</i>
   <i type="logical" name="ADDGRID"> T  </i>
  </separator>
  <separator name="ionic" >
   <i type="int" name="NSW">    30</i>
   <i type="int" name="IBRION">     2</i>
   <i type="int" name="ISIF">     3</i>
   <i name="PSTRESS">      0.00000000</i>
   <i name="EDIFFG">     -0.02000000</i>
   <i type="int" name="NFREE">     1</i>
   <i name="POTIM">      0.50000000</i>
   <i name="SMASS">     -3.00000000</i>
   <i name="SCALEE">      1.00000000</i>
  </separator>
  <separator name="ionic md" >
   <i name="TEBEG">      0.00010000</i>
   <i name="TEEND">      0.00010000</i>
   <i type="int" name="NBLOCK">     1</i>
   <i type="int" name="KBLOCK">    30</i>
   <i type="int" name="NPACO">   256</i>
   <i name="APACO">     16.00000000</i>
  </separator>
  <separator name="symmetry" >
   <i type="int" name="ISYM">     2</i>
   <i name="SYMPREC">      0.00001000</i>
  </separator>
  <separator name="dos" >
   <i type="logical" name="LORBIT"> F  </i>
   <v name="RWIGS">     -1.00000000     -1.00000000</v>
   <i type="int" name="NEDOS">   301</i>
   <i name="EMIN">     10.00000000</i>
   <i name="EMAX">    -10.00000000</i>
   <i name="EFERMI">      0.00000000</i>
  </separator>
  <separator name="writing" >
   <i type="int" name="NWRITE">     2</i>
   <i type="logical" name="LWAVE"> F  </i>
   <i type="logical" name="LCHARG"> F  </i>
   <i type="logical" name="LPARD"> F  </i>
   <i type="logical" name="LVTOT"> F  </i>
   <i type="logical" name="LVHAR"> F  </i>
   <i type="logical" name="LELF"> F  </i>
   <i type="logical" name="LOPTICS"> F  </i>
   <v name="STM">      0.00000000      0.00000000      0.00000000      0.00000000      0.00000000      0.00000000      0.00000000</v>
  </separator>
  <separator name="performance" >
   <i type="int" name="NPAR">     4</i>
   <i type="int" name="NSIM">     4</i>
   <i type="int" name="NBLK">    -1</i>
   <i type="logical" name="LPLANE"> T  </i>
   <i type="logical" name="LSCALAPACK"> T  </i>
   <i type="logical" name="LSCAAWARE"> F  </i>
   <i type="logical" name="LSCALU"> F  </i>
   <i type="logical" name="LASYNC"> F  </i>
   <i type="logical" name="LORBITALREAL"> F  </i>
  </separator>
  <separator name="miscellaneous" >
   <i type="int" name="IDIOT">     3</i>
   <i type="logical" name="LMUSIC"> F  </i>
   <v name="POMASS">    107.86800000    196.96600000</v>
   <v name="DARWINR">      0.00000000      0.00000000</v>
   <v name="DARWINV">      1.00000000      1.00000000</v>
   <i type="logical" name="LCORR"> T  </i>
  </separator>
  <i type="logical" name="GGA_COMPAT"> T  </i>
  <i type="logical" name="LBERRY"> F  </i>
  <i type="int" name="ICORELEVEL">     0</i>
  <i type="logical" name="LDAU"> F  </i>
  <i type="int" name="I_CONSTRAINED_M">     0</i>
  <separator name="electronic exchange-correlation" >
   <i type="string" name="GGA">--</i>
   <i type="int" name="VOSKOWN">     0</i>
   <i type="logical" name="LHFCALC"> F  </i>
   <i type="string" name="PRECFOCK"></i>
   <i type="logical" name="LSYMGRAD"> F  </i>
   <i type="logical" name="LHFONE"> F  </i>
   <i type="logical" name="LRHFCALC"> F  </i>
   <i type="logical" name="LTHOMAS"> F  </i>
   <i type="logical" name="LMODELHF"> F  </i>
   <i name="ENCUT4O">     -1.00000000</i>
   <i type="int" name="EXXOEP">     0</i>
   <i type="int" name="FOURORBIT">     0</i>
   <i name="AEXX">      0.00000000</i>
   <i name="HFALPHA">      0.00000000</i>
   <i name="MCALPHA">      0.00000000</i>
   <i name="ALDAX">      1.00000000</i>
   <i name="AGGAX">      1.00000000</i>
   <i name="ALDAC">      1.00000000</i>
   <i name="AGGAC">      1.00000000</i>
   <i type="int" name="NKREDX">     1</i>
   <i type="int" name="NKREDY">     1</i>
   <i type="int" name="NKREDZ">     1</i>
   <i type="logical" name="SHIFTRED"> F  </i>
   <i type="logical" name="ODDONLY"> F  </i>
   <i type="logical" name="EVENONLY"> F  </i>
   <i type="int" name="LMAXFOCK">     0</i>
   <i type="int" name="NMAXFOCKAE">     0</i>
   <i type="logical" name="LFOCKAEDFT"> F  </i>
   <i name="HFSCREEN">      0.00000000</i>
   <i name="HFSCREENC">      0.00000000</i>
   <i type="int" name="NBANDSGWLOW">     0</i>
  </separator>
  <separator name="vdW DFT" >
   <i type="logical" name="LUSE_VDW"> F  </i>
   <i name="Zab_VDW">     -0.84910000</i>
   <i name="PARAM1">      0.12340000</i>
   <i name="PARAM2">      1.00000000</i>
   <i name="PARAM3">      0.00000000</i>
  </separator>
  <separator name="model GW" >
   <i type="int" name="MODEL_GW">     0</i>
   <i name="MODEL_EPS0">     10.72923196</i>
   <i name="MODEL_ALPHA">      1.00000000</i>
  </separator>
  <separator name="linear response parameters" >
   <i type="logical" name="LEPSILON"> F  </i>
   <i type="logical" name="LRPA"> F  </i>
   <i type="logical" name="LNABLA"> F  </i>
   <i type="logical" name="LVEL"> F  </i>
   <i type="int" name="KINTER">     0</i>
   <i name="CSHIFT">      0.10000000</i>
   <i name="OMEGAMAX">     -1.00000000</i>
   <i name="DEG_THRESHOLD">      0.00200000</i>
  </separator>
  <separator name="orbital magnetization" >
   <i type="logical" name="NUCIND"> F  </i>
   <v name="MAGPOS">      0.00000000      0.00000000      0.00000000</v>
   <i type="logical" name="LNICSALL"> T  </i>
   <i type="logical" name="ORBITALMAG"> F  </i>
   <i type="logical" name="LMAGBLOCH"> F  </i>
   <i type="logical" name="LCHIMAG"> F  </i>
   <i type="logical" name="LGAUGE"> T  </i>
   <i type="int" name="MAGATOM">     0</i>
   <v name="MAGDIPOL">      0.00000000      0.00000000      0.00000000</v>
   <v name="AVECCONST">      0.00000000      0.00000000      0.00000000</v>
  </separator>
  <separator name="response functions" >
   <i type="logical" name="LADDER"> F  </i>
   <i type="logical" name="LFXC"> F  </i>
   <i type="logical" name="LHARTREE"> T  </i>
   <i type="int" name="IBSE">     0</i>
   <i type="logical" name="LTCTE"> F  </i>
   <i type="logical" name="LTETE"> F  </i>
   <i type="logical" name="LTRIPLET"> F  </i>
   <i type="logical" name="LFXCEPS"> F  </i>
   <i type="logical" name="LFXHEG"> F  </i>
   <i type="logical" name="L2ORDER"> F  </i>
   <i type="logical" name="LUSEW"> F  </i>
   <i name="ENCUTGW">     -2.00000000</i>
   <i name="ENCUTGWSOFT">     -2.00000000</i>
   <i name="ENCUTLF">     -1.00000000</i>
   <i type="int" name="LMAXMP2">    -1</i>
   <i name="SCISSOR">      0.00000000</i>
   <i type="int" name="NOMEGA">     0</i>
   <i type="int" name="NOMEGAR">     0</i>
   <i type="int" name="NBANDSGW">    -1</i>
   <i type="int" name="NBANDSO">    -1</i>
   <i type="int" name="NBANDSV">    -1</i>
   <i type="int" name="NELM">   100</i>
   <i type="int" name="DIM">     3</i>
   <i type="int" name="ANTIRES">     0</i>
   <i name="OMEGAMAX">    -30.00000000</i>
   <i name="OMEGAMIN">    -30.00000000</i>
   <i name="OMEGATL">   -200.00000000</i>
   <i type="int" name="OMEGAGRID">     0</i>
   <i name="CSHIFT">     -0.10000000</i>
   <i type="logical" name="SELFENERGY"> F  </i>
   <i type="logical" name="LSPECTRAL"> F  </i>
   <i type="logical" name="ODDONLYGW"> F  </i>
   <i type="logical" name="EVENONLYGW"> F  </i>
   <i type="int" name="NKREDLFX">     1</i>
   <i type="int" name="NKREDLFY">     1</i>
   <i type="int" name="NKREDLFZ">     1</i>
   <i type="int" name="MAXMEM">  1800</i>
   <i type="int" name="TELESCOPE">     0</i>
   <i type="int" name="TAUPAR">     1</i>
  </separator>
  <separator name="External order field" >
   <i name="OFIELD_KAPPA">      0.00000000</i>
   <v name="OFIELD_K">      0.00000000      0.00000000      0.00000000</v>
   <i name="OFIELD_Q6_NEAR">      0.00000000</i>
   <i name="OFIELD_Q6_FAR">      0.00000000</i>
   <i name="OFIELD_A">      0.00000000</i>
  </separator>
 </parameters>
 <atominfo>
  <atoms>       6 </atoms>
  <types>       2 </types>
  <array name="atoms" >
   <dimension dim="1">ion</dimension>
   <field type="string">element</field>
   <field type="int">atomtype</field>
   <set>
    <rc><c>Ag</c><c>   1</c></rc>
    <rc><c>Ag</c><c>   1</c></rc>
    <rc><c>Au</c><c>   2</c></rc>
    <rc><c>Au</c><c>   2</c></rc>
    <rc><c>Au</c><c>   2</c></rc>
    <rc><c>Au</c><c>   2</c></rc>
   </set>
  </array>
  <array name="atomtypes" >
   <dimension dim="1">type</dimension>
   <field type="int">atomspertype</field>
   <field type="string">element</field>
   <field>mass</field>
   <field>valence</field>
   <field type="string">pseudopotential</field>
   <set>
    <rc><c>   2</c><c>Ag</c><c>    107.86800000</c><c>     11.00000000</c><c>  PAW_PBE Ag 02Apr2005                  </c></rc>
    <rc><c>   4</c><c>Au</c><c>    196.96600000</c><c>     11.00000000</c><c>  PAW_PBE Au 04Oct2007                  </c></rc>
   </set>
  </array>
 </atominfo>
 <structure name="initialpos" >
  <crystal>
   <varray name="basis" >
    <v>       2.07147142       0.00000000       2.07147142 </v>
    <v>       0.00000000      -2.07147142      -2.07147142 </v>
    <v>       8.33469072       8.33469072      -8.33469072 </v>
   </varray>
   <i name="volume">    107.29231955 </i>
   <varray name="rec_basis" >
    <v>       0.32183242      -0.16091621       0.16091621 </v>
    <v>       0.16091621      -0.32183242      -0.16091621 </v>
    <v>       0.03999349       0.03999349      -0.03999349 </v>
   </varray>
  </crystal>
  <varray name="positions" >
   <v>       0.00000000       0.00000000       0.50015982 </v>
   <v>       0.66666667       0.33333333       0.83317351 </v>
   <v>       0.00000000       0.00000000       0.99805469 </v>
   <v>       0.33333333       0.66666667       0.16666667 </v>
   <v>       0.66666667       0.33333333       0.33527864 </v>
   <v>       0.33333333       0.66666667       0.66666667 </v>
  </varray>
 </structure>
 <calculation>
  <scstep>
   <time name="dav">    4.64    4.65</time>
   <time name="total">    4.70    4.71</time>
   <energy>
    <i name="alphaZ">    355.68288752 </i>
    <i name="ewald">  -5772.41618679 </i>
    <i name="hartreedc">   -941.46559731 </i>
    <i name="XCdc">     40.88027457 </i>
    <i name="pawpsdc">   5503.31431206 </i>
    <i name="pawaedc">  -5318.73908776 </i>
    <i name="eentropy">     -0.00044136 </i>
    <i name="bandstr">    799.28608381 </i>
    <i name="atom">   5778.85447048 </i>
    <i name="e_fr_energy">    445.39671523 </i>
    <i name="e_wo_entrp">    445.39715659 </i>
    <i name="e_0_energy">    445.39686235 </i>
   </energy>
  </scstep>
  <scstep>
   <time name="dav">    4.89    4.89</time>
   <time name="total">    4.91    4.92</time>
   <energy>
    <i name="e_fr_energy">     -8.07062443 </i>
    <i name="e_wo_entrp">     -8.07087792 </i>
    <i name="e_0_energy">     -8.07070893 </i>
   </energy>
  </scstep>
  <scstep>
   <time name="dav">    5.18    5.18</time>
   <time name="total">    5.20    5.21</time>
   <energy>
    <i name="e_fr_energy">    -19.98443104 </i>
    <i name="e_wo_entrp">    -19.98555592 </i>
    <i name="e_0_energy">    -19.98480600 </i>
   </energy>
  </scstep>
  <scstep>
   <time name="dav">    4.98    4.99</time>
   <time name="total">    5.00    5.02</time>
   <energy>
    <i name="e_fr_energy">    -20.08451202 </i>
    <i name="e_wo_entrp">    -20.08571378 </i>
    <i name="e_0_energy">    -20.08491261 </i>
   </energy>
  </scstep>
  <scstep>
   <time name="dav">    5.26    5.26</time>
   <time name="total">    5.62    5.64</time>
   <energy>
    <i name="e_fr_energy">    -20.08553842 </i>
    <i name="e_wo_entrp">    -20.08674117 </i>
    <i name="e_0_energy">    -20.08593933 </i>
   </energy>
  </scstep>
  <scstep>
   <time name="diag">    1.27    1.27</time>
   <time name="diis">    2.25    2.25</time>
   <time name="orth">    0.20    0.20</time>
   <time name="total">    4.12    4.13</time>
   <energy>
    <i name="e_fr_energy">    -18.60834475 </i>
    <i name="e_wo_entrp">    -18.61019722 </i>
    <i name="e_0_energy">    -18.60896224 </i>
   </energy>
  </scstep>
  <scstep>
   <time name="diag">    1.33    1.33</time>
   <time name="diis">    2.24    2.24</time>
   <time name="orth">    0.19    0.19</time>
   <time name="total">    4.16    4.18</time>
   <energy>
    <i name="e_fr_energy">    -18.57878104 </i>
    <i name="e_wo_entrp">    -18.57481040 </i>
    <i name="e_0_energy">    -18.57745749 </i>
   </energy>
  </scstep>
  <scstep>
   <time name="diag">    1.27    1.27</time>
   <time name="diis">    2.24    2.24</time>
   <time name="orth">    0.19    0.19</time>
   <time name="total">    4.11    4.12</time>
   <energy>
    <i name="e_fr_energy">    -18.58171245 </i>
    <i name="e_wo_entrp">    -18.57959486 </i>
    <i name="e_0_energy">    -18.58100659 </i>
   </energy>
  </scstep>
  <scstep>
   <time name="diag">    1.27    1.27</time>
   <time name="diis">    2.27    2.27</time>
   <time name="orth">    0.19    0.19</time>
   <time name="total">    4.14    4.15</time>
   <energy>
    <i name="e_fr_energy">    -18.50785680 </i>
    <i name="e_wo_entrp">    -18.51112218 </i>
    <i name="e_0_energy">    -18.50894526 </i>
   </energy>
  </scstep>
  <scstep>
   <time name="diag">    1.27    1.27</time>
   <time name="diis">    2.26    2.26</time>
   <time name="orth">    0.20    0.20</time>
   <time name="total">    4.13    4.14</time>
   <energy>
    <i name="e_fr_energy">    -18.50753044 </i>
    <i name="e_wo_entrp">    -18.51075583 </i>
    <i name="e_0_energy">    -18.50860557 </i>
   </energy>
  </scstep>
  <scstep>
   <time name="diag">    1.27    1.27</time>
   <time name="diis">    2.25    2.25</time>
   <time name="orth">    0.19    0.19</time>
   <time name="total">    4.11    4.12</time>
   <energy>
    <i name="e_fr_energy">    -18.50752276 </i>
    <i name="e_wo_entrp">    -18.51073396 </i>
    <i name="e_0_energy">    -18.50859316 </i>
   </energy>
  </scstep>
  <scstep>
   <time name="diag">    1.32    1.33</time>
   <time name="diis">    2.12    2.12</time>
   <time name="orth">    0.20    0.20</time>
   <time name="total">    4.05    4.07</time>
   <energy>
    <i name="e_fr_energy">    -18.50753025 </i>
    <i name="e_wo_entrp">    -18.51074290 </i>
    <i name="e_0_energy">    -18.50860113 </i>
   </energy>
  </scstep>
  <scstep>
   <time name="diag">    1.27    1.27</time>
   <time name="diis">    1.49    1.49</time>
   <time name="orth">    0.19    0.19</time>
   <time name="total">    3.35    3.36</time>
   <energy>
    <i name="e_fr_energy">    -18.50753165 </i>
    <i name="e_wo_entrp">    -18.51074582 </i>
    <i name="e_0_energy">    -18.50860304 </i>
   </energy>
  </scstep>
  <scstep>
   <time name="diag">    1.27    1.27</time>
   <time name="diis">    1.43    1.43</time>
   <time name="orth">    0.20    0.20</time>
   <time name="total">    2.96    2.97</time>
   <energy>
    <i name="alphaZ">    355.68288752 </i>
    <i name="ewald">  -5772.41618679 </i>
    <i name="hartreedc">   -872.99394378 </i>
    <i name="XCdc">     37.99829242 </i>
    <i name="pawpsdc">   6293.18157284 </i>
    <i name="pawaedc">  -6123.19780069 </i>
    <i name="eentropy">      0.00321378 </i>
    <i name="bandstr">    284.37996313 </i>
    <i name="atom">   5778.85447048 </i>
    <i name="e_fr_energy">    -18.50753109 </i>
    <i name="e_wo_entrp">    -18.51074487 </i>
    <i name="e_0_energy">    -18.50860235 </i>
   </energy>
  </scstep>
  <structure>
   <crystal>
    <varray name="basis" >
     <v>       2.07147142       0.00000000       2.07147142 </v>
     <v>       0.00000000      -2.07147142      -2.07147142 </v>
     <v>       8.33469072       8.33469072      -8.33469072 </v>
    </varray>
    <i name="volume">    107.29231955 </i>
    <varray name="rec_basis" >
     <v>       0.32183242      -0.16091621       0.16091621 </v>
     <v>       0.16091621      -0.32183242      -0.16091621 </v>
     <v>       0.03999349       0.03999349      -0.03999349 </v>
    </varray>
   </crystal>
   <varray name="positions" >
    <v>       0.00000000       0.00000000       0.50015982 </v>
    <v>       0.66666667       0.33333333       0.83317351 </v>
    <v>       0.00000000       0.00000000       0.99805469 </v>
    <v>       0.33333333       0.66666667       0.16666667 </v>
    <v>       0.66666667       0.33333333       0.33527864 </v>
    <v>       0.33333333       0.66666667       0.66666667 </v>
   </varray>
  </structure>
  <varray name="forces" >
   <v>       0.00633873       0.00633873      -0.00633873 </v>
   <v>      -0.00633873      -0.00633873       0.00633873 </v>
   <v>      -0.00056096      -0.00056096       0.00056096 </v>
   <v>       0.00000000       0.00000000       0.00000000 </v>
   <v>       0.00056096       0.00056096      -0.00056096 </v>
   <v>       0.00000000       0.00000000       0.00000000 </v>
  </varray>
  <varray name="stress" >
   <v>      -1.58124890      -0.10956796       0.10956796 </v>
   <v>      -0.10956796      -1.58124890       0.10956796 </v>
   <v>       0.10956796       0.10956796      -1.58124890 </v>
  </varray>
  <energy>
   <i name="e_fr_energy">    -18.50753109 </i>
   <i name="e_wo_entrp">    -18.50860235 </i>
   <i name="e_0_energy">      0.00321378 </i>
  </energy>
  <time name="totalsc">   63.98   64.22</time>
  <eigenvalues>
   <array>
    <dimension dim="1">band</dimension>
    <dimension dim="2">kpoint</dimension>
    <dimension dim="3">spin</dimension>
    <field>eigene</field>
    <field>occ</field>
    <set>
     <set comment="spin 1">
      <set comment="kpoint 1">
       <r>   -0.5594    1.0000 </r>
       <r>    0.2867    1.0000 </r>
       <r>    0.4564    1.0000 </r>
       <r>    1.4226    1.0000 </r>
       <r>    2.0347    1.0000 </r>
       <r>    2.1339    1.0000 </r>
       <r>    3.6992    1.0000 </r>
       <r>    3.7010    1.0000 </r>
       <r>    3.7581    1.0000 </r>
       <r>    3.7581    1.0000 </r>
       <r>    3.8480    1.0000 </r>
       <r>    3.8480    1.0000 </r>
       <r>    3.8556    1.0000 </r>
       <r>    3.9098    1.0000 </r>
       <r>    3.9098    1.0000 </r>
       <r>    4.0910    1.0000 </r>
       <r>    4.0910    1.0000 </r>
       <r>    4.1111    1.0000 </r>
       <r>    4.1111    1.0000 </r>
       <r>    4.1770    1.0000 </r>
       <r>    4.1770    1.0000 </r>
       <r>    4.8191    1.0000 </r>
       <r>    4.8531    1.0000 </r>
       <r>    4.8531    1.0000 </r>
       <r>    4.8796    1.0000 </r>
       <r>    4.9320    1.0000 </r>
       <r>    4.9320    1.0000 </r>
       <r>    5.3380    1.0000 </r>
       <r>    5.3380    1.0000 </r>
       <r>    5.6840    1.0000 </r>
       <r>    5.6840    1.0000 </r>
       <r>    5.7480    1.0000 </r>
       <r>    5.7480    1.0000 </r>
       <r>    6.2147    1.0000 </r>
       <r>    6.2147    1.0000 </r>
       <r>    7.7739    1.0060 </r>
       <r>   11.3464    0.0000 </r>
       <r>   15.8753    0.0000 </r>
       <r>   15.9378    0.0000 </r>
       <r>   21.8915    0.0000 </r>
      </set>
      <set comment="kpoint 2">
       <r>   -0.5215    1.0000 </r>
       <r>    0.3235    1.0000 </r>
       <r>    0.4928    1.0000 </r>
       <r>    1.4574    1.0000 </r>
       <r>    2.0609    1.0000 </r>
       <r>    2.1614    1.0000 </r>
       <r>    3.6650    1.0000 </r>
       <r>    3.6737    1.0000 </r>
       <r>    3.7530    1.0000 </r>
       <r>    3.7744    1.0000 </r>
       <r>    3.8453    1.0000 </r>
       <r>    3.8647    1.0000 </r>
       <r>    3.8728    1.0000 </r>
       <r>    3.8957    1.0000 </r>
       <r>    3.9259    1.0000 </r>
       <r>    4.0750    1.0000 </r>
       <r>    4.1120    1.0000 </r>
       <r>    4.1215    1.0000 </r>
       <r>    4.1313    1.0000 </r>
       <r>    4.1850    1.0000 </r>
       <r>    4.1976    1.0000 </r>
       <r>    4.6584    1.0000 </r>
       <r>    4.7570    1.0000 </r>
       <r>    4.8339    1.0000 </r>
       <r>    4.8903    1.0000 </r>
       <r>    4.9436    1.0000 </r>
       <r>    4.9687    1.0000 </r>
       <r>    5.3379    1.0000 </r>
       <r>    5.3396    1.0000 </r>
       <r>    5.6407    1.0000 </r>
       <r>    5.7396    1.0000 </r>
       <r>    5.7885    1.0000 </r>
       <r>    5.8461    1.0000 </r>
       <r>    6.1297    1.0000 </r>
       <r>    6.2134    1.0000 </r>
       <r>    7.9517    1.0280 </r>
       <r>   11.3471    0.0000 </r>
       <r>   15.8967    0.0000 </r>
       <r>   15.9616    0.0000 </r>
       <r>   21.9181    0.0000 </r>
      </set>
      <set comment="kpoint 3">
       <r>   -0.4088    1.0000 </r>
       <r>    0.4324    1.0000 </r>
       <r>    0.6003    1.0000 </r>
       <r>    1.5595    1.0000 </r>
       <r>    2.1374    1.0000 </r>
       <r>    2.2413    1.0000 </r>
       <r>    3.5825    1.0000 </r>
       <r>    3.6165    1.0000 </r>
       <r>    3.7246    1.0000 </r>
       <r>    3.8218    1.0000 </r>
       <r>    3.8405    1.0000 </r>
       <r>    3.8528    1.0000 </r>
       <r>    3.9006    1.0000 </r>
       <r>    3.9137    1.0000 </r>
       <r>    3.9730    1.0000 </r>
       <r>    4.0302    1.0000 </r>
       <r>    4.1482    1.0000 </r>
       <r>    4.1691    1.0000 </r>
       <r>    4.1941    1.0000 </r>
       <r>    4.2068    1.0000 </r>
       <r>    4.2585    1.0000 </r>
       <r>    4.4081    1.0000 </r>
       <r>    4.5434    1.0000 </r>
       <r>    4.7963    1.0000 </r>
       <r>    4.8433    1.0000 </r>
       <r>    4.9652    1.0000 </r>
       <r>    4.9946    1.0000 </r>
       <r>    5.3396    1.0000 </r>
       <r>    5.3520    1.0000 </r>
       <r>    5.5834    1.0000 </r>
       <r>    5.6701    1.0000 </r>
       <r>    5.8414    1.0000 </r>
       <r>    5.9496    1.0000 </r>
       <r>    6.2101    1.0000 </r>
       <r>    6.2668    1.0000 </r>
       <r>    8.3719    0.5760 </r>
       <r>   11.3506    0.0000 </r>
       <r>   15.9604    0.0000 </r>
       <r>   16.0330    0.0000 </r>
       <r>   22.0129    0.0000 </r>
      </set>
      <set comment="kpoint 4">
       <r>   -0.2246    1.0000 </r>
       <r>    0.6083    1.0000 </r>
       <r>    0.7735    1.0000 </r>
       <r>    1.7219    1.0000 </r>
       <r>    2.2570    1.0000 </r>
       <r>    2.3662    1.0000 </r>
       <r>    3.4743    1.0000 </r>
       <r>    3.5565    1.0000 </r>
       <r>    3.6689    1.0000 </r>
       <r>    3.7871    1.0000 </r>
       <r>    3.8058    1.0000 </r>
       <r>    3.8951    1.0000 </r>
       <r>    3.9435    1.0000 </r>
       <r>    3.9636    1.0000 </r>
       <r>    3.9923    1.0000 </r>
       <r>    4.0479    1.0000 </r>
       <r>    4.1046    1.0000 </r>
       <r>    4.1907    1.0000 </r>
       <r>    4.2440    1.0000 </r>
       <r>    4.2481    1.0000 </r>
       <r>    4.3028    1.0000 </r>
       <r>    4.3334    1.0000 </r>
       <r>    4.3560    1.0000 </r>
       <r>    4.7670    1.0000 </r>
       <r>    4.7780    1.0000 </r>
       <r>    4.9711    1.0000 </r>
       <r>    4.9914    1.0000 </r>
       <r>    5.3090    1.0000 </r>
       <r>    5.3259    1.0000 </r>
       <r>    5.4388    1.0000 </r>
       <r>    5.5468    1.0000 </r>
       <r>    5.8833    1.0000 </r>
       <r>    6.1913    1.0000 </r>
       <r>    6.2070    1.0000 </r>
       <r>    6.5810    1.0000 </r>
       <r>    8.9051   -0.0191 </r>
       <r>   11.3607    0.0000 </r>
       <r>   16.0632    0.0000 </r>
       <r>   16.1535    0.0000 </r>
       <r>   22.1396    0.0000 </r>
      </set>
      <set comment="kpoint 5">
       <r>    0.0251    1.0000 </r>
       <r>    0.8414    1.0000 </r>
       <r>    1.0016    1.0000 </r>
       <r>    1.9293    1.0000 </r>
       <r>    2.4033    1.0000 </r>
       <r>    2.5237    1.0000 </r>
       <r>    3.3514    1.0000 </r>
       <r>    3.5135    1.0000 </r>
       <r>    3.5929    1.0000 </r>
       <r>    3.6971    1.0000 </r>
       <r>    3.7435    1.0000 </r>
       <r>    3.7814    1.0000 </r>
       <r>    3.9433    1.0000 </r>
       <r>    3.9839    1.0000 </r>
       <r>    4.0173    1.0000 </r>
       <r>    4.0943    1.0000 </r>
       <r>    4.1430    1.0000 </r>
       <r>    4.1471    1.0000 </r>
       <r>    4.1833    1.0000 </r>
       <r>    4.3081    1.0000 </r>
       <r>    4.3152    1.0000 </r>
       <r>    4.4517    1.0000 </r>
       <r>    4.4836    1.0000 </r>
       <r>    4.7151    1.0000 </r>
       <r>    4.7818    1.0000 </r>
       <r>    4.8861    1.0000 </r>
       <r>    5.0272    1.0000 </r>
       <r>    5.0488    1.0000 </r>
       <r>    5.2977    1.0000 </r>
       <r>    5.4932    1.0000 </r>
       <r>    5.5419    1.0000 </r>
       <r>    5.9094    1.0000 </r>
       <r>    6.2071    1.0000 </r>
       <r>    6.4598    1.0000 </r>
       <r>    6.9204    1.0000 </r>
       <r>    9.4969    0.0000 </r>
       <r>   11.3841    0.0000 </r>
       <r>   16.1981    0.0000 </r>
       <r>   16.3256    0.0000 </r>
       <r>   21.4790    0.0000 </r>
      </set>
      <set comment="kpoint 6">
       <r>    0.3302    1.0000 </r>
       <r>    1.1139    1.0000 </r>
       <r>    1.2660    1.0000 </r>
       <r>    2.1510    1.0000 </r>
       <r>    2.5413    1.0000 </r>
       <r>    2.7022    1.0000 </r>
       <r>    3.2204    1.0000 </r>
       <r>    3.4635    1.0000 </r>
       <r>    3.5106    1.0000 </r>
       <r>    3.5254    1.0000 </r>
       <r>    3.6171    1.0000 </r>
       <r>    3.6659    1.0000 </r>
       <r>    3.9529    1.0000 </r>
       <r>    3.9865    1.0000 </r>
       <r>    4.0691    1.0000 </r>
       <r>    4.0938    1.0000 </r>
       <r>    4.1674    1.0000 </r>
       <r>    4.2042    1.0000 </r>
       <r>    4.2672    1.0000 </r>
       <r>    4.3390    1.0000 </r>
       <r>    4.3842    1.0000 </r>
       <r>    4.5842    1.0000 </r>
       <r>    4.6149    1.0000 </r>
       <r>    4.6440    1.0000 </r>
       <r>    4.7746    1.0000 </r>
       <r>    4.8783    1.0000 </r>
       <r>    4.9387    1.0000 </r>
       <r>    5.0755    1.0000 </r>
       <r>    5.2862    1.0000 </r>
       <r>    5.5623    1.0000 </r>
       <r>    5.5876    1.0000 </r>
       <r>    5.9192    1.0000 </r>
       <r>    6.2124    1.0000 </r>
       <r>    6.7377    1.0000 </r>
       <r>    7.2655    1.0000 </r>
       <r>   10.1225    0.0000 </r>
       <r>   11.4318    0.0000 </r>
       <r>   16.3553    0.0000 </r>
       <r>   16.5485    0.0000 </r>
       <r>   20.2251    0.0000 </r>
      </set>
      <set comment="kpoint 7">
       <r>    0.6739    1.0000 </r>
       <r>    1.3939    1.0000 </r>
       <r>    1.5399    1.0000 </r>
       <r>    2.3299    1.0000 </r>
       <r>    2.6313    1.0000 </r>
       <r>    2.8818    1.0000 </r>
       <r>    3.0871    1.0000 </r>
       <r>    3.2076    1.0000 </r>
       <r>    3.4350    1.0000 </r>
       <r>    3.4940    1.0000 </r>
       <r>    3.5834    1.0000 </r>
       <r>    3.6238    1.0000 </r>
       <r>    3.8736    1.0000 </r>
       <r>    4.0845    1.0000 </r>
       <r>    4.1172    1.0000 </r>
       <r>    4.1233    1.0000 </r>
       <r>    4.1639    1.0000 </r>
       <r>    4.2549    1.0000 </r>
       <r>    4.3735    1.0000 </r>
       <r>    4.3846    1.0000 </r>
       <r>    4.4317    1.0000 </r>
       <r>    4.4737    1.0000 </r>
       <r>    4.7336    1.0000 </r>
       <r>    4.8020    1.0000 </r>
       <r>    4.8488    1.0000 </r>
       <r>    4.9278    1.0000 </r>
       <r>    5.0502    1.0000 </r>
       <r>    5.1429    1.0000 </r>
       <r>    5.3367    1.0000 </r>
       <r>    5.6036    1.0000 </r>
       <r>    5.6987    1.0000 </r>
       <r>    5.9162    1.0000 </r>
       <r>    6.2226    1.0000 </r>
       <r>    7.0201    1.0000 </r>
       <r>    7.6147    1.0007 </r>
       <r>   10.7586    0.0000 </r>
       <r>   11.5243    0.0000 </r>
       <r>   16.5201    0.0000 </r>
       <r>   16.8021    0.0000 </r>
       <r>   18.9727    0.0000 </r>
      </set>
      <set comment="kpoint 8">
       <r>    1.0299    1.0000 </r>
       <r>    1.6320    1.0000 </r>
       <r>    1.7947    1.0000 </r>
       <r>    2.4036    1.0000 </r>
       <r>    2.6637    1.0000 </r>
       <r>    2.9386    1.0000 </r>
       <r>    2.9558    1.0000 </r>
       <r>    3.0055    1.0000 </r>
       <r>    3.3843    1.0000 </r>
       <r>    3.4657    1.0000 </r>
       <r>    3.5701    1.0000 </r>
       <r>    3.7631    1.0000 </r>
       <r>    3.8211    1.0000 </r>
       <r>    4.0967    1.0000 </r>
       <r>    4.1210    1.0000 </r>
       <r>    4.1337    1.0000 </r>
       <r>    4.2510    1.0000 </r>
       <r>    4.2556    1.0000 </r>
       <r>    4.3568    1.0000 </r>
       <r>    4.5110    1.0000 </r>
       <r>    4.5908    1.0000 </r>
       <r>    4.5996    1.0000 </r>
       <r>    4.7912    1.0000 </r>
       <r>    4.8964    1.0000 </r>
       <r>    5.0294    1.0000 </r>
       <r>    5.0606    1.0000 </r>
       <r>    5.2549    1.0000 </r>
       <r>    5.2736    1.0000 </r>
       <r>    5.4559    1.0000 </r>
       <r>    5.6760    1.0000 </r>
       <r>    5.8215    1.0000 </r>
       <r>    5.9088    1.0000 </r>
       <r>    6.2360    1.0000 </r>
       <r>    7.3081    1.0000 </r>
       <r>    7.9751    1.0313 </r>
       <r>   11.3367    0.0000 </r>
       <r>   11.7292    0.0000 </r>
       <r>   16.6402    0.0000 </r>
       <r>   16.9295    0.0000 </r>
       <r>   17.9081    0.0000 </r>
      </set>
      <set comment="kpoint 9">
       <r>    1.3573    1.0000 </r>
       <r>    1.7892    1.0000 </r>
       <r>    2.0031    1.0000 </r>
       <r>    2.3802    1.0000 </r>
       <r>    2.6395    1.0000 </r>
       <r>    2.7374    1.0000 </r>
       <r>    2.8350    1.0000 </r>
       <r>    2.9379    1.0000 </r>
       <r>    3.2991    1.0000 </r>
       <r>    3.5255    1.0000 </r>
       <r>    3.5984    1.0000 </r>
       <r>    3.8448    1.0000 </r>
       <r>    3.9305    1.0000 </r>
       <r>    4.0742    1.0000 </r>
       <r>    4.0863    1.0000 </r>
       <r>    4.2300    1.0000 </r>
       <r>    4.2509    1.0000 </r>
       <r>    4.2734    1.0000 </r>
       <r>    4.5966    1.0000 </r>
       <r>    4.6616    1.0000 </r>
       <r>    4.7586    1.0000 </r>
       <r>    4.7812    1.0000 </r>
       <r>    4.8463    1.0000 </r>
       <r>    5.1071    1.0000 </r>
       <r>    5.2373    1.0000 </r>
       <r>    5.2534    1.0000 </r>
       <r>    5.4146    1.0000 </r>
       <r>    5.5108    1.0000 </r>
       <r>    5.6212    1.0000 </r>
       <r>    5.7978    1.0000 </r>
       <r>    5.9127    1.0000 </r>
       <r>    5.9549    1.0000 </r>
       <r>    6.2517    1.0000 </r>
       <r>    7.6088    1.0006 </r>
       <r>    8.3601    0.6087 </r>
       <r>   11.6919    0.0000 </r>
       <r>   12.2009    0.0000 </r>
       <r>   16.0448    0.0000 </r>
       <r>   16.7238    0.0000 </r>
       <r>   17.0671    0.0000 </r>
      </set>
      <set comment="kpoint 10">
       <r>    1.6017    1.0000 </r>
       <r>    1.8820    1.0000 </r>
       <r>    2.1357    1.0000 </r>
       <r>    2.3144    1.0000 </r>
       <r>    2.5529    1.0000 </r>
       <r>    2.5809    1.0000 </r>
       <r>    2.7312    1.0000 </r>
       <r>    2.8268    1.0000 </r>
       <r>    3.1711    1.0000 </r>
       <r>    3.5195    1.0000 </r>
       <r>    3.6945    1.0000 </r>
       <r>    3.9169    1.0000 </r>
       <r>    4.0105    1.0000 </r>
       <r>    4.0155    1.0000 </r>
       <r>    4.0472    1.0000 </r>
       <r>    4.2466    1.0000 </r>
       <r>    4.3728    1.0000 </r>
       <r>    4.5977    1.0000 </r>
       <r>    4.6550    1.0000 </r>
       <r>    4.8412    1.0000 </r>
       <r>    4.9219    1.0000 </r>
       <r>    4.9679    1.0000 </r>
       <r>    5.1342    1.0000 </r>
       <r>    5.3414    1.0000 </r>
       <r>    5.4875    1.0000 </r>
       <r>    5.5596    1.0000 </r>
       <r>    5.5978    1.0000 </r>
       <r>    5.7519    1.0000 </r>
       <r>    5.8166    1.0000 </r>
       <r>    5.9604    1.0000 </r>
       <r>    5.9689    1.0000 </r>
       <r>    6.1058    1.0000 </r>
       <r>    6.2718    1.0000 </r>
       <r>    7.9360    1.0257 </r>
       <r>    8.7872   -0.0348 </r>
       <r>   11.9857    0.0000 </r>
       <r>   12.7207    0.0000 </r>
       <r>   14.8730    0.0000 </r>
       <r>   15.7618    0.0000 </r>
       <r>   16.0671    0.0000 </r>
      </set>
      <set comment="kpoint 11">
       <r>    1.7198    1.0000 </r>
       <r>    1.9522    1.0000 </r>
       <r>    2.1718    1.0000 </r>
       <r>    2.2621    1.0000 </r>
       <r>    2.4090    1.0000 </r>
       <r>    2.5071    1.0000 </r>
       <r>    2.6531    1.0000 </r>
       <r>    2.7161    1.0000 </r>
       <r>    3.0302    1.0000 </r>
       <r>    3.4927    1.0000 </r>
       <r>    3.8583    1.0000 </r>
       <r>    3.8647    1.0000 </r>
       <r>    3.9354    1.0000 </r>
       <r>    3.9594    1.0000 </r>
       <r>    4.2376    1.0000 </r>
       <r>    4.2570    1.0000 </r>
       <r>    4.5522    1.0000 </r>
       <r>    4.5622    1.0000 </r>
       <r>    4.8773    1.0000 </r>
       <r>    5.0731    1.0000 </r>
       <r>    5.1151    1.0000 </r>
       <r>    5.2269    1.0000 </r>
       <r>    5.3928    1.0000 </r>
       <r>    5.5404    1.0000 </r>
       <r>    5.6288    1.0000 </r>
       <r>    5.9639    1.0000 </r>
       <r>    5.9725    1.0000 </r>
       <r>    6.0224    1.0000 </r>
       <r>    6.0876    1.0000 </r>
       <r>    6.0935    1.0000 </r>
       <r>    6.1525    1.0000 </r>
       <r>    6.3068    1.0000 </r>
       <r>    6.3247    1.0000 </r>
       <r>    8.3061    0.7486 </r>
       <r>    9.2724   -0.0002 </r>
       <r>   12.3416    0.0000 </r>
       <r>   12.9314    0.0000 </r>
       <r>   13.6897    0.0000 </r>
       <r>   14.5843    0.0000 </r>
       <r>   15.3673    0.0000 </r>
      </set>
      <set comment="kpoint 12">
       <r>    1.7456    1.0000 </r>
       <r>    1.9857    1.0000 </r>
       <r>    2.1448    1.0000 </r>
       <r>    2.2437    1.0000 </r>
       <r>    2.2989    1.0000 </r>
       <r>    2.4420    1.0000 </r>
       <r>    2.6070    1.0000 </r>
       <r>    2.6222    1.0000 </r>
       <r>    2.8993    1.0000 </r>
       <r>    3.4774    1.0000 </r>
       <r>    3.7843    1.0000 </r>
       <r>    3.8774    1.0000 </r>
       <r>    3.9120    1.0000 </r>
       <r>    4.0635    1.0000 </r>
       <r>    4.2269    1.0000 </r>
       <r>    4.4234    1.0000 </r>
       <r>    4.5227    1.0000 </r>
       <r>    4.7239    1.0000 </r>
       <r>    4.9624    1.0000 </r>
       <r>    5.2049    1.0000 </r>
       <r>    5.2527    1.0000 </r>
       <r>    5.4199    1.0000 </r>
       <r>    5.6354    1.0000 </r>
       <r>    5.6371    1.0000 </r>
       <r>    5.9435    1.0000 </r>
       <r>    6.1089    1.0000 </r>
       <r>    6.2131    1.0000 </r>
       <r>    6.2602    1.0000 </r>
       <r>    6.3212    1.0000 </r>
       <r>    6.3867    1.0000 </r>
       <r>    6.4643    1.0000 </r>
       <r>    6.6238    1.0000 </r>
       <r>    6.8677    1.0000 </r>
       <r>    8.7269   -0.0323 </r>
       <r>    9.8137    0.0000 </r>
       <r>   12.4182    0.0000 </r>
       <r>   12.4716    0.0000 </r>
       <r>   12.9157    0.0000 </r>
       <r>   13.4847    0.0000 </r>
       <r>   15.2013    0.0000 </r>
      </set>
      <set comment="kpoint 13">
       <r>    1.7392    1.0000 </r>
       <r>    1.9652    1.0000 </r>
       <r>    2.1389    1.0000 </r>
       <r>    2.2177    1.0000 </r>
       <r>    2.2224    1.0000 </r>
       <r>    2.3934    1.0000 </r>
       <r>    2.5506    1.0000 </r>
       <r>    2.5928    1.0000 </r>
       <r>    2.7887    1.0000 </r>
       <r>    3.4813    1.0000 </r>
       <r>    3.6960    1.0000 </r>
       <r>    3.8460    1.0000 </r>
       <r>    3.8763    1.0000 </r>
       <r>    4.2174    1.0000 </r>
       <r>    4.2541    1.0000 </r>
       <r>    4.4902    1.0000 </r>
       <r>    4.5266    1.0000 </r>
       <r>    4.8569    1.0000 </r>
       <r>    5.0216    1.0000 </r>
       <r>    5.3079    1.0000 </r>
       <r>    5.3676    1.0000 </r>
       <r>    5.4354    1.0000 </r>
       <r>    5.6165    1.0000 </r>
       <r>    5.8715    1.0000 </r>
       <r>    6.1715    1.0000 </r>
       <r>    6.2197    1.0000 </r>
       <r>    6.3667    1.0000 </r>
       <r>    6.4084    1.0000 </r>
       <r>    6.4453    1.0000 </r>
       <r>    6.5126    1.0000 </r>
       <r>    7.0129    1.0000 </r>
       <r>    7.3076    1.0000 </r>
       <r>    7.6596    1.0014 </r>
       <r>    9.1718   -0.0008 </r>
       <r>   10.2830    0.0000 </r>
       <r>   11.5515    0.0000 </r>
       <r>   11.5795    0.0000 </r>
       <r>   12.4152    0.0000 </r>
       <r>   13.4719    0.0000 </r>
       <r>   14.4092    0.0000 </r>
      </set>
      <set comment="kpoint 14">
       <r>    1.7284    1.0000 </r>
       <r>    1.9355    1.0000 </r>
       <r>    2.1454    1.0000 </r>
       <r>    2.1769    1.0000 </r>
       <r>    2.1902    1.0000 </r>
       <r>    2.3645    1.0000 </r>
       <r>    2.5062    1.0000 </r>
       <r>    2.6046    1.0000 </r>
       <r>    2.7025    1.0000 </r>
       <r>    3.5061    1.0000 </r>
       <r>    3.6166    1.0000 </r>
       <r>    3.8277    1.0000 </r>
       <r>    3.8542    1.0000 </r>
       <r>    4.2111    1.0000 </r>
       <r>    4.4025    1.0000 </r>
       <r>    4.4692    1.0000 </r>
       <r>    4.5648    1.0000 </r>
       <r>    4.9384    1.0000 </r>
       <r>    5.0576    1.0000 </r>
       <r>    5.3737    1.0000 </r>
       <r>    5.4370    1.0000 </r>
       <r>    5.4620    1.0000 </r>
       <r>    5.5856    1.0000 </r>
       <r>    5.9831    1.0000 </r>
       <r>    6.1928    1.0000 </r>
       <r>    6.3624    1.0000 </r>
       <r>    6.4685    1.0000 </r>
       <r>    6.5071    1.0000 </r>
       <r>    6.5261    1.0000 </r>
       <r>    6.6099    1.0000 </r>
       <r>    7.5663    1.0003 </r>
       <r>    8.1092    1.0213 </r>
       <r>    8.5486    0.1306 </r>
       <r>    9.5529    0.0000 </r>
       <r>    9.9269    0.0000 </r>
       <r>   10.5494    0.0000 </r>
       <r>   11.5752    0.0000 </r>
       <r>   11.6982    0.0000 </r>
       <r>   13.3511    0.0000 </r>
       <r>   14.0940    0.0000 </r>
      </set>
      <set comment="kpoint 15">
       <r>    1.7238    1.0000 </r>
       <r>    1.9237    1.0000 </r>
       <r>    2.1490    1.0000 </r>
       <r>    2.1676    1.0000 </r>
       <r>    2.1724    1.0000 </r>
       <r>    2.3551    1.0000 </r>
       <r>    2.4910    1.0000 </r>
       <r>    2.6376    1.0000 </r>
       <r>    2.6448    1.0000 </r>
       <r>    3.5458    1.0000 </r>
       <r>    3.5581    1.0000 </r>
       <r>    3.8217    1.0000 </r>
       <r>    3.8467    1.0000 </r>
       <r>    4.2088    1.0000 </r>
       <r>    4.4620    1.0000 </r>
       <r>    4.4706    1.0000 </r>
       <r>    4.5602    1.0000 </r>
       <r>    4.9655    1.0000 </r>
       <r>    5.0698    1.0000 </r>
       <r>    5.3963    1.0000 </r>
       <r>    5.4421    1.0000 </r>
       <r>    5.5057    1.0000 </r>
       <r>    5.5582    1.0000 </r>
       <r>    6.0158    1.0000 </r>
       <r>    6.1982    1.0000 </r>
       <r>    6.4083    1.0000 </r>
       <r>    6.5045    1.0000 </r>
       <r>    6.5414    1.0000 </r>
       <r>    6.5541    1.0000 </r>
       <r>    6.6449    1.0000 </r>
       <r>    7.8176    1.0097 </r>
       <r>    8.8950   -0.0206 </r>
       <r>    9.0763   -0.0032 </r>
       <r>    9.4819    0.0000 </r>
       <r>    9.6109    0.0000 </r>
       <r>    9.7393    0.0000 </r>
       <r>   11.2843    0.0000 </r>
       <r>   12.3588    0.0000 </r>
       <r>   12.4922    0.0000 </r>
       <r>   14.2043    0.0000 </r>
      </set>
      <set comment="kpoint 16">
       <r>   -0.4462    1.0000 </r>
       <r>    0.3964    1.0000 </r>
       <r>    0.5648    1.0000 </r>
       <r>    1.5259    1.0000 </r>
       <r>    2.1123    1.0000 </r>
       <r>    2.2151    1.0000 </r>
       <r>    3.6126    1.0000 </r>
       <r>    3.6276    1.0000 </r>
       <r>    3.7347    1.0000 </r>
       <r>    3.8065    1.0000 </r>
       <r>    3.8443    1.0000 </r>
       <r>    3.8673    1.0000 </r>
       <r>    3.8901    1.0000 </r>
       <r>    3.8983    1.0000 </r>
       <r>    3.9578    1.0000 </r>
[...]
       <r>    5.0069    1.0000 </r>
       <r>    5.0924    1.0000 </r>
       <r>    5.2614    1.0000 </r>
       <r>    5.6211    1.0000 </r>
       <r>    5.6317    1.0000 </r>
       <r>    5.8509    1.0000 </r>
       <r>    6.0549    1.0000 </r>
       <r>    6.0734    1.0000 </r>
       <r>    6.2383    1.0000 </r>
       <r>   10.4389    0.0000 </r>
       <r>   10.5740    0.0000 </r>
       <r>   10.8023    0.0000 </r>
       <r>   11.0246    0.0000 </r>
       <r>   11.9709    0.0000 </r>
       <r>   12.1091    0.0000 </r>
       <r>   12.6052    0.0000 </r>
       <r>   12.7869    0.0000 </r>
       <r>   12.9845    0.0000 </r>
       <r>   13.4045    0.0000 </r>
      </set>
      <set comment="kpoint 369">
       <r>    2.5958    1.0000 </r>
       <r>    2.6855    1.0000 </r>
       <r>    2.7859    1.0000 </r>
       <r>    2.8416    1.0000 </r>
       <r>    2.8812    1.0000 </r>
       <r>    3.0665    1.0000 </r>
       <r>    3.1837    1.0000 </r>
       <r>    3.2006    1.0000 </r>
       <r>    3.2708    1.0000 </r>
       <r>    3.3085    1.0000 </r>
       <r>    3.3271    1.0000 </r>
       <r>    3.4331    1.0000 </r>
       <r>    3.7271    1.0000 </r>
       <r>    3.9049    1.0000 </r>
       <r>    3.9145    1.0000 </r>
       <r>    4.0388    1.0000 </r>
       <r>    4.1221    1.0000 </r>
       <r>    4.3254    1.0000 </r>
       <r>    4.7068    1.0000 </r>
       <r>    4.8182    1.0000 </r>
       <r>    4.8626    1.0000 </r>
       <r>    4.9965    1.0000 </r>
       <r>    5.0906    1.0000 </r>
       <r>    5.2356    1.0000 </r>
       <r>    5.5728    1.0000 </r>
       <r>    5.6377    1.0000 </r>
       <r>    5.8866    1.0000 </r>
       <r>    5.9867    1.0000 </r>
       <r>    6.1378    1.0000 </r>
       <r>    6.2950    1.0000 </r>
       <r>    9.9239    0.0000 </r>
       <r>   10.0719    0.0000 </r>
       <r>   11.2191    0.0000 </r>
       <r>   11.3077    0.0000 </r>
       <r>   11.6546    0.0000 </r>
       <r>   12.1224    0.0000 </r>
       <r>   12.3809    0.0000 </r>
       <r>   12.7618    0.0000 </r>
       <r>   13.4037    0.0000 </r>
       <r>   14.0414    0.0000 </r>
      </set>
      <set comment="kpoint 370">
       <r>    2.7120    1.0000 </r>
       <r>    2.7670    1.0000 </r>
       <r>    2.7994    1.0000 </r>
       <r>    2.8421    1.0000 </r>
       <r>    2.8950    1.0000 </r>
       <r>    2.9397    1.0000 </r>
       <r>    3.2692    1.0000 </r>
       <r>    3.2850    1.0000 </r>
       <r>    3.2996    1.0000 </r>
       <r>    3.3102    1.0000 </r>
       <r>    3.3296    1.0000 </r>
       <r>    3.4042    1.0000 </r>
       <r>    3.8203    1.0000 </r>
       <r>    3.8792    1.0000 </r>
       <r>    3.9768    1.0000 </r>
       <r>    3.9981    1.0000 </r>
       <r>    4.0429    1.0000 </r>
       <r>    4.1549    1.0000 </r>
       <r>    4.8143    1.0000 </r>
       <r>    4.8607    1.0000 </r>
       <r>    4.9054    1.0000 </r>
       <r>    4.9215    1.0000 </r>
       <r>    5.0898    1.0000 </r>
       <r>    5.1673    1.0000 </r>
       <r>    5.6067    1.0000 </r>
       <r>    5.6260    1.0000 </r>
       <r>    5.8608    1.0000 </r>
       <r>    6.0329    1.0000 </r>
       <r>    6.0784    1.0000 </r>
       <r>    6.2027    1.0000 </r>
       <r>   10.5145    0.0000 </r>
       <r>   10.6636    0.0000 </r>
       <r>   11.0443    0.0000 </r>
       <r>   11.1645    0.0000 </r>
       <r>   11.9396    0.0000 </r>
       <r>   12.1120    0.0000 </r>
       <r>   12.5057    0.0000 </r>
       <r>   12.9416    0.0000 </r>
       <r>   13.3767    0.0000 </r>
       <r>   13.5077    0.0000 </r>
      </set>
     </set>
    </set>
   </array>
  </eigenvalues>
  <separator name="orbital magnetization" >
   <v name="MAGDIPOLOUT">      0.00000000      0.00000000      0.00000000</v>
  </separator>
  <dos>
   <i name="efermi">      8.39901786 </i>
   <total>
    <array>
     <dimension dim="1">gridpoints</dimension>
     <dimension dim="2">spin</dimension>
     <field>energy</field>
     <field>total</field>
     <field>integrated</field>
     <set>
      <set comment="spin 1">
       <r>    -3.5594     0.0000     0.0000 </r>
       <r>    -3.4635     0.0000     0.0000 </r>
       <r>    -3.3675     0.0000     0.0000 </r>
       <r>    -3.2715     0.0000     0.0000 </r>
       <r>    -3.1756     0.0000     0.0000 </r>
       <r>    -3.0796     0.0000     0.0000 </r>
       <r>    -2.9837     0.0000     0.0000 </r>
       <r>    -2.8877     0.0000     0.0000 </r>
       <r>    -2.7917     0.0000     0.0000 </r>
       <r>    -2.6958     0.0000     0.0000 </r>
       <r>    -2.5998     0.0000     0.0000 </r>
       <r>    -2.5039     0.0000     0.0000 </r>
       <r>    -2.4079     0.0000     0.0000 </r>
       <r>    -2.3119     0.0000     0.0000 </r>
       <r>    -2.2160     0.0000     0.0000 </r>
       <r>    -2.1200     0.0000     0.0000 </r>
       <r>    -2.0241     0.0000     0.0000 </r>
       <r>    -1.9281     0.0000     0.0000 </r>
       <r>    -1.8321     0.0000     0.0000 </r>
       <r>    -1.7362     0.0000     0.0000 </r>
       <r>    -1.6402     0.0000     0.0000 </r>
       <r>    -1.5443     0.0000     0.0000 </r>
       <r>    -1.4483     0.0000     0.0000 </r>
       <r>    -1.3524     0.0000     0.0000 </r>
       <r>    -1.2564    -0.0002     0.0000 </r>
       <r>    -1.1604    -0.0009    -0.0001 </r>
       <r>    -1.0645    -0.0025    -0.0004 </r>
       <r>    -0.9685    -0.0056    -0.0009 </r>
       <r>    -0.8726    -0.0083    -0.0017 </r>
       <r>    -0.7766    -0.0046    -0.0021 </r>
       <r>    -0.6806     0.0153    -0.0007 </r>
       <r>    -0.5847     0.0582     0.0049 </r>
       <r>    -0.4887     0.1190     0.0163 </r>
       <r>    -0.3928     0.1804     0.0336 </r>
       <r>    -0.2968     0.2256     0.0553 </r>
       <r>    -0.2008     0.2519     0.0795 </r>
       <r>    -0.1049     0.2716     0.1055 </r>
       <r>    -0.0089     0.3008     0.1344 </r>
       <r>     0.0870     0.3466     0.1677 </r>
       <r>     0.1830     0.4041     0.2064 </r>
       <r>     0.2789     0.4634     0.2509 </r>
       <r>     0.3749     0.5181     0.3006 </r>
       <r>     0.4709     0.5696     0.3553 </r>
       <r>     0.5668     0.6242     0.4152 </r>
       <r>     0.6628     0.6872     0.4811 </r>
       <r>     0.7587     0.7557     0.5536 </r>
       <r>     0.8547     0.8195     0.6323 </r>
       <r>     0.9507     0.8717     0.7159 </r>
       <r>     1.0466     0.9133     0.8036 </r>
       <r>     1.1426     0.9509     0.8948 </r>
       <r>     1.2385     0.9987     0.9906 </r>
       <r>     1.3345     1.0794     1.0942 </r>
       <r>     1.4305     1.2202     1.2113 </r>
       <r>     1.5264     1.4548     1.3509 </r>
       <r>     1.6224     1.8231     1.5258 </r>
       <r>     1.7183     2.3518     1.7515 </r>
       <r>     1.8143     3.0426     2.0435 </r>
       <r>     1.9103     3.9012     2.4178 </r>
       <r>     2.0062     4.9710     2.8949 </r>
       <r>     2.1022     6.3117     3.5005 </r>
       <r>     2.1981     7.9237     4.2609 </r>
       <r>     2.2941     9.6760     5.1894 </r>
       <r>     2.3900    11.3200     6.2756 </r>
       <r>     2.4860    12.6073     7.4854 </r>
       <r>     2.5820    13.4021     8.7715 </r>
       <r>     2.6779    13.6754    10.0837 </r>
       <r>     2.7739    13.4394    11.3734 </r>
       <r>     2.8698    12.7549    12.5973 </r>
       <r>     2.9658    11.8277    13.7323 </r>
       <r>     3.0618    11.0501    14.7926 </r>
       <r>     3.1577    10.8433    15.8332 </r>
       <r>     3.2537    11.3608    16.9233 </r>
       <r>     3.3496    12.3429    18.1077 </r>
       <r>     3.4456    13.3152    19.3855 </r>
       <r>     3.5416    13.9678    20.7258 </r>
       <r>     3.6375    14.3768    22.1054 </r>
       <r>     3.7335    14.9173    23.5368 </r>
       <r>     3.8294    15.9712    25.0694 </r>
       <r>     3.9254    17.5976    26.7580 </r>
       <r>     4.0213    19.3326    28.6132 </r>
       <r>     4.1173    20.3193    30.5630 </r>
       <r>     4.2133    19.8495    32.4677 </r>
       <r>     4.3092    17.9693    34.1921 </r>
       <r>     4.4052    15.5518    35.6844 </r>
       <r>     4.5011    13.7013    36.9992 </r>
       <r>     4.5971    13.0234    38.2489 </r>
       <r>     4.6931    13.3497    39.5299 </r>
       <r>     4.7890    14.0178    40.8750 </r>
       <r>     4.8850    14.4098    42.2578 </r>
       <r>     4.9809    14.3344    43.6333 </r>
       <r>     5.0769    13.9977    44.9765 </r>
       <r>     5.1729    13.6833    46.2895 </r>
       <r>     5.2688    13.5037    47.5853 </r>
       <r>     5.3648    13.4151    48.8726 </r>
       <r>     5.4607    13.3661    50.1552 </r>
       <r>     5.5567    13.3547    51.4367 </r>
       <r>     5.6527    13.3534    52.7181 </r>
       <r>     5.7486    13.2693    53.9914 </r>
       <r>     5.8446    13.0426    55.2430 </r>
       <r>     5.9405    12.7428    56.4658 </r>
       <r>     6.0365    12.4832    57.6636 </r>
       <r>     6.1324    12.2204    58.8363 </r>
       <r>     6.2284    11.6928    59.9583 </r>
       <r>     6.3244    10.6137    60.9768 </r>
       <r>     6.4203     8.9203    61.8328 </r>
       <r>     6.5163     6.8335    62.4885 </r>
       <r>     6.6122     4.7351    62.9429 </r>
       <r>     6.7082     3.0099    63.2317 </r>
       <r>     6.8042     1.9049    63.4145 </r>
       <r>     6.9001     1.4321    63.5519 </r>
       <r>     6.9961     1.3875    63.6851 </r>
       <r>     7.0920     1.4939    63.8284 </r>
       <r>     7.1880     1.5663    63.9787 </r>
       <r>     7.2840     1.5790    64.1303 </r>
       <r>     7.3799     1.5966    64.2835 </r>
       <r>     7.4759     1.6526    64.4420 </r>
       <r>     7.5718     1.7019    64.6053 </r>
       <r>     7.6678     1.6875    64.7673 </r>
       <r>     7.7637     1.6250    64.9232 </r>
       <r>     7.8597     1.5932    65.0761 </r>
       <r>     7.9557     1.6440    65.2339 </r>
       <r>     8.0516     1.7419    65.4010 </r>
       <r>     8.1476     1.8011    65.5738 </r>
       <r>     8.2435     1.7698    65.7437 </r>
       <r>     8.3395     1.6750    65.9044 </r>
       <r>     8.4355     1.5997    66.0579 </r>
       <r>     8.5314     1.6114    66.2125 </r>
       <r>     8.6274     1.6957    66.3753 </r>
       <r>     8.7233     1.7653    66.5446 </r>
       <r>     8.8193     1.7557    66.7131 </r>
       <r>     8.9153     1.6914    66.8754 </r>
       <r>     9.0112     1.6389    67.0327 </r>
       <r>     9.1072     1.6271    67.1888 </r>
       <r>     9.2031     1.6421    67.3464 </r>
       <r>     9.2991     1.6650    67.5062 </r>
       <r>     9.3951     1.6817    67.6675 </r>
       <r>     9.4910     1.6806    67.8288 </r>
       <r>     9.5870     1.6695    67.9890 </r>
       <r>     9.6829     1.6728    68.1495 </r>
       <r>     9.7789     1.6937    68.3121 </r>
       <r>     9.8748     1.7003    68.4752 </r>
       <r>     9.9708     1.6693    68.6354 </r>
       <r>    10.0668     1.6232    68.7912 </r>
       <r>    10.1627     1.5996    68.9447 </r>
       <r>    10.2587     1.6013    69.0983 </r>
       <r>    10.3546     1.5997    69.2518 </r>
       <r>    10.4506     1.5737    69.4028 </r>
       <r>    10.5466     1.5247    69.5491 </r>
       <r>    10.6425     1.4640    69.6896 </r>
       <r>    10.7385     1.4097    69.8249 </r>
       <r>    10.8344     1.3835    69.9577 </r>
       <r>    10.9304     1.3926    70.0913 </r>
       <r>    11.0264     1.4257    70.2281 </r>
       <r>    11.1223     1.4838    70.3705 </r>
       <r>    11.2183     1.5979    70.5238 </r>
       <r>    11.3142     1.7880    70.6954 </r>
       <r>    11.4102     2.0123    70.8885 </r>
       <r>    11.5061     2.1819    71.0979 </r>
       <r>    11.6021     2.2356    71.3124 </r>
       <r>    11.6981     2.1928    71.5228 </r>
       <r>    11.7940     2.1290    71.7271 </r>
       <r>    11.8900     2.1022    71.9288 </r>
       <r>    11.9859     2.1015    72.1305 </r>
       <r>    12.0819     2.0676    72.3289 </r>
       <r>    12.1779     1.9609    72.5170 </r>
       <r>    12.2738     1.8103    72.6908 </r>
       <r>    12.3698     1.6962    72.8535 </r>
       <r>    12.4657     1.6804    73.0148 </r>
       <r>    12.5617     1.7523    73.1829 </r>
       <r>    12.6577     1.8409    73.3596 </r>
       <r>    12.7536     1.8795    73.5399 </r>
       <r>    12.8496     1.8563    73.7181 </r>
       <r>    12.9455     1.8095    73.8917 </r>
       <r>    13.0415     1.7819    74.0627 </r>
       <r>    13.1375     1.7848    74.2340 </r>
       <r>    13.2334     1.8045    74.4071 </r>
       <r>    13.3294     1.8326    74.5830 </r>
       <r>    13.4253     1.8745    74.7628 </r>
       <r>    13.5213     1.9303    74.9481 </r>
       <r>    13.6172     1.9822    75.1383 </r>
       <r>    13.7132     2.0086    75.3310 </r>
       <r>    13.8092     2.0021    75.5232 </r>
       <r>    13.9051     1.9715    75.7123 </r>
       <r>    14.0011     1.9324    75.8978 </r>
       <r>    14.0970     1.8944    76.0795 </r>
       <r>    14.1930     1.8531    76.2574 </r>
       <r>    14.2890     1.7921    76.4293 </r>
       <r>    14.3849     1.6929    76.5918 </r>
       <r>    14.4809     1.5482    76.7403 </r>
       <r>    14.5768     1.3735    76.8721 </r>
       <r>    14.6728     1.2081    76.9881 </r>
       <r>    14.7688     1.0924    77.0929 </r>
       <r>    14.8647     1.0387    77.1926 </r>
       <r>    14.9607     1.0326    77.2917 </r>
       <r>    15.0566     1.0567    77.3931 </r>
       <r>    15.1526     1.0972    77.4983 </r>
       <r>    15.2485     1.1333    77.6071 </r>
       <r>    15.3445     1.1399    77.7165 </r>
       <r>    15.4405     1.1002    77.8220 </r>
       <r>    15.5364     1.0119    77.9191 </r>
       <r>    15.6324     0.8920    78.0047 </r>
       <r>    15.7283     0.7806    78.0797 </r>
       <r>    15.8243     0.7250    78.1492 </r>
       <r>    15.9203     0.7417    78.2204 </r>
       <r>    16.0162     0.7940    78.2966 </r>
       <r>    16.1122     0.8174    78.3750 </r>
       <r>    16.2081     0.7766    78.4495 </r>
       <r>    16.3041     0.6920    78.5160 </r>
       <r>    16.4001     0.6116    78.5746 </r>
       <r>    16.4960     0.5636    78.6287 </r>
       <r>    16.5920     0.5457    78.6811 </r>
       <r>    16.6879     0.5451    78.7334 </r>
       <r>    16.7839     0.5511    78.7863 </r>
       <r>    16.8799     0.5497    78.8390 </r>
       <r>    16.9758     0.5251    78.8894 </r>
       <r>    17.0718     0.4743    78.9349 </r>
       <r>    17.1677     0.4142    78.9747 </r>
       <r>    17.2637     0.3701    79.0102 </r>
       <r>    17.3596     0.3584    79.0446 </r>
       <r>    17.4556     0.3825    79.0813 </r>
       <r>    17.5516     0.4340    79.1229 </r>
       <r>    17.6475     0.4927    79.1702 </r>
       <r>    17.7435     0.5276    79.2208 </r>
       <r>    17.8394     0.5085    79.2696 </r>
       <r>    17.9354     0.4275    79.3107 </r>
       <r>    18.0314     0.3118    79.3406 </r>
       <r>    18.1273     0.2104    79.3608 </r>
       <r>    18.2233     0.1632    79.3764 </r>
       <r>    18.3192     0.1754    79.3933 </r>
       <r>    18.4152     0.2205    79.4144 </r>
       <r>    18.5112     0.2653    79.4399 </r>
       <r>    18.6071     0.2972    79.4684 </r>
       <r>    18.7031     0.3262    79.4997 </r>
       <r>    18.7990     0.3615    79.5344 </r>
       <r>    18.8950     0.3874    79.5716 </r>
       <r>    18.9909     0.3698    79.6071 </r>
       <r>    19.0869     0.2918    79.6351 </r>
       <r>    19.1829     0.1784    79.6522 </r>
       <r>    19.2788     0.0809    79.6599 </r>
       <r>    19.3748     0.0390    79.6637 </r>
       <r>    19.4707     0.0585    79.6693 </r>
       <r>    19.5667     0.1153    79.6804 </r>
       <r>    19.6627     0.1774    79.6974 </r>
       <r>    19.7586     0.2258    79.7191 </r>
       <r>    19.8546     0.2591    79.7439 </r>
       <r>    19.9505     0.2802    79.7708 </r>
       <r>    20.0465     0.2825    79.7979 </r>
       <r>    20.1425     0.2553    79.8224 </r>
       <r>    20.2384     0.1982    79.8414 </r>
       <r>    20.3344     0.1261    79.8535 </r>
       <r>    20.4303     0.0599    79.8593 </r>
       <r>    20.5263     0.0161    79.8608 </r>
       <r>    20.6223     0.0035    79.8612 </r>
       <r>    20.7182     0.0227    79.8633 </r>
       <r>    20.8142     0.0663    79.8697 </r>
       <r>    20.9101     0.1208    79.8813 </r>
       <r>    21.0061     0.1713    79.8977 </r>
       <r>    21.1020     0.2026    79.9172 </r>
       <r>    21.1980     0.2015    79.9365 </r>
       <r>    21.2940     0.1658    79.9524 </r>
       <r>    21.3899     0.1105    79.9630 </r>
       <r>    21.4859     0.0589    79.9687 </r>
       <r>    21.5818     0.0249    79.9711 </r>
       <r>    21.6778     0.0092    79.9719 </r>
       <r>    21.7738     0.0083    79.9727 </r>
       <r>    21.8697     0.0194    79.9746 </r>
       <r>    21.9657     0.0383    79.9783 </r>
       <r>    22.0616     0.0563    79.9837 </r>
       <r>    22.1576     0.0637    79.9898 </r>
       <r>    22.2536     0.0559    79.9951 </r>
       <r>    22.3495     0.0371    79.9987 </r>
       <r>    22.4455     0.0171    80.0003 </r>
       <r>    22.5414     0.0035    80.0007 </r>
       <r>    22.6374    -0.0021    80.0005 </r>
       <r>    22.7333    -0.0026    80.0002 </r>
       <r>    22.8293    -0.0015    80.0001 </r>
       <r>    22.9253    -0.0006    80.0000 </r>
       <r>    23.0212    -0.0002    80.0000 </r>
       <r>    23.1172     0.0000    80.0000 </r>
       <r>    23.2131     0.0000    80.0000 </r>
       <r>    23.3091     0.0000    80.0000 </r>
       <r>    23.4051     0.0000    80.0000 </r>
       <r>    23.5010     0.0000    80.0000 </r>
       <r>    23.5970     0.0000    80.0000 </r>
       <r>    23.6929     0.0000    80.0000 </r>
       <r>    23.7889     0.0000    80.0000 </r>
       <r>    23.8849     0.0000    80.0000 </r>
       <r>    23.9808     0.0000    80.0000 </r>
       <r>    24.0768     0.0000    80.0000 </r>
       <r>    24.1727     0.0000    80.0000 </r>
       <r>    24.2687     0.0000    80.0000 </r>
       <r>    24.3647     0.0000    80.0000 </r>
       <r>    24.4606     0.0000    80.0000 </r>
       <r>    24.5566     0.0000    80.0000 </r>
       <r>    24.6525     0.0000    80.0000 </r>
       <r>    24.7485     0.0000    80.0000 </r>
       <r>    24.8444     0.0000    80.0000 </r>
       <r>    24.9404     0.0000    80.0000 </r>
       <r>    25.0364     0.0000    80.0000 </r>
       <r>    25.1323     0.0000    80.0000 </r>
       <r>    25.2283     0.0000    80.0000 </r>
      </set>
     </set>
    </array>
   </total>
  </dos>
 </calculation>
 <structure name="finalpos" >
  <crystal>
   <varray name="basis" >
    <v>       2.07147142       0.00000000       2.07147142 </v>
    <v>       0.00000000      -2.07147142      -2.07147142 </v>
    <v>       8.33469072       8.33469072      -8.33469072 </v>
   </varray>
   <i name="volume">    107.29231955 </i>
   <varray name="rec_basis" >
    <v>       0.32183242      -0.16091621       0.16091621 </v>
    <v>       0.16091621      -0.32183242      -0.16091621 </v>
    <v>       0.03999349       0.03999349      -0.03999349 </v>
   </varray>
  </crystal>
  <varray name="positions" >
   <v>       0.00000000       0.00000000       0.50015982 </v>
   <v>       0.66666667       0.33333333       0.83317351 </v>
   <v>       0.00000000       0.00000000       0.99805469 </v>
   <v>       0.33333333       0.66666667       0.16666667 </v>
   <v>       0.66666667       0.33333333       0.33527864 </v>
   <v>       0.33333333       0.66666667       0.66666667 </v>
  </varray>
 </structure>
</modeling>
