<?xml version="1.0" encoding="ISO-8859-1"?>
<modeling>
 <generator>
  <i name="program" type="string">vasp </i>
  <i name="version" type="string">5.3.5  </i>
  <i name="subversion" type="string">31Mar14 (build Jun 20 2014 13:15:13) complex                          parallel </i>
  <i name="platform" type="string">LinuxIFC </i>
  <i name="date" type="string">2025 12 16 </i>
  <i name="time" type="string">15:55:41 </i>
 </generator>
 <incar>
  <i type="string" name="PREC">accurate</i>
  <i type="int" name="IALGO">    68</i>
  <i type="logical" name="ADDGRID"> T  </i>
  <i type="int" name="NELM">   100</i>
  <i type="int" name="NELMIN">     4</i>
  <i type="int" name="IBRION">     2</i>
  <i name="EDIFF">      0.00000100</i>
  <i name="EDIFFG">     -0.02000000</i>
  <i type="int" name="NSW">    30</i>
  <i type="int" name="ISIF">     3</i>
  <i name="ENCUT">    600.00000000</i>
  <i type="logical" name="LREAL"> F  </i>
  <i type="int" name="ISMEAR">     0</i>
  <i name="SIGMA">      0.10000000</i>
  <i type="logical" name="LWAVE"> F  </i>
  <i type="logical" name="LCHARG"> F  </i>
  <i type="int" name="NELM">   100</i>
 </incar>
 <kpoints>
  <generation param="Auto">
   <i name="subdivisionlength">     20.00000000 </i>
   <v type="int" name="divisions">       7        7        1 </v>
   <v name="usershift">      0.00000000       0.00000000       0.00000000 </v>
   <v name="genvec1">      0.14285714       0.00000000       0.00000000 </v>
   <v name="genvec2">      0.00000000       0.14285714       0.00000000 </v>
   <v name="genvec3">      0.00000000       0.00000000       1.00000000 </v>
   <v name="shift">      0.00000000       0.00000000       0.00000000 </v>
  </generation>
  <varray name="kpointlist" >
   <v>       0.00000000       0.00000000       0.00000000 </v>
   <v>       0.14285714       0.00000000       0.00000000 </v>
   <v>       0.28571429       0.00000000       0.00000000 </v>
   <v>       0.42857143       0.00000000       0.00000000 </v>
   <v>       0.14285714       0.14285714       0.00000000 </v>
   <v>       0.28571429       0.14285714       0.00000000 </v>
   <v>       0.42857143       0.14285714       0.00000000 </v>
   <v>       0.28571429       0.28571429       0.00000000 </v>
  </varray>
  <varray name="weights" >
   <v>       0.02040816 </v>
   <v>       0.12244898 </v>
   <v>       0.12244898 </v>
   <v>       0.12244898 </v>
   <v>       0.12244898 </v>
   <v>       0.24489796 </v>
   <v>       0.12244898 </v>
   <v>       0.12244898 </v>
  </varray>
 </kpoints>
 <parameters>
  <separator name="general" >
   <i type="string" name="SYSTEM">unknown system</i>
   <i type="logical" name="LCOMPAT"> F  </i>
  </separator>
  <separator name="electronic" >
   <i type="string" name="PREC">accura</i>
   <i name="ENMAX">    600.00000000</i>
   <i name="ENAUG">    644.87300000</i>
   <i name="EDIFF">      0.00000100</i>
   <i type="int" name="IALGO">    68</i>
   <i type="int" name="IWAVPR">    11</i>
   <i type="int" name="NBANDS">    32</i>
   <i name="NELECT">     48.00000000</i>
   <i type="int" name="TURBO">     0</i>
   <i type="int" name="IRESTART">     0</i>
   <i type="int" name="NREBOOT">     0</i>
   <i type="int" name="NMIN">     0</i>
   <i name="EREF">      0.00000000</i>
   <separator name="electronic smearing" >
    <i type="int" name="ISMEAR">     0</i>
    <i name="SIGMA">      0.10000000</i>
    <i name="KSPACING">      0.50000000</i>
    <i type="logical" name="KGAMMA"> T  </i>
   </separator>
   <separator name="electronic projectors" >
    <i type="logical" name="LREAL"> F  </i>
    <v name="ROPT">      0.00000000      0.00000000      0.00000000      0.00000000</v>
    <i type="int" name="LMAXPAW">  -100</i>
    <i type="int" name="LMAXMIX">     2</i>
    <i type="logical" name="NLSPLINE"> F  </i>
   </separator>
   <separator name="electronic startup" >
    <i type="int" name="ISTART">     0</i>
    <i type="int" name="ICHARG">     2</i>
    <i type="int" name="INIWAV">     1</i>
   </separator>
   <separator name="electronic spin" >
    <i type="int" name="ISPIN">     1</i>
    <i type="logical" name="LNONCOLLINEAR"> F  </i>
    <v name="MAGMOM">      1.00000000      1.00000000      1.00000000      1.00000000      1.00000000      1.00000000      1.00000000      1.00000000      1.00000000      1.00000000      1.00000000      1.00000000</v>
    <i name="NUPDOWN">     -1.00000000</i>
    <i type="logical" name="LSORBIT"> F  </i>
    <v name="SAXIS">      0.00000000      0.00000000      1.00000000</v>
    <i type="logical" name="LSPIRAL"> F  </i>
    <v name="QSPIRAL">      0.00000000      0.00000000      0.00000000</v>
    <i type="logical" name="LZEROZ"> F  </i>
   </separator>
   <separator name="electronic exchange-correlation" >
    <i type="logical" name="LASPH"> F  </i>
    <i type="logical" name="LMETAGGA"> F  </i>
   </separator>
   <separator name="electronic convergence" >
    <i type="int" name="NELM">   100</i>
    <i type="int" name="NELMDL">     0</i>
    <i type="int" name="NELMIN">     4</i>
    <i name="ENINI">    600.00000000</i>
    <separator name="electronic convergence detail" >
     <i type="logical" name="LDIAG"> T  </i>
     <i type="logical" name="LSUBROT"> F  </i>
     <i name="WEIMIN">      0.00100000</i>
     <i name="EBREAK">      0.00000001</i>
     <i name="DEPER">      0.30000000</i>
     <i type="int" name="NRMM">     4</i>
     <i name="TIME">      0.40000000</i>
    </separator>
   </separator>
   <separator name="electronic mixer" >
    <i name="AMIX">      0.40000000</i>
    <i name="BMIX">      1.00000000</i>
    <i name="AMIN">      0.10000000</i>
    <i name="AMIX_MAG">      1.60000000</i>
    <i name="BMIX_MAG">      1.00000000</i>
    <separator name="electronic mixer details" >
     <i type="int" name="IMIX">     4</i>
     <i type="int" name="MAXMIX">   -45</i>
     <i name="WC">    100.00000000</i>
     <i type="int" name="INIMIX">     1</i>
     <i type="int" name="MIXPRE">     1</i>
     <i type="int" name="MREMOVE">     5</i>
    </separator>
   </separator>
   <separator name="electronic dipolcorrection" >
    <i type="logical" name="LDIPOL"> F  </i>
    <i type="logical" name="LMONO"> F  </i>
    <i type="int" name="IDIPOL">     0</i>
    <i name="EPSILON">      1.00000000</i>
    <v name="DIPOL">   -100.00000000   -100.00000000   -100.00000000</v>
    <i name="EFIELD">      0.00000000</i>
   </separator>
  </separator>
  <separator name="grids" >
   <i type="int" name="NGX">    28</i>
   <i type="int" name="NGY">    28</i>
   <i type="int" name="NGZ">   126</i>
   <i type="int" name="NGXF">    56</i>
   <i type="int" name="NGYF">    56</i>
   <i type="int" name="NGZF">   252</i>
   <i type="logical" name="ADDGRID"> T  </i>
  </separator>
  <separator name="ionic" >
   <i type="int" name="NSW">    30</i>
   <i type="int" name="IBRION">     2</i>
   <i type="int" name="ISIF">     3</i>
   <i name="PSTRESS">      0.00000000</i>
   <i name="EDIFFG">     -0.02000000</i>
   <i type="int" name="NFREE">     1</i>
   <i name="POTIM">      0.50000000</i>
   <i name="SMASS">     -3.00000000</i>
   <i name="SCALEE">      1.00000000</i>
  </separator>
  <separator name="ionic md" >
   <i name="TEBEG">      0.00010000</i>
   <i name="TEEND">      0.00010000</i>
   <i type="int" name="NBLOCK">     1</i>
   <i type="int" name="KBLOCK">    30</i>
   <i type="int" name="NPACO">   256</i>
   <i name="APACO">     16.00000000</i>
  </separator>
  <separator name="symmetry" >
   <i type="int" name="ISYM">     2</i>
   <i name="SYMPREC">      0.00001000</i>
  </separator>
  <separator name="dos" >
   <i type="logical" name="LORBIT"> F  </i>
   <v name="RWIGS">     -1.00000000     -1.00000000     -1.00000000     -1.00000000</v>
   <i type="int" name="NEDOS">   301</i>
   <i name="EMIN">     10.00000000</i>
   <i name="EMAX">    -10.00000000</i>
   <i name="EFERMI">      0.00000000</i>
  </separator>
  <separator name="writing" >
   <i type="int" name="NWRITE">     2</i>
   <i type="logical" name="LWAVE"> F  </i>
   <i type="logical" name="LCHARG"> F  </i>
   <i type="logical" name="LPARD"> F  </i>
   <i type="logical" name="LVTOT"> F  </i>
   <i type="logical" name="LVHAR"> F  </i>
   <i type="logical" name="LELF"> F  </i>
   <i type="logical" name="LOPTICS"> F  </i>
   <v name="STM">      0.00000000      0.00000000      0.00000000      0.00000000      0.00000000      0.00000000      0.00000000</v>
  </separator>
  <separator name="performance" >
   <i type="int" name="NPAR">     4</i>
   <i type="int" name="NSIM">     4</i>
   <i type="int" name="NBLK">    -1</i>
   <i type="logical" name="LPLANE"> T  </i>
   <i type="logical" name="LSCALAPACK"> T  </i>
   <i type="logical" name="LSCAAWARE"> F  </i>
   <i type="logical" name="LSCALU"> F  </i>
   <i type="logical" name="LASYNC"> F  </i>
   <i type="logical" name="LORBITALREAL"> F  </i>
  </separator>
  <separator name="miscellaneous" >
   <i type="int" name="IDIOT">     3</i>
   <i type="logical" name="LMUSIC"> F  </i>
   <v name="POMASS">     28.08500000     26.98100000     12.01100000     14.00100000</v>
   <v name="DARWINR">      0.00000000      0.00000000      0.00000000      0.00000000</v>
   <v name="DARWINV">      1.00000000      1.00000000      1.00000000      1.00000000</v>
   <i type="logical" name="LCORR"> T  </i>
  </separator>
  <i type="logical" name="GGA_COMPAT"> T  </i>
  <i type="logical" name="LBERRY"> F  </i>
  <i type="int" name="ICORELEVEL">     0</i>
  <i type="logical" name="LDAU"> F  </i>
  <i type="int" name="I_CONSTRAINED_M">     0</i>
  <separator name="electronic exchange-correlation" >
   <i type="string" name="GGA">--</i>
   <i type="int" name="VOSKOWN">     0</i>
   <i type="logical" name="LHFCALC"> F  </i>
   <i type="string" name="PRECFOCK"></i>
   <i type="logical" name="LSYMGRAD"> F  </i>
   <i type="logical" name="LHFONE"> F  </i>
   <i type="logical" name="LRHFCALC"> F  </i>
   <i type="logical" name="LTHOMAS"> F  </i>
   <i type="logical" name="LMODELHF"> F  </i>
   <i name="ENCUT4O">     -1.00000000</i>
   <i type="int" name="EXXOEP">     0</i>
   <i type="int" name="FOURORBIT">     0</i>
   <i name="AEXX">      0.00000000</i>
   <i name="HFALPHA">      0.00000000</i>
   <i name="MCALPHA">      0.00000000</i>
   <i name="ALDAX">      1.00000000</i>
   <i name="AGGAX">      1.00000000</i>
   <i name="ALDAC">      1.00000000</i>
   <i name="AGGAC">      1.00000000</i>
   <i type="int" name="NKREDX">     1</i>
   <i type="int" name="NKREDY">     1</i>
   <i type="int" name="NKREDZ">     1</i>
   <i type="logical" name="SHIFTRED"> F  </i>
   <i type="logical" name="ODDONLY"> F  </i>
   <i type="logical" name="EVENONLY"> F  </i>
   <i type="int" name="LMAXFOCK">     0</i>
   <i type="int" name="NMAXFOCKAE">     0</i>
   <i type="logical" name="LFOCKAEDFT"> F  </i>
   <i name="HFSCREEN">      0.00000000</i>
   <i name="HFSCREENC">      0.00000000</i>
   <i type="int" name="NBANDSGWLOW">     0</i>
  </separator>
  <separator name="vdW DFT" >
   <i type="logical" name="LUSE_VDW"> F  </i>
   <i name="Zab_VDW">     -0.84910000</i>
   <i name="PARAM1">      0.12340000</i>
   <i name="PARAM2">      1.00000000</i>
   <i name="PARAM3">      0.00000000</i>
  </separator>
  <separator name="model GW" >
   <i type="int" name="MODEL_GW">     0</i>
   <i name="MODEL_EPS0">      6.34827628</i>
   <i name="MODEL_ALPHA">      1.00000000</i>
  </separator>
  <separator name="linear response parameters" >
   <i type="logical" name="LEPSILON"> F  </i>
   <i type="logical" name="LRPA"> F  </i>
   <i type="logical" name="LNABLA"> F  </i>
   <i type="logical" name="LVEL"> F  </i>
   <i type="int" name="KINTER">     0</i>
   <i name="CSHIFT">      0.10000000</i>
   <i name="OMEGAMAX">     -1.00000000</i>
   <i name="DEG_THRESHOLD">      0.00200000</i>
  </separator>
  <separator name="orbital magnetization" >
   <i type="logical" name="NUCIND"> F  </i>
   <v name="MAGPOS">      0.00000000      0.00000000      0.00000000</v>
   <i type="logical" name="LNICSALL"> T  </i>
   <i type="logical" name="ORBITALMAG"> F  </i>
   <i type="logical" name="LMAGBLOCH"> F  </i>
   <i type="logical" name="LCHIMAG"> F  </i>
   <i type="logical" name="LGAUGE"> T  </i>
   <i type="int" name="MAGATOM">     0</i>
   <v name="MAGDIPOL">      0.00000000      0.00000000      0.00000000</v>
   <v name="AVECCONST">      0.00000000      0.00000000      0.00000000</v>
  </separator>
  <separator name="response functions" >
   <i type="logical" name="LADDER"> F  </i>
   <i type="logical" name="LFXC"> F  </i>
   <i type="logical" name="LHARTREE"> T  </i>
   <i type="int" name="IBSE">     0</i>
   <i type="logical" name="LTCTE"> F  </i>
   <i type="logical" name="LTETE"> F  </i>
   <i type="logical" name="LTRIPLET"> F  </i>
   <i type="logical" name="LFXCEPS"> F  </i>
   <i type="logical" name="LFXHEG"> F  </i>
   <i type="logical" name="L2ORDER"> F  </i>
   <i type="logical" name="LUSEW"> F  </i>
   <i name="ENCUTGW">     -2.00000000</i>
   <i name="ENCUTGWSOFT">     -2.00000000</i>
   <i name="ENCUTLF">     -1.00000000</i>
   <i type="int" name="LMAXMP2">    -1</i>
   <i name="SCISSOR">      0.00000000</i>
   <i type="int" name="NOMEGA">     0</i>
   <i type="int" name="NOMEGAR">     0</i>
   <i type="int" name="NBANDSGW">    -1</i>
   <i type="int" name="NBANDSO">    -1</i>
   <i type="int" name="NBANDSV">    -1</i>
   <i type="int" name="NELM">   100</i>
   <i type="int" name="DIM">     3</i>
   <i type="int" name="ANTIRES">     0</i>
   <i name="OMEGAMAX">    -30.00000000</i>
   <i name="OMEGAMIN">    -30.00000000</i>
   <i name="OMEGATL">   -200.00000000</i>
   <i type="int" name="OMEGAGRID">     0</i>
   <i name="CSHIFT">     -0.10000000</i>
   <i type="logical" name="SELFENERGY"> F  </i>
   <i type="logical" name="LSPECTRAL"> F  </i>
   <i type="logical" name="ODDONLYGW"> F  </i>
   <i type="logical" name="EVENONLYGW"> F  </i>
   <i type="int" name="NKREDLFX">     1</i>
   <i type="int" name="NKREDLFY">     1</i>
   <i type="int" name="NKREDLFZ">     1</i>
   <i type="int" name="MAXMEM">  1800</i>
   <i type="int" name="TELESCOPE">     0</i>
   <i type="int" name="TAUPAR">     1</i>
  </separator>
  <separator name="External order field" >
   <i name="OFIELD_KAPPA">      0.00000000</i>
   <v name="OFIELD_K">      0.00000000      0.00000000      0.00000000</v>
   <i name="OFIELD_Q6_NEAR">      0.00000000</i>
   <i name="OFIELD_Q6_FAR">      0.00000000</i>
   <i name="OFIELD_A">      0.00000000</i>
  </separator>
 </parameters>
 <atominfo>
  <atoms>      12 </atoms>
  <types>       4 </types>
  <array name="atoms" >
   <dimension dim="1">ion</dimension>
   <field type="string">element</field>
   <field type="int">atomtype</field>
   <set>
    <rc><c>Si</c><c>   1</c></rc>
    <rc><c>Si</c><c>   1</c></rc>
    <rc><c>Si</c><c>   1</c></rc>
    <rc><c>Al</c><c>   2</c></rc>
    <rc><c>Al</c><c>   2</c></rc>
    <rc><c>Al</c><c>   2</c></rc>
    <rc><c>C </c><c>   3</c></rc>
    <rc><c>C </c><c>   3</c></rc>
    <rc><c>C </c><c>   3</c></rc>
    <rc><c>N </c><c>   4</c></rc>
    <rc><c>N </c><c>   4</c></rc>
    <rc><c>N </c><c>   4</c></rc>
   </set>
  </array>
  <array name="atomtypes" >
   <dimension dim="1">type</dimension>
   <field type="int">atomspertype</field>
   <field type="string">element</field>
   <field>mass</field>
   <field>valence</field>
   <field type="string">pseudopotential</field>
   <set>
    <rc><c>   3</c><c>Si</c><c>     28.08500000</c><c>      4.00000000</c><c>  PAW_PBE Si 05Jan2001                  </c></rc>
    <rc><c>   3</c><c>Al</c><c>     26.98100000</c><c>      3.00000000</c><c>  PAW_PBE Al 04Jan2001                  </c></rc>
    <rc><c>   3</c><c>C </c><c>     12.01100000</c><c>      4.00000000</c><c>  PAW_PBE C 08Apr2002                   </c></rc>
    <rc><c>   3</c><c>N </c><c>     14.00100000</c><c>      5.00000000</c><c>  PAW_PBE N_s 07Sep2000                 </c></rc>
   </set>
  </array>
 </atominfo>
 <structure name="initialpos" >
  <crystal>
   <varray name="basis" >
    <v>       3.10596975       0.00000000       0.00000000 </v>
    <v>      -1.55298488       2.68984871       0.00000000 </v>
    <v>       0.00000000       0.00000000      15.19710061 </v>
   </varray>
   <i name="volume">    126.96552556 </i>
   <varray name="rec_basis" >
    <v>       0.32196064       0.18588406       0.00000000 </v>
    <v>       0.00000000       0.37176812       0.00000000 </v>
    <v>       0.00000000       0.00000000       0.06580203 </v>
   </varray>
  </crystal>
  <varray name="positions" >
   <v>       0.33333333       0.66666667       0.66808686 </v>
   <v>       0.66666667       0.33333333       0.50171960 </v>
   <v>       0.66666667       0.33333333       0.83413132 </v>
   <v>       0.33333333       0.66666667       0.99703493 </v>
   <v>       0.33333333       0.66666667       0.33174585 </v>
   <v>       0.66666667       0.33333333       0.16426785 </v>
   <v>       0.33333333       0.66666667       0.46413419 </v>
   <v>       0.33333333       0.66666667       0.79692745 </v>
   <v>       0.66666667       0.33333333       0.63047603 </v>
   <v>       0.33333333       0.66666667       0.12013986 </v>
   <v>       0.66666667       0.33333333       0.28732556 </v>
   <v>       0.66666667       0.33333333       0.95401050 </v>
  </varray>
 </structure>
 <calculation>
  <scstep>
   <time name="dav">    0.14    0.14</time>
   <time name="total">    0.19    0.20</time>
   <energy>
    <i name="alphaZ">     48.18697925 </i>
    <i name="ewald">  -1714.86413306 </i>
    <i name="hartreedc">   -260.17184949 </i>
    <i name="XCdc">     -4.10517174 </i>
    <i name="pawpsdc">   1403.35320608 </i>
    <i name="pawaedc">  -1259.97391932 </i>
    <i name="eentropy">     -0.02529555 </i>
    <i name="bandstr">    332.00110855 </i>
    <i name="atom">   1704.90733868 </i>
    <i name="e_fr_energy">    249.30826341 </i>
    <i name="e_wo_entrp">    249.33355895 </i>
    <i name="e_0_energy">    249.32091118 </i>
   </energy>
  </scstep>
  <scstep>
   <time name="dav">    0.14    0.14</time>
   <time name="total">    0.14    0.15</time>
   <energy>
    <i name="e_fr_energy">    -80.06338178 </i>
    <i name="e_wo_entrp">    -80.06338178 </i>
    <i name="e_0_energy">    -80.06338178 </i>
   </energy>
  </scstep>
  <scstep>
   <time name="dav">    0.14    0.14</time>
   <time name="total">    0.14    0.15</time>
   <energy>
    <i name="e_fr_energy">   -101.75871582 </i>
    <i name="e_wo_entrp">   -101.75871582 </i>
    <i name="e_0_energy">   -101.75871582 </i>
   </energy>
  </scstep>
  <scstep>
   <time name="dav">    0.14    0.14</time>
   <time name="total">    0.14    0.15</time>
   <energy>
    <i name="e_fr_energy">   -102.25589097 </i>
    <i name="e_wo_entrp">   -102.25589097 </i>
    <i name="e_0_energy">   -102.25589097 </i>
   </energy>
  </scstep>
  <scstep>
   <time name="dav">    0.14    0.14</time>
   <time name="total">    0.20    0.21</time>
   <energy>
    <i name="e_fr_energy">   -102.27032483 </i>
    <i name="e_wo_entrp">   -102.27032483 </i>
    <i name="e_0_energy">   -102.27032483 </i>
   </energy>
  </scstep>
  <scstep>
   <time name="diag">    0.03    0.03</time>
   <time name="diis">    0.08    0.08</time>
   <time name="orth">    0.00    0.00</time>
   <time name="total">    0.21    0.23</time>
   <energy>
    <i name="e_fr_energy">    -89.58408947 </i>
    <i name="e_wo_entrp">    -89.58408947 </i>
    <i name="e_0_energy">    -89.58408947 </i>
   </energy>
  </scstep>
  <scstep>
   <time name="diag">    0.03    0.03</time>
   <time name="diis">    0.08    0.08</time>
   <time name="orth">    0.00    0.00</time>
   <time name="total">    0.22    0.23</time>
   <energy>
    <i name="e_fr_energy">    -89.61712964 </i>
    <i name="e_wo_entrp">    -89.61712964 </i>
    <i name="e_0_energy">    -89.61712964 </i>
   </energy>
  </scstep>
  <scstep>
   <time name="diag">    0.03    0.03</time>
   <time name="diis">    0.08    0.08</time>
   <time name="orth">    0.00    0.00</time>
   <time name="total">    0.21    0.22</time>
   <energy>
    <i name="e_fr_energy">    -90.16349085 </i>
    <i name="e_wo_entrp">    -90.16349085 </i>
    <i name="e_0_energy">    -90.16349085 </i>
   </energy>
  </scstep>
  <scstep>
   <time name="diag">    0.03    0.03</time>
   <time name="diis">    0.07    0.07</time>
   <time name="orth">    0.00    0.00</time>
   <time name="total">    0.21    0.23</time>
   <energy>
    <i name="e_fr_energy">    -89.56174537 </i>
    <i name="e_wo_entrp">    -89.56174537 </i>
    <i name="e_0_energy">    -89.56174537 </i>
   </energy>
  </scstep>
  <scstep>
   <time name="diag">    0.03    0.03</time>
   <time name="diis">    0.08    0.08</time>
   <time name="orth">    0.00    0.00</time>
   <time name="total">    0.21    0.23</time>
   <energy>
    <i name="e_fr_energy">    -89.51465770 </i>
    <i name="e_wo_entrp">    -89.51465770 </i>
    <i name="e_0_energy">    -89.51465770 </i>
   </energy>
  </scstep>
  <scstep>
   <time name="diag">    0.03    0.03</time>
   <time name="diis">    0.08    0.08</time>
   <time name="orth">    0.00    0.00</time>
   <time name="total">    0.21    0.23</time>
   <energy>
    <i name="e_fr_energy">    -89.52405261 </i>
    <i name="e_wo_entrp">    -89.52405261 </i>
    <i name="e_0_energy">    -89.52405261 </i>
   </energy>
  </scstep>
  <scstep>
   <time name="diag">    0.03    0.03</time>
   <time name="diis">    0.08    0.08</time>
   <time name="orth">    0.01    0.01</time>
   <time name="total">    0.23    0.24</time>
   <energy>
    <i name="e_fr_energy">    -89.51857980 </i>
    <i name="e_wo_entrp">    -89.51857980 </i>
    <i name="e_0_energy">    -89.51857980 </i>
   </energy>
  </scstep>
  <scstep>
   <time name="diag">    0.03    0.03</time>
   <time name="diis">    0.08    0.08</time>
   <time name="orth">    0.00    0.00</time>
   <time name="total">    0.22    0.23</time>
   <energy>
    <i name="e_fr_energy">    -89.51758299 </i>
    <i name="e_wo_entrp">    -89.51758299 </i>
    <i name="e_0_energy">    -89.51758299 </i>
   </energy>
  </scstep>
  <scstep>
   <time name="diag">    0.03    0.03</time>
   <time name="diis">    0.08    0.08</time>
   <time name="orth">    0.00    0.00</time>
   <time name="total">    0.21    0.23</time>
   <energy>
    <i name="e_fr_energy">    -89.51761664 </i>
    <i name="e_wo_entrp">    -89.51761664 </i>
    <i name="e_0_energy">    -89.51761664 </i>
   </energy>
  </scstep>
  <scstep>
   <time name="diag">    0.03    0.03</time>
   <time name="diis">    0.08    0.08</time>
   <time name="orth">    0.00    0.00</time>
   <time name="total">    0.21    0.23</time>
   <energy>
    <i name="e_fr_energy">    -89.51763336 </i>
    <i name="e_wo_entrp">    -89.51763336 </i>
    <i name="e_0_energy">    -89.51763336 </i>
   </energy>
  </scstep>
  <scstep>
   <time name="diag">    0.03    0.03</time>
   <time name="diis">    0.07    0.07</time>
   <time name="orth">    0.00    0.00</time>
   <time name="total">    0.21    0.22</time>
   <energy>
    <i name="e_fr_energy">    -89.51762498 </i>
    <i name="e_wo_entrp">    -89.51762498 </i>
    <i name="e_0_energy">    -89.51762498 </i>
   </energy>
  </scstep>
  <scstep>
   <time name="diag">    0.03    0.03</time>
   <time name="diis">    0.08    0.08</time>
   <time name="orth">    0.00    0.00</time>
   <time name="total">    0.21    0.22</time>
   <energy>
    <i name="e_fr_energy">    -89.51762222 </i>
    <i name="e_wo_entrp">    -89.51762222 </i>
    <i name="e_0_energy">    -89.51762222 </i>
   </energy>
  </scstep>
  <scstep>
   <time name="diag">    0.03    0.03</time>
   <time name="diis">    0.05    0.05</time>
   <time name="orth">    0.00    0.00</time>
   <time name="total">    0.14    0.15</time>
   <energy>
    <i name="alphaZ">     48.18697925 </i>
    <i name="ewald">  -1714.86413306 </i>
    <i name="hartreedc">   -345.87028335 </i>
    <i name="XCdc">      3.30560124 </i>
    <i name="pawpsdc">   7546.81620608 </i>
    <i name="pawaedc">  -7406.74310582 </i>
    <i name="eentropy">      0.00000000 </i>
    <i name="bandstr">     74.74377489 </i>
    <i name="atom">   1704.90733868 </i>
    <i name="e_fr_energy">    -89.51762207 </i>
    <i name="e_wo_entrp">    -89.51762207 </i>
    <i name="e_0_energy">    -89.51762207 </i>
   </energy>
  </scstep>
  <structure>
   <crystal>
    <varray name="basis" >
     <v>       3.10596975       0.00000000       0.00000000 </v>
     <v>      -1.55298488       2.68984871       0.00000000 </v>
     <v>       0.00000000       0.00000000      15.19710061 </v>
    </varray>
    <i name="volume">    126.96552556 </i>
    <varray name="rec_basis" >
     <v>       0.32196064       0.18588406       0.00000000 </v>
     <v>       0.00000000       0.37176812       0.00000000 </v>
     <v>       0.00000000       0.00000000       0.06580203 </v>
    </varray>
   </crystal>
   <varray name="positions" >
    <v>       0.33333333       0.66666667       0.66808686 </v>
    <v>       0.66666667       0.33333333       0.50171960 </v>
    <v>       0.66666667       0.33333333       0.83413132 </v>
    <v>       0.33333333       0.66666667       0.99703493 </v>
    <v>       0.33333333       0.66666667       0.33174585 </v>
    <v>       0.66666667       0.33333333       0.16426785 </v>
    <v>       0.33333333       0.66666667       0.46413419 </v>
    <v>       0.33333333       0.66666667       0.79692745 </v>
    <v>       0.66666667       0.33333333       0.63047603 </v>
    <v>       0.33333333       0.66666667       0.12013986 </v>
    <v>       0.66666667       0.33333333       0.28732556 </v>
    <v>       0.66666667       0.33333333       0.95401050 </v>
   </varray>
  </structure>
  <varray name="forces" >
   <v>       0.00000000       0.00000000       0.01373629 </v>
   <v>       0.00000000       0.00000000       0.00103449 </v>
   <v>       0.00000000       0.00000000      -0.00186209 </v>
   <v>       0.00000000       0.00000000      -0.00320842 </v>
   <v>       0.00000000       0.00000000      -0.00530879 </v>
   <v>       0.00000000       0.00000000      -0.00917922 </v>
   <v>       0.00000000       0.00000000       0.01027916 </v>
   <v>       0.00000000       0.00000000      -0.00326177 </v>
   <v>       0.00000000       0.00000000      -0.00759460 </v>
   <v>       0.00000000       0.00000000       0.00466676 </v>
   <v>       0.00000000       0.00000000       0.00074461 </v>
   <v>       0.00000000       0.00000000      -0.00004641 </v>
  </varray>
  <varray name="stress" >
   <v>      -0.12758606       0.00000000       0.00000000 </v>
   <v>       0.00000000      -0.12758606       0.00000000 </v>
   <v>       0.00000000       0.00000000       0.40094898 </v>
  </varray>
  <energy>
   <i name="e_fr_energy">    -89.51762207 </i>
   <i name="e_wo_entrp">    -89.51762207 </i>
   <i name="e_0_energy">      0.00000000 </i>
  </energy>
  <time name="totalsc">    4.57    4.84</time>
  <eigenvalues>
   <array>
    <dimension dim="1">band</dimension>
    <dimension dim="2">kpoint</dimension>
    <dimension dim="3">spin</dimension>
    <field>eigene</field>
    <field>occ</field>
    <set>
     <set comment="spin 1">
      <set comment="kpoint 1">
       <r>   -9.3000    1.0000 </r>
       <r>   -8.0326    1.0000 </r>
       <r>   -7.1795    1.0000 </r>
       <r>   -6.8098    1.0000 </r>
       <r>   -5.8523    1.0000 </r>
       <r>   -4.4336    1.0000 </r>
       <r>   -0.2530    1.0000 </r>
       <r>    1.6566    1.0000 </r>
       <r>    1.8546    1.0000 </r>
       <r>    4.7049    1.0000 </r>
       <r>    4.9608    1.0000 </r>
       <r>    4.9608    1.0000 </r>
       <r>    5.0250    1.0000 </r>
       <r>    5.9423    1.0000 </r>
       <r>    5.9423    1.0000 </r>
       <r>    6.4546    1.0000 </r>
       <r>    6.4546    1.0000 </r>
       <r>    6.6333    1.0000 </r>
       <r>    6.6333    1.0000 </r>
       <r>    7.1960    1.0000 </r>
       <r>    7.1960    1.0000 </r>
       <r>    7.5227    1.0000 </r>
       <r>    8.0464    1.0000 </r>
       <r>    8.0464    1.0000 </r>
       <r>   11.0858    0.0000 </r>
       <r>   12.0476    0.0000 </r>
       <r>   12.8376    0.0000 </r>
       <r>   13.1201    0.0000 </r>
       <r>   13.8568    0.0000 </r>
       <r>   14.3363    0.0000 </r>
       <r>   14.4270    0.0000 </r>
       <r>   14.6369    0.0000 </r>
      </set>
      <set comment="kpoint 2">
       <r>   -9.0548    1.0000 </r>
       <r>   -7.7964    1.0000 </r>
       <r>   -6.9019    1.0000 </r>
       <r>   -6.5682    1.0000 </r>
       <r>   -5.5400    1.0000 </r>
       <r>   -4.1303    1.0000 </r>
       <r>    0.0255    1.0000 </r>
       <r>    1.7912    1.0000 </r>
       <r>    2.0272    1.0000 </r>
       <r>    3.8488    1.0000 </r>
       <r>    4.4824    1.0000 </r>
       <r>    4.6312    1.0000 </r>
       <r>    4.6936    1.0000 </r>
       <r>    5.0059    1.0000 </r>
       <r>    5.4666    1.0000 </r>
       <r>    5.7198    1.0000 </r>
       <r>    5.7412    1.0000 </r>
       <r>    6.0020    1.0000 </r>
       <r>    6.0642    1.0000 </r>
       <r>    6.4540    1.0000 </r>
       <r>    6.7664    1.0000 </r>
       <r>    6.8244    1.0000 </r>
       <r>    7.5467    1.0000 </r>
       <r>    7.7186    1.0000 </r>
       <r>   11.8215    0.0000 </r>
       <r>   12.5157    0.0000 </r>
       <r>   13.0400    0.0000 </r>
       <r>   13.6698    0.0000 </r>
       <r>   13.9108    0.0000 </r>
       <r>   14.4766    0.0000 </r>
       <r>   14.6916    0.0000 </r>
       <r>   15.1145    0.0000 </r>
      </set>
      <set comment="kpoint 3">
       <r>   -8.4129    1.0000 </r>
       <r>   -7.1879    1.0000 </r>
       <r>   -6.2990    1.0000 </r>
       <r>   -5.7592    1.0000 </r>
       <r>   -4.6506    1.0000 </r>
       <r>   -3.2807    1.0000 </r>
       <r>    0.5569    1.0000 </r>
       <r>    1.3131    1.0000 </r>
       <r>    2.0040    1.0000 </r>
       <r>    2.2396    1.0000 </r>
       <r>    2.8910    1.0000 </r>
       <r>    3.0163    1.0000 </r>
       <r>    3.6885    1.0000 </r>
       <r>    3.8791    1.0000 </r>
       <r>    4.1625    1.0000 </r>
       <r>    4.1629    1.0000 </r>
       <r>    5.2139    1.0000 </r>
       <r>    5.3079    1.0000 </r>
       <r>    5.4401    1.0000 </r>
       <r>    5.9749    1.0000 </r>
       <r>    6.0562    1.0000 </r>
       <r>    6.1866    1.0000 </r>
       <r>    7.0936    1.0000 </r>
       <r>    7.2097    1.0000 </r>
       <r>   11.3380    0.0000 </r>
       <r>   11.7378    0.0000 </r>
       <r>   12.3177    0.0000 </r>
       <r>   12.7821    0.0000 </r>
       <r>   13.1213    0.0000 </r>
       <r>   13.6842    0.0000 </r>
       <r>   14.0245    0.0000 </r>
       <r>   14.8648    0.0000 </r>
      </set>
      <set comment="kpoint 4">
       <r>   -7.7489    1.0000 </r>
       <r>   -6.5836    1.0000 </r>
       <r>   -5.8434    1.0000 </r>
       <r>   -4.4985    1.0000 </r>
       <r>   -3.5065    1.0000 </r>
       <r>   -2.3459    1.0000 </r>
       <r>   -0.5304    1.0000 </r>
       <r>    0.0553    1.0000 </r>
       <r>    0.8832    1.0000 </r>
       <r>    1.2866    1.0000 </r>
       <r>    1.5434    1.0000 </r>
       <r>    2.3269    1.0000 </r>
       <r>    2.4514    1.0000 </r>
       <r>    3.7888    1.0000 </r>
       <r>    4.0383    1.0000 </r>
       <r>    4.2207    1.0000 </r>
       <r>    4.8084    1.0000 </r>
       <r>    4.8187    1.0000 </r>
       <r>    5.0769    1.0000 </r>
       <r>    5.7012    1.0000 </r>
       <r>    5.8440    1.0000 </r>
       <r>    5.8524    1.0000 </r>
       <r>    6.6299    1.0000 </r>
       <r>    6.6780    1.0000 </r>
       <r>   10.6001    0.0000 </r>
       <r>   11.0546    0.0000 </r>
       <r>   11.2949    0.0000 </r>
       <r>   11.9267    0.0000 </r>
       <r>   12.1893    0.0000 </r>
       <r>   12.4902    0.0000 </r>
       <r>   13.7738    0.0000 </r>
       <r>   14.2732    0.0000 </r>
      </set>
      <set comment="kpoint 5">
       <r>   -8.6084    1.0000 </r>
       <r>   -7.3713    1.0000 </r>
       <r>   -6.4613    1.0000 </r>
       <r>   -6.0386    1.0000 </r>
       <r>   -4.9364    1.0000 </r>
       <r>   -3.5498    1.0000 </r>
       <r>    0.4840    1.0000 </r>
       <r>    1.7030    1.0000 </r>
       <r>    2.1743    1.0000 </r>
       <r>    2.9486    1.0000 </r>
       <r>    3.1766    1.0000 </r>
       <r>    3.6018    1.0000 </r>
       <r>    4.0204    1.0000 </r>
       <r>    4.0844    1.0000 </r>
       <r>    4.4095    1.0000 </r>
       <r>    4.7505    1.0000 </r>
       <r>    4.9113    1.0000 </r>
       <r>    5.3784    1.0000 </r>
       <r>    5.5091    1.0000 </r>
       <r>    5.7874    1.0000 </r>
       <r>    5.9618    1.0000 </r>
       <r>    6.2181    1.0000 </r>
       <r>    6.7719    1.0000 </r>
       <r>    7.4138    1.0000 </r>
       <r>   12.3522    0.0000 </r>
       <r>   12.7168    0.0000 </r>
       <r>   13.3206    0.0000 </r>
       <r>   13.3878    0.0000 </r>
       <r>   13.8683    0.0000 </r>
       <r>   14.4047    0.0000 </r>
       <r>   14.5001    0.0000 </r>
       <r>   14.7221    0.0000 </r>
      </set>
      <set comment="kpoint 6">
       <r>   -7.9287    1.0000 </r>
       <r>   -6.7417    1.0000 </r>
       <r>   -5.9467    1.0000 </r>
       <r>   -4.9315    1.0000 </r>
       <r>   -3.8617    1.0000 </r>
       <r>   -2.5743    1.0000 </r>
       <r>    0.2082    1.0000 </r>
       <r>    0.7881    1.0000 </r>
       <r>    1.5650    1.0000 </r>
       <r>    1.8937    1.0000 </r>
       <r>    2.1648    1.0000 </r>
       <r>    2.3620    1.0000 </r>
       <r>    2.8181    1.0000 </r>
       <r>    3.3089    1.0000 </r>
       <r>    3.7186    1.0000 </r>
       <r>    4.0186    1.0000 </r>
       <r>    4.2917    1.0000 </r>
       <r>    4.5823    1.0000 </r>
       <r>    4.8353    1.0000 </r>
       <r>    5.0485    1.0000 </r>
       <r>    5.3199    1.0000 </r>
       <r>    5.8111    1.0000 </r>
       <r>    6.1862    1.0000 </r>
       <r>    6.9828    1.0000 </r>
       <r>   11.8891    0.0000 </r>
       <r>   12.0374    0.0000 </r>
       <r>   12.4285    0.0000 </r>
       <r>   12.7706    0.0000 </r>
       <r>   13.1651    0.0000 </r>
       <r>   13.4578    0.0000 </r>
       <r>   14.1691    0.0000 </r>
       <r>   14.7948    0.0000 </r>
      </set>
      <set comment="kpoint 7">
       <r>   -7.5542    1.0000 </r>
       <r>   -6.4097    1.0000 </r>
       <r>   -5.7200    1.0000 </r>
       <r>   -3.9677    1.0000 </r>
       <r>   -3.1292    1.0000 </r>
       <r>   -2.1178    1.0000 </r>
       <r>   -0.5586    1.0000 </r>
       <r>    0.0175    1.0000 </r>
       <r>    0.8467    1.0000 </r>
       <r>    1.0856    1.0000 </r>
       <r>    1.4705    1.0000 </r>
       <r>    2.3353    1.0000 </r>
       <r>    2.5620    1.0000 </r>
       <r>    2.9018    1.0000 </r>
       <r>    3.5847    1.0000 </r>
       <r>    3.8348    1.0000 </r>
       <r>    4.2538    1.0000 </r>
       <r>    4.5069    1.0000 </r>
       <r>    4.7801    1.0000 </r>
       <r>    4.8768    1.0000 </r>
       <r>    5.0417    1.0000 </r>
       <r>    5.5033    1.0000 </r>
       <r>    5.9721    1.0000 </r>
       <r>    6.6646    1.0000 </r>
       <r>   11.4363    0.0000 </r>
       <r>   11.6058    0.0000 </r>
       <r>   11.8757    0.0000 </r>
       <r>   12.2908    0.0000 </r>
       <r>   12.9178    0.0000 </r>
       <r>   13.3268    0.0000 </r>
       <r>   14.1006    0.0000 </r>
       <r>   14.5828    0.0000 </r>
      </set>
      <set comment="kpoint 8">
       <r>   -7.4831    1.0000 </r>
       <r>   -6.3428    1.0000 </r>
       <r>   -5.6643    1.0000 </r>
       <r>   -3.8224    1.0000 </r>
       <r>   -2.9801    1.0000 </r>
       <r>   -1.9586    1.0000 </r>
       <r>   -0.1066    1.0000 </r>
       <r>    0.4958    1.0000 </r>
       <r>    1.0053    1.0000 </r>
       <r>    1.4633    1.0000 </r>
       <r>    1.6718    1.0000 </r>
       <r>    2.1356    1.0000 </r>
       <r>    2.2904    1.0000 </r>
       <r>    2.4122    1.0000 </r>
       <r>    3.0597    1.0000 </r>
       <r>    3.1325    1.0000 </r>
       <r>    3.4461    1.0000 </r>
       <r>    3.7495    1.0000 </r>
       <r>    4.3735    1.0000 </r>
       <r>    4.4993    1.0000 </r>
       <r>    4.9463    1.0000 </r>
       <r>    5.0622    1.0000 </r>
       <r>    5.9612    1.0000 </r>
       <r>    6.7653    1.0000 </r>
       <r>   11.0909    0.0000 </r>
       <r>   12.3689    0.0000 </r>
       <r>   12.5144    0.0000 </r>
       <r>   13.1929    0.0000 </r>
       <r>   13.4620    0.0000 </r>
       <r>   14.2398    0.0000 </r>
       <r>   14.6789    0.0000 </r>
       <r>   14.9688    0.0000 </r>
      </set>
     </set>
    </set>
   </array>
  </eigenvalues>
  <separator name="orbital magnetization" >
   <v name="MAGDIPOLOUT">      0.00000000      0.00000000      0.00000000</v>
  </separator>
  <dos>
   <i name="efermi">      8.54838969 </i>
   <total>
    <array>
     <dimension dim="1">gridpoints</dimension>
     <dimension dim="2">spin</dimension>
     <field>energy</field>
     <field>total</field>
     <field>integrated</field>
     <set>
      <set comment="spin 1">
       <r>   -10.5208     0.0000     0.0000 </r>
       <r>   -10.4313     0.0000     0.0000 </r>
       <r>   -10.3417     0.0000     0.0000 </r>
       <r>   -10.2522     0.0000     0.0000 </r>
       <r>   -10.1627     0.0000     0.0000 </r>
       <r>   -10.0732     0.0000     0.0000 </r>
       <r>    -9.9837     0.0000     0.0000 </r>
       <r>    -9.8941     0.0000     0.0000 </r>
       <r>    -9.8046     0.0000     0.0000 </r>
       <r>    -9.7151     0.0000     0.0000 </r>
       <r>    -9.6256     0.0000     0.0000 </r>
       <r>    -9.5361     0.0002     0.0000 </r>
       <r>    -9.4465     0.0085     0.0008 </r>
       <r>    -9.3570     0.0871     0.0086 </r>
       <r>    -9.2675     0.2166     0.0280 </r>
       <r>    -9.1780     0.2360     0.0491 </r>
       <r>    -9.0885     0.7750     0.1185 </r>
       <r>    -8.9989     1.2813     0.2332 </r>
       <r>    -8.9094     0.5326     0.2809 </r>
       <r>    -8.8199     0.0569     0.2859 </r>
       <r>    -8.7304     0.1131     0.2961 </r>
       <r>    -8.6409     0.7704     0.3650 </r>
       <r>    -8.5513     1.3446     0.4854 </r>
       <r>    -8.4618     1.1214     0.5858 </r>
       <r>    -8.3723     1.3437     0.7061 </r>
       <r>    -8.2828     0.6856     0.7675 </r>
       <r>    -8.1933     0.0931     0.7758 </r>
       <r>    -8.1037     0.1050     0.7852 </r>
       <r>    -8.0142     0.7898     0.8559 </r>
       <r>    -7.9247     2.5021     1.0799 </r>
       <r>    -7.8352     3.1209     1.3593 </r>
       <r>    -7.7457     2.8974     1.6186 </r>
       <r>    -7.6561     1.8808     1.7870 </r>
       <r>    -7.5666     1.5951     1.9298 </r>
       <r>    -7.4771     2.5082     2.1543 </r>
       <r>    -7.3876     2.3269     2.3626 </r>
       <r>    -7.2981     1.6376     2.5092 </r>
       <r>    -7.2085     1.4186     2.6362 </r>
       <r>    -7.1190     1.4734     2.7681 </r>
       <r>    -7.0295     0.5942     2.8213 </r>
       <r>    -6.9400     0.7798     2.8911 </r>
       <r>    -6.8505     1.7306     3.0461 </r>
       <r>    -6.7609     2.6265     3.2812 </r>
       <r>    -6.6714     3.0770     3.5567 </r>
       <r>    -6.5819     3.0220     3.8272 </r>
       <r>    -6.4924     3.4740     4.1382 </r>
       <r>    -6.4029     3.7126     4.4705 </r>
       <r>    -6.3133     3.7979     4.8105 </r>
       <r>    -6.2238     2.2801     5.0146 </r>
       <r>    -6.1343     0.7517     5.0819 </r>
       <r>    -6.0448     1.5015     5.2163 </r>
       <r>    -5.9553     3.3459     5.5159 </r>
       <r>    -5.8657     3.8806     5.8632 </r>
       <r>    -5.7762     3.7108     6.1954 </r>
       <r>    -5.6867     3.9484     6.5489 </r>
       <r>    -5.5972     2.9485     6.8128 </r>
       <r>    -5.5077     1.8488     6.9784 </r>
       <r>    -5.4181     0.8091     7.0508 </r>
       <r>    -5.3286     0.1128     7.0609 </r>
       <r>    -5.2391     0.0039     7.0612 </r>
       <r>    -5.1496     0.0091     7.0620 </r>
       <r>    -5.0601     0.2896     7.0880 </r>
       <r>    -4.9705     2.1507     7.2805 </r>
       <r>    -4.8810     3.8656     7.6265 </r>
       <r>    -4.7915     1.7694     7.7849 </r>
       <r>    -4.7020     0.7627     7.8532 </r>
       <r>    -4.6125     1.4377     7.9819 </r>
       <r>    -4.5229     1.6058     8.1257 </r>
       <r>    -4.4334     1.5245     8.2621 </r>
       <r>    -4.3439     0.6367     8.3191 </r>
       <r>    -4.2544     0.1879     8.3360 </r>
       <r>    -4.1649     0.7573     8.4038 </r>
       <r>    -4.0753     1.4581     8.5343 </r>
       <r>    -3.9858     1.6957     8.6861 </r>
       <r>    -3.8963     3.1402     8.9672 </r>
       <r>    -3.8068     4.1658     9.3401 </r>
       <r>    -3.7173     2.0839     9.5267 </r>
       <r>    -3.6277     0.7493     9.5937 </r>
       <r>    -3.5382     1.9628     9.7695 </r>
       <r>    -3.4487     2.2804     9.9736 </r>
       <r>    -3.3592     1.0570    10.0682 </r>
       <r>    -3.2697     1.2941    10.1841 </r>
       <r>    -3.1801     1.5743    10.3250 </r>
       <r>    -3.0906     1.6478    10.4725 </r>
       <r>    -3.0011     1.6014    10.6159 </r>
       <r>    -2.9116     1.3256    10.7345 </r>
       <r>    -2.8221     0.4243    10.7725 </r>
       <r>    -2.7325     0.1021    10.7816 </r>
       <r>    -2.6430     0.8384    10.8567 </r>
       <r>    -2.5535     2.4678    11.0776 </r>
       <r>    -2.4640     1.9024    11.2479 </r>
       <r>    -2.3745     1.1213    11.3483 </r>
       <r>    -2.2849     1.3023    11.4649 </r>
       <r>    -2.1954     0.8346    11.5396 </r>
       <r>    -2.1059     1.2727    11.6535 </r>
       <r>    -2.0164     1.4942    11.7873 </r>
       <r>    -1.9269     1.4735    11.9192 </r>
       <r>    -1.8373     0.7846    11.9894 </r>
       <r>    -1.7478     0.1141    11.9996 </r>
       <r>    -1.6583     0.0039    12.0000 </r>
       <r>    -1.5688     0.0000    12.0000 </r>
       <r>    -1.4793     0.0000    12.0000 </r>
       <r>    -1.3897     0.0000    12.0000 </r>
       <r>    -1.3002     0.0000    12.0000 </r>
       <r>    -1.2107     0.0000    12.0000 </r>
       <r>    -1.1212     0.0000    12.0000 </r>
       <r>    -1.0317     0.0000    12.0000 </r>
       <r>    -0.9421     0.0000    12.0000 </r>
       <r>    -0.8526     0.0001    12.0000 </r>
       <r>    -0.7631     0.0066    12.0006 </r>
       <r>    -0.6736     0.1943    12.0180 </r>
       <r>    -0.5841     1.3955    12.1429 </r>
       <r>    -0.4945     2.5392    12.3702 </r>
       <r>    -0.4050     1.1980    12.4775 </r>
       <r>    -0.3155     0.2239    12.4975 </r>
       <r>    -0.2260     0.3361    12.5276 </r>
       <r>    -0.1365     1.0112    12.6181 </r>
       <r>    -0.0469     2.3291    12.8266 </r>
       <r>     0.0426     3.9821    13.1831 </r>
       <r>     0.1321     3.7201    13.5161 </r>
       <r>     0.2216     3.0427    13.7885 </r>
       <r>     0.3111     1.9967    13.9673 </r>
       <r>     0.4007     0.9555    14.0528 </r>
       <r>     0.4902     2.6265    14.2879 </r>
       <r>     0.5797     3.4147    14.5936 </r>
       <r>     0.6692     1.6650    14.7427 </r>
       <r>     0.7587     2.1610    14.9361 </r>
       <r>     0.8483     4.4209    15.3319 </r>
       <r>     0.9378     3.8205    15.6739 </r>
       <r>     1.0273     2.6414    15.9103 </r>
       <r>     1.1168     2.2520    16.1119 </r>
       <r>     1.2063     1.4339    16.2403 </r>
       <r>     1.2959     2.2500    16.4417 </r>
       <r>     1.3854     2.9234    16.7034 </r>
       <r>     1.4749     3.8556    17.0486 </r>
       <r>     1.5644     5.7434    17.5627 </r>
       <r>     1.6539     5.2760    18.0350 </r>
       <r>     1.7435     4.1363    18.4053 </r>
       <r>     1.8330     3.6111    18.7286 </r>
       <r>     1.9225     4.0388    19.0901 </r>
       <r>     2.0120     4.0874    19.4560 </r>
       <r>     2.1015     4.6222    19.8698 </r>
       <r>     2.1911     6.5901    20.4598 </r>
       <r>     2.2806     7.3759    21.1200 </r>
       <r>     2.3701     8.2201    21.8559 </r>
       <r>     2.4596     6.5057    22.4383 </r>
       <r>     2.5491     3.2419    22.7285 </r>
       <r>     2.6387     1.5306    22.8655 </r>
       <r>     2.7282     0.9445    22.9501 </r>
       <r>     2.8177     2.9676    23.2157 </r>
       <r>     2.9072     5.3985    23.6990 </r>
       <r>     2.9967     5.2617    24.1700 </r>
       <r>     3.0863     4.4224    24.5659 </r>
       <r>     3.1758     3.8596    24.9114 </r>
       <r>     3.2653     3.2391    25.2014 </r>
       <r>     3.3548     3.2028    25.4881 </r>
       <r>     3.4443     2.4485    25.7073 </r>
       <r>     3.5339     2.3218    25.9152 </r>
       <r>     3.6234     3.8492    26.2597 </r>
       <r>     3.7129     6.2188    26.8165 </r>
       <r>     3.8024     7.6002    27.4968 </r>
       <r>     3.8920     6.3821    28.0681 </r>
       <r>     3.9815     5.3251    28.5448 </r>
       <r>     4.0710     7.0121    29.1726 </r>
       <r>     4.1605     6.7255    29.7746 </r>
       <r>     4.2500     6.6716    30.3719 </r>
       <r>     4.3396     6.3769    30.9427 </r>
       <r>     4.4291     5.5729    31.4416 </r>
       <r>     4.5186     6.3759    32.0124 </r>
       <r>     4.6081     6.6284    32.6058 </r>
       <r>     4.6976     5.9775    33.1409 </r>
       <r>     4.7872     7.6920    33.8295 </r>
       <r>     4.8767     9.7104    34.6987 </r>
       <r>     4.9662     8.7523    35.4822 </r>
       <r>     5.0557     9.2564    36.3109 </r>
       <r>     5.1452     6.8972    36.9283 </r>
       <r>     5.2348     3.7247    37.2617 </r>
       <r>     5.3243     5.1971    37.7270 </r>
       <r>     5.4138     6.3640    38.2967 </r>
       <r>     5.5033     6.0769    38.8407 </r>
       <r>     5.5928     3.8697    39.1871 </r>
       <r>     5.6824     3.2568    39.4787 </r>
       <r>     5.7719     6.9159    40.0978 </r>
       <r>     5.8614     8.8037    40.8859 </r>
       <r>     5.9509     8.7011    41.6648 </r>
       <r>     6.0404     8.9624    42.4671 </r>
       <r>     6.1300     6.6514    43.0626 </r>
       <r>     6.2195     5.9759    43.5975 </r>
       <r>     6.3090     3.5005    43.9109 </r>
       <r>     6.3985     1.3028    44.0275 </r>
       <r>     6.4880     1.8386    44.1921 </r>
       <r>     6.5776     2.2633    44.3947 </r>
       <r>     6.6671     4.5921    44.8058 </r>
       <r>     6.7566     6.5933    45.3960 </r>
       <r>     6.8461     5.6213    45.8993 </r>
       <r>     6.9356     3.2220    46.1877 </r>
       <r>     7.0252     3.2529    46.4789 </r>
       <r>     7.1147     2.9116    46.7395 </r>
       <r>     7.2042     2.4779    46.9614 </r>
       <r>     7.2937     1.7472    47.1178 </r>
       <r>     7.3832     1.2067    47.2258 </r>
       <r>     7.4728     1.7703    47.3843 </r>
       <r>     7.5623     1.9586    47.5596 </r>
       <r>     7.6518     1.5395    47.6974 </r>
       <r>     7.7413     1.4363    47.8260 </r>
       <r>     7.8308     0.8789    47.9047 </r>
       <r>     7.9204     0.1810    47.9209 </r>
       <r>     8.0099     0.2478    47.9431 </r>
       <r>     8.0994     0.4291    47.9815 </r>
       <r>     8.1889     0.1869    47.9982 </r>
       <r>     8.2784     0.0195    48.0000 </r>
       <r>     8.3680     0.0005    48.0000 </r>
       <r>     8.4575     0.0000    48.0000 </r>
       <r>     8.5470     0.0000    48.0000 </r>
       <r>     8.6365     0.0000    48.0000 </r>
       <r>     8.7260     0.0000    48.0000 </r>
       <r>     8.8156     0.0000    48.0000 </r>
       <r>     8.9051     0.0000    48.0000 </r>
       <r>     8.9946     0.0000    48.0000 </r>
       <r>     9.0841     0.0000    48.0000 </r>
       <r>     9.1736     0.0000    48.0000 </r>
       <r>     9.2632     0.0000    48.0000 </r>
       <r>     9.3527     0.0000    48.0000 </r>
       <r>     9.4422     0.0000    48.0000 </r>
       <r>     9.5317     0.0000    48.0000 </r>
       <r>     9.6212     0.0000    48.0000 </r>
       <r>     9.7108     0.0000    48.0000 </r>
       <r>     9.8003     0.0000    48.0000 </r>
       <r>     9.8898     0.0000    48.0000 </r>
       <r>     9.9793     0.0000    48.0000 </r>
       <r>    10.0688     0.0000    48.0000 </r>
       <r>    10.1584     0.0000    48.0000 </r>
       <r>    10.2479     0.0000    48.0000 </r>
       <r>    10.3374     0.0003    48.0000 </r>
       <r>    10.4269     0.0193    48.0018 </r>
       <r>    10.5164     0.3043    48.0290 </r>
       <r>    10.6060     1.1344    48.1305 </r>
       <r>    10.6955     1.0348    48.2232 </r>
       <r>    10.7850     0.2306    48.2438 </r>
       <r>    10.8745     0.0304    48.2465 </r>
       <r>    10.9640     0.3747    48.2801 </r>
       <r>    11.0536     1.9250    48.4524 </r>
       <r>    11.1431     2.6472    48.6894 </r>
       <r>    11.2326     1.5841    48.8312 </r>
       <r>    11.3221     2.4232    49.0481 </r>
       <r>    11.4116     2.8859    49.3065 </r>
       <r>    11.5012     1.9420    49.4803 </r>
       <r>    11.5907     1.4832    49.6131 </r>
       <r>    11.6802     1.8329    49.7772 </r>
       <r>    11.7697     2.6741    50.0166 </r>
       <r>    11.8592     5.0771    50.4711 </r>
       <r>    11.9488     6.3911    51.0432 </r>
       <r>    12.0383     4.7539    51.4688 </r>
       <r>    12.1278     3.1493    51.7507 </r>
       <r>    12.2173     2.5555    51.9795 </r>
       <r>    12.3068     4.3995    52.3733 </r>
       <r>    12.3964     6.8202    52.9838 </r>
       <r>    12.4859     7.1987    53.6283 </r>
       <r>    12.5754     5.0150    54.0772 </r>
       <r>    12.6649     2.4419    54.2958 </r>
       <r>    12.7544     4.1686    54.6690 </r>
       <r>    12.8440     4.9649    55.1134 </r>
       <r>    12.9335     2.8988    55.3729 </r>
       <r>    13.0230     2.4013    55.5879 </r>
       <r>    13.1125     4.0345    55.9491 </r>
       <r>    13.2020     5.7166    56.4608 </r>
       <r>    13.2916     4.6965    56.8812 </r>
       <r>    13.3811     5.0447    57.3329 </r>
       <r>    13.4706     5.7301    57.8458 </r>
       <r>    13.5601     3.6263    58.1704 </r>
       <r>    13.6496     2.3739    58.3829 </r>
       <r>    13.7392     3.4174    58.6889 </r>
       <r>    13.8287     3.3913    58.9925 </r>
       <r>    13.9182     3.4674    59.3029 </r>
       <r>    14.0077     2.9840    59.5700 </r>
       <r>    14.0972     3.4232    59.8764 </r>
       <r>    14.1868     4.7987    60.3060 </r>
       <r>    14.2763     4.7472    60.7310 </r>
       <r>    14.3658     3.3715    61.0328 </r>
       <r>    14.4553     3.6209    61.3570 </r>
       <r>    14.5448     4.1829    61.7314 </r>
       <r>    14.6344     4.1232    62.1005 </r>
       <r>    14.7239     5.4096    62.5848 </r>
       <r>    14.8134     5.6445    63.0901 </r>
       <r>    14.9029     4.0050    63.4486 </r>
       <r>    14.9924     2.4170    63.6650 </r>
       <r>    15.0820     1.7362    63.8204 </r>
       <r>    15.1715     1.4253    63.9480 </r>
       <r>    15.2610     0.5284    63.9953 </r>
       <r>    15.3505     0.0513    63.9999 </r>
       <r>    15.4400     0.0012    64.0000 </r>
       <r>    15.5296     0.0000    64.0000 </r>
       <r>    15.6191     0.0000    64.0000 </r>
       <r>    15.7086     0.0000    64.0000 </r>
       <r>    15.7981     0.0000    64.0000 </r>
       <r>    15.8876     0.0000    64.0000 </r>
       <r>    15.9772     0.0000    64.0000 </r>
       <r>    16.0667     0.0000    64.0000 </r>
       <r>    16.1562     0.0000    64.0000 </r>
       <r>    16.2457     0.0000    64.0000 </r>
       <r>    16.3352     0.0000    64.0000 </r>
      </set>
     </set>
    </array>
   </total>
  </dos>
 </calculation>
 <structure name="finalpos" >
  <crystal>
   <varray name="basis" >
    <v>       3.10596975       0.00000000       0.00000000 </v>
    <v>      -1.55298488       2.68984871       0.00000000 </v>
    <v>       0.00000000       0.00000000      15.19710061 </v>
   </varray>
   <i name="volume">    126.96552556 </i>
   <varray name="rec_basis" >
    <v>       0.32196064       0.18588406       0.00000000 </v>
    <v>       0.00000000       0.37176812       0.00000000 </v>
    <v>       0.00000000       0.00000000       0.06580203 </v>
   </varray>
  </crystal>
  <varray name="positions" >
   <v>       0.33333333       0.66666667       0.66808686 </v>
   <v>       0.66666667       0.33333333       0.50171960 </v>
   <v>       0.66666667       0.33333333       0.83413132 </v>
   <v>       0.33333333       0.66666667       0.99703493 </v>
   <v>       0.33333333       0.66666667       0.33174585 </v>
   <v>       0.66666667       0.33333333       0.16426785 </v>
   <v>       0.33333333       0.66666667       0.46413419 </v>
   <v>       0.33333333       0.66666667       0.79692745 </v>
   <v>       0.66666667       0.33333333       0.63047603 </v>
   <v>       0.33333333       0.66666667       0.12013986 </v>
   <v>       0.66666667       0.33333333       0.28732556 </v>
   <v>       0.66666667       0.33333333       0.95401050 </v>
  </varray>
 </structure>
</modeling>
