<?xml version="1.0" encoding="ISO-8859-1"?>
<modeling>
 <generator>
  <i name="program" type="string">vasp </i>
  <i name="version" type="string">5.3.5  </i>
  <i name="subversion" type="string">31Mar14 (build Jun 20 2014 13:15:13) complex                          parallel </i>
  <i name="platform" type="string">LinuxIFC </i>
  <i name="date" type="string">2025 12 16 </i>
  <i name="time" type="string">17:28:49 </i>
 </generator>
 <incar>
  <i type="string" name="PREC">accurate</i>
  <i type="int" name="IALGO">    68</i>
  <i type="logical" name="ADDGRID"> T  </i>
  <i type="int" name="NELM">   100</i>
  <i type="int" name="NELMIN">     4</i>
  <i type="int" name="IBRION">     2</i>
  <i name="EDIFF">      0.00000100</i>
  <i name="EDIFFG">     -0.02000000</i>
  <i type="int" name="NSW">    30</i>
  <i type="int" name="ISIF">     3</i>
  <i name="ENCUT">    600.00000000</i>
  <i type="logical" name="LREAL"> F  </i>
  <i type="int" name="ISMEAR">     0</i>
  <i name="SIGMA">      0.10000000</i>
  <i type="logical" name="LWAVE"> F  </i>
  <i type="logical" name="LCHARG"> F  </i>
  <i type="int" name="NELM">   100</i>
 </incar>
 <kpoints>
  <generation param="Auto">
   <i name="subdivisionlength">     20.00000000 </i>
   <v type="int" name="divisions">       4        6        2 </v>
   <v name="usershift">      0.00000000       0.00000000       0.00000000 </v>
   <v name="genvec1">      0.25000000       0.00000000       0.00000000 </v>
   <v name="genvec2">      0.00000000       0.16666667       0.00000000 </v>
   <v name="genvec3">      0.00000000       0.00000000       0.50000000 </v>
   <v name="shift">      0.00000000       0.00000000       0.00000000 </v>
  </generation>
  <varray name="kpointlist" >
   <v>       0.00000000       0.00000000       0.00000000 </v>
   <v>       0.25000000       0.00000000       0.00000000 </v>
   <v>       0.50000000       0.00000000       0.00000000 </v>
   <v>       0.00000000       0.16666667       0.00000000 </v>
   <v>       0.25000000       0.16666667       0.00000000 </v>
   <v>       0.50000000       0.16666667       0.00000000 </v>
   <v>       0.00000000       0.33333333       0.00000000 </v>
   <v>       0.25000000       0.33333333       0.00000000 </v>
   <v>       0.50000000       0.33333333       0.00000000 </v>
   <v>       0.00000000       0.50000000       0.00000000 </v>
   <v>       0.25000000       0.50000000       0.00000000 </v>
   <v>       0.50000000       0.50000000       0.00000000 </v>
   <v>       0.00000000       0.00000000       0.50000000 </v>
   <v>       0.25000000       0.00000000       0.50000000 </v>
   <v>       0.50000000       0.00000000       0.50000000 </v>
   <v>       0.00000000       0.16666667       0.50000000 </v>
   <v>       0.25000000       0.16666667       0.50000000 </v>
   <v>       0.50000000       0.16666667       0.50000000 </v>
   <v>       0.00000000       0.33333333       0.50000000 </v>
   <v>       0.25000000       0.33333333       0.50000000 </v>
   <v>       0.50000000       0.33333333       0.50000000 </v>
   <v>       0.00000000       0.50000000       0.50000000 </v>
   <v>       0.25000000       0.50000000       0.50000000 </v>
   <v>       0.50000000       0.50000000       0.50000000 </v>
  </varray>
  <varray name="weights" >
   <v>       0.02083333 </v>
   <v>       0.04166667 </v>
   <v>       0.02083333 </v>
   <v>       0.04166667 </v>
   <v>       0.08333333 </v>
   <v>       0.04166667 </v>
   <v>       0.04166667 </v>
   <v>       0.08333333 </v>
   <v>       0.04166667 </v>
   <v>       0.02083333 </v>
   <v>       0.04166667 </v>
   <v>       0.02083333 </v>
   <v>       0.02083333 </v>
   <v>       0.04166667 </v>
   <v>       0.02083333 </v>
   <v>       0.04166667 </v>
   <v>       0.08333333 </v>
   <v>       0.04166667 </v>
   <v>       0.04166667 </v>
   <v>       0.08333333 </v>
   <v>       0.04166667 </v>
   <v>       0.02083333 </v>
   <v>       0.04166667 </v>
   <v>       0.02083333 </v>
  </varray>
 </kpoints>
 <parameters>
  <separator name="general" >
   <i type="string" name="SYSTEM">unknown system</i>
   <i type="logical" name="LCOMPAT"> F  </i>
  </separator>
  <separator name="electronic" >
   <i type="string" name="PREC">accura</i>
   <i name="ENMAX">    600.00000000</i>
   <i name="ENAUG">    644.87300000</i>
   <i name="EDIFF">      0.00000100</i>
   <i type="int" name="IALGO">    68</i>
   <i type="int" name="IWAVPR">    11</i>
   <i type="int" name="NBANDS">    44</i>
   <i name="NELECT">     64.00000000</i>
   <i type="int" name="TURBO">     0</i>
   <i type="int" name="IRESTART">     0</i>
   <i type="int" name="NREBOOT">     0</i>
   <i type="int" name="NMIN">     0</i>
   <i name="EREF">      0.00000000</i>
   <separator name="electronic smearing" >
    <i type="int" name="ISMEAR">     0</i>
    <i name="SIGMA">      0.10000000</i>
    <i name="KSPACING">      0.50000000</i>
    <i type="logical" name="KGAMMA"> T  </i>
   </separator>
   <separator name="electronic projectors" >
    <i type="logical" name="LREAL"> F  </i>
    <v name="ROPT">      0.00000000      0.00000000      0.00000000      0.00000000</v>
    <i type="int" name="LMAXPAW">  -100</i>
    <i type="int" name="LMAXMIX">     2</i>
    <i type="logical" name="NLSPLINE"> F  </i>
   </separator>
   <separator name="electronic startup" >
    <i type="int" name="ISTART">     0</i>
    <i type="int" name="ICHARG">     2</i>
    <i type="int" name="INIWAV">     1</i>
   </separator>
   <separator name="electronic spin" >
    <i type="int" name="ISPIN">     1</i>
    <i type="logical" name="LNONCOLLINEAR"> F  </i>
    <v name="MAGMOM">      1.00000000      1.00000000      1.00000000      1.00000000      1.00000000      1.00000000      1.00000000      1.00000000      1.00000000      1.00000000      1.00000000      1.00000000      1.00000000      1.00000000      1.00000000      1.00000000</v>
    <i name="NUPDOWN">     -1.00000000</i>
    <i type="logical" name="LSORBIT"> F  </i>
    <v name="SAXIS">      0.00000000      0.00000000      1.00000000</v>
    <i type="logical" name="LSPIRAL"> F  </i>
    <v name="QSPIRAL">      0.00000000      0.00000000      0.00000000</v>
    <i type="logical" name="LZEROZ"> F  </i>
   </separator>
   <separator name="electronic exchange-correlation" >
    <i type="logical" name="LASPH"> F  </i>
    <i type="logical" name="LMETAGGA"> F  </i>
   </separator>
   <separator name="electronic convergence" >
    <i type="int" name="NELM">   100</i>
    <i type="int" name="NELMDL">     0</i>
    <i type="int" name="NELMIN">     4</i>
    <i name="ENINI">    600.00000000</i>
    <separator name="electronic convergence detail" >
     <i type="logical" name="LDIAG"> T  </i>
     <i type="logical" name="LSUBROT"> F  </i>
     <i name="WEIMIN">      0.00100000</i>
     <i name="EBREAK">      0.00000001</i>
     <i name="DEPER">      0.30000000</i>
     <i type="int" name="NRMM">     4</i>
     <i name="TIME">      0.40000000</i>
    </separator>
   </separator>
   <separator name="electronic mixer" >
    <i name="AMIX">      0.40000000</i>
    <i name="BMIX">      1.00000000</i>
    <i name="AMIN">      0.10000000</i>
    <i name="AMIX_MAG">      1.60000000</i>
    <i name="BMIX_MAG">      1.00000000</i>
    <separator name="electronic mixer details" >
     <i type="int" name="IMIX">     4</i>
     <i type="int" name="MAXMIX">   -45</i>
     <i name="WC">    100.00000000</i>
     <i type="int" name="INIMIX">     1</i>
     <i type="int" name="MIXPRE">     1</i>
     <i type="int" name="MREMOVE">     5</i>
    </separator>
   </separator>
   <separator name="electronic dipolcorrection" >
    <i type="logical" name="LDIPOL"> F  </i>
    <i type="logical" name="LMONO"> F  </i>
    <i type="int" name="IDIPOL">     0</i>
    <i name="EPSILON">      1.00000000</i>
    <v name="DIPOL">   -100.00000000   -100.00000000   -100.00000000</v>
    <i name="EFIELD">      0.00000000</i>
   </separator>
  </separator>
  <separator name="grids" >
   <i type="int" name="NGX">    48</i>
   <i type="int" name="NGY">    28</i>
   <i type="int" name="NGZ">    84</i>
   <i type="int" name="NGXF">    96</i>
   <i type="int" name="NGYF">    56</i>
   <i type="int" name="NGZF">   168</i>
   <i type="logical" name="ADDGRID"> T  </i>
  </separator>
  <separator name="ionic" >
   <i type="int" name="NSW">    30</i>
   <i type="int" name="IBRION">     2</i>
   <i type="int" name="ISIF">     3</i>
   <i name="PSTRESS">      0.00000000</i>
   <i name="EDIFFG">     -0.02000000</i>
   <i type="int" name="NFREE">     1</i>
   <i name="POTIM">      0.50000000</i>
   <i name="SMASS">     -3.00000000</i>
   <i name="SCALEE">      1.00000000</i>
  </separator>
  <separator name="ionic md" >
   <i name="TEBEG">      0.00010000</i>
   <i name="TEEND">      0.00010000</i>
   <i type="int" name="NBLOCK">     1</i>
   <i type="int" name="KBLOCK">    30</i>
   <i type="int" name="NPACO">   256</i>
   <i name="APACO">     16.00000000</i>
  </separator>
  <separator name="symmetry" >
   <i type="int" name="ISYM">     2</i>
   <i name="SYMPREC">      0.00001000</i>
  </separator>
  <separator name="dos" >
   <i type="logical" name="LORBIT"> F  </i>
   <v name="RWIGS">     -1.00000000     -1.00000000     -1.00000000     -1.00000000</v>
   <i type="int" name="NEDOS">   301</i>
   <i name="EMIN">     10.00000000</i>
   <i name="EMAX">    -10.00000000</i>
   <i name="EFERMI">      0.00000000</i>
  </separator>
  <separator name="writing" >
   <i type="int" name="NWRITE">     2</i>
   <i type="logical" name="LWAVE"> F  </i>
   <i type="logical" name="LCHARG"> F  </i>
   <i type="logical" name="LPARD"> F  </i>
   <i type="logical" name="LVTOT"> F  </i>
   <i type="logical" name="LVHAR"> F  </i>
   <i type="logical" name="LELF"> F  </i>
   <i type="logical" name="LOPTICS"> F  </i>
   <v name="STM">      0.00000000      0.00000000      0.00000000      0.00000000      0.00000000      0.00000000      0.00000000</v>
  </separator>
  <separator name="performance" >
   <i type="int" name="NPAR">     4</i>
   <i type="int" name="NSIM">     4</i>
   <i type="int" name="NBLK">    -1</i>
   <i type="logical" name="LPLANE"> T  </i>
   <i type="logical" name="LSCALAPACK"> T  </i>
   <i type="logical" name="LSCAAWARE"> F  </i>
   <i type="logical" name="LSCALU"> F  </i>
   <i type="logical" name="LASYNC"> F  </i>
   <i type="logical" name="LORBITALREAL"> F  </i>
  </separator>
  <separator name="miscellaneous" >
   <i type="int" name="IDIOT">     3</i>
   <i type="logical" name="LMUSIC"> F  </i>
   <v name="POMASS">     28.08500000     26.98100000     12.01100000     14.00100000</v>
   <v name="DARWINR">      0.00000000      0.00000000      0.00000000      0.00000000</v>
   <v name="DARWINV">      1.00000000      1.00000000      1.00000000      1.00000000</v>
   <i type="logical" name="LCORR"> T  </i>
  </separator>
  <i type="logical" name="GGA_COMPAT"> T  </i>
  <i type="logical" name="LBERRY"> F  </i>
  <i type="int" name="ICORELEVEL">     0</i>
  <i type="logical" name="LDAU"> F  </i>
  <i type="int" name="I_CONSTRAINED_M">     0</i>
  <separator name="electronic exchange-correlation" >
   <i type="string" name="GGA">--</i>
   <i type="int" name="VOSKOWN">     0</i>
   <i type="logical" name="LHFCALC"> F  </i>
   <i type="string" name="PRECFOCK"></i>
   <i type="logical" name="LSYMGRAD"> F  </i>
   <i type="logical" name="LHFONE"> F  </i>
   <i type="logical" name="LRHFCALC"> F  </i>
   <i type="logical" name="LTHOMAS"> F  </i>
   <i type="logical" name="LMODELHF"> F  </i>
   <i name="ENCUT4O">     -1.00000000</i>
   <i type="int" name="EXXOEP">     0</i>
   <i type="int" name="FOURORBIT">     0</i>
   <i name="AEXX">      0.00000000</i>
   <i name="HFALPHA">      0.00000000</i>
   <i name="MCALPHA">      0.00000000</i>
   <i name="ALDAX">      1.00000000</i>
   <i name="AGGAX">      1.00000000</i>
   <i name="ALDAC">      1.00000000</i>
   <i name="AGGAC">      1.00000000</i>
   <i type="int" name="NKREDX">     1</i>
   <i type="int" name="NKREDY">     1</i>
   <i type="int" name="NKREDZ">     1</i>
   <i type="logical" name="SHIFTRED"> F  </i>
   <i type="logical" name="ODDONLY"> F  </i>
   <i type="logical" name="EVENONLY"> F  </i>
   <i type="int" name="LMAXFOCK">     0</i>
   <i type="int" name="NMAXFOCKAE">     0</i>
   <i type="logical" name="LFOCKAEDFT"> F  </i>
   <i name="HFSCREEN">      0.00000000</i>
   <i name="HFSCREENC">      0.00000000</i>
   <i type="int" name="NBANDSGWLOW">     0</i>
  </separator>
  <separator name="vdW DFT" >
   <i type="logical" name="LUSE_VDW"> F  </i>
   <i name="Zab_VDW">     -0.84910000</i>
   <i name="PARAM1">      0.12340000</i>
   <i name="PARAM2">      1.00000000</i>
   <i name="PARAM3">      0.00000000</i>
  </separator>
  <separator name="model GW" >
   <i type="int" name="MODEL_GW">     0</i>
   <i name="MODEL_EPS0">      6.45081345</i>
   <i name="MODEL_ALPHA">      1.00000000</i>
  </separator>
  <separator name="linear response parameters" >
   <i type="logical" name="LEPSILON"> F  </i>
   <i type="logical" name="LRPA"> F  </i>
   <i type="logical" name="LNABLA"> F  </i>
   <i type="logical" name="LVEL"> F  </i>
   <i type="int" name="KINTER">     0</i>
   <i name="CSHIFT">      0.10000000</i>
   <i name="OMEGAMAX">     -1.00000000</i>
   <i name="DEG_THRESHOLD">      0.00200000</i>
  </separator>
  <separator name="orbital magnetization" >
   <i type="logical" name="NUCIND"> F  </i>
   <v name="MAGPOS">      0.00000000      0.00000000      0.00000000</v>
   <i type="logical" name="LNICSALL"> T  </i>
   <i type="logical" name="ORBITALMAG"> F  </i>
   <i type="logical" name="LMAGBLOCH"> F  </i>
   <i type="logical" name="LCHIMAG"> F  </i>
   <i type="logical" name="LGAUGE"> T  </i>
   <i type="int" name="MAGATOM">     0</i>
   <v name="MAGDIPOL">      0.00000000      0.00000000      0.00000000</v>
   <v name="AVECCONST">      0.00000000      0.00000000      0.00000000</v>
  </separator>
  <separator name="response functions" >
   <i type="logical" name="LADDER"> F  </i>
   <i type="logical" name="LFXC"> F  </i>
   <i type="logical" name="LHARTREE"> T  </i>
   <i type="int" name="IBSE">     0</i>
   <i type="logical" name="LTCTE"> F  </i>
   <i type="logical" name="LTETE"> F  </i>
   <i type="logical" name="LTRIPLET"> F  </i>
   <i type="logical" name="LFXCEPS"> F  </i>
   <i type="logical" name="LFXHEG"> F  </i>
   <i type="logical" name="L2ORDER"> F  </i>
   <i type="logical" name="LUSEW"> F  </i>
   <i name="ENCUTGW">     -2.00000000</i>
   <i name="ENCUTGWSOFT">     -2.00000000</i>
   <i name="ENCUTLF">     -1.00000000</i>
   <i type="int" name="LMAXMP2">    -1</i>
   <i name="SCISSOR">      0.00000000</i>
   <i type="int" name="NOMEGA">     0</i>
   <i type="int" name="NOMEGAR">     0</i>
   <i type="int" name="NBANDSGW">    -1</i>
   <i type="int" name="NBANDSO">    -1</i>
   <i type="int" name="NBANDSV">    -1</i>
   <i type="int" name="NELM">   100</i>
   <i type="int" name="DIM">     3</i>
   <i type="int" name="ANTIRES">     0</i>
   <i name="OMEGAMAX">    -30.00000000</i>
   <i name="OMEGAMIN">    -30.00000000</i>
   <i name="OMEGATL">   -200.00000000</i>
   <i type="int" name="OMEGAGRID">     0</i>
   <i name="CSHIFT">     -0.10000000</i>
   <i type="logical" name="SELFENERGY"> F  </i>
   <i type="logical" name="LSPECTRAL"> F  </i>
   <i type="logical" name="ODDONLYGW"> F  </i>
   <i type="logical" name="EVENONLYGW"> F  </i>
   <i type="int" name="NKREDLFX">     1</i>
   <i type="int" name="NKREDLFY">     1</i>
   <i type="int" name="NKREDLFZ">     1</i>
   <i type="int" name="MAXMEM">  1800</i>
   <i type="int" name="TELESCOPE">     0</i>
   <i type="int" name="TAUPAR">     1</i>
  </separator>
  <separator name="External order field" >
   <i name="OFIELD_KAPPA">      0.00000000</i>
   <v name="OFIELD_K">      0.00000000      0.00000000      0.00000000</v>
   <i name="OFIELD_Q6_NEAR">      0.00000000</i>
   <i name="OFIELD_Q6_FAR">      0.00000000</i>
   <i name="OFIELD_A">      0.00000000</i>
  </separator>
 </parameters>
 <atominfo>
  <atoms>      16 </atoms>
  <types>       4 </types>
  <array name="atoms" >
   <dimension dim="1">ion</dimension>
   <field type="string">element</field>
   <field type="int">atomtype</field>
   <set>
    <rc><c>Si</c><c>   1</c></rc>
    <rc><c>Si</c><c>   1</c></rc>
    <rc><c>Si</c><c>   1</c></rc>
    <rc><c>Si</c><c>   1</c></rc>
    <rc><c>Si</c><c>   1</c></rc>
    <rc><c>Al</c><c>   2</c></rc>
    <rc><c>Al</c><c>   2</c></rc>
    <rc><c>Al</c><c>   2</c></rc>
    <rc><c>C </c><c>   3</c></rc>
    <rc><c>C </c><c>   3</c></rc>
    <rc><c>C </c><c>   3</c></rc>
    <rc><c>C </c><c>   3</c></rc>
    <rc><c>C </c><c>   3</c></rc>
    <rc><c>N </c><c>   4</c></rc>
    <rc><c>N </c><c>   4</c></rc>
    <rc><c>N </c><c>   4</c></rc>
   </set>
  </array>
  <array name="atomtypes" >
   <dimension dim="1">type</dimension>
   <field type="int">atomspertype</field>
   <field type="string">element</field>
   <field>mass</field>
   <field>valence</field>
   <field type="string">pseudopotential</field>
   <set>
    <rc><c>   5</c><c>Si</c><c>     28.08500000</c><c>      4.00000000</c><c>  PAW_PBE Si 05Jan2001                  </c></rc>
    <rc><c>   3</c><c>Al</c><c>     26.98100000</c><c>      3.00000000</c><c>  PAW_PBE Al 04Jan2001                  </c></rc>
    <rc><c>   5</c><c>C </c><c>     12.01100000</c><c>      4.00000000</c><c>  PAW_PBE C 08Apr2002                   </c></rc>
    <rc><c>   3</c><c>N </c><c>     14.00100000</c><c>      5.00000000</c><c>  PAW_PBE N_s 07Sep2000                 </c></rc>
   </set>
  </array>
 </atominfo>
 <structure name="initialpos" >
  <crystal>
   <varray name="basis" >
    <v>       5.39734048       0.00000000       0.00371563 </v>
    <v>       0.00000000       3.10822529       0.00000000 </v>
    <v>       0.00689148       0.00000000      10.25394799 </v>
   </varray>
   <i name="volume">    172.02169193 </i>
   <varray name="rec_basis" >
    <v>       0.18527652       0.00000000      -0.00012452 </v>
    <v>       0.00000000       0.32172700       0.00000000 </v>
    <v>      -0.00006714       0.00000000       0.09752346 </v>
   </varray>
  </crystal>
  <varray name="positions" >
   <v>       0.83847003       0.50000000       0.00041120 </v>
   <v>       0.34068418       0.00000000       0.46946150 </v>
   <v>       0.16382935       0.50000000       0.24810041 </v>
   <v>       0.15975354       0.50000000       0.75509446 </v>
   <v>       0.67484871       0.00000000       0.75754238 </v>
   <v>       0.33231790       0.00000000       0.00103214 </v>
   <v>       0.82713858       0.50000000       0.49994692 </v>
   <v>       0.66518093       0.00000000       0.24829004 </v>
   <v>       0.31220631       0.00000000       0.18905384 </v>
   <v>       0.83333975       0.50000000       0.69944735 </v>
   <v>       0.17035612       0.50000000       0.43470128 </v>
   <v>       0.66076694       0.00000000       0.43812177 </v>
   <v>       0.68317239       0.00000000       0.94173485 </v>
   <v>       0.84793174       0.50000000       0.17710211 </v>
   <v>       0.33263437       0.00000000       0.70811935 </v>
   <v>       0.15736916       0.50000000       0.93184041 </v>
  </varray>
 </structure>
 <calculation>
  <scstep>
   <time name="dav">    0.55    0.55</time>
   <time name="total">    0.60    0.61</time>
   <energy>
    <i name="alphaZ">     68.96433714 </i>
    <i name="ewald">  -2233.37066674 </i>
    <i name="hartreedc">   -335.93177661 </i>
    <i name="XCdc">      4.59501571 </i>
    <i name="pawpsdc">   1796.64489807 </i>
    <i name="pawaedc">  -1619.21785927 </i>
    <i name="eentropy">     -0.00918788 </i>
    <i name="bandstr">    417.49302472 </i>
    <i name="atom">   2205.34103330 </i>
    <i name="e_fr_energy">    304.50881844 </i>
    <i name="e_wo_entrp">    304.51800632 </i>
    <i name="e_0_energy">    304.51341238 </i>
   </energy>
  </scstep>
  <scstep>
   <time name="dav">    0.63    0.63</time>
   <time name="total">    0.63    0.64</time>
   <energy>
    <i name="e_fr_energy">   -102.94364699 </i>
    <i name="e_wo_entrp">   -102.94364699 </i>
    <i name="e_0_energy">   -102.94364699 </i>
   </energy>
  </scstep>
  <scstep>
   <time name="dav">    0.67    0.67</time>
   <time name="total">    0.67    0.69</time>
   <energy>
    <i name="e_fr_energy">   -133.35989853 </i>
    <i name="e_wo_entrp">   -133.35989853 </i>
    <i name="e_0_energy">   -133.35989853 </i>
   </energy>
  </scstep>
  <scstep>
   <time name="dav">    0.65    0.65</time>
   <time name="total">    0.65    0.66</time>
   <energy>
    <i name="e_fr_energy">   -134.20174856 </i>
    <i name="e_wo_entrp">   -134.20174856 </i>
    <i name="e_0_energy">   -134.20174856 </i>
   </energy>
  </scstep>
  <scstep>
   <time name="dav">    0.64    0.64</time>
   <time name="total">    0.72    0.73</time>
   <energy>
    <i name="e_fr_energy">   -134.23201086 </i>
    <i name="e_wo_entrp">   -134.23201086 </i>
    <i name="e_0_energy">   -134.23201086 </i>
   </energy>
  </scstep>
  <scstep>
   <time name="diag">    0.14    0.14</time>
   <time name="diis">    0.35    0.35</time>
   <time name="orth">    0.02    0.02</time>
   <time name="total">    0.63    0.64</time>
   <energy>
    <i name="e_fr_energy">   -116.66245184 </i>
    <i name="e_wo_entrp">   -116.66245184 </i>
    <i name="e_0_energy">   -116.66245184 </i>
   </energy>
  </scstep>
  <scstep>
   <time name="diag">    0.14    0.14</time>
   <time name="diis">    0.38    0.38</time>
   <time name="orth">    0.02    0.02</time>
   <time name="total">    0.67    0.68</time>
   <energy>
    <i name="e_fr_energy">   -116.40793648 </i>
    <i name="e_wo_entrp">   -116.40793648 </i>
    <i name="e_0_energy">   -116.40793648 </i>
   </energy>
  </scstep>
  <scstep>
   <time name="diag">    0.13    0.13</time>
   <time name="diis">    0.35    0.35</time>
   <time name="orth">    0.02    0.02</time>
   <time name="total">    0.63    0.64</time>
   <energy>
    <i name="e_fr_energy">   -116.46569456 </i>
    <i name="e_wo_entrp">   -116.46569456 </i>
    <i name="e_0_energy">   -116.46569456 </i>
   </energy>
  </scstep>
  <scstep>
   <time name="diag">    0.13    0.13</time>
   <time name="diis">    0.36    0.36</time>
   <time name="orth">    0.02    0.02</time>
   <time name="total">    0.64    0.65</time>
   <energy>
    <i name="e_fr_energy">   -116.27902249 </i>
    <i name="e_wo_entrp">   -116.27902249 </i>
    <i name="e_0_energy">   -116.27902249 </i>
   </energy>
  </scstep>
  <scstep>
   <time name="diag">    0.13    0.13</time>
   <time name="diis">    0.36    0.36</time>
   <time name="orth">    0.02    0.02</time>
   <time name="total">    0.64    0.66</time>
   <energy>
    <i name="e_fr_energy">   -116.28549331 </i>
    <i name="e_wo_entrp">   -116.28549331 </i>
    <i name="e_0_energy">   -116.28549331 </i>
   </energy>
  </scstep>
  <scstep>
   <time name="diag">    0.13    0.13</time>
   <time name="diis">    0.35    0.35</time>
   <time name="orth">    0.02    0.02</time>
   <time name="total">    0.63    0.64</time>
   <energy>
    <i name="e_fr_energy">   -116.28387241 </i>
    <i name="e_wo_entrp">   -116.28387241 </i>
    <i name="e_0_energy">   -116.28387241 </i>
   </energy>
  </scstep>
  <scstep>
   <time name="diag">    0.13    0.13</time>
   <time name="diis">    0.35    0.35</time>
   <time name="orth">    0.02    0.02</time>
   <time name="total">    0.63    0.64</time>
   <energy>
    <i name="e_fr_energy">   -116.28369447 </i>
    <i name="e_wo_entrp">   -116.28369447 </i>
    <i name="e_0_energy">   -116.28369447 </i>
   </energy>
  </scstep>
  <scstep>
   <time name="diag">    0.13    0.13</time>
   <time name="diis">    0.35    0.35</time>
   <time name="orth">    0.02    0.02</time>
   <time name="total">    0.63    0.64</time>
   <energy>
    <i name="e_fr_energy">   -116.28369893 </i>
    <i name="e_wo_entrp">   -116.28369893 </i>
    <i name="e_0_energy">   -116.28369893 </i>
   </energy>
  </scstep>
  <scstep>
   <time name="diag">    0.13    0.14</time>
   <time name="diis">    0.36    0.36</time>
   <time name="orth">    0.02    0.02</time>
   <time name="total">    0.64    0.65</time>
   <energy>
    <i name="e_fr_energy">   -116.28370340 </i>
    <i name="e_wo_entrp">   -116.28370340 </i>
    <i name="e_0_energy">   -116.28370340 </i>
   </energy>
  </scstep>
  <scstep>
   <time name="diag">    0.13    0.13</time>
   <time name="diis">    0.35    0.35</time>
   <time name="orth">    0.02    0.02</time>
   <time name="total">    0.63    0.64</time>
   <energy>
    <i name="e_fr_energy">   -116.28370363 </i>
    <i name="e_wo_entrp">   -116.28370363 </i>
    <i name="e_0_energy">   -116.28370363 </i>
   </energy>
  </scstep>
  <scstep>
   <time name="diag">    0.13    0.13</time>
   <time name="diis">    0.24    0.24</time>
   <time name="orth">    0.02    0.02</time>
   <time name="total">    0.44    0.46</time>
   <energy>
    <i name="alphaZ">     68.96433714 </i>
    <i name="ewald">  -2233.37066674 </i>
    <i name="hartreedc">   -437.93895690 </i>
    <i name="XCdc">     13.85208718 </i>
    <i name="pawpsdc">   9510.92512535 </i>
    <i name="pawaedc">  -9336.93133910 </i>
    <i name="eentropy">      0.00000000 </i>
    <i name="bandstr">     92.87467702 </i>
    <i name="atom">   2205.34103330 </i>
    <i name="e_fr_energy">   -116.28370275 </i>
    <i name="e_wo_entrp">   -116.28370275 </i>
    <i name="e_0_energy">   -116.28370275 </i>
   </energy>
  </scstep>
  <structure>
   <crystal>
    <varray name="basis" >
     <v>       5.39734048       0.00000000       0.00371563 </v>
     <v>       0.00000000       3.10822529       0.00000000 </v>
     <v>       0.00689148       0.00000000      10.25394799 </v>
    </varray>
    <i name="volume">    172.02169193 </i>
    <varray name="rec_basis" >
     <v>       0.18527652       0.00000000      -0.00012452 </v>
     <v>       0.00000000       0.32172700       0.00000000 </v>
     <v>      -0.00006714       0.00000000       0.09752346 </v>
    </varray>
   </crystal>
   <varray name="positions" >
    <v>       0.83847003       0.50000000       0.00041120 </v>
    <v>       0.34068418       0.00000000       0.46946150 </v>
    <v>       0.16382935       0.50000000       0.24810041 </v>
    <v>       0.15975354       0.50000000       0.75509446 </v>
    <v>       0.67484871       0.00000000       0.75754238 </v>
    <v>       0.33231790       0.00000000       0.00103214 </v>
    <v>       0.82713858       0.50000000       0.49994692 </v>
    <v>       0.66518093       0.00000000       0.24829004 </v>
    <v>       0.31220631       0.00000000       0.18905384 </v>
    <v>       0.83333975       0.50000000       0.69944735 </v>
    <v>       0.17035612       0.50000000       0.43470128 </v>
    <v>       0.66076694       0.00000000       0.43812177 </v>
    <v>       0.68317239       0.00000000       0.94173485 </v>
    <v>       0.84793174       0.50000000       0.17710211 </v>
    <v>       0.33263437       0.00000000       0.70811935 </v>
    <v>       0.15736916       0.50000000       0.93184041 </v>
   </varray>
  </structure>
  <varray name="forces" >
   <v>       0.00117123       0.00000000      -0.00317458 </v>
   <v>      -0.01478016       0.00000000      -0.00072201 </v>
   <v>      -0.00741998       0.00000000      -0.00599020 </v>
   <v>       0.00322884       0.00000000       0.00271395 </v>
   <v>      -0.01632730       0.00000000      -0.00259607 </v>
   <v>      -0.00425564       0.00000000       0.00243972 </v>
   <v>      -0.01098433       0.00000000       0.00147491 </v>
   <v>       0.00820843       0.00000000      -0.00610160 </v>
   <v>      -0.00850853       0.00000000      -0.00089690 </v>
   <v>      -0.00499802       0.00000000      -0.00626786 </v>
   <v>       0.01415927       0.00000000      -0.00549296 </v>
   <v>       0.01862352       0.00000000       0.00295534 </v>
   <v>       0.01425729       0.00000000      -0.00500701 </v>
   <v>       0.00360994       0.00000000       0.00067824 </v>
   <v>       0.00668212       0.00000000       0.01181867 </v>
   <v>      -0.00266667       0.00000000       0.01416838 </v>
  </varray>
  <varray name="stress" >
   <v>       0.26649756       0.00000000      -0.20704562 </v>
   <v>       0.00000000      -0.02223524       0.00000000 </v>
   <v>      -0.20704585       0.00000000      -0.04001433 </v>
  </varray>
  <energy>
   <i name="e_fr_energy">   -116.28370275 </i>
   <i name="e_wo_entrp">   -116.28370275 </i>
   <i name="e_0_energy">      0.00000000 </i>
  </energy>
  <time name="totalsc">   11.44   11.68</time>
  <eigenvalues>
   <array>
    <dimension dim="1">band</dimension>
    <dimension dim="2">kpoint</dimension>
    <dimension dim="3">spin</dimension>
    <field>eigene</field>
    <field>occ</field>
    <set>
     <set comment="spin 1">
      <set comment="kpoint 1">
       <r>   -9.6929    1.0000 </r>
       <r>   -8.5839    1.0000 </r>
       <r>   -7.8783    1.0000 </r>
       <r>   -5.6445    1.0000 </r>
       <r>   -5.4391    1.0000 </r>
       <r>   -4.1513    1.0000 </r>
       <r>   -3.6260    1.0000 </r>
       <r>   -2.2574    1.0000 </r>
       <r>   -1.0973    1.0000 </r>
       <r>   -0.6737    1.0000 </r>
       <r>    0.2028    1.0000 </r>
       <r>    0.9062    1.0000 </r>
       <r>    1.8028    1.0000 </r>
       <r>    2.2991    1.0000 </r>
       <r>    2.9456    1.0000 </r>
       <r>    2.9573    1.0000 </r>
       <r>    3.3135    1.0000 </r>
       <r>    4.2823    1.0000 </r>
       <r>    4.8088    1.0000 </r>
       <r>    4.9773    1.0000 </r>
       <r>    5.0814    1.0000 </r>
       <r>    5.2005    1.0000 </r>
       <r>    5.5852    1.0000 </r>
       <r>    5.8102    1.0000 </r>
       <r>    5.8347    1.0000 </r>
       <r>    6.1763    1.0000 </r>
       <r>    6.4849    1.0000 </r>
       <r>    6.9105    1.0000 </r>
       <r>    6.9156    1.0000 </r>
       <r>    7.5209    1.0000 </r>
       <r>    8.0046    1.0000 </r>
       <r>    8.7056    1.0000 </r>
       <r>    9.5528    0.0000 </r>
       <r>   10.6090    0.0000 </r>
       <r>   11.3354    0.0000 </r>
       <r>   11.6942    0.0000 </r>
       <r>   11.8479    0.0000 </r>
       <r>   12.2319    0.0000 </r>
       <r>   12.7544    0.0000 </r>
       <r>   13.4289    0.0000 </r>
       <r>   13.6053    0.0000 </r>
       <r>   13.8208    0.0000 </r>
       <r>   14.9873    0.0000 </r>
       <r>   15.0746    0.0000 </r>
      </set>
      <set comment="kpoint 2">
       <r>   -9.5905    1.0000 </r>
       <r>   -8.5563    1.0000 </r>
       <r>   -7.8795    1.0000 </r>
       <r>   -5.8458    1.0000 </r>
       <r>   -5.6094    1.0000 </r>
       <r>   -4.3656    1.0000 </r>
       <r>   -3.6750    1.0000 </r>
       <r>   -2.6070    1.0000 </r>
       <r>   -0.5210    1.0000 </r>
       <r>   -0.3109    1.0000 </r>
       <r>    0.8258    1.0000 </r>
       <r>    1.4381    1.0000 </r>
       <r>    1.8448    1.0000 </r>
       <r>    2.4656    1.0000 </r>
       <r>    3.0214    1.0000 </r>
       <r>    3.0418    1.0000 </r>
       <r>    3.5239    1.0000 </r>
       <r>    4.0212    1.0000 </r>
       <r>    4.3291    1.0000 </r>
       <r>    4.6867    1.0000 </r>
       <r>    4.9065    1.0000 </r>
       <r>    5.0217    1.0000 </r>
       <r>    5.4553    1.0000 </r>
       <r>    5.5039    1.0000 </r>
       <r>    5.7671    1.0000 </r>
       <r>    6.0428    1.0000 </r>
       <r>    6.3759    1.0000 </r>
       <r>    6.3932    1.0000 </r>
       <r>    6.8677    1.0000 </r>
       <r>    7.1015    1.0000 </r>
       <r>    7.4130    1.0000 </r>
       <r>    8.5613    1.0000 </r>
       <r>   10.0396    0.0000 </r>
       <r>   10.9621    0.0000 </r>
       <r>   11.6619    0.0000 </r>
       <r>   11.9542    0.0000 </r>
       <r>   12.4226    0.0000 </r>
       <r>   12.6860    0.0000 </r>
       <r>   13.1244    0.0000 </r>
       <r>   13.5673    0.0000 </r>
       <r>   13.7431    0.0000 </r>
       <r>   14.1416    0.0000 </r>
       <r>   14.2955    0.0000 </r>
       <r>   14.9580    0.0000 </r>
      </set>
      <set comment="kpoint 3">
       <r>   -9.4662    1.0000 </r>
       <r>   -8.5525    1.0000 </r>
       <r>   -7.8803    1.0000 </r>
       <r>   -6.1177    1.0000 </r>
       <r>   -5.6213    1.0000 </r>
       <r>   -4.6160    1.0000 </r>
       <r>   -3.6468    1.0000 </r>
       <r>   -2.9902    1.0000 </r>
       <r>   -0.1589    1.0000 </r>
       <r>    0.6788    1.0000 </r>
       <r>    1.4728    1.0000 </r>
       <r>    1.6556    1.0000 </r>
       <r>    2.1219    1.0000 </r>
       <r>    2.6573    1.0000 </r>
       <r>    2.9307    1.0000 </r>
       <r>    3.1085    1.0000 </r>
       <r>    3.3239    1.0000 </r>
       <r>    3.7946    1.0000 </r>
       <r>    4.1800    1.0000 </r>
       <r>    4.3626    1.0000 </r>
       <r>    4.6920    1.0000 </r>
       <r>    5.0684    1.0000 </r>
       <r>    5.1864    1.0000 </r>
       <r>    5.3286    1.0000 </r>
       <r>    5.3507    1.0000 </r>
       <r>    5.7045    1.0000 </r>
       <r>    5.8827    1.0000 </r>
       <r>    6.2959    1.0000 </r>
       <r>    6.7281    1.0000 </r>
       <r>    6.8320    1.0000 </r>
       <r>    7.2065    1.0000 </r>
       <r>    8.4156    1.0000 </r>
       <r>   10.7388    0.0000 </r>
       <r>   11.4922    0.0000 </r>
       <r>   11.6676    0.0000 </r>
       <r>   12.1182    0.0000 </r>
       <r>   12.5873    0.0000 </r>
       <r>   13.0626    0.0000 </r>
       <r>   13.2813    0.0000 </r>
       <r>   13.7151    0.0000 </r>
       <r>   14.0284    0.0000 </r>
       <r>   14.3196    0.0000 </r>
       <r>   14.8562    0.0000 </r>
       <r>   15.0593    0.0000 </r>
      </set>
      <set comment="kpoint 4">
       <r>   -9.4364    1.0000 </r>
       <r>   -8.3897    1.0000 </r>
       <r>   -7.7395    1.0000 </r>
       <r>   -5.3267    1.0000 </r>
       <r>   -5.1682    1.0000 </r>
       <r>   -3.9798    1.0000 </r>
       <r>   -3.3423    1.0000 </r>
       <r>   -2.0910    1.0000 </r>
       <r>   -0.8609    1.0000 </r>
       <r>   -0.4639    1.0000 </r>
       <r>    0.4496    1.0000 </r>
       <r>    1.1153    1.0000 </r>
       <r>    1.6937    1.0000 </r>
       <r>    2.0631    1.0000 </r>
       <r>    2.5079    1.0000 </r>
       <r>    2.8485    1.0000 </r>
       <r>    3.2284    1.0000 </r>
       <r>    3.3593    1.0000 </r>
       <r>    3.7464    1.0000 </r>
       <r>    4.0499    1.0000 </r>
       <r>    4.4410    1.0000 </r>
       <r>    4.7145    1.0000 </r>
       <r>    5.0215    1.0000 </r>
       <r>    5.2821    1.0000 </r>
       <r>    5.3901    1.0000 </r>
       <r>    5.7186    1.0000 </r>
       <r>    5.8990    1.0000 </r>
       <r>    6.0990    1.0000 </r>
       <r>    6.8559    1.0000 </r>
       <r>    7.4114    1.0000 </r>
       <r>    7.5517    1.0000 </r>
       <r>    7.7769    1.0000 </r>
       <r>   10.6207    0.0000 </r>
       <r>   11.1677    0.0000 </r>
       <r>   11.8298    0.0000 </r>
       <r>   12.3625    0.0000 </r>
       <r>   12.8470    0.0000 </r>
       <r>   13.0204    0.0000 </r>
       <r>   13.3750    0.0000 </r>
       <r>   13.5352    0.0000 </r>
       <r>   13.7762    0.0000 </r>
       <r>   14.4062    0.0000 </r>
       <r>   14.5378    0.0000 </r>
       <r>   15.0300    0.0000 </r>
      </set>
      <set comment="kpoint 5">
       <r>   -9.3419    1.0000 </r>
       <r>   -8.3683    1.0000 </r>
       <r>   -7.7414    1.0000 </r>
       <r>   -5.5341    1.0000 </r>
       <r>   -5.2941    1.0000 </r>
       <r>   -4.1264    1.0000 </r>
       <r>   -3.3980    1.0000 </r>
       <r>   -2.4193    1.0000 </r>
       <r>   -0.3584    1.0000 </r>
       <r>   -0.1557    1.0000 </r>
       <r>    0.9404    1.0000 </r>
       <r>    1.4693    1.0000 </r>
       <r>    1.8707    1.0000 </r>
       <r>    2.0113    1.0000 </r>
       <r>    2.4179    1.0000 </r>
       <r>    2.9836    1.0000 </r>
       <r>    3.1925    1.0000 </r>
       <r>    3.5314    1.0000 </r>
       <r>    3.6654    1.0000 </r>
       <r>    4.0691    1.0000 </r>
       <r>    4.2809    1.0000 </r>
       <r>    4.4391    1.0000 </r>
       <r>    4.7842    1.0000 </r>
       <r>    5.1815    1.0000 </r>
       <r>    5.3723    1.0000 </r>
       <r>    5.6158    1.0000 </r>
       <r>    5.7838    1.0000 </r>
       <r>    6.0971    1.0000 </r>
       <r>    6.4780    1.0000 </r>
       <r>    6.9391    1.0000 </r>
       <r>    7.3594    1.0000 </r>
       <r>    7.8277    1.0000 </r>
       <r>   10.9913    0.0000 </r>
       <r>   11.6426    0.0000 </r>
       <r>   12.0413    0.0000 </r>
       <r>   12.2452    0.0000 </r>
       <r>   12.7556    0.0000 </r>
       <r>   12.9101    0.0000 </r>
       <r>   13.3816    0.0000 </r>
       <r>   13.7753    0.0000 </r>
       <r>   14.0962    0.0000 </r>
       <r>   14.1768    0.0000 </r>
       <r>   14.6220    0.0000 </r>
       <r>   15.0682    0.0000 </r>
      </set>
      <set comment="kpoint 6">
       <r>   -9.2287    1.0000 </r>
       <r>   -8.3674    1.0000 </r>
       <r>   -7.7419    1.0000 </r>
       <r>   -5.7968    1.0000 </r>
       <r>   -5.2877    1.0000 </r>
       <r>   -4.3243    1.0000 </r>
       <r>   -3.3792    1.0000 </r>
       <r>   -2.7650    1.0000 </r>
       <r>   -0.0473    1.0000 </r>
       <r>    0.6879    1.0000 </r>
       <r>    1.3266    1.0000 </r>
       <r>    1.4879    1.0000 </r>
       <r>    1.9336    1.0000 </r>
       <r>    2.3221    1.0000 </r>
       <r>    2.4079    1.0000 </r>
       <r>    2.6461    1.0000 </r>
       <r>    3.2822    1.0000 </r>
       <r>    3.5141    1.0000 </r>
       <r>    3.7839    1.0000 </r>
       <r>    3.9497    1.0000 </r>
       <r>    4.3913    1.0000 </r>
       <r>    4.5947    1.0000 </r>
       <r>    4.7125    1.0000 </r>
       <r>    4.8432    1.0000 </r>
       <r>    5.1686    1.0000 </r>
       <r>    5.4237    1.0000 </r>
       <r>    5.4605    1.0000 </r>
       <r>    5.9290    1.0000 </r>
       <r>    6.2701    1.0000 </r>
       <r>    6.7490    1.0000 </r>
       <r>    7.1431    1.0000 </r>
       <r>    7.4696    1.0000 </r>
       <r>   11.7516    0.0000 </r>
       <r>   11.9350    0.0000 </r>
       <r>   12.5108    0.0000 </r>
       <r>   12.5921    0.0000 </r>
       <r>   12.9782    0.0000 </r>
       <r>   13.1203    0.0000 </r>
       <r>   13.3119    0.0000 </r>
       <r>   13.8439    0.0000 </r>
       <r>   14.0480    0.0000 </r>
       <r>   14.2022    0.0000 </r>
       <r>   14.3175    0.0000 </r>
       <r>   14.7114    0.0000 </r>
      </set>
      <set comment="kpoint 7">
       <r>   -8.7688    1.0000 </r>
       <r>   -7.9830    1.0000 </r>
       <r>   -7.4675    1.0000 </r>
       <r>   -4.4813    1.0000 </r>
       <r>   -4.3992    1.0000 </r>
       <r>   -3.7040    1.0000 </r>
       <r>   -2.6392    1.0000 </r>
       <r>   -1.9620    1.0000 </r>
       <r>   -0.6233    1.0000 </r>
       <r>   -0.2131    1.0000 </r>
       <r>    0.4403    1.0000 </r>
       <r>    1.1934    1.0000 </r>
       <r>    1.3386    1.0000 </r>
       <r>    1.5337    1.0000 </r>
       <r>    1.8794    1.0000 </r>
       <r>    2.0343    1.0000 </r>
       <r>    2.2538    1.0000 </r>
       <r>    2.7298    1.0000 </r>
       <r>    3.0152    1.0000 </r>
       <r>    3.1687    1.0000 </r>
       <r>    3.5270    1.0000 </r>
       <r>    3.6667    1.0000 </r>
       <r>    3.9827    1.0000 </r>
       <r>    4.6915    1.0000 </r>
       <r>    4.7545    1.0000 </r>
       <r>    4.9781    1.0000 </r>
       <r>    5.5139    1.0000 </r>
       <r>    5.8080    1.0000 </r>
       <r>    5.9622    1.0000 </r>
       <r>    6.3731    1.0000 </r>
       <r>    6.9809    1.0000 </r>
       <r>    7.2872    1.0000 </r>
       <r>   10.5930    0.0000 </r>
       <r>   11.3811    0.0000 </r>
       <r>   12.2521    0.0000 </r>
       <r>   12.5378    0.0000 </r>
       <r>   12.7460    0.0000 </r>
       <r>   13.1184    0.0000 </r>
       <r>   13.3826    0.0000 </r>
       <r>   13.7023    0.0000 </r>
       <r>   13.7181    0.0000 </r>
       <r>   14.1110    0.0000 </r>
       <r>   14.5504    0.0000 </r>
       <r>   15.0811    0.0000 </r>
      </set>
      <set comment="kpoint 8">
       <r>   -8.7013    1.0000 </r>
       <r>   -7.9761    1.0000 </r>
       <r>   -7.4660    1.0000 </r>
       <r>   -4.6895    1.0000 </r>
       <r>   -4.3810    1.0000 </r>
       <r>   -3.6395    1.0000 </r>
       <r>   -2.6926    1.0000 </r>
       <r>   -2.1414    1.0000 </r>
       <r>   -0.7876    1.0000 </r>
       <r>   -0.1813    1.0000 </r>
       <r>    0.6816    1.0000 </r>
       <r>    0.9079    1.0000 </r>
       <r>    1.1275    1.0000 </r>
       <r>    1.5265    1.0000 </r>
       <r>    1.7024    1.0000 </r>
       <r>    2.2371    1.0000 </r>
       <r>    2.5698    1.0000 </r>
       <r>    2.7138    1.0000 </r>
       <r>    3.1687    1.0000 </r>
       <r>    3.3390    1.0000 </r>
       <r>    3.5515    1.0000 </r>
       <r>    3.9760    1.0000 </r>
       <r>    4.2288    1.0000 </r>
       <r>    4.5950    1.0000 </r>
       <r>    4.9995    1.0000 </r>
       <r>    5.1940    1.0000 </r>
       <r>    5.5743    1.0000 </r>
       <r>    5.8035    1.0000 </r>
       <r>    5.9813    1.0000 </r>
       <r>    6.6165    1.0000 </r>
       <r>    7.0868    1.0000 </r>
       <r>    7.2600    1.0000 </r>
       <r>   10.7496    0.0000 </r>
       <r>   11.1108    0.0000 </r>
       <r>   11.2505    0.0000 </r>
       <r>   11.7601    0.0000 </r>
       <r>   12.3243    0.0000 </r>
       <r>   12.4992    0.0000 </r>
       <r>   13.0681    0.0000 </r>
       <r>   13.4030    0.0000 </r>
       <r>   13.6273    0.0000 </r>
       <r>   14.2411    0.0000 </r>
       <r>   14.5548    0.0000 </r>
       <r>   14.9032    0.0000 </r>
      </set>
      <set comment="kpoint 9">
       <r>   -8.6240    1.0000 </r>
       <r>   -7.9793    1.0000 </r>
       <r>   -7.4631    1.0000 </r>
       <r>   -4.8830    1.0000 </r>
       <r>   -4.3366    1.0000 </r>
       <r>   -3.6118    1.0000 </r>
       <r>   -2.7384    1.0000 </r>
       <r>   -2.3071    1.0000 </r>
       <r>   -0.8477    1.0000 </r>
       <r>   -0.2028    1.0000 </r>
       <r>    0.6170    1.0000 </r>
       <r>    0.7916    1.0000 </r>
       <r>    0.9586    1.0000 </r>
       <r>    1.3728    1.0000 </r>
       <r>    2.0026    1.0000 </r>
       <r>    2.2408    1.0000 </r>
       <r>    2.4691    1.0000 </r>
       <r>    3.0669    1.0000 </r>
       <r>    3.2468    1.0000 </r>
       <r>    3.3223    1.0000 </r>
       <r>    4.1145    1.0000 </r>
       <r>    4.1496    1.0000 </r>
       <r>    4.5770    1.0000 </r>
       <r>    4.6694    1.0000 </r>
       <r>    4.9582    1.0000 </r>
       <r>    5.2767    1.0000 </r>
       <r>    5.6107    1.0000 </r>
       <r>    6.0291    1.0000 </r>
       <r>    6.3532    1.0000 </r>
       <r>    6.4173    1.0000 </r>
       <r>    7.0158    1.0000 </r>
       <r>    7.0581    1.0000 </r>
       <r>   10.5039    0.0000 </r>
       <r>   10.8974    0.0000 </r>
       <r>   11.1471    0.0000 </r>
       <r>   11.6171    0.0000 </r>
       <r>   12.0664    0.0000 </r>
       <r>   12.2285    0.0000 </r>
       <r>   12.5026    0.0000 </r>
       <r>   12.9024    0.0000 </r>
       <r>   13.2039    0.0000 </r>
       <r>   13.7972    0.0000 </r>
       <r>   14.3873    0.0000 </r>
       <r>   14.6117    0.0000 </r>
      </set>
      <set comment="kpoint 10">
       <r>   -8.1848    1.0000 </r>
       <r>   -7.9193    1.0000 </r>
       <r>   -7.3311    1.0000 </r>
       <r>   -3.8998    1.0000 </r>
       <r>   -3.8027    1.0000 </r>
       <r>   -3.0767    1.0000 </r>
       <r>   -3.0273    1.0000 </r>
       <r>   -1.9886    1.0000 </r>
       <r>   -0.8908    1.0000 </r>
       <r>    0.0142    1.0000 </r>
       <r>    0.1650    1.0000 </r>
       <r>    0.8951    1.0000 </r>
       <r>    1.0106    1.0000 </r>
       <r>    1.2512    1.0000 </r>
       <r>    1.8228    1.0000 </r>
       <r>    1.8693    1.0000 </r>
       <r>    1.9355    1.0000 </r>
       <r>    2.3140    1.0000 </r>
       <r>    2.6830    1.0000 </r>
       <r>    3.0055    1.0000 </r>
       <r>    3.2519    1.0000 </r>
       <r>    3.6137    1.0000 </r>
       <r>    4.0575    1.0000 </r>
       <r>    4.2719    1.0000 </r>
       <r>    4.5142    1.0000 </r>
       <r>    4.7748    1.0000 </r>
       <r>    4.9777    1.0000 </r>
       <r>    5.5280    1.0000 </r>
       <r>    5.5457    1.0000 </r>
       <r>    6.1751    1.0000 </r>
       <r>    6.3631    1.0000 </r>
       <r>    7.1291    1.0000 </r>
       <r>   11.2728    0.0000 </r>
       <r>   11.2805    0.0000 </r>
       <r>   11.4870    0.0000 </r>
       <r>   12.1100    0.0000 </r>
       <r>   12.5278    0.0000 </r>
       <r>   12.8228    0.0000 </r>
       <r>   13.3199    0.0000 </r>
       <r>   13.5979    0.0000 </r>
       <r>   13.7802    0.0000 </r>
       <r>   14.5317    0.0000 </r>
       <r>   14.8480    0.0000 </r>
       <r>   14.9487    0.0000 </r>
      </set>
      <set comment="kpoint 11">
       <r>   -8.1602    1.0000 </r>
       <r>   -7.8963    1.0000 </r>
       <r>   -7.3280    1.0000 </r>
       <r>   -3.8017    1.0000 </r>
       <r>   -3.7658    1.0000 </r>
       <r>   -3.0875    1.0000 </r>
       <r>   -2.9540    1.0000 </r>
       <r>   -2.0145    1.0000 </r>
       <r>   -1.3118    1.0000 </r>
       <r>   -0.3500    1.0000 </r>
       <r>   -0.2906    1.0000 </r>
       <r>    0.6407    1.0000 </r>
       <r>    0.6924    1.0000 </r>
       <r>    0.9560    1.0000 </r>
       <r>    1.6833    1.0000 </r>
       <r>    2.1340    1.0000 </r>
       <r>    2.5442    1.0000 </r>
       <r>    2.5731    1.0000 </r>
       <r>    2.7872    1.0000 </r>
       <r>    3.1370    1.0000 </r>
       <r>    3.4195    1.0000 </r>
       <r>    3.9454    1.0000 </r>
       <r>    4.2351    1.0000 </r>
       <r>    4.5938    1.0000 </r>
       <r>    4.8651    1.0000 </r>
       <r>    5.1639    1.0000 </r>
       <r>    5.2954    1.0000 </r>
       <r>    5.8324    1.0000 </r>
       <r>    5.9505    1.0000 </r>
       <r>    6.2078    1.0000 </r>
       <r>    6.6190    1.0000 </r>
       <r>    7.0733    1.0000 </r>
       <r>   10.5700    0.0000 </r>
       <r>   11.0040    0.0000 </r>
       <r>   11.2502    0.0000 </r>
       <r>   11.2896    0.0000 </r>
       <r>   11.7211    0.0000 </r>
       <r>   12.2219    0.0000 </r>
       <r>   12.6145    0.0000 </r>
       <r>   12.6304    0.0000 </r>
       <r>   13.4533    0.0000 </r>
       <r>   13.8051    0.0000 </r>
       <r>   14.1944    0.0000 </r>
       <r>   14.5383    0.0000 </r>
      </set>
      <set comment="kpoint 12">
       <r>   -8.1347    1.0000 </r>
       <r>   -7.8728    1.0000 </r>
       <r>   -7.3255    1.0000 </r>
       <r>   -3.7333    1.0000 </r>
       <r>   -3.6807    1.0000 </r>
       <r>   -3.1102    1.0000 </r>
       <r>   -2.8701    1.0000 </r>
       <r>   -2.0324    1.0000 </r>
       <r>   -1.6465    1.0000 </r>
       <r>   -0.6575    1.0000 </r>
       <r>   -0.5538    1.0000 </r>
       <r>    0.2367    1.0000 </r>
       <r>    0.4941    1.0000 </r>
       <r>    0.7547    1.0000 </r>
       <r>    1.7391    1.0000 </r>
       <r>    1.8437    1.0000 </r>
       <r>    2.4098    1.0000 </r>
       <r>    3.1693    1.0000 </r>
       <r>    3.2706    1.0000 </r>
       <r>    3.3567    1.0000 </r>
       <r>    3.6404    1.0000 </r>
       <r>    4.3527    1.0000 </r>
       <r>    4.5493    1.0000 </r>
       <r>    4.7554    1.0000 </r>
       <r>    5.2501    1.0000 </r>
       <r>    5.4564    1.0000 </r>
       <r>    5.8406    1.0000 </r>
       <r>    5.9795    1.0000 </r>
       <r>    6.0777    1.0000 </r>
       <r>    6.3485    1.0000 </r>
       <r>    7.1319    1.0000 </r>
       <r>    7.2152    1.0000 </r>
       <r>    9.6984    0.0000 </r>
       <r>   10.0071    0.0000 </r>
       <r>   10.6314    0.0000 </r>
       <r>   10.9093    0.0000 </r>
       <r>   11.4492    0.0000 </r>
       <r>   11.6589    0.0000 </r>
       <r>   12.1205    0.0000 </r>
       <r>   12.1744    0.0000 </r>
       <r>   13.0005    0.0000 </r>
       <r>   13.5162    0.0000 </r>
       <r>   13.5824    0.0000 </r>
       <r>   13.8906    0.0000 </r>
      </set>
      <set comment="kpoint 13">
       <r>   -9.6862    1.0000 </r>
       <r>   -8.6243    1.0000 </r>
       <r>   -7.8308    1.0000 </r>
       <r>   -5.7231    1.0000 </r>
       <r>   -5.3227    1.0000 </r>
       <r>   -4.2129    1.0000 </r>
       <r>   -3.6977    1.0000 </r>
       <r>   -2.2226    1.0000 </r>
       <r>   -1.1232    1.0000 </r>
       <r>   -0.3385    1.0000 </r>
       <r>    0.1443    1.0000 </r>
       <r>    1.1422    1.0000 </r>
       <r>    1.2849    1.0000 </r>
       <r>    1.9056    1.0000 </r>
       <r>    2.9406    1.0000 </r>
       <r>    2.9480    1.0000 </r>
       <r>    3.8405    1.0000 </r>
       <r>    4.2586    1.0000 </r>
       <r>    4.6763    1.0000 </r>
       <r>    5.0205    1.0000 </r>
       <r>    5.0630    1.0000 </r>
       <r>    5.5286    1.0000 </r>
       <r>    5.5530    1.0000 </r>
       <r>    5.8837    1.0000 </r>
       <r>    6.0579    1.0000 </r>
       <r>    6.4324    1.0000 </r>
       <r>    6.4330    1.0000 </r>
       <r>    6.4760    1.0000 </r>
       <r>    6.9278    1.0000 </r>
       <r>    7.1136    1.0000 </r>
       <r>    8.0113    1.0000 </r>
       <r>    8.7013    1.0000 </r>
       <r>    9.5602    0.0000 </r>
       <r>   10.6274    0.0000 </r>
       <r>   11.0180    0.0000 </r>
       <r>   11.6170    0.0000 </r>
       <r>   11.8430    0.0000 </r>
       <r>   12.5902    0.0000 </r>
       <r>   12.8186    0.0000 </r>
       <r>   13.4060    0.0000 </r>
       <r>   13.8464    0.0000 </r>
       <r>   14.5690    0.0000 </r>
       <r>   14.6983    0.0000 </r>
       <r>   15.2801    0.0000 </r>
      </set>
      <set comment="kpoint 14">
       <r>   -9.5851    1.0000 </r>
       <r>   -8.5840    1.0000 </r>
       <r>   -7.8503    1.0000 </r>
       <r>   -5.9357    1.0000 </r>
       <r>   -5.4741    1.0000 </r>
       <r>   -4.3849    1.0000 </r>
       <r>   -3.7449    1.0000 </r>
       <r>   -2.6510    1.0000 </r>
       <r>   -0.5259    1.0000 </r>
       <r>    0.0676    1.0000 </r>
       <r>    0.6599    1.0000 </r>
       <r>    1.4226    1.0000 </r>
       <r>    1.7725    1.0000 </r>
       <r>    2.4514    1.0000 </r>
       <r>    2.8988    1.0000 </r>
       <r>    3.0233    1.0000 </r>
       <r>    3.3097    1.0000 </r>
       <r>    4.0157    1.0000 </r>
       <r>    4.3132    1.0000 </r>
       <r>    4.8867    1.0000 </r>
       <r>    5.0513    1.0000 </r>
       <r>    5.2055    1.0000 </r>
       <r>    5.4121    1.0000 </r>
       <r>    5.5516    1.0000 </r>
       <r>    5.8246    1.0000 </r>
       <r>    5.8290    1.0000 </r>
       <r>    6.3606    1.0000 </r>
       <r>    6.5650    1.0000 </r>
       <r>    6.8724    1.0000 </r>
       <r>    7.0113    1.0000 </r>
       <r>    7.3826    1.0000 </r>
       <r>    8.5532    1.0000 </r>
       <r>   10.0103    0.0000 </r>
       <r>   10.8971    0.0000 </r>
       <r>   11.4599    0.0000 </r>
       <r>   11.9477    0.0000 </r>
       <r>   12.3496    0.0000 </r>
       <r>   12.8764    0.0000 </r>
       <r>   13.1577    0.0000 </r>
       <r>   13.6245    0.0000 </r>
       <r>   13.8822    0.0000 </r>
       <r>   14.0428    0.0000 </r>
       <r>   14.7356    0.0000 </r>
       <r>   15.3056    0.0000 </r>
      </set>
      <set comment="kpoint 15">
       <r>   -9.4630    1.0000 </r>
       <r>   -8.5626    1.0000 </r>
       <r>   -7.8724    1.0000 </r>
       <r>   -6.1771    1.0000 </r>
       <r>   -5.5484    1.0000 </r>
       <r>   -4.5001    1.0000 </r>
       <r>   -3.7336    1.0000 </r>
       <r>   -3.1584    1.0000 </r>
       <r>    0.1750    1.0000 </r>
       <r>    0.8833    1.0000 </r>
       <r>    1.2620    1.0000 </r>
       <r>    1.7462    1.0000 </r>
       <r>    1.8749    1.0000 </r>
       <r>    2.4994    1.0000 </r>
       <r>    2.9810    1.0000 </r>
       <r>    3.1097    1.0000 </r>
       <r>    3.1664    1.0000 </r>
       <r>    3.7942    1.0000 </r>
       <r>    4.3571    1.0000 </r>
       <r>    4.4566    1.0000 </r>
       <r>    4.5682    1.0000 </r>
       <r>    4.8686    1.0000 </r>
       <r>    5.0867    1.0000 </r>
       <r>    5.3038    1.0000 </r>
       <r>    5.5334    1.0000 </r>
       <r>    5.7473    1.0000 </r>
       <r>    5.8646    1.0000 </r>
       <r>    6.3004    1.0000 </r>
       <r>    6.8241    1.0000 </r>
       <r>    6.9697    1.0000 </r>
       <r>    7.3659    1.0000 </r>
       <r>    8.4026    1.0000 </r>
       <r>   10.6500    0.0000 </r>
       <r>   11.2562    0.0000 </r>
       <r>   11.6928    0.0000 </r>
       <r>   12.2287    0.0000 </r>
       <r>   12.4740    0.0000 </r>
       <r>   12.9957    0.0000 </r>
       <r>   13.5539    0.0000 </r>
       <r>   13.7328    0.0000 </r>
       <r>   13.8750    0.0000 </r>
       <r>   14.0973    0.0000 </r>
       <r>   14.7089    0.0000 </r>
       <r>   15.0874    0.0000 </r>
      </set>
      <set comment="kpoint 16">
       <r>   -9.4302    1.0000 </r>
       <r>   -8.4246    1.0000 </r>
       <r>   -7.7018    1.0000 </r>
       <r>   -5.4076    1.0000 </r>
       <r>   -5.0485    1.0000 </r>
       <r>   -4.0089    1.0000 </r>
       <r>   -3.4399    1.0000 </r>
       <r>   -2.0706    1.0000 </r>
       <r>   -0.8497    1.0000 </r>
       <r>   -0.1987    1.0000 </r>
       <r>    0.4215    1.0000 </r>
       <r>    1.3586    1.0000 </r>
       <r>    1.4487    1.0000 </r>
       <r>    1.7022    1.0000 </r>
       <r>    2.1463    1.0000 </r>
       <r>    2.8841    1.0000 </r>
       <r>    3.2670    1.0000 </r>
       <r>    3.6984    1.0000 </r>
       <r>    4.0178    1.0000 </r>
       <r>    4.1095    1.0000 </r>
       <r>    4.6187    1.0000 </r>
       <r>    4.6785    1.0000 </r>
       <r>    4.7898    1.0000 </r>
       <r>    5.1141    1.0000 </r>
       <r>    5.4482    1.0000 </r>
       <r>    5.7550    1.0000 </r>
       <r>    5.9611    1.0000 </r>
       <r>    6.3741    1.0000 </r>
       <r>    6.6496    1.0000 </r>
       <r>    7.1049    1.0000 </r>
       <r>    7.5166    1.0000 </r>
       <r>    7.8029    1.0000 </r>
       <r>   10.6344    0.0000 </r>
       <r>   11.2384    0.0000 </r>
       <r>   12.0839    0.0000 </r>
       <r>   12.5797    0.0000 </r>
       <r>   12.7137    0.0000 </r>
       <r>   13.1266    0.0000 </r>
       <r>   13.3240    0.0000 </r>
       <r>   13.4864    0.0000 </r>
       <r>   13.7447    0.0000 </r>
       <r>   14.1561    0.0000 </r>
       <r>   14.5681    0.0000 </r>
       <r>   14.9630    0.0000 </r>
      </set>
      <set comment="kpoint 17">
       <r>   -9.3370    1.0000 </r>
       <r>   -8.3922    1.0000 </r>
       <r>   -7.7180    1.0000 </r>
       <r>   -5.6182    1.0000 </r>
       <r>   -5.1654    1.0000 </r>
       <r>   -4.1365    1.0000 </r>
       <r>   -3.4763    1.0000 </r>
       <r>   -2.4435    1.0000 </r>
       <r>   -0.3942    1.0000 </r>
       <r>    0.1430    1.0000 </r>
       <r>    0.8529    1.0000 </r>
       <r>    1.5245    1.0000 </r>
       <r>    1.6291    1.0000 </r>
       <r>    1.9937    1.0000 </r>
       <r>    2.5851    1.0000 </r>
       <r>    2.9896    1.0000 </r>
       <r>    3.1386    1.0000 </r>
       <r>    3.4055    1.0000 </r>
       <r>    3.8150    1.0000 </r>
       <r>    3.8424    1.0000 </r>
       <r>    4.2983    1.0000 </r>
       <r>    4.5939    1.0000 </r>
       <r>    4.7739    1.0000 </r>
       <r>    5.0380    1.0000 </r>
       <r>    5.4298    1.0000 </r>
       <r>    5.5452    1.0000 </r>
       <r>    5.7877    1.0000 </r>
       <r>    6.2396    1.0000 </r>
       <r>    6.4749    1.0000 </r>
       <r>    7.0360    1.0000 </r>
       <r>    7.3467    1.0000 </r>
       <r>    7.8175    1.0000 </r>
       <r>   10.9860    0.0000 </r>
       <r>   11.6020    0.0000 </r>
       <r>   12.1241    0.0000 </r>
       <r>   12.3874    0.0000 </r>
       <r>   12.6809    0.0000 </r>
       <r>   13.0306    0.0000 </r>
       <r>   13.1899    0.0000 </r>
       <r>   13.7407    0.0000 </r>
       <r>   14.0130    0.0000 </r>
       <r>   14.3246    0.0000 </r>
       <r>   14.5938    0.0000 </r>
       <r>   14.9974    0.0000 </r>
      </set>
      <set comment="kpoint 18">
       <r>   -9.2259    1.0000 </r>
       <r>   -8.3763    1.0000 </r>
       <r>   -7.7353    1.0000 </r>
       <r>   -5.8495    1.0000 </r>
       <r>   -5.2217    1.0000 </r>
       <r>   -4.2294    1.0000 </r>
       <r>   -3.4448    1.0000 </r>
       <r>   -2.9053    1.0000 </r>
       <r>    0.1177    1.0000 </r>
       <r>    0.7293    1.0000 </r>
       <r>    1.2543    1.0000 </r>
       <r>    1.7188    1.0000 </r>
       <r>    1.8985    1.0000 </r>
       <r>    2.2280    1.0000 </r>
       <r>    2.3878    1.0000 </r>
       <r>    2.8157    1.0000 </r>
       <r>    3.0295    1.0000 </r>
       <r>    3.5784    1.0000 </r>
       <r>    3.7034    1.0000 </r>
       <r>    3.9616    1.0000 </r>
       <r>    4.1306    1.0000 </r>
       <r>    4.6194    1.0000 </r>
       <r>    4.6607    1.0000 </r>
       <r>    4.7846    1.0000 </r>
       <r>    5.0534    1.0000 </r>
       <r>    5.5169    1.0000 </r>
       <r>    5.5990    1.0000 </r>
       <r>    5.9476    1.0000 </r>
       <r>    6.0419    1.0000 </r>
       <r>    7.0875    1.0000 </r>
       <r>    7.3463    1.0000 </r>
       <r>    7.5522    1.0000 </r>
       <r>   11.5261    0.0000 </r>
       <r>   12.0432    0.0000 </r>
       <r>   12.4039    0.0000 </r>
       <r>   12.6823    0.0000 </r>
       <r>   12.8289    0.0000 </r>
       <r>   12.9747    0.0000 </r>
       <r>   13.1812    0.0000 </r>
       <r>   13.8653    0.0000 </r>
       <r>   14.0331    0.0000 </r>
       <r>   14.2601    0.0000 </r>
       <r>   14.4719    0.0000 </r>
       <r>   14.5184    0.0000 </r>
      </set>
      <set comment="kpoint 19">
       <r>   -8.7643    1.0000 </r>
       <r>   -8.0010    1.0000 </r>
       <r>   -7.4529    1.0000 </r>
       <r>   -4.5501    1.0000 </r>
       <r>   -4.3218    1.0000 </r>
       <r>   -3.6496    1.0000 </r>
       <r>   -2.7578    1.0000 </r>
       <r>   -1.9848    1.0000 </r>
       <r>   -0.5450    1.0000 </r>
       <r>   -0.0928    1.0000 </r>
       <r>    0.4700    1.0000 </r>
       <r>    0.9663    1.0000 </r>
       <r>    1.4467    1.0000 </r>
       <r>    1.5807    1.0000 </r>
       <r>    1.6796    1.0000 </r>
       <r>    2.0025    1.0000 </r>
       <r>    2.2319    1.0000 </r>
       <r>    2.8848    1.0000 </r>
       <r>    2.9837    1.0000 </r>
       <r>    3.2169    1.0000 </r>
       <r>    3.7218    1.0000 </r>
       <r>    3.7514    1.0000 </r>
       <r>    4.0068    1.0000 </r>
       <r>    4.3626    1.0000 </r>
       <r>    4.6167    1.0000 </r>
       <r>    5.2414    1.0000 </r>
       <r>    5.4680    1.0000 </r>
       <r>    5.7430    1.0000 </r>
       <r>    5.8284    1.0000 </r>
       <r>    6.5730    1.0000 </r>
       <r>    6.8099    1.0000 </r>
       <r>    7.2784    1.0000 </r>
       <r>   11.2633    0.0000 </r>
       <r>   11.5463    0.0000 </r>
       <r>   11.8858    0.0000 </r>
       <r>   12.4429    0.0000 </r>
       <r>   12.7056    0.0000 </r>
       <r>   12.9003    0.0000 </r>
       <r>   13.4427    0.0000 </r>
       <r>   13.5594    0.0000 </r>
       <r>   13.7688    0.0000 </r>
       <r>   14.1893    0.0000 </r>
       <r>   14.5523    0.0000 </r>
       <r>   15.0437    0.0000 </r>
      </set>
      <set comment="kpoint 20">
       <r>   -8.6978    1.0000 </r>
       <r>   -7.9881    1.0000 </r>
       <r>   -7.4571    1.0000 </r>
       <r>   -4.7412    1.0000 </r>
       <r>   -4.3023    1.0000 </r>
       <r>   -3.6195    1.0000 </r>
       <r>   -2.7697    1.0000 </r>
       <r>   -2.1333    1.0000 </r>
       <r>   -0.8146    1.0000 </r>
       <r>   -0.1285    1.0000 </r>
       <r>    0.6125    1.0000 </r>
       <r>    0.8313    1.0000 </r>
       <r>    1.2772    1.0000 </r>
       <r>    1.5318    1.0000 </r>
       <r>    1.8365    1.0000 </r>
       <r>    2.1616    1.0000 </r>
       <r>    2.4904    1.0000 </r>
       <r>    2.8275    1.0000 </r>
       <r>    3.0264    1.0000 </r>
       <r>    3.4267    1.0000 </r>
       <r>    3.7070    1.0000 </r>
       <r>    4.0478    1.0000 </r>
       <r>    4.1988    1.0000 </r>
       <r>    4.2994    1.0000 </r>
       <r>    4.9673    1.0000 </r>
       <r>    5.1907    1.0000 </r>
       <r>    5.4033    1.0000 </r>
       <r>    5.7229    1.0000 </r>
       <r>    6.1668    1.0000 </r>
       <r>    6.7145    1.0000 </r>
       <r>    7.1162    1.0000 </r>
       <r>    7.2825    1.0000 </r>
       <r>   10.6434    0.0000 </r>
       <r>   11.2333    0.0000 </r>
       <r>   11.4495    0.0000 </r>
       <r>   11.7307    0.0000 </r>
       <r>   12.2166    0.0000 </r>
       <r>   12.7544    0.0000 </r>
       <r>   12.9374    0.0000 </r>
       <r>   13.3952    0.0000 </r>
       <r>   13.9162    0.0000 </r>
       <r>   14.2012    0.0000 </r>
       <r>   14.3924    0.0000 </r>
       <r>   14.5644    0.0000 </r>
      </set>
      <set comment="kpoint 21">
       <r>   -8.6219    1.0000 </r>
       <r>   -7.9843    1.0000 </r>
       <r>   -7.4605    1.0000 </r>
       <r>   -4.9177    1.0000 </r>
       <r>   -4.2840    1.0000 </r>
       <r>   -3.5986    1.0000 </r>
       <r>   -2.7187    1.0000 </r>
       <r>   -2.3447    1.0000 </r>
       <r>   -0.9164    1.0000 </r>
       <r>   -0.2864    1.0000 </r>
       <r>    0.4604    1.0000 </r>
       <r>    0.8400    1.0000 </r>
       <r>    1.1555    1.0000 </r>
       <r>    1.7788    1.0000 </r>
       <r>    1.9115    1.0000 </r>
       <r>    2.0664    1.0000 </r>
       <r>    2.5549    1.0000 </r>
       <r>    3.1870    1.0000 </r>
       <r>    3.3117    1.0000 </r>
       <r>    3.4616    1.0000 </r>
       <r>    3.7674    1.0000 </r>
       <r>    3.8474    1.0000 </r>
       <r>    4.3139    1.0000 </r>
       <r>    4.7288    1.0000 </r>
       <r>    5.0893    1.0000 </r>
       <r>    5.3323    1.0000 </r>
       <r>    5.5536    1.0000 </r>
       <r>    5.8991    1.0000 </r>
       <r>    6.2898    1.0000 </r>
       <r>    6.8021    1.0000 </r>
       <r>    6.9930    1.0000 </r>
       <r>    7.2538    1.0000 </r>
       <r>   10.4037    0.0000 </r>
       <r>   10.7992    0.0000 </r>
       <r>   11.0238    0.0000 </r>
       <r>   11.6771    0.0000 </r>
       <r>   11.8202    0.0000 </r>
       <r>   12.3105    0.0000 </r>
       <r>   12.5286    0.0000 </r>
       <r>   13.2218    0.0000 </r>
       <r>   13.3267    0.0000 </r>
       <r>   13.9956    0.0000 </r>
       <r>   14.3481    0.0000 </r>
       <r>   14.9030    0.0000 </r>
      </set>
      <set comment="kpoint 22">
       <r>   -8.1839    1.0000 </r>
       <r>   -7.9192    1.0000 </r>
       <r>   -7.3333    1.0000 </r>
       <r>   -3.8977    1.0000 </r>
       <r>   -3.8153    1.0000 </r>
       <r>   -3.0618    1.0000 </r>
       <r>   -3.0181    1.0000 </r>
       <r>   -1.9511    1.0000 </r>
       <r>   -0.9557    1.0000 </r>
       <r>    0.0689    1.0000 </r>
       <r>    0.0868    1.0000 </r>
       <r>    0.7494    1.0000 </r>
       <r>    1.0113    1.0000 </r>
       <r>    1.2934    1.0000 </r>
       <r>    1.8712    1.0000 </r>
       <r>    1.9289    1.0000 </r>
       <r>    2.1150    1.0000 </r>
       <r>    2.1173    1.0000 </r>
       <r>    2.5718    1.0000 </r>
       <r>    3.2854    1.0000 </r>
       <r>    3.5639    1.0000 </r>
       <r>    3.7942    1.0000 </r>
       <r>    3.8990    1.0000 </r>
       <r>    3.9249    1.0000 </r>
       <r>    4.5816    1.0000 </r>
       <r>    4.8347    1.0000 </r>
       <r>    4.9322    1.0000 </r>
       <r>    5.3533    1.0000 </r>
       <r>    5.4175    1.0000 </r>
       <r>    5.9877    1.0000 </r>
       <r>    6.4162    1.0000 </r>
       <r>    7.2390    1.0000 </r>
       <r>   11.5542    0.0000 </r>
       <r>   11.7167    0.0000 </r>
       <r>   11.7174    0.0000 </r>
       <r>   12.1810    0.0000 </r>
       <r>   12.5992    0.0000 </r>
       <r>   12.7306    0.0000 </r>
       <r>   12.8240    0.0000 </r>
       <r>   13.5999    0.0000 </r>
       <r>   13.6363    0.0000 </r>
       <r>   13.9911    0.0000 </r>
       <r>   14.7419    0.0000 </r>
       <r>   15.0977    0.0000 </r>
      </set>
      <set comment="kpoint 23">
       <r>   -8.1594    1.0000 </r>
       <r>   -7.8962    1.0000 </r>
       <r>   -7.3297    1.0000 </r>
       <r>   -3.8068    1.0000 </r>
       <r>   -3.7704    1.0000 </r>
       <r>   -3.0593    1.0000 </r>
       <r>   -2.9678    1.0000 </r>
       <r>   -1.9559    1.0000 </r>
       <r>   -1.3786    1.0000 </r>
       <r>   -0.4254    1.0000 </r>
       <r>   -0.1950    1.0000 </r>
       <r>    0.5440    1.0000 </r>
       <r>    0.6635    1.0000 </r>
       <r>    1.0360    1.0000 </r>
       <r>    1.8226    1.0000 </r>
       <r>    1.8612    1.0000 </r>
       <r>    2.4800    1.0000 </r>
       <r>    2.6017    1.0000 </r>
       <r>    2.7417    1.0000 </r>
       <r>    3.5551    1.0000 </r>
       <r>    3.6608    1.0000 </r>
       <r>    3.8046    1.0000 </r>
       <r>    4.3632    1.0000 </r>
       <r>    4.4591    1.0000 </r>
       <r>    4.8560    1.0000 </r>
       <r>    4.9068    1.0000 </r>
       <r>    5.2953    1.0000 </r>
       <r>    5.7414    1.0000 </r>
       <r>    6.0426    1.0000 </r>
       <r>    6.1548    1.0000 </r>
       <r>    6.5355    1.0000 </r>
       <r>    7.1087    1.0000 </r>
       <r>   10.6075    0.0000 </r>
       <r>   11.0087    0.0000 </r>
       <r>   11.1229    0.0000 </r>
       <r>   11.1356    0.0000 </r>
       <r>   11.7538    0.0000 </r>
       <r>   12.4045    0.0000 </r>
       <r>   13.1010    0.0000 </r>
       <r>   13.1030    0.0000 </r>
       <r>   13.4482    0.0000 </r>
       <r>   13.7240    0.0000 </r>
       <r>   14.1844    0.0000 </r>
       <r>   14.7071    0.0000 </r>
      </set>
      <set comment="kpoint 24">
       <r>   -8.1340    1.0000 </r>
       <r>   -7.8727    1.0000 </r>
       <r>   -7.3269    1.0000 </r>
       <r>   -3.7322    1.0000 </r>
       <r>   -3.6941    1.0000 </r>
       <r>   -3.0706    1.0000 </r>
       <r>   -2.8938    1.0000 </r>
       <r>   -1.9921    1.0000 </r>
       <r>   -1.7091    1.0000 </r>
       <r>   -0.6786    1.0000 </r>
       <r>   -0.4363    1.0000 </r>
       <r>    0.3361    1.0000 </r>
       <r>    0.4189    1.0000 </r>
       <r>    0.6438    1.0000 </r>
       <r>    1.5300    1.0000 </r>
       <r>    1.7050    1.0000 </r>
       <r>    2.6018    1.0000 </r>
       <r>    3.2883    1.0000 </r>
       <r>    3.2923    1.0000 </r>
       <r>    3.6779    1.0000 </r>
       <r>    3.9308    1.0000 </r>
       <r>    4.0699    1.0000 </r>
       <r>    4.5205    1.0000 </r>
       <r>    4.8910    1.0000 </r>
       <r>    4.9421    1.0000 </r>
       <r>    5.1494    1.0000 </r>
       <r>    5.7009    1.0000 </r>
       <r>    6.0927    1.0000 </r>
       <r>    6.2082    1.0000 </r>
       <r>    6.4668    1.0000 </r>
       <r>    7.1394    1.0000 </r>
       <r>    7.1966    1.0000 </r>
       <r>    9.6627    0.0000 </r>
       <r>   10.0940    0.0000 </r>
       <r>   10.6087    0.0000 </r>
       <r>   10.7135    0.0000 </r>
       <r>   10.8836    0.0000 </r>
       <r>   11.7832    0.0000 </r>
       <r>   12.1254    0.0000 </r>
       <r>   12.1736    0.0000 </r>
       <r>   13.2784    0.0000 </r>
       <r>   13.7487    0.0000 </r>
       <r>   14.5025    0.0000 </r>
       <r>   14.8458    0.0000 </r>
      </set>
     </set>
    </set>
   </array>
  </eigenvalues>
  <separator name="orbital magnetization" >
   <v name="MAGDIPOLOUT">      0.00000000      0.00000000      0.00000000</v>
  </separator>
  <dos>
   <i name="efermi">      9.13382761 </i>
   <total>
    <array>
     <dimension dim="1">gridpoints</dimension>
     <dimension dim="2">spin</dimension>
     <field>energy</field>
     <field>total</field>
     <field>integrated</field>
     <set>
      <set comment="spin 1">
       <r>   -10.9428     0.0000     0.0000 </r>
       <r>   -10.8512     0.0000     0.0000 </r>
       <r>   -10.7595     0.0000     0.0000 </r>
       <r>   -10.6679     0.0000     0.0000 </r>
       <r>   -10.5762     0.0000     0.0000 </r>
       <r>   -10.4845     0.0000     0.0000 </r>
       <r>   -10.3929     0.0000     0.0000 </r>
       <r>   -10.3012     0.0000     0.0000 </r>
       <r>   -10.2095     0.0000     0.0000 </r>
       <r>   -10.1179     0.0000     0.0000 </r>
       <r>   -10.0262     0.0000     0.0000 </r>
       <r>    -9.9346     0.0002     0.0000 </r>
       <r>    -9.8429     0.0138     0.0013 </r>
       <r>    -9.7512     0.1793     0.0177 </r>
       <r>    -9.6596     0.6962     0.0815 </r>
       <r>    -9.5679     1.2103     0.1925 </r>
       <r>    -9.4763     1.5086     0.3307 </r>
       <r>    -9.3846     2.2544     0.5374 </r>
       <r>    -9.2929     2.5711     0.7731 </r>
       <r>    -9.2013     1.7344     0.9320 </r>
       <r>    -9.1096     0.6520     0.9918 </r>
       <r>    -9.0180     0.0870     0.9998 </r>
       <r>    -8.9263     0.0267     1.0022 </r>
       <r>    -8.8346     0.3868     1.0377 </r>
       <r>    -8.7430     1.8436     1.2067 </r>
       <r>    -8.6513     3.3908     1.5175 </r>
       <r>    -8.5596     3.3818     1.8274 </r>
       <r>    -8.4680     2.5175     2.0582 </r>
       <r>    -8.3763     3.3251     2.3630 </r>
       <r>    -8.2847     2.8545     2.6246 </r>
       <r>    -8.1930     1.6166     2.7728 </r>
       <r>    -8.1013     2.0821     2.9637 </r>
       <r>    -8.0097     3.2538     3.2619 </r>
       <r>    -7.9180     5.4142     3.7582 </r>
       <r>    -7.8264     5.1419     4.2295 </r>
       <r>    -7.7347     4.3866     4.6316 </r>
       <r>    -7.6430     3.2157     4.9263 </r>
       <r>    -7.5514     1.4974     5.0636 </r>
       <r>    -7.4597     3.1227     5.3498 </r>
       <r>    -7.3681     3.8278     5.7007 </r>
       <r>    -7.2764     2.4017     5.9208 </r>
       <r>    -7.1847     0.7883     5.9931 </r>
       <r>    -7.0931     0.0741     5.9999 </r>
       <r>    -7.0014     0.0015     6.0000 </r>
       <r>    -6.9097     0.0000     6.0000 </r>
       <r>    -6.8181     0.0000     6.0000 </r>
       <r>    -6.7264     0.0000     6.0000 </r>
       <r>    -6.6348     0.0000     6.0000 </r>
       <r>    -6.5431     0.0000     6.0000 </r>
       <r>    -6.4514     0.0000     6.0000 </r>
       <r>    -6.3598     0.0023     6.0002 </r>
       <r>    -6.2681     0.0503     6.0048 </r>
       <r>    -6.1765     0.2690     6.0295 </r>
       <r>    -6.0848     0.4149     6.0675 </r>
       <r>    -5.9931     0.3809     6.1024 </r>
       <r>    -5.9015     0.8868     6.1837 </r>
       <r>    -5.8098     1.5121     6.3223 </r>
       <r>    -5.7182     1.4049     6.4511 </r>
       <r>    -5.6265     1.9624     6.6310 </r>
       <r>    -5.5348     2.7410     6.8822 </r>
       <r>    -5.4432     2.2648     7.0898 </r>
       <r>    -5.3515     2.0752     7.2800 </r>
       <r>    -5.2598     2.6842     7.5261 </r>
       <r>    -5.1682     2.5790     7.7625 </r>
       <r>    -5.0765     1.7110     7.9193 </r>
       <r>    -4.9849     0.9231     8.0039 </r>
       <r>    -4.8932     0.9574     8.0917 </r>
       <r>    -4.8015     1.1222     8.1945 </r>
       <r>    -4.7099     1.6656     8.3472 </r>
       <r>    -4.6182     1.7295     8.5057 </r>
       <r>    -4.5266     1.4034     8.6343 </r>
       <r>    -4.4349     2.1995     8.8360 </r>
       <r>    -4.3432     4.1383     9.2153 </r>
       <r>    -4.2516     4.3341     9.6125 </r>
       <r>    -4.1599     3.0745     9.8944 </r>
       <r>    -4.0682     2.5032    10.1238 </r>
       <r>    -3.9766     1.6464    10.2747 </r>
       <r>    -3.8849     1.5511    10.4169 </r>
       <r>    -3.7933     2.9545    10.6877 </r>
       <r>    -3.7016     5.1485    11.1596 </r>
       <r>    -3.6099     5.7404    11.6858 </r>
       <r>    -3.5183     3.7763    12.0319 </r>
       <r>    -3.4266     3.0371    12.3103 </r>
       <r>    -3.3350     2.7354    12.5610 </r>
       <r>    -3.2433     1.1163    12.6634 </r>
       <r>    -3.1516     0.8689    12.7430 </r>
       <r>    -3.0600     2.2437    12.9487 </r>
       <r>    -2.9683     2.8726    13.2120 </r>
       <r>    -2.8767     2.3928    13.4313 </r>
       <r>    -2.7850     2.6557    13.6747 </r>
       <r>    -2.6933     3.8732    14.0297 </r>
       <r>    -2.6017     3.0482    14.3091 </r>
       <r>    -2.5100     1.5404    14.4503 </r>
       <r>    -2.4183     1.9036    14.6248 </r>
       <r>    -2.3267     2.1253    14.8196 </r>
       <r>    -2.2350     1.6674    14.9725 </r>
       <r>    -2.1434     2.3395    15.1869 </r>
       <r>    -2.0517     3.3678    15.4956 </r>
       <r>    -1.9600     3.3229    15.8002 </r>
       <r>    -1.8684     1.8393    15.9688 </r>
       <r>    -1.7767     0.4173    16.0070 </r>
       <r>    -1.6851     0.3441    16.0386 </r>
       <r>    -1.5934     0.3635    16.0719 </r>
       <r>    -1.5017     0.1553    16.0861 </r>
       <r>    -1.4101     0.3425    16.1175 </r>
       <r>    -1.3184     0.7792    16.1889 </r>
       <r>    -1.2268     0.5954    16.2435 </r>
       <r>    -1.1351     0.4002    16.2802 </r>
       <r>    -1.0434     0.5192    16.3278 </r>
       <r>    -0.9518     0.9423    16.4142 </r>
       <r>    -0.8601     2.5586    16.6487 </r>
       <r>    -0.7684     3.3362    16.9545 </r>
       <r>    -0.6768     2.1437    17.1510 </r>
       <r>    -0.5851     1.9255    17.3275 </r>
       <r>    -0.4935     2.6257    17.5681 </r>
       <r>    -0.4018     3.5004    17.8890 </r>
       <r>    -0.3101     4.2684    18.2802 </r>
       <r>    -0.2185     4.6059    18.7024 </r>
       <r>    -0.1268     5.1476    19.1743 </r>
       <r>    -0.0352     3.3466    19.4810 </r>
       <r>     0.0565     2.1305    19.6763 </r>
       <r>     0.1482     2.8241    19.9352 </r>
       <r>     0.2398     2.2769    20.1439 </r>
       <r>     0.3315     1.1427    20.2486 </r>
       <r>     0.4231     1.9800    20.4301 </r>
       <r>     0.5148     3.1003    20.7143 </r>
       <r>     0.6065     3.7077    21.0541 </r>
       <r>     0.6981     5.3959    21.5487 </r>
       <r>     0.7898     5.1939    22.0248 </r>
       <r>     0.8815     5.5230    22.5310 </r>
       <r>     0.9731     5.4489    23.0305 </r>
       <r>     1.0648     3.6924    23.3689 </r>
       <r>     1.1564     3.1160    23.6545 </r>
       <r>     1.2481     3.5507    23.9800 </r>
       <r>     1.3398     4.1979    24.3648 </r>
       <r>     1.4314     4.9759    24.8209 </r>
       <r>     1.5231     6.5371    25.4201 </r>
       <r>     1.6147     6.0534    25.9750 </r>
       <r>     1.7064     5.7660    26.5035 </r>
       <r>     1.7981     6.5231    27.1014 </r>
       <r>     1.8897     7.5015    27.7890 </r>
       <r>     1.9814     6.9040    28.4218 </r>
       <r>     2.0731     5.6388    28.9387 </r>
       <r>     2.1647     4.8589    29.3841 </r>
       <r>     2.2564     4.7022    29.8151 </r>
       <r>     2.3480     3.9759    30.1795 </r>
       <r>     2.4397     4.7417    30.6141 </r>
       <r>     2.5314     6.5424    31.2138 </r>
       <r>     2.6230     6.2931    31.7907 </r>
       <r>     2.7147     4.5440    32.2072 </r>
       <r>     2.8063     4.1101    32.5839 </r>
       <r>     2.8980     4.9064    33.0336 </r>
       <r>     2.9897     6.9298    33.6688 </r>
       <r>     3.0813     7.7788    34.3818 </r>
       <r>     3.1730     7.2379    35.0453 </r>
       <r>     3.2646     7.7299    35.7538 </r>
       <r>     3.3563     7.3605    36.4285 </r>
       <r>     3.4480     6.0431    36.9824 </r>
       <r>     3.5396     5.7501    37.5095 </r>
       <r>     3.6313     6.0295    38.0621 </r>
       <r>     3.7230     6.7876    38.6843 </r>
       <r>     3.8146     7.1222    39.3371 </r>
       <r>     3.9063     5.9803    39.8853 </r>
       <r>     3.9979     6.4830    40.4795 </r>
       <r>     4.0896     7.1932    41.1389 </r>
       <r>     4.1813     5.9415    41.6835 </r>
       <r>     4.2729     6.7069    42.2982 </r>
       <r>     4.3646     7.4775    42.9836 </r>
       <r>     4.4562     5.5342    43.4909 </r>
       <r>     4.5479     5.0809    43.9566 </r>
       <r>     4.6396     7.4786    44.6421 </r>
       <r>     4.7312     8.3308    45.4057 </r>
       <r>     4.8229     7.7372    46.1149 </r>
       <r>     4.9145     6.9578    46.7527 </r>
       <r>     5.0062     7.5927    47.4486 </r>
       <r>     5.0979     7.6787    48.1525 </r>
       <r>     5.1895     7.2827    48.8200 </r>
       <r>     5.2812     7.0810    49.4691 </r>
       <r>     5.3729     7.0370    50.1141 </r>
       <r>     5.4645     8.4210    50.8860 </r>
       <r>     5.5562     8.7316    51.6863 </r>
       <r>     5.6478     7.0612    52.3336 </r>
       <r>     5.7395     6.8005    52.9569 </r>
       <r>     5.8312     9.0508    53.7865 </r>
       <r>     5.9228     7.9512    54.5153 </r>
       <r>     6.0145     6.7560    55.1346 </r>
       <r>     6.1061     6.0209    55.6865 </r>
       <r>     6.1978     5.1841    56.1617 </r>
       <r>     6.2895     4.8213    56.6036 </r>
       <r>     6.3811     5.5292    57.1104 </r>
       <r>     6.4728     5.9977    57.6601 </r>
       <r>     6.5644     4.8705    58.1066 </r>
       <r>     6.6561     3.8322    58.4579 </r>
       <r>     6.7478     3.3452    58.7645 </r>
       <r>     6.8394     3.6823    59.1020 </r>
       <r>     6.9311     4.5019    59.5146 </r>
       <r>     7.0228     5.9115    60.0565 </r>
       <r>     7.1144     7.5921    60.7524 </r>
       <r>     7.2061     6.4937    61.3476 </r>
       <r>     7.2977     5.8451    61.8834 </r>
       <r>     7.3894     5.7625    62.4116 </r>
       <r>     7.4811     3.8822    62.7674 </r>
       <r>     7.5727     2.3552    62.9833 </r>
       <r>     7.6644     1.0800    63.0823 </r>
       <r>     7.7560     1.2190    63.1941 </r>
       <r>     7.8477     2.5589    63.4286 </r>
       <r>     7.9394     1.6239    63.5775 </r>
       <r>     8.0310     0.6281    63.6350 </r>
       <r>     8.1227     0.2973    63.6623 </r>
       <r>     8.2144     0.0489    63.6668 </r>
       <r>     8.3060     0.0658    63.6728 </r>
       <r>     8.3977     0.3516    63.7050 </r>
       <r>     8.4893     0.6812    63.7675 </r>
       <r>     8.5810     0.9882    63.8581 </r>
       <r>     8.6727     0.8472    63.9357 </r>
       <r>     8.7643     0.5213    63.9835 </r>
       <r>     8.8560     0.1660    63.9987 </r>
       <r>     8.9476     0.0139    64.0000 </r>
       <r>     9.0393     0.0003    64.0000 </r>
       <r>     9.1310     0.0000    64.0000 </r>
       <r>     9.2226     0.0000    64.0000 </r>
       <r>     9.3143     0.0003    64.0000 </r>
       <r>     9.4059     0.0150    64.0014 </r>
       <r>     9.4976     0.1745    64.0174 </r>
       <r>     9.5893     0.5227    64.0653 </r>
       <r>     9.6809     0.6174    64.1219 </r>
       <r>     9.7726     0.3939    64.1580 </r>
       <r>     9.8643     0.1230    64.1693 </r>
       <r>     9.9559     0.3981    64.2058 </r>
       <r>    10.0476     1.1482    64.3110 </r>
       <r>    10.1392     0.9169    64.3951 </r>
       <r>    10.2309     0.2262    64.4158 </r>
       <r>    10.3226     0.1286    64.4276 </r>
       <r>    10.4142     0.5107    64.4744 </r>
       <r>    10.5059     1.2498    64.5889 </r>
       <r>    10.5975     3.2682    64.8885 </r>
       <r>    10.6892     4.5132    65.3022 </r>
       <r>    10.7809     3.1118    65.5874 </r>
       <r>    10.8725     2.4383    65.8109 </r>
       <r>    10.9642     3.7622    66.1558 </r>
       <r>    11.0558     4.8018    66.5959 </r>
       <r>    11.1475     4.4226    67.0013 </r>
       <r>    11.2392     5.0866    67.4675 </r>
       <r>    11.3308     4.6557    67.8943 </r>
       <r>    11.4225     3.0257    68.1716 </r>
       <r>    11.5142     3.3846    68.4819 </r>
       <r>    11.6058     4.4680    68.8914 </r>
       <r>    11.6975     6.2132    69.4609 </r>
       <r>    11.7891     6.2686    70.0355 </r>
       <r>    11.8808     4.2059    70.4210 </r>
       <r>    11.9725     3.1013    70.7053 </r>
       <r>    12.0641     3.7584    71.0498 </r>
       <r>    12.1558     4.9978    71.5079 </r>
       <r>    12.2474     5.7737    72.0371 </r>
       <r>    12.3391     5.6622    72.5561 </r>
       <r>    12.4308     5.5111    73.0613 </r>
       <r>    12.5224     5.5790    73.5726 </r>
       <r>    12.6141     5.6484    74.0904 </r>
       <r>    12.7057     6.0575    74.6456 </r>
       <r>    12.7974     6.2008    75.2140 </r>
       <r>    12.8891     5.5410    75.7219 </r>
       <r>    12.9807     5.6985    76.2442 </r>
       <r>    13.0724     6.0449    76.7983 </r>
       <r>    13.1641     6.2446    77.3707 </r>
       <r>    13.2557     5.0217    77.8310 </r>
       <r>    13.3474     5.1524    78.3033 </r>
       <r>    13.4390     6.5835    78.9067 </r>
       <r>    13.5307     5.4627    79.4074 </r>
       <r>    13.6224     5.0062    79.8663 </r>
       <r>    13.7140     6.1405    80.4292 </r>
       <r>    13.8057     7.6061    81.1263 </r>
       <r>    13.8973     5.9728    81.6738 </r>
       <r>    13.9890     4.4651    82.0831 </r>
       <r>    14.0807     5.1927    82.5591 </r>
       <r>    14.1723     6.4509    83.1504 </r>
       <r>    14.2640     6.7344    83.7676 </r>
       <r>    14.3557     5.4652    84.2686 </r>
       <r>    14.4473     4.5502    84.6857 </r>
       <r>    14.5390     5.9310    85.2293 </r>
       <r>    14.6306     7.1534    85.8850 </r>
       <r>    14.7223     4.4939    86.2969 </r>
       <r>    14.8140     2.5932    86.5346 </r>
       <r>    14.9056     2.9264    86.8029 </r>
       <r>    14.9973     4.4336    87.2092 </r>
       <r>    15.0889     4.6150    87.6323 </r>
       <r>    15.1806     2.3466    87.8474 </r>
       <r>    15.2723     0.7841    87.9192 </r>
       <r>    15.3639     0.6414    87.9780 </r>
       <r>    15.4556     0.2214    87.9983 </r>
       <r>    15.5472     0.0181    88.0000 </r>
       <r>    15.6389     0.0003    88.0000 </r>
       <r>    15.7306     0.0000    88.0000 </r>
       <r>    15.8222     0.0000    88.0000 </r>
       <r>    15.9139     0.0000    88.0000 </r>
       <r>    16.0056     0.0000    88.0000 </r>
       <r>    16.0972     0.0000    88.0000 </r>
       <r>    16.1889     0.0000    88.0000 </r>
       <r>    16.2805     0.0000    88.0000 </r>
       <r>    16.3722     0.0000    88.0000 </r>
       <r>    16.4639     0.0000    88.0000 </r>
       <r>    16.5555     0.0000    88.0000 </r>
      </set>
     </set>
    </array>
   </total>
  </dos>
 </calculation>
 <structure name="finalpos" >
  <crystal>
   <varray name="basis" >
    <v>       5.39734048       0.00000000       0.00371563 </v>
    <v>       0.00000000       3.10822529       0.00000000 </v>
    <v>       0.00689148       0.00000000      10.25394799 </v>
   </varray>
   <i name="volume">    172.02169193 </i>
   <varray name="rec_basis" >
    <v>       0.18527652       0.00000000      -0.00012452 </v>
    <v>       0.00000000       0.32172700       0.00000000 </v>
    <v>      -0.00006714       0.00000000       0.09752346 </v>
   </varray>
  </crystal>
  <varray name="positions" >
   <v>       0.83847003       0.50000000       0.00041120 </v>
   <v>       0.34068418       0.00000000       0.46946150 </v>
   <v>       0.16382935       0.50000000       0.24810041 </v>
   <v>       0.15975354       0.50000000       0.75509446 </v>
   <v>       0.67484871       0.00000000       0.75754238 </v>
   <v>       0.33231790       0.00000000       0.00103214 </v>
   <v>       0.82713858       0.50000000       0.49994692 </v>
   <v>       0.66518093       0.00000000       0.24829004 </v>
   <v>       0.31220631       0.00000000       0.18905384 </v>
   <v>       0.83333975       0.50000000       0.69944735 </v>
   <v>       0.17035612       0.50000000       0.43470128 </v>
   <v>       0.66076694       0.00000000       0.43812177 </v>
   <v>       0.68317239       0.00000000       0.94173485 </v>
   <v>       0.84793174       0.50000000       0.17710211 </v>
   <v>       0.33263437       0.00000000       0.70811935 </v>
   <v>       0.15736916       0.50000000       0.93184041 </v>
  </varray>
 </structure>
</modeling>
