<?xml version="1.0" encoding="ISO-8859-1"?>
<modeling>
 <generator>
  <i name="program" type="string">vasp </i>
  <i name="version" type="string">5.3.5  </i>
  <i name="subversion" type="string">31Mar14 (build Jun 20 2014 13:15:13) complex                          parallel </i>
  <i name="platform" type="string">LinuxIFC </i>
  <i name="date" type="string">2025 11 21 </i>
  <i name="time" type="string">10:22:45 </i>
 </generator>
 <incar>
  <i type="string" name="PREC">accurate</i>
  <i type="int" name="IALGO">    68</i>
  <i type="logical" name="ADDGRID"> T  </i>
  <i type="int" name="NELM">   100</i>
  <i type="int" name="NELMIN">     4</i>
  <i type="int" name="IBRION">     2</i>
  <i name="EDIFF">      0.00000100</i>
  <i name="EDIFFG">     -0.02000000</i>
  <i type="int" name="NSW">    30</i>
  <i type="int" name="ISIF">     3</i>
  <i name="ENCUT">    500.00000000</i>
  <i type="logical" name="LREAL"> F  </i>
  <i type="int" name="ISMEAR">     1</i>
  <i name="SIGMA">      0.30000000</i>
  <i type="logical" name="LWAVE"> F  </i>
  <i type="logical" name="LCHARG"> F  </i>
  <i type="int" name="NELM">   100</i>
 </incar>
 <kpoints>
  <generation param="Auto">
   <i name="subdivisionlength">     70.00000000 </i>
   <v type="int" name="divisions">      28       28        7 </v>
   <v name="usershift">      0.00000000       0.00000000       0.00000000 </v>
   <v name="genvec1">      0.03571429       0.00000000       0.00000000 </v>
   <v name="genvec2">      0.00000000       0.03571429       0.00000000 </v>
   <v name="genvec3">      0.00000000       0.00000000       0.14285714 </v>
   <v name="shift">      0.00000000       0.00000000       0.00000000 </v>
  </generation>
  <varray name="kpointlist" >
   <v>       0.00000000       0.00000000       0.00000000 </v>
   <v>       0.03571429       0.00000000       0.00000000 </v>
   <v>       0.07142857       0.00000000       0.00000000 </v>
   <v>       0.10714286       0.00000000       0.00000000 </v>
   <v>       0.14285714       0.00000000       0.00000000 </v>
   <v>       0.17857143       0.00000000       0.00000000 </v>
   <v>       0.21428571       0.00000000       0.00000000 </v>
   <v>       0.25000000       0.00000000       0.00000000 </v>
   <v>       0.28571429       0.00000000       0.00000000 </v>
   <v>       0.32142857       0.00000000       0.00000000 </v>
   <v>       0.35714286       0.00000000       0.00000000 </v>
   <v>       0.39285714       0.00000000       0.00000000 </v>
   <v>       0.42857143       0.00000000       0.00000000 </v>
   <v>       0.46428571       0.00000000       0.00000000 </v>
   <v>       0.50000000       0.00000000       0.00000000 </v>
   <v>       0.00000000       0.03571429       0.00000000 </v>
   <v>       0.03571429       0.03571429       0.00000000 </v>
   <v>       0.07142857       0.03571429       0.00000000 </v>
   <v>       0.10714286       0.03571429       0.00000000 </v>
   <v>       0.14285714       0.03571429       0.00000000 </v>
   <v>       0.17857143       0.03571429       0.00000000 </v>
   <v>       0.21428571       0.03571429       0.00000000 </v>
   <v>       0.25000000       0.03571429       0.00000000 </v>
   <v>       0.28571429       0.03571429       0.00000000 </v>
   <v>       0.32142857       0.03571429       0.00000000 </v>
   <v>       0.35714286       0.03571429       0.00000000 </v>
   <v>       0.39285714       0.03571429       0.00000000 </v>
   <v>       0.42857143       0.03571429       0.00000000 </v>
   <v>       0.46428571       0.03571429       0.00000000 </v>
   <v>       0.50000000       0.03571429       0.00000000 </v>
   <v>      -0.46428571       0.03571429       0.00000000 </v>
   <v>      -0.42857143       0.03571429       0.00000000 </v>
   <v>      -0.39285714       0.03571429       0.00000000 </v>
   <v>      -0.35714286       0.03571429       0.00000000 </v>
   <v>      -0.32142857       0.03571429       0.00000000 </v>
   <v>      -0.28571429       0.03571429       0.00000000 </v>
   <v>      -0.25000000       0.03571429       0.00000000 </v>
   <v>      -0.21428571       0.03571429       0.00000000 </v>
   <v>      -0.17857143       0.03571429       0.00000000 </v>
   <v>      -0.14285714       0.03571429       0.00000000 </v>
   <v>      -0.10714286       0.03571429       0.00000000 </v>
   <v>      -0.07142857       0.03571429       0.00000000 </v>
   <v>       0.00000000       0.07142857       0.00000000 </v>
   <v>       0.03571429       0.07142857       0.00000000 </v>
   <v>       0.07142857       0.07142857       0.00000000 </v>
   <v>       0.10714286       0.07142857       0.00000000 </v>
   <v>       0.14285714       0.07142857       0.00000000 </v>
   <v>       0.17857143       0.07142857       0.00000000 </v>
   <v>       0.21428571       0.07142857       0.00000000 </v>
   <v>       0.25000000       0.07142857       0.00000000 </v>
   <v>       0.28571429       0.07142857       0.00000000 </v>
   <v>       0.32142857       0.07142857       0.00000000 </v>
   <v>       0.35714286       0.07142857       0.00000000 </v>
   <v>       0.39285714       0.07142857       0.00000000 </v>
   <v>       0.42857143       0.07142857       0.00000000 </v>
   <v>       0.46428571       0.07142857       0.00000000 </v>
   <v>       0.50000000       0.07142857       0.00000000 </v>
   <v>      -0.46428571       0.07142857       0.00000000 </v>
   <v>      -0.42857143       0.07142857       0.00000000 </v>
   <v>      -0.39285714       0.07142857       0.00000000 </v>
   <v>      -0.35714286       0.07142857       0.00000000 </v>
   <v>      -0.32142857       0.07142857       0.00000000 </v>
   <v>      -0.28571429       0.07142857       0.00000000 </v>
   <v>      -0.25000000       0.07142857       0.00000000 </v>
   <v>      -0.21428571       0.07142857       0.00000000 </v>
   <v>      -0.17857143       0.07142857       0.00000000 </v>
   <v>      -0.14285714       0.07142857       0.00000000 </v>
   <v>       0.00000000       0.10714286       0.00000000 </v>
   <v>       0.03571429       0.10714286       0.00000000 </v>
   <v>       0.07142857       0.10714286       0.00000000 </v>
   <v>       0.10714286       0.10714286       0.00000000 </v>
   <v>       0.14285714       0.10714286       0.00000000 </v>
   <v>       0.17857143       0.10714286       0.00000000 </v>
   <v>       0.21428571       0.10714286       0.00000000 </v>
   <v>       0.25000000       0.10714286       0.00000000 </v>
   <v>       0.28571429       0.10714286       0.00000000 </v>
   <v>       0.32142857       0.10714286       0.00000000 </v>
   <v>       0.35714286       0.10714286       0.00000000 </v>
   <v>       0.39285714       0.10714286       0.00000000 </v>
   <v>       0.42857143       0.10714286       0.00000000 </v>
   <v>       0.46428571       0.10714286       0.00000000 </v>
   <v>       0.50000000       0.10714286       0.00000000 </v>
   <v>      -0.46428571       0.10714286       0.00000000 </v>
   <v>      -0.42857143       0.10714286       0.00000000 </v>
   <v>      -0.39285714       0.10714286       0.00000000 </v>
   <v>      -0.35714286       0.10714286       0.00000000 </v>
   <v>      -0.32142857       0.10714286       0.00000000 </v>
   <v>      -0.28571429       0.10714286       0.00000000 </v>
   <v>      -0.25000000       0.10714286       0.00000000 </v>
   <v>      -0.21428571       0.10714286       0.00000000 </v>
   <v>       0.00000000       0.14285714       0.00000000 </v>
   <v>       0.03571429       0.14285714       0.00000000 </v>
   <v>       0.07142857       0.14285714       0.00000000 </v>
   <v>       0.10714286       0.14285714       0.00000000 </v>
   <v>       0.14285714       0.14285714       0.00000000 </v>
   <v>       0.17857143       0.14285714       0.00000000 </v>
   <v>       0.21428571       0.14285714       0.00000000 </v>
   <v>       0.25000000       0.14285714       0.00000000 </v>
   <v>       0.28571429       0.14285714       0.00000000 </v>
   <v>       0.32142857       0.14285714       0.00000000 </v>
   <v>       0.35714286       0.14285714       0.00000000 </v>
   <v>       0.39285714       0.14285714       0.00000000 </v>
   <v>       0.42857143       0.14285714       0.00000000 </v>
   <v>       0.46428571       0.14285714       0.00000000 </v>
   <v>       0.50000000       0.14285714       0.00000000 </v>
   <v>      -0.46428571       0.14285714       0.00000000 </v>
   <v>      -0.42857143       0.14285714       0.00000000 </v>
   <v>      -0.39285714       0.14285714       0.00000000 </v>
   <v>      -0.35714286       0.14285714       0.00000000 </v>
   <v>      -0.32142857       0.14285714       0.00000000 </v>
   <v>      -0.28571429       0.14285714       0.00000000 </v>
   <v>       0.00000000       0.17857143       0.00000000 </v>
   <v>       0.03571429       0.17857143       0.00000000 </v>
   <v>       0.07142857       0.17857143       0.00000000 </v>
   <v>       0.10714286       0.17857143       0.00000000 </v>
   <v>       0.14285714       0.17857143       0.00000000 </v>
   <v>       0.17857143       0.17857143       0.00000000 </v>
   <v>       0.21428571       0.17857143       0.00000000 </v>
   <v>       0.25000000       0.17857143       0.00000000 </v>
   <v>       0.28571429       0.17857143       0.00000000 </v>
   <v>       0.32142857       0.17857143       0.00000000 </v>
   <v>       0.35714286       0.17857143       0.00000000 </v>
   <v>       0.39285714       0.17857143       0.00000000 </v>
   <v>       0.42857143       0.17857143       0.00000000 </v>
   <v>       0.46428571       0.17857143       0.00000000 </v>
   <v>       0.50000000       0.17857143       0.00000000 </v>
   <v>      -0.46428571       0.17857143       0.00000000 </v>
   <v>      -0.42857143       0.17857143       0.00000000 </v>
   <v>      -0.39285714       0.17857143       0.00000000 </v>
   <v>      -0.35714286       0.17857143       0.00000000 </v>
   <v>       0.00000000       0.21428571       0.00000000 </v>
   <v>       0.03571429       0.21428571       0.00000000 </v>
   <v>       0.07142857       0.21428571       0.00000000 </v>
   <v>       0.10714286       0.21428571       0.00000000 </v>
   <v>       0.14285714       0.21428571       0.00000000 </v>
   <v>       0.17857143       0.21428571       0.00000000 </v>
   <v>       0.21428571       0.21428571       0.00000000 </v>
   <v>       0.25000000       0.21428571       0.00000000 </v>
   <v>       0.28571429       0.21428571       0.00000000 </v>
   <v>       0.32142857       0.21428571       0.00000000 </v>
   <v>       0.35714286       0.21428571       0.00000000 </v>
   <v>       0.39285714       0.21428571       0.00000000 </v>
   <v>       0.42857143       0.21428571       0.00000000 </v>
   <v>       0.46428571       0.21428571       0.00000000 </v>
   <v>       0.50000000       0.21428571       0.00000000 </v>
   <v>      -0.46428571       0.21428571       0.00000000 </v>
   <v>      -0.42857143       0.21428571       0.00000000 </v>
   <v>       0.00000000       0.25000000       0.00000000 </v>
   <v>       0.03571429       0.25000000       0.00000000 </v>
   <v>       0.07142857       0.25000000       0.00000000 </v>
   <v>       0.10714286       0.25000000       0.00000000 </v>
   <v>       0.14285714       0.25000000       0.00000000 </v>
   <v>       0.17857143       0.25000000       0.00000000 </v>
   <v>       0.21428571       0.25000000       0.00000000 </v>
   <v>       0.25000000       0.25000000       0.00000000 </v>
   <v>       0.28571429       0.25000000       0.00000000 </v>
   <v>       0.32142857       0.25000000       0.00000000 </v>
   <v>       0.35714286       0.25000000       0.00000000 </v>
   <v>       0.39285714       0.25000000       0.00000000 </v>
   <v>       0.42857143       0.25000000       0.00000000 </v>
   <v>       0.46428571       0.25000000       0.00000000 </v>
   <v>       0.50000000       0.25000000       0.00000000 </v>
   <v>       0.00000000       0.28571429       0.00000000 </v>
   <v>       0.03571429       0.28571429       0.00000000 </v>
   <v>       0.07142857       0.28571429       0.00000000 </v>
   <v>       0.10714286       0.28571429       0.00000000 </v>
   <v>       0.14285714       0.28571429       0.00000000 </v>
   <v>       0.17857143       0.28571429       0.00000000 </v>
   <v>       0.21428571       0.28571429       0.00000000 </v>
   <v>       0.25000000       0.28571429       0.00000000 </v>
   <v>       0.28571429       0.28571429       0.00000000 </v>
   <v>       0.32142857       0.28571429       0.00000000 </v>
   <v>       0.35714286       0.28571429       0.00000000 </v>
   <v>       0.39285714       0.28571429       0.00000000 </v>
   <v>       0.42857143       0.28571429       0.00000000 </v>
   <v>       0.00000000       0.32142857       0.00000000 </v>
   <v>       0.03571429       0.32142857       0.00000000 </v>
   <v>       0.07142857       0.32142857       0.00000000 </v>
   <v>       0.10714286       0.32142857       0.00000000 </v>
   <v>       0.14285714       0.32142857       0.00000000 </v>
   <v>       0.17857143       0.32142857       0.00000000 </v>
   <v>       0.21428571       0.32142857       0.00000000 </v>
   <v>       0.25000000       0.32142857       0.00000000 </v>
   <v>       0.28571429       0.32142857       0.00000000 </v>
   <v>       0.32142857       0.32142857       0.00000000 </v>
   <v>       0.35714286       0.32142857       0.00000000 </v>
   <v>       0.00000000       0.35714286       0.00000000 </v>
   <v>       0.03571429       0.35714286       0.00000000 </v>
   <v>       0.07142857       0.35714286       0.00000000 </v>
   <v>       0.10714286       0.35714286       0.00000000 </v>
   <v>       0.14285714       0.35714286       0.00000000 </v>
   <v>       0.17857143       0.35714286       0.00000000 </v>
   <v>       0.21428571       0.35714286       0.00000000 </v>
   <v>       0.25000000       0.35714286       0.00000000 </v>
   <v>       0.28571429       0.35714286       0.00000000 </v>
   <v>       0.00000000       0.39285714       0.00000000 </v>
   <v>       0.03571429       0.39285714       0.00000000 </v>
   <v>       0.07142857       0.39285714       0.00000000 </v>
   <v>       0.10714286       0.39285714       0.00000000 </v>
   <v>       0.14285714       0.39285714       0.00000000 </v>
   <v>       0.17857143       0.39285714       0.00000000 </v>
   <v>       0.21428571       0.39285714       0.00000000 </v>
   <v>       0.00000000       0.42857143       0.00000000 </v>
   <v>       0.03571429       0.42857143       0.00000000 </v>
   <v>       0.07142857       0.42857143       0.00000000 </v>
   <v>       0.10714286       0.42857143       0.00000000 </v>
   <v>       0.14285714       0.42857143       0.00000000 </v>
   <v>       0.00000000       0.46428571       0.00000000 </v>
   <v>       0.03571429       0.46428571       0.00000000 </v>
   <v>       0.07142857       0.46428571       0.00000000 </v>
   <v>       0.00000000       0.50000000       0.00000000 </v>
   <v>       0.00000000       0.00000000       0.14285714 </v>
   <v>       0.03571429       0.00000000       0.14285714 </v>
   <v>       0.07142857       0.00000000       0.14285714 </v>
   <v>       0.10714286       0.00000000       0.14285714 </v>
   <v>       0.14285714       0.00000000       0.14285714 </v>
   <v>       0.17857143       0.00000000       0.14285714 </v>
   <v>       0.21428571       0.00000000       0.14285714 </v>
   <v>       0.25000000       0.00000000       0.14285714 </v>
   <v>       0.28571429       0.00000000       0.14285714 </v>
   <v>       0.32142857       0.00000000       0.14285714 </v>
   <v>       0.35714286       0.00000000       0.14285714 </v>
   <v>       0.39285714       0.00000000       0.14285714 </v>
   <v>       0.42857143       0.00000000       0.14285714 </v>
   <v>       0.46428571       0.00000000       0.14285714 </v>
   <v>       0.50000000       0.00000000       0.14285714 </v>
   <v>      -0.46428571       0.00000000       0.14285714 </v>
   <v>      -0.42857143       0.00000000       0.14285714 </v>
   <v>      -0.39285714       0.00000000       0.14285714 </v>
   <v>      -0.35714286       0.00000000       0.14285714 </v>
   <v>      -0.32142857       0.00000000       0.14285714 </v>
   <v>      -0.28571429       0.00000000       0.14285714 </v>
   <v>      -0.25000000       0.00000000       0.14285714 </v>
   <v>      -0.21428571       0.00000000       0.14285714 </v>
   <v>      -0.17857143       0.00000000       0.14285714 </v>
   <v>      -0.10714286       0.00000000       0.14285714 </v>
   <v>      -0.07142857       0.00000000       0.14285714 </v>
   <v>      -0.03571429       0.00000000       0.14285714 </v>
   <v>       0.00000000       0.03571429       0.14285714 </v>
   <v>       0.03571429       0.03571429       0.14285714 </v>
   <v>       0.07142857       0.03571429       0.14285714 </v>
   <v>       0.10714286       0.03571429       0.14285714 </v>
   <v>       0.14285714       0.03571429       0.14285714 </v>
   <v>       0.17857143       0.03571429       0.14285714 </v>
   <v>       0.21428571       0.03571429       0.14285714 </v>
   <v>       0.25000000       0.03571429       0.14285714 </v>
   <v>       0.28571429       0.03571429       0.14285714 </v>
   <v>       0.32142857       0.03571429       0.14285714 </v>
   <v>       0.35714286       0.03571429       0.14285714 </v>
   <v>       0.39285714       0.03571429       0.14285714 </v>
   <v>       0.42857143       0.03571429       0.14285714 </v>
   <v>       0.46428571       0.03571429       0.14285714 </v>
   <v>       0.50000000       0.03571429       0.14285714 </v>
   <v>      -0.46428571       0.03571429       0.14285714 </v>
   <v>      -0.42857143       0.03571429       0.14285714 </v>
   <v>      -0.39285714       0.03571429       0.14285714 </v>
   <v>      -0.35714286       0.03571429       0.14285714 </v>
   <v>      -0.32142857       0.03571429       0.14285714 </v>
   <v>      -0.28571429       0.03571429       0.14285714 </v>
   <v>      -0.25000000       0.03571429       0.14285714 </v>
   <v>      -0.21428571       0.03571429       0.14285714 </v>
   <v>      -0.14285714       0.03571429       0.14285714 </v>
   <v>      -0.10714286       0.03571429       0.14285714 </v>
   <v>      -0.07142857       0.03571429       0.14285714 </v>
   <v>       0.00000000       0.07142857       0.14285714 </v>
   <v>       0.03571429       0.07142857       0.14285714 </v>
   <v>       0.07142857       0.07142857       0.14285714 </v>
   <v>       0.10714286       0.07142857       0.14285714 </v>
   <v>       0.14285714       0.07142857       0.14285714 </v>
   <v>       0.17857143       0.07142857       0.14285714 </v>
   <v>       0.21428571       0.07142857       0.14285714 </v>
   <v>       0.25000000       0.07142857       0.14285714 </v>
   <v>       0.28571429       0.07142857       0.14285714 </v>
   <v>       0.32142857       0.07142857       0.14285714 </v>
   <v>       0.35714286       0.07142857       0.14285714 </v>
   <v>       0.39285714       0.07142857       0.14285714 </v>
   <v>       0.42857143       0.07142857       0.14285714 </v>
   <v>       0.46428571       0.07142857       0.14285714 </v>
   <v>       0.50000000       0.07142857       0.14285714 </v>
   <v>      -0.46428571       0.07142857       0.14285714 </v>
   <v>      -0.42857143       0.07142857       0.14285714 </v>
   <v>      -0.39285714       0.07142857       0.14285714 </v>
   <v>      -0.35714286       0.07142857       0.14285714 </v>
   <v>      -0.32142857       0.07142857       0.14285714 </v>
   <v>      -0.28571429       0.07142857       0.14285714 </v>
   <v>      -0.25000000       0.07142857       0.14285714 </v>
   <v>      -0.17857143       0.07142857       0.14285714 </v>
   <v>      -0.14285714       0.07142857       0.14285714 </v>
   <v>      -0.10714286       0.07142857       0.14285714 </v>
   <v>       0.00000000       0.10714286       0.14285714 </v>
   <v>       0.03571429       0.10714286       0.14285714 </v>
   <v>       0.07142857       0.10714286       0.14285714 </v>
   <v>       0.10714286       0.10714286       0.14285714 </v>
   <v>       0.14285714       0.10714286       0.14285714 </v>
   <v>       0.17857143       0.10714286       0.14285714 </v>
   <v>       0.21428571       0.10714286       0.14285714 </v>
   <v>       0.25000000       0.10714286       0.14285714 </v>
   <v>       0.28571429       0.10714286       0.14285714 </v>
   <v>       0.32142857       0.10714286       0.14285714 </v>
   <v>       0.35714286       0.10714286       0.14285714 </v>
   <v>       0.39285714       0.10714286       0.14285714 </v>
   <v>       0.42857143       0.10714286       0.14285714 </v>
   <v>       0.46428571       0.10714286       0.14285714 </v>
   <v>       0.50000000       0.10714286       0.14285714 </v>
   <v>      -0.46428571       0.10714286       0.14285714 </v>
   <v>      -0.42857143       0.10714286       0.14285714 </v>
   <v>      -0.39285714       0.10714286       0.14285714 </v>
   <v>      -0.35714286       0.10714286       0.14285714 </v>
   <v>      -0.32142857       0.10714286       0.14285714 </v>
   <v>      -0.28571429       0.10714286       0.14285714 </v>
   <v>      -0.21428571       0.10714286       0.14285714 </v>
   <v>      -0.17857143       0.10714286       0.14285714 </v>
   <v>      -0.14285714       0.10714286       0.14285714 </v>
   <v>       0.00000000       0.14285714       0.14285714 </v>
   <v>       0.03571429       0.14285714       0.14285714 </v>
   <v>       0.07142857       0.14285714       0.14285714 </v>
   <v>       0.10714286       0.14285714       0.14285714 </v>
   <v>       0.14285714       0.14285714       0.14285714 </v>
   <v>       0.17857143       0.14285714       0.14285714 </v>
   <v>       0.21428571       0.14285714       0.14285714 </v>
   <v>       0.25000000       0.14285714       0.14285714 </v>
   <v>       0.28571429       0.14285714       0.14285714 </v>
   <v>       0.32142857       0.14285714       0.14285714 </v>
   <v>       0.35714286       0.14285714       0.14285714 </v>
   <v>       0.39285714       0.14285714       0.14285714 </v>
   <v>       0.42857143       0.14285714       0.14285714 </v>
   <v>       0.46428571       0.14285714       0.14285714 </v>
   <v>       0.50000000       0.14285714       0.14285714 </v>
   <v>      -0.46428571       0.14285714       0.14285714 </v>
   <v>      -0.42857143       0.14285714       0.14285714 </v>
   <v>      -0.39285714       0.14285714       0.14285714 </v>
   <v>      -0.35714286       0.14285714       0.14285714 </v>
   <v>      -0.32142857       0.14285714       0.14285714 </v>
   <v>      -0.25000000       0.14285714       0.14285714 </v>
   <v>      -0.21428571       0.14285714       0.14285714 </v>
   <v>      -0.17857143       0.14285714       0.14285714 </v>
   <v>       0.00000000       0.17857143       0.14285714 </v>
   <v>       0.03571429       0.17857143       0.14285714 </v>
   <v>       0.07142857       0.17857143       0.14285714 </v>
   <v>       0.10714286       0.17857143       0.14285714 </v>
   <v>       0.14285714       0.17857143       0.14285714 </v>
   <v>       0.17857143       0.17857143       0.14285714 </v>
   <v>       0.21428571       0.17857143       0.14285714 </v>
   <v>       0.25000000       0.17857143       0.14285714 </v>
   <v>       0.28571429       0.17857143       0.14285714 </v>
   <v>       0.32142857       0.17857143       0.14285714 </v>
   <v>       0.35714286       0.17857143       0.14285714 </v>
   <v>       0.39285714       0.17857143       0.14285714 </v>
   <v>       0.42857143       0.17857143       0.14285714 </v>
   <v>       0.46428571       0.17857143       0.14285714 </v>
   <v>       0.50000000       0.17857143       0.14285714 </v>
   <v>      -0.46428571       0.17857143       0.14285714 </v>
   <v>      -0.42857143       0.17857143       0.14285714 </v>
   <v>      -0.39285714       0.17857143       0.14285714 </v>
   <v>      -0.35714286       0.17857143       0.14285714 </v>
   <v>      -0.28571429       0.17857143       0.14285714 </v>
   <v>      -0.25000000       0.17857143       0.14285714 </v>
   <v>      -0.21428571       0.17857143       0.14285714 </v>
   <v>       0.00000000       0.21428571       0.14285714 </v>
   <v>       0.03571429       0.21428571       0.14285714 </v>
   <v>       0.07142857       0.21428571       0.14285714 </v>
   <v>       0.10714286       0.21428571       0.14285714 </v>
   <v>       0.14285714       0.21428571       0.14285714 </v>
   <v>       0.17857143       0.21428571       0.14285714 </v>
   <v>       0.21428571       0.21428571       0.14285714 </v>
   <v>       0.25000000       0.21428571       0.14285714 </v>
   <v>       0.28571429       0.21428571       0.14285714 </v>
   <v>       0.32142857       0.21428571       0.14285714 </v>
   <v>       0.35714286       0.21428571       0.14285714 </v>
   <v>       0.39285714       0.21428571       0.14285714 </v>
   <v>       0.42857143       0.21428571       0.14285714 </v>
   <v>       0.46428571       0.21428571       0.14285714 </v>
   <v>       0.50000000       0.21428571       0.14285714 </v>
   <v>      -0.46428571       0.21428571       0.14285714 </v>
   <v>      -0.42857143       0.21428571       0.14285714 </v>
   <v>      -0.39285714       0.21428571       0.14285714 </v>
   <v>      -0.32142857       0.21428571       0.14285714 </v>
   <v>      -0.28571429       0.21428571       0.14285714 </v>
   <v>      -0.25000000       0.21428571       0.14285714 </v>
   <v>       0.00000000       0.25000000       0.14285714 </v>
   <v>       0.03571429       0.25000000       0.14285714 </v>
   <v>       0.07142857       0.25000000       0.14285714 </v>
   <v>       0.10714286       0.25000000       0.14285714 </v>
   <v>       0.14285714       0.25000000       0.14285714 </v>
   <v>       0.17857143       0.25000000       0.14285714 </v>
   <v>       0.21428571       0.25000000       0.14285714 </v>
   <v>       0.25000000       0.25000000       0.14285714 </v>
   <v>       0.28571429       0.25000000       0.14285714 </v>
   <v>       0.32142857       0.25000000       0.14285714 </v>
   <v>       0.35714286       0.25000000       0.14285714 </v>
   <v>       0.39285714       0.25000000       0.14285714 </v>
   <v>       0.42857143       0.25000000       0.14285714 </v>
   <v>       0.46428571       0.25000000       0.14285714 </v>
   <v>       0.50000000       0.25000000       0.14285714 </v>
   <v>      -0.46428571       0.25000000       0.14285714 </v>
   <v>      -0.42857143       0.25000000       0.14285714 </v>
   <v>      -0.35714286       0.25000000       0.14285714 </v>
   <v>      -0.32142857       0.25000000       0.14285714 </v>
   <v>      -0.28571429       0.25000000       0.14285714 </v>
   <v>       0.00000000       0.28571429       0.14285714 </v>
   <v>       0.03571429       0.28571429       0.14285714 </v>
   <v>       0.07142857       0.28571429       0.14285714 </v>
   <v>       0.10714286       0.28571429       0.14285714 </v>
   <v>       0.14285714       0.28571429       0.14285714 </v>
   <v>       0.17857143       0.28571429       0.14285714 </v>
   <v>       0.21428571       0.28571429       0.14285714 </v>
   <v>       0.25000000       0.28571429       0.14285714 </v>
   <v>       0.28571429       0.28571429       0.14285714 </v>
   <v>       0.32142857       0.28571429       0.14285714 </v>
   <v>       0.35714286       0.28571429       0.14285714 </v>
   <v>       0.39285714       0.28571429       0.14285714 </v>
   <v>       0.42857143       0.28571429       0.14285714 </v>
   <v>       0.46428571       0.28571429       0.14285714 </v>
   <v>       0.50000000       0.28571429       0.14285714 </v>
   <v>      -0.46428571       0.28571429       0.14285714 </v>
   <v>      -0.39285714       0.28571429       0.14285714 </v>
   <v>      -0.35714286       0.28571429       0.14285714 </v>
   <v>      -0.32142857       0.28571429       0.14285714 </v>
   <v>       0.00000000       0.32142857       0.14285714 </v>
   <v>       0.03571429       0.32142857       0.14285714 </v>
   <v>       0.07142857       0.32142857       0.14285714 </v>
   <v>       0.10714286       0.32142857       0.14285714 </v>
   <v>       0.14285714       0.32142857       0.14285714 </v>
   <v>       0.17857143       0.32142857       0.14285714 </v>
   <v>       0.21428571       0.32142857       0.14285714 </v>
   <v>       0.25000000       0.32142857       0.14285714 </v>
   <v>       0.28571429       0.32142857       0.14285714 </v>
   <v>       0.32142857       0.32142857       0.14285714 </v>
   <v>       0.35714286       0.32142857       0.14285714 </v>
   <v>       0.39285714       0.32142857       0.14285714 </v>
   <v>       0.42857143       0.32142857       0.14285714 </v>
   <v>       0.46428571       0.32142857       0.14285714 </v>
   <v>       0.50000000       0.32142857       0.14285714 </v>
   <v>      -0.42857143       0.32142857       0.14285714 </v>
   <v>      -0.39285714       0.32142857       0.14285714 </v>
   <v>      -0.35714286       0.32142857       0.14285714 </v>
   <v>       0.00000000       0.35714286       0.14285714 </v>
   <v>       0.03571429       0.35714286       0.14285714 </v>
   <v>       0.07142857       0.35714286       0.14285714 </v>
   <v>       0.10714286       0.35714286       0.14285714 </v>
   <v>       0.14285714       0.35714286       0.14285714 </v>
   <v>       0.17857143       0.35714286       0.14285714 </v>
   <v>       0.21428571       0.35714286       0.14285714 </v>
   <v>       0.25000000       0.35714286       0.14285714 </v>
   <v>       0.28571429       0.35714286       0.14285714 </v>
   <v>       0.32142857       0.35714286       0.14285714 </v>
   <v>       0.35714286       0.35714286       0.14285714 </v>
   <v>       0.39285714       0.35714286       0.14285714 </v>
   <v>       0.42857143       0.35714286       0.14285714 </v>
   <v>       0.46428571       0.35714286       0.14285714 </v>
   <v>      -0.46428571       0.35714286       0.14285714 </v>
   <v>      -0.42857143       0.35714286       0.14285714 </v>
   <v>      -0.39285714       0.35714286       0.14285714 </v>
   <v>       0.00000000       0.39285714       0.14285714 </v>
   <v>       0.03571429       0.39285714       0.14285714 </v>
   <v>       0.07142857       0.39285714       0.14285714 </v>
   <v>       0.10714286       0.39285714       0.14285714 </v>
   <v>       0.14285714       0.39285714       0.14285714 </v>
   <v>       0.17857143       0.39285714       0.14285714 </v>
   <v>       0.21428571       0.39285714       0.14285714 </v>
   <v>       0.25000000       0.39285714       0.14285714 </v>
   <v>       0.28571429       0.39285714       0.14285714 </v>
   <v>       0.35714286       0.39285714       0.14285714 </v>
   <v>       0.39285714       0.39285714       0.14285714 </v>
   <v>       0.42857143       0.39285714       0.14285714 </v>
   <v>       0.50000000       0.39285714       0.14285714 </v>
   <v>      -0.46428571       0.39285714       0.14285714 </v>
   <v>      -0.42857143       0.39285714       0.14285714 </v>
   <v>       0.00000000       0.42857143       0.14285714 </v>
   <v>       0.03571429       0.42857143       0.14285714 </v>
   <v>       0.07142857       0.42857143       0.14285714 </v>
   <v>       0.10714286       0.42857143       0.14285714 </v>
   <v>       0.14285714       0.42857143       0.14285714 </v>
   <v>       0.17857143       0.42857143       0.14285714 </v>
   <v>       0.21428571       0.42857143       0.14285714 </v>
   <v>       0.25000000       0.42857143       0.14285714 </v>
   <v>       0.32142857       0.42857143       0.14285714 </v>
   <v>       0.35714286       0.42857143       0.14285714 </v>
   <v>       0.39285714       0.42857143       0.14285714 </v>
   <v>       0.46428571       0.42857143       0.14285714 </v>
   <v>       0.50000000       0.42857143       0.14285714 </v>
   <v>      -0.46428571       0.42857143       0.14285714 </v>
   <v>       0.00000000       0.46428571       0.14285714 </v>
   <v>       0.03571429       0.46428571       0.14285714 </v>
   <v>       0.07142857       0.46428571       0.14285714 </v>
   <v>       0.10714286       0.46428571       0.14285714 </v>
   <v>       0.14285714       0.46428571       0.14285714 </v>
   <v>       0.17857143       0.46428571       0.14285714 </v>
   <v>       0.21428571       0.46428571       0.14285714 </v>
   <v>       0.28571429       0.46428571       0.14285714 </v>
   <v>       0.32142857       0.46428571       0.14285714 </v>
   <v>       0.35714286       0.46428571       0.14285714 </v>
   <v>       0.42857143       0.46428571       0.14285714 </v>
   <v>       0.46428571       0.46428571       0.14285714 </v>
   <v>       0.50000000       0.46428571       0.14285714 </v>
   <v>       0.00000000       0.50000000       0.14285714 </v>
   <v>       0.03571429       0.50000000       0.14285714 </v>
   <v>       0.07142857       0.50000000       0.14285714 </v>
   <v>       0.10714286       0.50000000       0.14285714 </v>
   <v>       0.14285714       0.50000000       0.14285714 </v>
   <v>       0.17857143       0.50000000       0.14285714 </v>
   <v>       0.25000000       0.50000000       0.14285714 </v>
   <v>       0.28571429       0.50000000       0.14285714 </v>
   <v>       0.32142857       0.50000000       0.14285714 </v>
   <v>       0.39285714       0.50000000       0.14285714 </v>
   <v>       0.42857143       0.50000000       0.14285714 </v>
   <v>       0.46428571       0.50000000       0.14285714 </v>
   <v>       0.00000000      -0.46428571       0.14285714 </v>
   <v>       0.03571429      -0.46428571       0.14285714 </v>
   <v>       0.07142857      -0.46428571       0.14285714 </v>
   <v>       0.10714286      -0.46428571       0.14285714 </v>
   <v>       0.14285714      -0.46428571       0.14285714 </v>
   <v>       0.21428571      -0.46428571       0.14285714 </v>
   <v>       0.25000000      -0.46428571       0.14285714 </v>
   <v>       0.28571429      -0.46428571       0.14285714 </v>
   <v>       0.35714286      -0.46428571       0.14285714 </v>
   <v>       0.39285714      -0.46428571       0.14285714 </v>
   <v>       0.42857143      -0.46428571       0.14285714 </v>
   <v>       0.00000000      -0.42857143       0.14285714 </v>
   <v>       0.03571429      -0.42857143       0.14285714 </v>
   <v>       0.07142857      -0.42857143       0.14285714 </v>
   <v>       0.10714286      -0.42857143       0.14285714 </v>
   <v>       0.17857143      -0.42857143       0.14285714 </v>
   <v>       0.21428571      -0.42857143       0.14285714 </v>
   <v>       0.25000000      -0.42857143       0.14285714 </v>
   <v>       0.32142857      -0.42857143       0.14285714 </v>
   <v>       0.35714286      -0.42857143       0.14285714 </v>
   <v>       0.39285714      -0.42857143       0.14285714 </v>
   <v>       0.00000000      -0.39285714       0.14285714 </v>
   <v>       0.03571429      -0.39285714       0.14285714 </v>
   <v>       0.07142857      -0.39285714       0.14285714 </v>
   <v>       0.14285714      -0.39285714       0.14285714 </v>
   <v>       0.17857143      -0.39285714       0.14285714 </v>
   <v>       0.21428571      -0.39285714       0.14285714 </v>
   <v>       0.28571429      -0.39285714       0.14285714 </v>
   <v>       0.32142857      -0.39285714       0.14285714 </v>
   <v>       0.35714286      -0.39285714       0.14285714 </v>
   <v>       0.00000000      -0.35714286       0.14285714 </v>
   <v>       0.03571429      -0.35714286       0.14285714 </v>
   <v>       0.10714286      -0.35714286       0.14285714 </v>
   <v>       0.14285714      -0.35714286       0.14285714 </v>
   <v>       0.17857143      -0.35714286       0.14285714 </v>
   <v>       0.25000000      -0.35714286       0.14285714 </v>
   <v>       0.28571429      -0.35714286       0.14285714 </v>
   <v>       0.32142857      -0.35714286       0.14285714 </v>
   <v>       0.00000000      -0.32142857       0.14285714 </v>
   <v>       0.07142857      -0.32142857       0.14285714 </v>
   <v>       0.10714286      -0.32142857       0.14285714 </v>
   <v>       0.14285714      -0.32142857       0.14285714 </v>
   <v>       0.21428571      -0.32142857       0.14285714 </v>
   <v>       0.25000000      -0.32142857       0.14285714 </v>
   <v>       0.28571429      -0.32142857       0.14285714 </v>
   <v>       0.03571429      -0.28571429       0.14285714 </v>
   <v>       0.07142857      -0.28571429       0.14285714 </v>
   <v>       0.10714286      -0.28571429       0.14285714 </v>
   <v>       0.00000000      -0.25000000       0.14285714 </v>
   <v>       0.03571429      -0.25000000       0.14285714 </v>
   <v>       0.07142857      -0.25000000       0.14285714 </v>
   <v>       0.14285714      -0.25000000       0.14285714 </v>
   <v>       0.17857143      -0.25000000       0.14285714 </v>
   <v>       0.21428571      -0.25000000       0.14285714 </v>
   <v>       0.00000000      -0.21428571       0.14285714 </v>
   <v>       0.03571429      -0.21428571       0.14285714 </v>
   <v>       0.10714286      -0.21428571       0.14285714 </v>
   <v>       0.14285714      -0.21428571       0.14285714 </v>
   <v>       0.17857143      -0.21428571       0.14285714 </v>
   <v>       0.00000000      -0.17857143       0.14285714 </v>
   <v>       0.07142857      -0.17857143       0.14285714 </v>
   <v>       0.10714286      -0.17857143       0.14285714 </v>
   <v>       0.14285714      -0.17857143       0.14285714 </v>
   <v>       0.00000000      -0.10714286       0.14285714 </v>
   <v>       0.03571429      -0.10714286       0.14285714 </v>
   <v>       0.07142857      -0.10714286       0.14285714 </v>
   <v>       0.00000000      -0.07142857       0.14285714 </v>
   <v>       0.03571429      -0.07142857       0.14285714 </v>
   <v>       0.00000000      -0.03571429       0.14285714 </v>
   <v>       0.00000000       0.00000000       0.28571429 </v>
   <v>       0.03571429       0.00000000       0.28571429 </v>
   <v>       0.07142857       0.00000000       0.28571429 </v>
   <v>       0.10714286       0.00000000       0.28571429 </v>
   <v>       0.14285714       0.00000000       0.28571429 </v>
   <v>       0.17857143       0.00000000       0.28571429 </v>
   <v>       0.21428571       0.00000000       0.28571429 </v>
   <v>       0.25000000       0.00000000       0.28571429 </v>
   <v>       0.28571429       0.00000000       0.28571429 </v>
   <v>       0.32142857       0.00000000       0.28571429 </v>
   <v>       0.35714286       0.00000000       0.28571429 </v>
   <v>       0.39285714       0.00000000       0.28571429 </v>
   <v>       0.42857143       0.00000000       0.28571429 </v>
   <v>       0.46428571       0.00000000       0.28571429 </v>
   <v>       0.50000000       0.00000000       0.28571429 </v>
   <v>      -0.46428571       0.00000000       0.28571429 </v>
   <v>      -0.39285714       0.00000000       0.28571429 </v>
   <v>      -0.35714286       0.00000000       0.28571429 </v>
   <v>      -0.32142857       0.00000000       0.28571429 </v>
   <v>      -0.25000000       0.00000000       0.28571429 </v>
   <v>      -0.21428571       0.00000000       0.28571429 </v>
   <v>      -0.17857143       0.00000000       0.28571429 </v>
   <v>      -0.10714286       0.00000000       0.28571429 </v>
   <v>      -0.07142857       0.00000000       0.28571429 </v>
   <v>      -0.03571429       0.00000000       0.28571429 </v>
   <v>       0.00000000       0.03571429       0.28571429 </v>
   <v>       0.03571429       0.03571429       0.28571429 </v>
   <v>       0.07142857       0.03571429       0.28571429 </v>
   <v>       0.10714286       0.03571429       0.28571429 </v>
   <v>       0.14285714       0.03571429       0.28571429 </v>
   <v>       0.17857143       0.03571429       0.28571429 </v>
   <v>       0.21428571       0.03571429       0.28571429 </v>
   <v>       0.25000000       0.03571429       0.28571429 </v>
   <v>       0.28571429       0.03571429       0.28571429 </v>
   <v>       0.32142857       0.03571429       0.28571429 </v>
   <v>       0.35714286       0.03571429       0.28571429 </v>
   <v>       0.39285714       0.03571429       0.28571429 </v>
   <v>       0.42857143       0.03571429       0.28571429 </v>
   <v>       0.46428571       0.03571429       0.28571429 </v>
   <v>       0.50000000       0.03571429       0.28571429 </v>
   <v>      -0.42857143       0.03571429       0.28571429 </v>
   <v>      -0.39285714       0.03571429       0.28571429 </v>
   <v>      -0.35714286       0.03571429       0.28571429 </v>
   <v>      -0.28571429       0.03571429       0.28571429 </v>
   <v>      -0.25000000       0.03571429       0.28571429 </v>
   <v>      -0.21428571       0.03571429       0.28571429 </v>
   <v>      -0.14285714       0.03571429       0.28571429 </v>
   <v>      -0.10714286       0.03571429       0.28571429 </v>
   <v>      -0.07142857       0.03571429       0.28571429 </v>
   <v>       0.00000000       0.07142857       0.28571429 </v>
   <v>       0.03571429       0.07142857       0.28571429 </v>
   <v>       0.07142857       0.07142857       0.28571429 </v>
   <v>       0.10714286       0.07142857       0.28571429 </v>
   <v>       0.14285714       0.07142857       0.28571429 </v>
   <v>       0.17857143       0.07142857       0.28571429 </v>
   <v>       0.21428571       0.07142857       0.28571429 </v>
   <v>       0.25000000       0.07142857       0.28571429 </v>
   <v>       0.28571429       0.07142857       0.28571429 </v>
   <v>       0.32142857       0.07142857       0.28571429 </v>
   <v>       0.35714286       0.07142857       0.28571429 </v>
   <v>       0.39285714       0.07142857       0.28571429 </v>
   <v>       0.42857143       0.07142857       0.28571429 </v>
   <v>       0.46428571       0.07142857       0.28571429 </v>
   <v>      -0.46428571       0.07142857       0.28571429 </v>
   <v>      -0.42857143       0.07142857       0.28571429 </v>
   <v>      -0.39285714       0.07142857       0.28571429 </v>
   <v>      -0.32142857       0.07142857       0.28571429 </v>
   <v>      -0.28571429       0.07142857       0.28571429 </v>
   <v>      -0.25000000       0.07142857       0.28571429 </v>
   <v>      -0.17857143       0.07142857       0.28571429 </v>
   <v>      -0.14285714       0.07142857       0.28571429 </v>
   <v>      -0.10714286       0.07142857       0.28571429 </v>
   <v>       0.00000000       0.10714286       0.28571429 </v>
   <v>       0.03571429       0.10714286       0.28571429 </v>
   <v>       0.07142857       0.10714286       0.28571429 </v>
   <v>       0.10714286       0.10714286       0.28571429 </v>
   <v>       0.14285714       0.10714286       0.28571429 </v>
   <v>       0.17857143       0.10714286       0.28571429 </v>
   <v>       0.21428571       0.10714286       0.28571429 </v>
   <v>       0.25000000       0.10714286       0.28571429 </v>
   <v>       0.28571429       0.10714286       0.28571429 </v>
   <v>       0.32142857       0.10714286       0.28571429 </v>
   <v>       0.35714286       0.10714286       0.28571429 </v>
   <v>       0.39285714       0.10714286       0.28571429 </v>
   <v>       0.42857143       0.10714286       0.28571429 </v>
   <v>       0.50000000       0.10714286       0.28571429 </v>
   <v>      -0.46428571       0.10714286       0.28571429 </v>
   <v>      -0.42857143       0.10714286       0.28571429 </v>
   <v>      -0.35714286       0.10714286       0.28571429 </v>
   <v>      -0.32142857       0.10714286       0.28571429 </v>
   <v>      -0.28571429       0.10714286       0.28571429 </v>
   <v>      -0.21428571       0.10714286       0.28571429 </v>
   <v>      -0.17857143       0.10714286       0.28571429 </v>
   <v>      -0.14285714       0.10714286       0.28571429 </v>
   <v>       0.00000000       0.14285714       0.28571429 </v>
   <v>       0.03571429       0.14285714       0.28571429 </v>
   <v>       0.07142857       0.14285714       0.28571429 </v>
   <v>       0.10714286       0.14285714       0.28571429 </v>
   <v>       0.14285714       0.14285714       0.28571429 </v>
   <v>       0.17857143       0.14285714       0.28571429 </v>
   <v>       0.21428571       0.14285714       0.28571429 </v>
   <v>       0.25000000       0.14285714       0.28571429 </v>
   <v>       0.28571429       0.14285714       0.28571429 </v>
   <v>       0.32142857       0.14285714       0.28571429 </v>
   <v>       0.35714286       0.14285714       0.28571429 </v>
   <v>       0.39285714       0.14285714       0.28571429 </v>
   <v>       0.46428571       0.14285714       0.28571429 </v>
   <v>       0.50000000       0.14285714       0.28571429 </v>
   <v>      -0.46428571       0.14285714       0.28571429 </v>
   <v>      -0.39285714       0.14285714       0.28571429 </v>
   <v>      -0.35714286       0.14285714       0.28571429 </v>
   <v>      -0.32142857       0.14285714       0.28571429 </v>
   <v>      -0.25000000       0.14285714       0.28571429 </v>
   <v>      -0.21428571       0.14285714       0.28571429 </v>
   <v>      -0.17857143       0.14285714       0.28571429 </v>
   <v>       0.00000000       0.17857143       0.28571429 </v>
   <v>       0.03571429       0.17857143       0.28571429 </v>
   <v>       0.07142857       0.17857143       0.28571429 </v>
   <v>       0.10714286       0.17857143       0.28571429 </v>
   <v>       0.14285714       0.17857143       0.28571429 </v>
   <v>       0.17857143       0.17857143       0.28571429 </v>
   <v>       0.21428571       0.17857143       0.28571429 </v>
   <v>       0.25000000       0.17857143       0.28571429 </v>
   <v>       0.28571429       0.17857143       0.28571429 </v>
   <v>       0.32142857       0.17857143       0.28571429 </v>
   <v>       0.35714286       0.17857143       0.28571429 </v>
   <v>       0.42857143       0.17857143       0.28571429 </v>
   <v>       0.46428571       0.17857143       0.28571429 </v>
   <v>       0.50000000       0.17857143       0.28571429 </v>
   <v>      -0.42857143       0.17857143       0.28571429 </v>
   <v>      -0.39285714       0.17857143       0.28571429 </v>
   <v>      -0.35714286       0.17857143       0.28571429 </v>
   <v>      -0.28571429       0.17857143       0.28571429 </v>
   <v>      -0.25000000       0.17857143       0.28571429 </v>
   <v>      -0.21428571       0.17857143       0.28571429 </v>
   <v>       0.00000000       0.21428571       0.28571429 </v>
   <v>       0.03571429       0.21428571       0.28571429 </v>
   <v>       0.07142857       0.21428571       0.28571429 </v>
   <v>       0.10714286       0.21428571       0.28571429 </v>
   <v>       0.14285714       0.21428571       0.28571429 </v>
   <v>       0.17857143       0.21428571       0.28571429 </v>
   <v>       0.21428571       0.21428571       0.28571429 </v>
   <v>       0.25000000       0.21428571       0.28571429 </v>
   <v>       0.28571429       0.21428571       0.28571429 </v>
   <v>       0.32142857       0.21428571       0.28571429 </v>
   <v>       0.39285714       0.21428571       0.28571429 </v>
   <v>       0.42857143       0.21428571       0.28571429 </v>
   <v>       0.46428571       0.21428571       0.28571429 </v>
   <v>      -0.46428571       0.21428571       0.28571429 </v>
   <v>      -0.42857143       0.21428571       0.28571429 </v>
   <v>      -0.39285714       0.21428571       0.28571429 </v>
   <v>      -0.32142857       0.21428571       0.28571429 </v>
   <v>      -0.28571429       0.21428571       0.28571429 </v>
   <v>      -0.25000000       0.21428571       0.28571429 </v>
   <v>       0.00000000       0.25000000       0.28571429 </v>
   <v>       0.03571429       0.25000000       0.28571429 </v>
   <v>       0.07142857       0.25000000       0.28571429 </v>
   <v>       0.10714286       0.25000000       0.28571429 </v>
   <v>       0.14285714       0.25000000       0.28571429 </v>
   <v>       0.21428571       0.25000000       0.28571429 </v>
   <v>       0.25000000       0.25000000       0.28571429 </v>
   <v>       0.28571429       0.25000000       0.28571429 </v>
   <v>       0.35714286       0.25000000       0.28571429 </v>
   <v>       0.39285714       0.25000000       0.28571429 </v>
   <v>       0.42857143       0.25000000       0.28571429 </v>
   <v>       0.50000000       0.25000000       0.28571429 </v>
   <v>      -0.46428571       0.25000000       0.28571429 </v>
   <v>      -0.42857143       0.25000000       0.28571429 </v>
   <v>      -0.35714286       0.25000000       0.28571429 </v>
   <v>      -0.32142857       0.25000000       0.28571429 </v>
   <v>      -0.28571429       0.25000000       0.28571429 </v>
   <v>       0.00000000       0.28571429       0.28571429 </v>
   <v>       0.03571429       0.28571429       0.28571429 </v>
   <v>       0.07142857       0.28571429       0.28571429 </v>
   <v>       0.10714286       0.28571429       0.28571429 </v>
   <v>       0.17857143       0.28571429       0.28571429 </v>
   <v>       0.21428571       0.28571429       0.28571429 </v>
   <v>       0.25000000       0.28571429       0.28571429 </v>
   <v>       0.32142857       0.28571429       0.28571429 </v>
   <v>       0.35714286       0.28571429       0.28571429 </v>
   <v>       0.39285714       0.28571429       0.28571429 </v>
   <v>       0.46428571       0.28571429       0.28571429 </v>
   <v>       0.50000000       0.28571429       0.28571429 </v>
   <v>      -0.46428571       0.28571429       0.28571429 </v>
   <v>      -0.39285714       0.28571429       0.28571429 </v>
   <v>      -0.35714286       0.28571429       0.28571429 </v>
   <v>      -0.32142857       0.28571429       0.28571429 </v>
   <v>       0.00000000       0.32142857       0.28571429 </v>
   <v>       0.03571429       0.32142857       0.28571429 </v>
   <v>       0.07142857       0.32142857       0.28571429 </v>
   <v>       0.14285714       0.32142857       0.28571429 </v>
   <v>       0.17857143       0.32142857       0.28571429 </v>
   <v>       0.21428571       0.32142857       0.28571429 </v>
   <v>       0.28571429       0.32142857       0.28571429 </v>
   <v>       0.32142857       0.32142857       0.28571429 </v>
   <v>       0.35714286       0.32142857       0.28571429 </v>
   <v>       0.42857143       0.32142857       0.28571429 </v>
   <v>       0.46428571       0.32142857       0.28571429 </v>
   <v>       0.50000000       0.32142857       0.28571429 </v>
   <v>      -0.42857143       0.32142857       0.28571429 </v>
   <v>      -0.39285714       0.32142857       0.28571429 </v>
   <v>      -0.35714286       0.32142857       0.28571429 </v>
   <v>       0.00000000       0.35714286       0.28571429 </v>
   <v>       0.03571429       0.35714286       0.28571429 </v>
   <v>       0.10714286       0.35714286       0.28571429 </v>
   <v>       0.14285714       0.35714286       0.28571429 </v>
   <v>       0.17857143       0.35714286       0.28571429 </v>
   <v>       0.25000000       0.35714286       0.28571429 </v>
   <v>       0.28571429       0.35714286       0.28571429 </v>
   <v>       0.32142857       0.35714286       0.28571429 </v>
   <v>       0.39285714       0.35714286       0.28571429 </v>
   <v>       0.42857143       0.35714286       0.28571429 </v>
   <v>       0.46428571       0.35714286       0.28571429 </v>
   <v>      -0.46428571       0.35714286       0.28571429 </v>
   <v>      -0.42857143       0.35714286       0.28571429 </v>
   <v>      -0.39285714       0.35714286       0.28571429 </v>
   <v>       0.00000000       0.39285714       0.28571429 </v>
   <v>       0.07142857       0.39285714       0.28571429 </v>
   <v>       0.10714286       0.39285714       0.28571429 </v>
   <v>       0.14285714       0.39285714       0.28571429 </v>
   <v>       0.21428571       0.39285714       0.28571429 </v>
   <v>       0.25000000       0.39285714       0.28571429 </v>
   <v>       0.28571429       0.39285714       0.28571429 </v>
   <v>       0.35714286       0.39285714       0.28571429 </v>
   <v>       0.39285714       0.39285714       0.28571429 </v>
   <v>       0.42857143       0.39285714       0.28571429 </v>
   <v>       0.50000000       0.39285714       0.28571429 </v>
   <v>      -0.46428571       0.39285714       0.28571429 </v>
   <v>      -0.42857143       0.39285714       0.28571429 </v>
   <v>       0.03571429       0.42857143       0.28571429 </v>
   <v>       0.07142857       0.42857143       0.28571429 </v>
   <v>       0.10714286       0.42857143       0.28571429 </v>
   <v>       0.17857143       0.42857143       0.28571429 </v>
   <v>       0.21428571       0.42857143       0.28571429 </v>
   <v>       0.25000000       0.42857143       0.28571429 </v>
   <v>       0.00000000       0.46428571       0.28571429 </v>
   <v>       0.03571429       0.46428571       0.28571429 </v>
   <v>       0.07142857       0.46428571       0.28571429 </v>
   <v>       0.14285714       0.46428571       0.28571429 </v>
   <v>       0.17857143       0.46428571       0.28571429 </v>
   <v>       0.21428571       0.46428571       0.28571429 </v>
   <v>       0.28571429       0.46428571       0.28571429 </v>
   <v>       0.32142857       0.46428571       0.28571429 </v>
   <v>       0.35714286       0.46428571       0.28571429 </v>
   <v>       0.42857143       0.46428571       0.28571429 </v>
   <v>       0.46428571       0.46428571       0.28571429 </v>
   <v>       0.50000000       0.46428571       0.28571429 </v>
   <v>       0.00000000       0.50000000       0.28571429 </v>
   <v>       0.03571429       0.50000000       0.28571429 </v>
   <v>       0.10714286       0.50000000       0.28571429 </v>
   <v>       0.14285714       0.50000000       0.28571429 </v>
   <v>       0.17857143       0.50000000       0.28571429 </v>
   <v>       0.25000000       0.50000000       0.28571429 </v>
   <v>       0.28571429       0.50000000       0.28571429 </v>
   <v>       0.32142857       0.50000000       0.28571429 </v>
   <v>       0.39285714       0.50000000       0.28571429 </v>
   <v>       0.42857143       0.50000000       0.28571429 </v>
   <v>       0.46428571       0.50000000       0.28571429 </v>
   <v>       0.00000000      -0.46428571       0.28571429 </v>
   <v>       0.07142857      -0.46428571       0.28571429 </v>
   <v>       0.10714286      -0.46428571       0.28571429 </v>
   <v>       0.14285714      -0.46428571       0.28571429 </v>
   <v>       0.21428571      -0.46428571       0.28571429 </v>
   <v>       0.25000000      -0.46428571       0.28571429 </v>
   <v>       0.28571429      -0.46428571       0.28571429 </v>
   <v>       0.35714286      -0.46428571       0.28571429 </v>
   <v>       0.39285714      -0.46428571       0.28571429 </v>
   <v>       0.42857143      -0.46428571       0.28571429 </v>
   <v>       0.00000000      -0.39285714       0.28571429 </v>
   <v>       0.03571429      -0.39285714       0.28571429 </v>
   <v>       0.07142857      -0.39285714       0.28571429 </v>
   <v>       0.14285714      -0.39285714       0.28571429 </v>
   <v>       0.17857143      -0.39285714       0.28571429 </v>
   <v>       0.21428571      -0.39285714       0.28571429 </v>
   <v>       0.28571429      -0.39285714       0.28571429 </v>
   <v>       0.32142857      -0.39285714       0.28571429 </v>
   <v>       0.35714286      -0.39285714       0.28571429 </v>
   <v>       0.00000000      -0.35714286       0.28571429 </v>
   <v>       0.03571429      -0.35714286       0.28571429 </v>
   <v>       0.10714286      -0.35714286       0.28571429 </v>
   <v>       0.14285714      -0.35714286       0.28571429 </v>
   <v>       0.17857143      -0.35714286       0.28571429 </v>
   <v>       0.25000000      -0.35714286       0.28571429 </v>
   <v>       0.28571429      -0.35714286       0.28571429 </v>
   <v>       0.32142857      -0.35714286       0.28571429 </v>
   <v>       0.00000000      -0.32142857       0.28571429 </v>
   <v>       0.07142857      -0.32142857       0.28571429 </v>
   <v>       0.10714286      -0.32142857       0.28571429 </v>
   <v>       0.14285714      -0.32142857       0.28571429 </v>
   <v>       0.21428571      -0.32142857       0.28571429 </v>
   <v>       0.25000000      -0.32142857       0.28571429 </v>
   <v>       0.28571429      -0.32142857       0.28571429 </v>
   <v>       0.00000000      -0.25000000       0.28571429 </v>
   <v>       0.03571429      -0.25000000       0.28571429 </v>
   <v>       0.07142857      -0.25000000       0.28571429 </v>
   <v>       0.14285714      -0.25000000       0.28571429 </v>
   <v>       0.17857143      -0.25000000       0.28571429 </v>
   <v>       0.21428571      -0.25000000       0.28571429 </v>
   <v>       0.00000000      -0.21428571       0.28571429 </v>
   <v>       0.03571429      -0.21428571       0.28571429 </v>
   <v>       0.10714286      -0.21428571       0.28571429 </v>
   <v>       0.14285714      -0.21428571       0.28571429 </v>
   <v>       0.17857143      -0.21428571       0.28571429 </v>
   <v>       0.00000000      -0.17857143       0.28571429 </v>
   <v>       0.07142857      -0.17857143       0.28571429 </v>
   <v>       0.10714286      -0.17857143       0.28571429 </v>
   <v>       0.14285714      -0.17857143       0.28571429 </v>
   <v>       0.00000000      -0.10714286       0.28571429 </v>
   <v>       0.03571429      -0.10714286       0.28571429 </v>
   <v>       0.07142857      -0.10714286       0.28571429 </v>
   <v>       0.00000000      -0.07142857       0.28571429 </v>
   <v>       0.03571429      -0.07142857       0.28571429 </v>
   <v>       0.00000000      -0.03571429       0.28571429 </v>
   <v>       0.00000000       0.00000000       0.42857143 </v>
   <v>       0.03571429       0.00000000       0.42857143 </v>
   <v>       0.07142857       0.00000000       0.42857143 </v>
   <v>       0.10714286       0.00000000       0.42857143 </v>
   <v>       0.14285714       0.00000000       0.42857143 </v>
   <v>       0.17857143       0.00000000       0.42857143 </v>
   <v>       0.21428571       0.00000000       0.42857143 </v>
   <v>       0.25000000       0.00000000       0.42857143 </v>
   <v>       0.32142857       0.00000000       0.42857143 </v>
   <v>       0.35714286       0.00000000       0.42857143 </v>
   <v>       0.39285714       0.00000000       0.42857143 </v>
   <v>       0.46428571       0.00000000       0.42857143 </v>
   <v>       0.50000000       0.00000000       0.42857143 </v>
   <v>      -0.46428571       0.00000000       0.42857143 </v>
   <v>      -0.39285714       0.00000000       0.42857143 </v>
   <v>      -0.35714286       0.00000000       0.42857143 </v>
   <v>      -0.32142857       0.00000000       0.42857143 </v>
   <v>      -0.25000000       0.00000000       0.42857143 </v>
   <v>      -0.21428571       0.00000000       0.42857143 </v>
   <v>      -0.17857143       0.00000000       0.42857143 </v>
   <v>      -0.10714286       0.00000000       0.42857143 </v>
   <v>      -0.07142857       0.00000000       0.42857143 </v>
   <v>      -0.03571429       0.00000000       0.42857143 </v>
   <v>       0.00000000       0.03571429       0.42857143 </v>
   <v>       0.03571429       0.03571429       0.42857143 </v>
   <v>       0.07142857       0.03571429       0.42857143 </v>
   <v>       0.10714286       0.03571429       0.42857143 </v>
   <v>       0.14285714       0.03571429       0.42857143 </v>
   <v>       0.17857143       0.03571429       0.42857143 </v>
   <v>       0.21428571       0.03571429       0.42857143 </v>
   <v>       0.28571429       0.03571429       0.42857143 </v>
   <v>       0.32142857       0.03571429       0.42857143 </v>
   <v>       0.35714286       0.03571429       0.42857143 </v>
   <v>       0.42857143       0.03571429       0.42857143 </v>
   <v>       0.46428571       0.03571429       0.42857143 </v>
   <v>       0.50000000       0.03571429       0.42857143 </v>
   <v>      -0.42857143       0.03571429       0.42857143 </v>
   <v>      -0.39285714       0.03571429       0.42857143 </v>
   <v>      -0.35714286       0.03571429       0.42857143 </v>
   <v>      -0.28571429       0.03571429       0.42857143 </v>
   <v>      -0.25000000       0.03571429       0.42857143 </v>
   <v>      -0.21428571       0.03571429       0.42857143 </v>
   <v>      -0.14285714       0.03571429       0.42857143 </v>
   <v>      -0.10714286       0.03571429       0.42857143 </v>
   <v>      -0.07142857       0.03571429       0.42857143 </v>
   <v>       0.00000000       0.07142857       0.42857143 </v>
   <v>       0.03571429       0.07142857       0.42857143 </v>
   <v>       0.07142857       0.07142857       0.42857143 </v>
   <v>       0.10714286       0.07142857       0.42857143 </v>
   <v>       0.14285714       0.07142857       0.42857143 </v>
   <v>       0.17857143       0.07142857       0.42857143 </v>
   <v>       0.25000000       0.07142857       0.42857143 </v>
   <v>       0.28571429       0.07142857       0.42857143 </v>
   <v>       0.32142857       0.07142857       0.42857143 </v>
   <v>       0.39285714       0.07142857       0.42857143 </v>
   <v>       0.42857143       0.07142857       0.42857143 </v>
   <v>       0.46428571       0.07142857       0.42857143 </v>
   <v>      -0.46428571       0.07142857       0.42857143 </v>
   <v>      -0.42857143       0.07142857       0.42857143 </v>
   <v>      -0.39285714       0.07142857       0.42857143 </v>
   <v>      -0.32142857       0.07142857       0.42857143 </v>
   <v>      -0.28571429       0.07142857       0.42857143 </v>
   <v>      -0.25000000       0.07142857       0.42857143 </v>
   <v>      -0.17857143       0.07142857       0.42857143 </v>
   <v>      -0.14285714       0.07142857       0.42857143 </v>
   <v>      -0.10714286       0.07142857       0.42857143 </v>
   <v>       0.00000000       0.10714286       0.42857143 </v>
   <v>       0.07142857       0.10714286       0.42857143 </v>
   <v>       0.10714286       0.10714286       0.42857143 </v>
   <v>       0.14285714       0.10714286       0.42857143 </v>
   <v>       0.21428571       0.10714286       0.42857143 </v>
   <v>       0.25000000       0.10714286       0.42857143 </v>
   <v>       0.28571429       0.10714286       0.42857143 </v>
   <v>       0.35714286       0.10714286       0.42857143 </v>
   <v>       0.39285714       0.10714286       0.42857143 </v>
   <v>       0.42857143       0.10714286       0.42857143 </v>
   <v>       0.50000000       0.10714286       0.42857143 </v>
   <v>      -0.46428571       0.10714286       0.42857143 </v>
   <v>      -0.42857143       0.10714286       0.42857143 </v>
   <v>      -0.35714286       0.10714286       0.42857143 </v>
   <v>      -0.32142857       0.10714286       0.42857143 </v>
   <v>      -0.28571429       0.10714286       0.42857143 </v>
   <v>      -0.21428571       0.10714286       0.42857143 </v>
   <v>      -0.17857143       0.10714286       0.42857143 </v>
   <v>      -0.14285714       0.10714286       0.42857143 </v>
   <v>       0.03571429       0.14285714       0.42857143 </v>
   <v>       0.07142857       0.14285714       0.42857143 </v>
   <v>       0.10714286       0.14285714       0.42857143 </v>
   <v>       0.17857143       0.14285714       0.42857143 </v>
   <v>       0.21428571       0.14285714       0.42857143 </v>
   <v>       0.25000000       0.14285714       0.42857143 </v>
   <v>       0.32142857       0.14285714       0.42857143 </v>
   <v>       0.35714286       0.14285714       0.42857143 </v>
   <v>       0.39285714       0.14285714       0.42857143 </v>
   <v>       0.00000000       0.17857143       0.42857143 </v>
   <v>       0.03571429       0.17857143       0.42857143 </v>
   <v>       0.07142857       0.17857143       0.42857143 </v>
   <v>       0.14285714       0.17857143       0.42857143 </v>
   <v>       0.17857143       0.17857143       0.42857143 </v>
   <v>       0.21428571       0.17857143       0.42857143 </v>
   <v>       0.28571429       0.17857143       0.42857143 </v>
   <v>       0.32142857       0.17857143       0.42857143 </v>
   <v>       0.35714286       0.17857143       0.42857143 </v>
   <v>       0.42857143       0.17857143       0.42857143 </v>
   <v>       0.46428571       0.17857143       0.42857143 </v>
   <v>       0.50000000       0.17857143       0.42857143 </v>
   <v>      -0.42857143       0.17857143       0.42857143 </v>
   <v>      -0.39285714       0.17857143       0.42857143 </v>
   <v>      -0.35714286       0.17857143       0.42857143 </v>
   <v>      -0.28571429       0.17857143       0.42857143 </v>
   <v>      -0.25000000       0.17857143       0.42857143 </v>
   <v>      -0.21428571       0.17857143       0.42857143 </v>
   <v>       0.00000000       0.21428571       0.42857143 </v>
   <v>       0.03571429       0.21428571       0.42857143 </v>
   <v>       0.10714286       0.21428571       0.42857143 </v>
   <v>       0.14285714       0.21428571       0.42857143 </v>
   <v>       0.17857143       0.21428571       0.42857143 </v>
   <v>       0.25000000       0.21428571       0.42857143 </v>
   <v>       0.28571429       0.21428571       0.42857143 </v>
   <v>       0.32142857       0.21428571       0.42857143 </v>
   <v>       0.39285714       0.21428571       0.42857143 </v>
   <v>       0.42857143       0.21428571       0.42857143 </v>
   <v>       0.46428571       0.21428571       0.42857143 </v>
   <v>      -0.46428571       0.21428571       0.42857143 </v>
   <v>      -0.42857143       0.21428571       0.42857143 </v>
   <v>      -0.39285714       0.21428571       0.42857143 </v>
   <v>      -0.32142857       0.21428571       0.42857143 </v>
   <v>      -0.28571429       0.21428571       0.42857143 </v>
   <v>      -0.25000000       0.21428571       0.42857143 </v>
   <v>       0.00000000       0.25000000       0.42857143 </v>
   <v>       0.07142857       0.25000000       0.42857143 </v>
   <v>       0.10714286       0.25000000       0.42857143 </v>
   <v>       0.14285714       0.25000000       0.42857143 </v>
   <v>       0.21428571       0.25000000       0.42857143 </v>
   <v>       0.25000000       0.25000000       0.42857143 </v>
   <v>       0.28571429       0.25000000       0.42857143 </v>
   <v>       0.35714286       0.25000000       0.42857143 </v>
   <v>       0.39285714       0.25000000       0.42857143 </v>
   <v>       0.42857143       0.25000000       0.42857143 </v>
   <v>       0.50000000       0.25000000       0.42857143 </v>
   <v>      -0.46428571       0.25000000       0.42857143 </v>
   <v>      -0.42857143       0.25000000       0.42857143 </v>
   <v>      -0.35714286       0.25000000       0.42857143 </v>
   <v>      -0.32142857       0.25000000       0.42857143 </v>
   <v>      -0.28571429       0.25000000       0.42857143 </v>
   <v>       0.00000000       0.32142857       0.42857143 </v>
   <v>       0.03571429       0.32142857       0.42857143 </v>
   <v>       0.07142857       0.32142857       0.42857143 </v>
   <v>       0.14285714       0.32142857       0.42857143 </v>
   <v>       0.17857143       0.32142857       0.42857143 </v>
   <v>       0.21428571       0.32142857       0.42857143 </v>
   <v>       0.28571429       0.32142857       0.42857143 </v>
   <v>       0.32142857       0.32142857       0.42857143 </v>
   <v>       0.35714286       0.32142857       0.42857143 </v>
   <v>       0.42857143       0.32142857       0.42857143 </v>
   <v>       0.46428571       0.32142857       0.42857143 </v>
   <v>       0.50000000       0.32142857       0.42857143 </v>
   <v>      -0.42857143       0.32142857       0.42857143 </v>
   <v>      -0.39285714       0.32142857       0.42857143 </v>
   <v>      -0.35714286       0.32142857       0.42857143 </v>
   <v>       0.00000000       0.35714286       0.42857143 </v>
   <v>       0.03571429       0.35714286       0.42857143 </v>
   <v>       0.10714286       0.35714286       0.42857143 </v>
   <v>       0.14285714       0.35714286       0.42857143 </v>
   <v>       0.17857143       0.35714286       0.42857143 </v>
   <v>       0.25000000       0.35714286       0.42857143 </v>
   <v>       0.28571429       0.35714286       0.42857143 </v>
   <v>       0.32142857       0.35714286       0.42857143 </v>
   <v>       0.39285714       0.35714286       0.42857143 </v>
   <v>       0.42857143       0.35714286       0.42857143 </v>
   <v>       0.46428571       0.35714286       0.42857143 </v>
   <v>      -0.46428571       0.35714286       0.42857143 </v>
   <v>      -0.42857143       0.35714286       0.42857143 </v>
   <v>      -0.39285714       0.35714286       0.42857143 </v>
   <v>       0.00000000       0.39285714       0.42857143 </v>
   <v>       0.07142857       0.39285714       0.42857143 </v>
   <v>       0.10714286       0.39285714       0.42857143 </v>
   <v>       0.14285714       0.39285714       0.42857143 </v>
   <v>       0.21428571       0.39285714       0.42857143 </v>
   <v>       0.25000000       0.39285714       0.42857143 </v>
   <v>       0.28571429       0.39285714       0.42857143 </v>
   <v>       0.35714286       0.39285714       0.42857143 </v>
   <v>       0.39285714       0.39285714       0.42857143 </v>
   <v>       0.42857143       0.39285714       0.42857143 </v>
   <v>       0.50000000       0.39285714       0.42857143 </v>
   <v>      -0.46428571       0.39285714       0.42857143 </v>
   <v>      -0.42857143       0.39285714       0.42857143 </v>
   <v>       0.00000000       0.46428571       0.42857143 </v>
   <v>       0.03571429       0.46428571       0.42857143 </v>
   <v>       0.07142857       0.46428571       0.42857143 </v>
   <v>       0.14285714       0.46428571       0.42857143 </v>
   <v>       0.17857143       0.46428571       0.42857143 </v>
   <v>       0.21428571       0.46428571       0.42857143 </v>
   <v>       0.28571429       0.46428571       0.42857143 </v>
   <v>       0.32142857       0.46428571       0.42857143 </v>
   <v>       0.35714286       0.46428571       0.42857143 </v>
   <v>       0.42857143       0.46428571       0.42857143 </v>
   <v>       0.46428571       0.46428571       0.42857143 </v>
   <v>       0.50000000       0.46428571       0.42857143 </v>
   <v>       0.00000000       0.50000000       0.42857143 </v>
   <v>       0.03571429       0.50000000       0.42857143 </v>
   <v>       0.10714286       0.50000000       0.42857143 </v>
   <v>       0.14285714       0.50000000       0.42857143 </v>
   <v>       0.17857143       0.50000000       0.42857143 </v>
   <v>       0.25000000       0.50000000       0.42857143 </v>
   <v>       0.28571429       0.50000000       0.42857143 </v>
   <v>       0.32142857       0.50000000       0.42857143 </v>
   <v>       0.39285714       0.50000000       0.42857143 </v>
   <v>       0.42857143       0.50000000       0.42857143 </v>
   <v>       0.46428571       0.50000000       0.42857143 </v>
   <v>       0.00000000      -0.46428571       0.42857143 </v>
   <v>       0.07142857      -0.46428571       0.42857143 </v>
   <v>       0.10714286      -0.46428571       0.42857143 </v>
   <v>       0.14285714      -0.46428571       0.42857143 </v>
   <v>       0.21428571      -0.46428571       0.42857143 </v>
   <v>       0.25000000      -0.46428571       0.42857143 </v>
   <v>       0.28571429      -0.46428571       0.42857143 </v>
   <v>       0.35714286      -0.46428571       0.42857143 </v>
   <v>       0.39285714      -0.46428571       0.42857143 </v>
   <v>       0.42857143      -0.46428571       0.42857143 </v>
   <v>       0.00000000      -0.39285714       0.42857143 </v>
   <v>       0.03571429      -0.39285714       0.42857143 </v>
   <v>       0.07142857      -0.39285714       0.42857143 </v>
   <v>       0.14285714      -0.39285714       0.42857143 </v>
   <v>       0.17857143      -0.39285714       0.42857143 </v>
   <v>       0.21428571      -0.39285714       0.42857143 </v>
   <v>       0.28571429      -0.39285714       0.42857143 </v>
   <v>       0.32142857      -0.39285714       0.42857143 </v>
   <v>       0.35714286      -0.39285714       0.42857143 </v>
   <v>       0.00000000      -0.35714286       0.42857143 </v>
   <v>       0.03571429      -0.35714286       0.42857143 </v>
   <v>       0.10714286      -0.35714286       0.42857143 </v>
   <v>       0.14285714      -0.35714286       0.42857143 </v>
   <v>       0.17857143      -0.35714286       0.42857143 </v>
   <v>       0.25000000      -0.35714286       0.42857143 </v>
   <v>       0.28571429      -0.35714286       0.42857143 </v>
   <v>       0.32142857      -0.35714286       0.42857143 </v>
   <v>       0.00000000      -0.32142857       0.42857143 </v>
   <v>       0.07142857      -0.32142857       0.42857143 </v>
   <v>       0.10714286      -0.32142857       0.42857143 </v>
   <v>       0.14285714      -0.32142857       0.42857143 </v>
   <v>       0.21428571      -0.32142857       0.42857143 </v>
   <v>       0.25000000      -0.32142857       0.42857143 </v>
   <v>       0.28571429      -0.32142857       0.42857143 </v>
   <v>       0.00000000      -0.25000000       0.42857143 </v>
   <v>       0.03571429      -0.25000000       0.42857143 </v>
   <v>       0.07142857      -0.25000000       0.42857143 </v>
   <v>       0.14285714      -0.25000000       0.42857143 </v>
   <v>       0.17857143      -0.25000000       0.42857143 </v>
   <v>       0.21428571      -0.25000000       0.42857143 </v>
   <v>       0.00000000      -0.21428571       0.42857143 </v>
   <v>       0.03571429      -0.21428571       0.42857143 </v>
   <v>       0.10714286      -0.21428571       0.42857143 </v>
   <v>       0.14285714      -0.21428571       0.42857143 </v>
   <v>       0.17857143      -0.21428571       0.42857143 </v>
   <v>       0.00000000      -0.17857143       0.42857143 </v>
   <v>       0.07142857      -0.17857143       0.42857143 </v>
   <v>       0.10714286      -0.17857143       0.42857143 </v>
   <v>       0.14285714      -0.17857143       0.42857143 </v>
   <v>       0.00000000      -0.10714286       0.42857143 </v>
   <v>       0.03571429      -0.10714286       0.42857143 </v>
   <v>       0.07142857      -0.10714286       0.42857143 </v>
   <v>       0.00000000      -0.07142857       0.42857143 </v>
   <v>       0.03571429      -0.07142857       0.42857143 </v>
   <v>       0.00000000      -0.03571429       0.42857143 </v>
  </varray>
  <varray name="weights" >
   <v>       0.00018222 </v>
   <v>       0.00072886 </v>
   <v>       0.00072886 </v>
   <v>       0.00072886 </v>
   <v>       0.00109329 </v>
   <v>       0.00072886 </v>
   <v>       0.00072886 </v>
   <v>       0.00072886 </v>
   <v>       0.00109329 </v>
   <v>       0.00072886 </v>
   <v>       0.00072886 </v>
   <v>       0.00072886 </v>
   <v>       0.00109329 </v>
   <v>       0.00072886 </v>
   <v>       0.00036443 </v>
   <v>       0.00036443 </v>
   <v>       0.00072886 </v>
   <v>       0.00072886 </v>
   <v>       0.00145773 </v>
   <v>       0.00072886 </v>
   <v>       0.00072886 </v>
   <v>       0.00072886 </v>
   <v>       0.00145773 </v>
   <v>       0.00072886 </v>
   <v>       0.00072886 </v>
   <v>       0.00072886 </v>
   <v>       0.00145773 </v>
   <v>       0.00072886 </v>
   <v>       0.00072886 </v>
   <v>       0.00072886 </v>
   <v>       0.00145773 </v>
   <v>       0.00072886 </v>
   <v>       0.00072886 </v>
   <v>       0.00072886 </v>
   <v>       0.00145773 </v>
   <v>       0.00072886 </v>
   <v>       0.00072886 </v>
   <v>       0.00072886 </v>
   <v>       0.00145773 </v>
   <v>       0.00072886 </v>
   <v>       0.00072886 </v>
   <v>       0.00036443 </v>
   <v>       0.00036443 </v>
   <v>       0.00072886 </v>
   <v>       0.00145773 </v>
   <v>       0.00072886 </v>
   <v>       0.00072886 </v>
   <v>       0.00072886 </v>
   <v>       0.00145773 </v>
   <v>       0.00072886 </v>
   <v>       0.00072886 </v>
   <v>       0.00072886 </v>
   <v>       0.00145773 </v>
   <v>       0.00072886 </v>
   <v>       0.00072886 </v>
   <v>       0.00072886 </v>
   <v>       0.00145773 </v>
   <v>       0.00072886 </v>
   <v>       0.00072886 </v>
   <v>       0.00072886 </v>
   <v>       0.00145773 </v>
   <v>       0.00072886 </v>
   <v>       0.00072886 </v>
   <v>       0.00072886 </v>
   <v>       0.00145773 </v>
   <v>       0.00072886 </v>
   <v>       0.00036443 </v>
   <v>       0.00036443 </v>
   <v>       0.00145773 </v>
   <v>       0.00072886 </v>
   <v>       0.00072886 </v>
   <v>       0.00072886 </v>
   <v>       0.00145773 </v>
   <v>       0.00072886 </v>
   <v>       0.00072886 </v>
   <v>       0.00072886 </v>
   <v>       0.00145773 </v>
   <v>       0.00072886 </v>
   <v>       0.00072886 </v>
   <v>       0.00072886 </v>
   <v>       0.00145773 </v>
   <v>       0.00072886 </v>
   <v>       0.00072886 </v>
   <v>       0.00072886 </v>
   <v>       0.00145773 </v>
   <v>       0.00072886 </v>
   <v>       0.00072886 </v>
   <v>       0.00072886 </v>
   <v>       0.00145773 </v>
   <v>       0.00036443 </v>
   <v>       0.00109329 </v>
   <v>       0.00145773 </v>
   <v>       0.00145773 </v>
   <v>       0.00145773 </v>
   <v>       0.00218659 </v>
   <v>       0.00145773 </v>
   <v>       0.00145773 </v>
   <v>       0.00145773 </v>
   <v>       0.00218659 </v>
   <v>       0.00145773 </v>
   <v>       0.00145773 </v>
   <v>       0.00145773 </v>
   <v>       0.00218659 </v>
   <v>       0.00145773 </v>
   <v>       0.00145773 </v>
   <v>       0.00145773 </v>
   <v>       0.00218659 </v>
   <v>       0.00145773 </v>
   <v>       0.00145773 </v>
   <v>       0.00145773 </v>
   <v>       0.00109329 </v>
   <v>       0.00036443 </v>
   <v>       0.00072886 </v>
   <v>       0.00072886 </v>
   <v>       0.00145773 </v>
   <v>       0.00072886 </v>
   <v>       0.00072886 </v>
   <v>       0.00072886 </v>
   <v>       0.00145773 </v>
   <v>       0.00072886 </v>
   <v>       0.00072886 </v>
   <v>       0.00072886 </v>
   <v>       0.00145773 </v>
   <v>       0.00072886 </v>
   <v>       0.00072886 </v>
   <v>       0.00072886 </v>
   <v>       0.00145773 </v>
   <v>       0.00072886 </v>
   <v>       0.00072886 </v>
   <v>       0.00036443 </v>
   <v>       0.00036443 </v>
   <v>       0.00072886 </v>
   <v>       0.00145773 </v>
   <v>       0.00072886 </v>
   <v>       0.00072886 </v>
   <v>       0.00072886 </v>
   <v>       0.00145773 </v>
   <v>       0.00072886 </v>
   <v>       0.00072886 </v>
   <v>       0.00072886 </v>
   <v>       0.00145773 </v>
   <v>       0.00072886 </v>
   <v>       0.00072886 </v>
   <v>       0.00072886 </v>
   <v>       0.00145773 </v>
   <v>       0.00072886 </v>
   <v>       0.00036443 </v>
   <v>       0.00036443 </v>
   <v>       0.00145773 </v>
   <v>       0.00072886 </v>
   <v>       0.00072886 </v>
   <v>       0.00072886 </v>
   <v>       0.00145773 </v>
   <v>       0.00072886 </v>
   <v>       0.00072886 </v>
   <v>       0.00072886 </v>
   <v>       0.00145773 </v>
   <v>       0.00072886 </v>
   <v>       0.00072886 </v>
   <v>       0.00072886 </v>
   <v>       0.00145773 </v>
   <v>       0.00036443 </v>
   <v>       0.00109329 </v>
   <v>       0.00145773 </v>
   <v>       0.00145773 </v>
   <v>       0.00145773 </v>
   <v>       0.00218659 </v>
   <v>       0.00145773 </v>
   <v>       0.00145773 </v>
   <v>       0.00145773 </v>
   <v>       0.00218659 </v>
   <v>       0.00145773 </v>
   <v>       0.00145773 </v>
   <v>       0.00145773 </v>
   <v>       0.00109329 </v>
   <v>       0.00036443 </v>
   <v>       0.00072886 </v>
   <v>       0.00072886 </v>
   <v>       0.00145773 </v>
   <v>       0.00072886 </v>
   <v>       0.00072886 </v>
   <v>       0.00072886 </v>
   <v>       0.00145773 </v>
   <v>       0.00072886 </v>
   <v>       0.00072886 </v>
   <v>       0.00036443 </v>
   <v>       0.00036443 </v>
   <v>       0.00072886 </v>
   <v>       0.00145773 </v>
   <v>       0.00072886 </v>
[...]
       <r>    3.9918    1.0000 </r>
       <r>    4.0463    1.0000 </r>
       <r>    4.0987    1.0000 </r>
       <r>    4.2510    1.0000 </r>
       <r>    4.5257    1.0000 </r>
       <r>    4.5916    1.0000 </r>
       <r>    4.8497    1.0000 </r>
       <r>    4.9627    1.0000 </r>
       <r>    5.1839    1.0000 </r>
       <r>    5.4092    1.0000 </r>
       <r>    5.8302    1.0000 </r>
       <r>    6.1290    1.0000 </r>
       <r>    7.1822    1.0000 </r>
       <r>   13.3838    0.0000 </r>
       <r>   15.4554    0.0000 </r>
       <r>   22.3963    0.0000 </r>
       <r>   22.7744    0.0000 </r>
      </set>
      <set comment="kpoint 1152">
       <r>   -0.2106    1.0000 </r>
       <r>    0.8389    1.0000 </r>
       <r>    1.8208    1.0000 </r>
       <r>    2.1989    1.0000 </r>
       <r>    3.4358    1.0000 </r>
       <r>    3.5414    1.0000 </r>
       <r>    3.5967    1.0000 </r>
       <r>    3.7111    1.0000 </r>
       <r>    3.7344    1.0000 </r>
       <r>    3.7568    1.0000 </r>
       <r>    3.8813    1.0000 </r>
       <r>    3.9711    1.0000 </r>
       <r>    4.0005    1.0000 </r>
       <r>    4.0594    1.0000 </r>
       <r>    4.5164    1.0000 </r>
       <r>    4.5376    1.0000 </r>
       <r>    4.6140    1.0000 </r>
       <r>    4.9419    1.0000 </r>
       <r>    4.9591    1.0000 </r>
       <r>    5.1489    1.0000 </r>
       <r>    5.3175    1.0000 </r>
       <r>    5.9186    1.0000 </r>
       <r>    6.0563    1.0000 </r>
       <r>    6.8548    1.0000 </r>
       <r>   13.3094    0.0000 </r>
       <r>   15.3972    0.0000 </r>
       <r>   22.3332    0.0000 </r>
       <r>   22.9827    0.0000 </r>
      </set>
      <set comment="kpoint 1153">
       <r>   -0.2435    1.0000 </r>
       <r>    0.7954    1.0000 </r>
       <r>    1.7908    1.0000 </r>
       <r>    2.1760    1.0000 </r>
       <r>    3.4705    1.0000 </r>
       <r>    3.5351    1.0000 </r>
       <r>    3.6110    1.0000 </r>
       <r>    3.6931    1.0000 </r>
       <r>    3.7279    1.0000 </r>
       <r>    3.7543    1.0000 </r>
       <r>    3.8782    1.0000 </r>
       <r>    3.9600    1.0000 </r>
       <r>    3.9925    1.0000 </r>
       <r>    4.0336    1.0000 </r>
       <r>    4.5332    1.0000 </r>
       <r>    4.5633    1.0000 </r>
       <r>    4.6380    1.0000 </r>
       <r>    4.9363    1.0000 </r>
       <r>    5.0059    1.0000 </r>
       <r>    5.2486    1.0000 </r>
       <r>    5.3918    1.0000 </r>
       <r>    5.8382    1.0000 </r>
       <r>    5.9598    1.0000 </r>
       <r>    6.7252    1.0000 </r>
       <r>   13.3914    0.0000 </r>
       <r>   15.2611    0.0000 </r>
       <r>   22.3684    0.0000 </r>
       <r>   22.9556    0.0000 </r>
      </set>
      <set comment="kpoint 1154">
       <r>   -0.3146    1.0000 </r>
       <r>    0.7169    1.0000 </r>
       <r>    1.7307    1.0000 </r>
       <r>    2.1296    1.0000 </r>
       <r>    3.5096    1.0000 </r>
       <r>    3.5718    1.0000 </r>
       <r>    3.6311    1.0000 </r>
       <r>    3.6606    1.0000 </r>
       <r>    3.6991    1.0000 </r>
       <r>    3.7242    1.0000 </r>
       <r>    3.8942    1.0000 </r>
       <r>    3.9175    1.0000 </r>
       <r>    3.9811    1.0000 </r>
       <r>    3.9980    1.0000 </r>
       <r>    4.5784    1.0000 </r>
       <r>    4.6081    1.0000 </r>
       <r>    4.8068    1.0000 </r>
       <r>    4.9316    1.0000 </r>
       <r>    5.0638    1.0000 </r>
       <r>    5.3700    1.0000 </r>
       <r>    5.3747    1.0000 </r>
       <r>    5.8200    1.0000 </r>
       <r>    5.8915    1.0000 </r>
       <r>    6.3680    1.0000 </r>
       <r>   13.4474    0.0000 </r>
       <r>   15.1082    0.0000 </r>
       <r>   22.3669    0.0000 </r>
       <r>   22.9378    0.0000 </r>
      </set>
     </set>
    </set>
   </array>
  </eigenvalues>
  <separator name="orbital magnetization" >
   <v name="MAGDIPOLOUT">      0.00000000      0.00000000      0.00000000</v>
  </separator>
  <dos>
   <i name="efermi">      8.25204142 </i>
   <total>
    <array>
     <dimension dim="1">gridpoints</dimension>
     <dimension dim="2">spin</dimension>
     <field>energy</field>
     <field>total</field>
     <field>integrated</field>
     <set>
      <set comment="spin 1">
       <r>    -3.4731     0.0000     0.0000 </r>
       <r>    -3.3746     0.0000     0.0000 </r>
       <r>    -3.2761     0.0000     0.0000 </r>
       <r>    -3.1776     0.0000     0.0000 </r>
       <r>    -3.0791     0.0000     0.0000 </r>
       <r>    -2.9806     0.0000     0.0000 </r>
       <r>    -2.8821     0.0000     0.0000 </r>
       <r>    -2.7836     0.0000     0.0000 </r>
       <r>    -2.6851     0.0000     0.0000 </r>
       <r>    -2.5866     0.0000     0.0000 </r>
       <r>    -2.4881     0.0000     0.0000 </r>
       <r>    -2.3896     0.0000     0.0000 </r>
       <r>    -2.2911     0.0000     0.0000 </r>
       <r>    -2.1926     0.0000     0.0000 </r>
       <r>    -2.0941     0.0000     0.0000 </r>
       <r>    -1.9955     0.0000     0.0000 </r>
       <r>    -1.8970     0.0000     0.0000 </r>
       <r>    -1.7985     0.0000     0.0000 </r>
       <r>    -1.7000     0.0000     0.0000 </r>
       <r>    -1.6015     0.0000     0.0000 </r>
       <r>    -1.5030     0.0000     0.0000 </r>
       <r>    -1.4045     0.0000     0.0000 </r>
       <r>    -1.3060     0.0000     0.0000 </r>
       <r>    -1.2075    -0.0001     0.0000 </r>
       <r>    -1.1090    -0.0004     0.0000 </r>
       <r>    -1.0105    -0.0013    -0.0002 </r>
       <r>    -0.9120    -0.0034    -0.0005 </r>
       <r>    -0.8135    -0.0065    -0.0012 </r>
       <r>    -0.7150    -0.0073    -0.0019 </r>
       <r>    -0.6165     0.0023    -0.0016 </r>
       <r>    -0.5180     0.0321     0.0015 </r>
       <r>    -0.4195     0.0847     0.0098 </r>
       <r>    -0.3210     0.1495     0.0246 </r>
       <r>    -0.2225     0.2077     0.0450 </r>
       <r>    -0.1239     0.2455     0.0692 </r>
       <r>    -0.0254     0.2626     0.0951 </r>
       <r>     0.0731     0.2674     0.1214 </r>
       <r>     0.1716     0.2684     0.1479 </r>
       <r>     0.2701     0.2694     0.1744 </r>
       <r>     0.3686     0.2721     0.2012 </r>
       <r>     0.4671     0.2794     0.2287 </r>
       <r>     0.5656     0.2962     0.2579 </r>
       <r>     0.6641     0.3284     0.2903 </r>
       <r>     0.7626     0.3786     0.3275 </r>
       <r>     0.8611     0.4427     0.3712 </r>
       <r>     0.9596     0.5101     0.4214 </r>
       <r>     1.0581     0.5700     0.4776 </r>
       <r>     1.1566     0.6146     0.5381 </r>
       <r>     1.2551     0.6410     0.6012 </r>
       <r>     1.3536     0.6658     0.6668 </r>
       <r>     1.4521     0.7413     0.7399 </r>
       <r>     1.5506     0.9477     0.8332 </r>
       <r>     1.6491     1.3499     0.9662 </r>
       <r>     1.7477     1.9417     1.1574 </r>
       <r>     1.8462     2.6421     1.4177 </r>
       <r>     1.9447     3.3791     1.7506 </r>
       <r>     2.0432     4.1843     2.1628 </r>
       <r>     2.1417     5.1860     2.6736 </r>
       <r>     2.2402     6.4839     3.3123 </r>
       <r>     2.3387     7.9878     4.0991 </r>
       <r>     2.4372     9.3699     5.0221 </r>
       <r>     2.5357    10.2364     6.0305 </r>
       <r>     2.6342    10.3834     7.0533 </r>
       <r>     2.7327     9.8939     8.0279 </r>
       <r>     2.8312     9.0618     8.9205 </r>
       <r>     2.9297     8.2876     9.7369 </r>
       <r>     3.0282     7.9451    10.5195 </r>
       <r>     3.1267     8.1744    11.3248 </r>
       <r>     3.2252     8.7737    12.1890 </r>
       <r>     3.3237     9.3766    13.1127 </r>
       <r>     3.4222     9.7857    14.0766 </r>
       <r>     3.5207    10.1422    15.0757 </r>
       <r>     3.6193    10.7788    16.1374 </r>
       <r>     3.7178    11.8664    17.3063 </r>
       <r>     3.8163    13.1269    18.5994 </r>
       <r>     3.9148    13.9071    19.9693 </r>
       <r>     4.0133    13.6728    21.3162 </r>
       <r>     4.1118    12.5114    22.5486 </r>
       <r>     4.2103    11.0950    23.6415 </r>
       <r>     4.3088    10.1250    24.6389 </r>
       <r>     4.4073     9.8549    25.6097 </r>
       <r>     4.5058    10.0800    26.6026 </r>
       <r>     4.6043    10.4190    27.6289 </r>
       <r>     4.7028    10.5758    28.6707 </r>
       <r>     4.8013    10.4587    29.7009 </r>
       <r>     4.8998    10.1524    30.7010 </r>
       <r>     4.9983     9.7953    31.6659 </r>
       <r>     5.0968     9.4733    32.5990 </r>
       <r>     5.1953     9.2015    33.5054 </r>
       <r>     5.2938     8.9559    34.3876 </r>
       <r>     5.3923     8.7146    35.2461 </r>
       <r>     5.4909     8.5042    36.0838 </r>
       <r>     5.5894     8.3940    36.9106 </r>
       <r>     5.6879     8.3909    37.7372 </r>
       <r>     5.7864     8.3427    38.5590 </r>
       <r>     5.8849     8.0212    39.3491 </r>
       <r>     5.9834     7.3245    40.0706 </r>
       <r>     6.0819     6.3353    40.6947 </r>
       <r>     6.1804     5.1879    41.2057 </r>
       <r>     6.2789     3.9847    41.5982 </r>
       <r>     6.3774     2.8476    41.8787 </r>
       <r>     6.4759     1.9324    42.0691 </r>
       <r>     6.5744     1.3410    42.2012 </r>
       <r>     6.6729     1.0604    42.3056 </r>
       <r>     6.7714     0.9905    42.4032 </r>
       <r>     6.8699     1.0067    42.5024 </r>
       <r>     6.9684     1.0201    42.6029 </r>
       <r>     7.0669     1.0136    42.7027 </r>
       <r>     7.1654     1.0205    42.8032 </r>
       <r>     7.2639     1.0607    42.9077 </r>
       <r>     7.3625     1.1062    43.0167 </r>
       <r>     7.4610     1.1132    43.1263 </r>
       <r>     7.5595     1.0745    43.2322 </r>
       <r>     7.6580     1.0328    43.3339 </r>
       <r>     7.7565     1.0403    43.4364 </r>
       <r>     7.8550     1.1043    43.5452 </r>
       <r>     7.9535     1.1749    43.6609 </r>
       <r>     8.0520     1.1926    43.7784 </r>
       <r>     8.1505     1.1449    43.8912 </r>
       <r>     8.2490     1.0726    43.9968 </r>
       <r>     8.3475     1.0324    44.0985 </r>
       <r>     8.4460     1.0541    44.2024 </r>
       <r>     8.5445     1.1184    44.3125 </r>
       <r>     8.6430     1.1698    44.4278 </r>
       <r>     8.7415     1.1635    44.5424 </r>
       <r>     8.8400     1.1039    44.6511 </r>
       <r>     8.9385     1.0399    44.7535 </r>
       <r>     9.0370     1.0245    44.8545 </r>
       <r>     9.1355     1.0705    44.9599 </r>
       <r>     9.2341     1.1376    45.0720 </r>
       <r>     9.3326     1.1667    45.1869 </r>
       <r>     9.4311     1.1340    45.2986 </r>
       <r>     9.5296     1.0702    45.4040 </r>
       <r>     9.6281     1.0296    45.5055 </r>
       <r>     9.7266     1.0422    45.6081 </r>
       <r>     9.8251     1.0892    45.7154 </r>
       <r>     9.9236     1.1223    45.8260 </r>
       <r>    10.0221     1.1102    45.9353 </r>
       <r>    10.1206     1.0661    46.0403 </r>
       <r>    10.2191     1.0276    46.1416 </r>
       <r>    10.3176     1.0131    46.2414 </r>
       <r>    10.4161     1.0083    46.3407 </r>
       <r>    10.5146     0.9903    46.4382 </r>
       <r>    10.6131     0.9572    46.5325 </r>
       <r>    10.7116     0.9277    46.6239 </r>
       <r>    10.8101     0.9148    46.7140 </r>
       <r>    10.9086     0.9073    46.8034 </r>
       <r>    11.0071     0.8915    46.8912 </r>
       <r>    11.1057     0.8913    46.9790 </r>
       <r>    11.2042     0.9636    47.0739 </r>
       <r>    11.3027     1.1338    47.1856 </r>
       <r>    11.4012     1.3473    47.3183 </r>
       <r>    11.4997     1.5045    47.4665 </r>
       <r>    11.5982     1.5471    47.6189 </r>
       <r>    11.6967     1.4958    47.7663 </r>
       <r>    11.7952     1.4138    47.9055 </r>
       <r>    11.8937     1.3483    48.0384 </r>
       <r>    11.9922     1.3086    48.1673 </r>
       <r>    12.0907     1.2842    48.2938 </r>
       <r>    12.1892     1.2703    48.4189 </r>
       <r>    12.2877     1.2704    48.5440 </r>
       <r>    12.3862     1.2792    48.6700 </r>
       <r>    12.4847     1.2796    48.7961 </r>
       <r>    12.5832     1.2584    48.9200 </r>
       <r>    12.6817     1.2172    49.0399 </r>
       <r>    12.7802     1.1686    49.1551 </r>
       <r>    12.8787     1.1304    49.2664 </r>
       <r>    12.9773     1.1200    49.3767 </r>
       <r>    13.0758     1.1436    49.4894 </r>
       <r>    13.1743     1.1882    49.6064 </r>
       <r>    13.2728     1.2262    49.7272 </r>
       <r>    13.3713     1.2355    49.8489 </r>
       <r>    13.4698     1.2177    49.9689 </r>
       <r>    13.5683     1.1955    50.0866 </r>
       <r>    13.6668     1.1924    50.2041 </r>
       <r>    13.7653     1.2163    50.3239 </r>
       <r>    13.8638     1.2639    50.4484 </r>
       <r>    13.9623     1.3316    50.5796 </r>
       <r>    14.0608     1.4121    50.7187 </r>
       <r>    14.1593     1.4829    50.8648 </r>
       <r>    14.2578     1.5123    51.0137 </r>
       <r>    14.3563     1.4835    51.1599 </r>
       <r>    14.4548     1.4097    51.2987 </r>
       <r>    14.5533     1.3224    51.4290 </r>
       <r>    14.6518     1.2454    51.5517 </r>
       <r>    14.7503     1.1851    51.6684 </r>
       <r>    14.8489     1.1430    51.7810 </r>
       <r>    14.9474     1.1283    51.8921 </r>
       <r>    15.0459     1.1501    52.0054 </r>
       <r>    15.1444     1.2001    52.1236 </r>
       <r>    15.2429     1.2515    52.2469 </r>
       <r>    15.3414     1.2805    52.3731 </r>
       <r>    15.4399     1.2865    52.4998 </r>
       <r>    15.5384     1.2861    52.6265 </r>
       <r>    15.6369     1.2898    52.7535 </r>
       <r>    15.7354     1.2921    52.8808 </r>
       <r>    15.8339     1.2817    53.0071 </r>
       <r>    15.9324     1.2532    53.1305 </r>
       <r>    16.0309     1.2083    53.2495 </r>
       <r>    16.1294     1.1525    53.3631 </r>
       <r>    16.2279     1.0919    53.4706 </r>
       <r>    16.3264     1.0325    53.5723 </r>
       <r>    16.4249     0.9769    53.6686 </r>
       <r>    16.5234     0.9249    53.7597 </r>
       <r>    16.6219     0.8786    53.8462 </r>
       <r>    16.7205     0.8446    53.9294 </r>
       <r>    16.8190     0.8269    54.0109 </r>
       <r>    16.9175     0.8191    54.0915 </r>
       <r>    17.0160     0.8087    54.1712 </r>
       <r>    17.1145     0.7843    54.2485 </r>
       <r>    17.2130     0.7400    54.3214 </r>
       <r>    17.3115     0.6783    54.3882 </r>
       <r>    17.4100     0.6109    54.4483 </r>
       <r>    17.5085     0.5514    54.5027 </r>
       <r>    17.6070     0.5029    54.5522 </r>
       <r>    17.7055     0.4604    54.5975 </r>
       <r>    17.8040     0.4262    54.6395 </r>
       <r>    17.9025     0.4133    54.6802 </r>
       <r>    18.0010     0.4289    54.7225 </r>
       <r>    18.0995     0.4631    54.7681 </r>
       <r>    18.1980     0.4944    54.8168 </r>
       <r>    18.2965     0.5026    54.8663 </r>
       <r>    18.3950     0.4780    54.9134 </r>
       <r>    18.4935     0.4283    54.9556 </r>
       <r>    18.5921     0.3766    54.9927 </r>
       <r>    18.6906     0.3457    55.0267 </r>
       <r>    18.7891     0.3409    55.0603 </r>
       <r>    18.8876     0.3486    55.0947 </r>
       <r>    18.9861     0.3520    55.1293 </r>
       <r>    19.0846     0.3446    55.1633 </r>
       <r>    19.1831     0.3306    55.1958 </r>
       <r>    19.2816     0.3194    55.2273 </r>
       <r>    19.3801     0.3173    55.2586 </r>
       <r>    19.4786     0.3217    55.2902 </r>
       <r>    19.5771     0.3219    55.3220 </r>
       <r>    19.6756     0.3086    55.3524 </r>
       <r>    19.7741     0.2836    55.3803 </r>
       <r>    19.8726     0.2606    55.4060 </r>
       <r>    19.9711     0.2553    55.4311 </r>
       <r>    20.0696     0.2696    55.4577 </r>
       <r>    20.1681     0.2839    55.4856 </r>
       <r>    20.2666     0.2729    55.5125 </r>
       <r>    20.3651     0.2318    55.5353 </r>
       <r>    20.4637     0.1826    55.5533 </r>
       <r>    20.5622     0.1533    55.5684 </r>
       <r>    20.6607     0.1540    55.5836 </r>
       <r>    20.7592     0.1738    55.6007 </r>
       <r>    20.8577     0.1936    55.6198 </r>
       <r>    20.9562     0.2007    55.6395 </r>
       <r>    21.0547     0.1948    55.6587 </r>
       <r>    21.1532     0.1848    55.6769 </r>
       <r>    21.2517     0.1809    55.6948 </r>
       <r>    21.3502     0.1845    55.7129 </r>
       <r>    21.4487     0.1852    55.7312 </r>
       <r>    21.5472     0.1708    55.7480 </r>
       <r>    21.6457     0.1433    55.7621 </r>
       <r>    21.7442     0.1197    55.7739 </r>
       <r>    21.8427     0.1159    55.7853 </r>
       <r>    21.9412     0.1301    55.7982 </r>
       <r>    22.0397     0.1445    55.8124 </r>
       <r>    22.1382     0.1456    55.8267 </r>
       <r>    22.2367     0.1381    55.8403 </r>
       <r>    22.3353     0.1368    55.8538 </r>
       <r>    22.4338     0.1477    55.8684 </r>
       <r>    22.5323     0.1676    55.8849 </r>
       <r>    22.6308     0.1940    55.9040 </r>
       <r>    22.7293     0.2238    55.9260 </r>
       <r>    22.8278     0.2421    55.9499 </r>
       <r>    22.9263     0.2266    55.9722 </r>
       <r>    23.0248     0.1712    55.9891 </r>
       <r>    23.1233     0.0969    55.9986 </r>
       <r>    23.2218     0.0347    56.0020 </r>
       <r>    23.3203     0.0008    56.0021 </r>
       <r>    23.4188    -0.0089    56.0012 </r>
       <r>    23.5173    -0.0072    56.0005 </r>
       <r>    23.6158    -0.0036    56.0002 </r>
       <r>    23.7143    -0.0013    56.0000 </r>
       <r>    23.8128    -0.0004    56.0000 </r>
       <r>    23.9113    -0.0001    56.0000 </r>
       <r>    24.0098     0.0000    56.0000 </r>
       <r>    24.1083     0.0000    56.0000 </r>
       <r>    24.2069     0.0000    56.0000 </r>
       <r>    24.3054     0.0000    56.0000 </r>
       <r>    24.4039     0.0000    56.0000 </r>
       <r>    24.5024     0.0000    56.0000 </r>
       <r>    24.6009     0.0000    56.0000 </r>
       <r>    24.6994     0.0000    56.0000 </r>
       <r>    24.7979     0.0000    56.0000 </r>
       <r>    24.8964     0.0000    56.0000 </r>
       <r>    24.9949     0.0000    56.0000 </r>
       <r>    25.0934     0.0000    56.0000 </r>
       <r>    25.1919     0.0000    56.0000 </r>
       <r>    25.2904     0.0000    56.0000 </r>
       <r>    25.3889     0.0000    56.0000 </r>
       <r>    25.4874     0.0000    56.0000 </r>
       <r>    25.5859     0.0000    56.0000 </r>
       <r>    25.6844     0.0000    56.0000 </r>
       <r>    25.7829     0.0000    56.0000 </r>
       <r>    25.8814     0.0000    56.0000 </r>
       <r>    25.9799     0.0000    56.0000 </r>
       <r>    26.0785     0.0000    56.0000 </r>
      </set>
     </set>
    </array>
   </total>
  </dos>
 </calculation>
 <structure name="finalpos" >
  <crystal>
   <varray name="basis" >
    <v>      -2.06848798       0.00000000      -2.06848798 </v>
    <v>       2.06848798      -2.06848798       0.00000000 </v>
    <v>      -6.25578385      -4.18729587       6.25578385 </v>
   </varray>
   <i name="volume">     71.44846771 </i>
   <varray name="rec_basis" >
    <v>      -0.18110974      -0.18110974      -0.30233517 </v>
    <v>       0.12122543      -0.36221949      -0.12122543 </v>
    <v>      -0.05988431      -0.05988431       0.05988431 </v>
   </varray>
  </crystal>
  <varray name="positions" >
   <v>       0.49951682       0.99903363       0.49855045 </v>
   <v>       0.75048318       0.50096637       0.25144955 </v>
   <v>       0.00089840       0.00179680       0.00269520 </v>
   <v>       0.24910160       0.49820320       0.74730480 </v>
  </varray>
 </structure>
</modeling>
