<?xml version="1.0" encoding="ISO-8859-1"?>
<modeling>
 <generator>
  <i name="program" type="string">vasp </i>
  <i name="version" type="string">5.3.5  </i>
  <i name="subversion" type="string">31Mar14 (build Jun 20 2014 13:15:13) complex                          parallel </i>
  <i name="platform" type="string">LinuxIFC </i>
  <i name="date" type="string">2025 11 26 </i>
  <i name="time" type="string">16:49:14 </i>
 </generator>
 <incar>
  <i type="string" name="PREC">accurate</i>
  <i type="int" name="IALGO">    68</i>
  <i type="logical" name="ADDGRID"> T  </i>
  <i type="int" name="NELM">   200</i>
  <i type="int" name="NELMIN">     4</i>
  <i type="int" name="IBRION">     2</i>
  <i name="EDIFF">      0.00000100</i>
  <i name="EDIFFG">     -0.02000000</i>
  <i type="int" name="NSW">    30</i>
  <i type="int" name="ISIF">     3</i>
  <i name="ENCUT">    500.00000000</i>
  <i type="logical" name="LREAL"> F  </i>
  <i type="int" name="ISMEAR">     1</i>
  <i name="SIGMA">      0.30000000</i>
  <i type="logical" name="LWAVE"> F  </i>
  <i type="logical" name="LCHARG"> F  </i>
  <i type="int" name="NELM">   200</i>
 </incar>
 <kpoints>
  <generation param="Auto">
   <i name="subdivisionlength">     70.00000000 </i>
   <v type="int" name="divisions">      28       28       10 </v>
   <v name="usershift">      0.00000000       0.00000000       0.00000000 </v>
   <v name="genvec1">      0.03571429       0.00000000       0.00000000 </v>
   <v name="genvec2">      0.00000000       0.03571429       0.00000000 </v>
   <v name="genvec3">      0.00000000       0.00000000       0.10000000 </v>
   <v name="shift">      0.00000000       0.00000000       0.00000000 </v>
  </generation>
  <varray name="kpointlist" >
   <v>       0.00000000       0.00000000       0.00000000 </v>
   <v>       0.03571429       0.00000000       0.00000000 </v>
   <v>       0.07142857       0.00000000       0.00000000 </v>
   <v>       0.10714286       0.00000000       0.00000000 </v>
   <v>       0.14285714       0.00000000       0.00000000 </v>
   <v>       0.17857143       0.00000000       0.00000000 </v>
   <v>       0.21428571       0.00000000       0.00000000 </v>
   <v>       0.25000000       0.00000000       0.00000000 </v>
   <v>       0.28571429       0.00000000       0.00000000 </v>
   <v>       0.32142857       0.00000000       0.00000000 </v>
   <v>       0.35714286       0.00000000       0.00000000 </v>
   <v>       0.39285714       0.00000000       0.00000000 </v>
   <v>       0.42857143       0.00000000       0.00000000 </v>
   <v>       0.46428571       0.00000000       0.00000000 </v>
   <v>       0.50000000       0.00000000       0.00000000 </v>
   <v>       0.03571429       0.03571429       0.00000000 </v>
   <v>       0.07142857       0.03571429       0.00000000 </v>
   <v>       0.10714286       0.03571429       0.00000000 </v>
   <v>       0.14285714       0.03571429       0.00000000 </v>
   <v>       0.17857143       0.03571429       0.00000000 </v>
   <v>       0.21428571       0.03571429       0.00000000 </v>
   <v>       0.25000000       0.03571429       0.00000000 </v>
   <v>       0.28571429       0.03571429       0.00000000 </v>
   <v>       0.32142857       0.03571429       0.00000000 </v>
   <v>       0.35714286       0.03571429       0.00000000 </v>
   <v>       0.39285714       0.03571429       0.00000000 </v>
   <v>       0.42857143       0.03571429       0.00000000 </v>
   <v>       0.46428571       0.03571429       0.00000000 </v>
   <v>       0.07142857       0.07142857       0.00000000 </v>
   <v>       0.10714286       0.07142857       0.00000000 </v>
   <v>       0.14285714       0.07142857       0.00000000 </v>
   <v>       0.17857143       0.07142857       0.00000000 </v>
   <v>       0.21428571       0.07142857       0.00000000 </v>
   <v>       0.25000000       0.07142857       0.00000000 </v>
   <v>       0.28571429       0.07142857       0.00000000 </v>
   <v>       0.32142857       0.07142857       0.00000000 </v>
   <v>       0.35714286       0.07142857       0.00000000 </v>
   <v>       0.39285714       0.07142857       0.00000000 </v>
   <v>       0.42857143       0.07142857       0.00000000 </v>
   <v>       0.46428571       0.07142857       0.00000000 </v>
   <v>       0.10714286       0.10714286       0.00000000 </v>
   <v>       0.14285714       0.10714286       0.00000000 </v>
   <v>       0.17857143       0.10714286       0.00000000 </v>
   <v>       0.21428571       0.10714286       0.00000000 </v>
   <v>       0.25000000       0.10714286       0.00000000 </v>
   <v>       0.28571429       0.10714286       0.00000000 </v>
   <v>       0.32142857       0.10714286       0.00000000 </v>
   <v>       0.35714286       0.10714286       0.00000000 </v>
   <v>       0.39285714       0.10714286       0.00000000 </v>
   <v>       0.42857143       0.10714286       0.00000000 </v>
   <v>       0.14285714       0.14285714       0.00000000 </v>
   <v>       0.17857143       0.14285714       0.00000000 </v>
   <v>       0.21428571       0.14285714       0.00000000 </v>
   <v>       0.25000000       0.14285714       0.00000000 </v>
   <v>       0.28571429       0.14285714       0.00000000 </v>
   <v>       0.32142857       0.14285714       0.00000000 </v>
   <v>       0.35714286       0.14285714       0.00000000 </v>
   <v>       0.39285714       0.14285714       0.00000000 </v>
   <v>       0.42857143       0.14285714       0.00000000 </v>
   <v>       0.17857143       0.17857143       0.00000000 </v>
   <v>       0.21428571       0.17857143       0.00000000 </v>
   <v>       0.25000000       0.17857143       0.00000000 </v>
   <v>       0.28571429       0.17857143       0.00000000 </v>
   <v>       0.32142857       0.17857143       0.00000000 </v>
   <v>       0.35714286       0.17857143       0.00000000 </v>
   <v>       0.39285714       0.17857143       0.00000000 </v>
   <v>       0.21428571       0.21428571       0.00000000 </v>
   <v>       0.25000000       0.21428571       0.00000000 </v>
   <v>       0.28571429       0.21428571       0.00000000 </v>
   <v>       0.32142857       0.21428571       0.00000000 </v>
   <v>       0.35714286       0.21428571       0.00000000 </v>
   <v>       0.39285714       0.21428571       0.00000000 </v>
   <v>       0.25000000       0.25000000       0.00000000 </v>
   <v>       0.28571429       0.25000000       0.00000000 </v>
   <v>       0.32142857       0.25000000       0.00000000 </v>
   <v>       0.35714286       0.25000000       0.00000000 </v>
   <v>       0.28571429       0.28571429       0.00000000 </v>
   <v>       0.32142857       0.28571429       0.00000000 </v>
   <v>       0.35714286       0.28571429       0.00000000 </v>
   <v>       0.32142857       0.32142857       0.00000000 </v>
   <v>       0.00000000       0.00000000       0.10000000 </v>
   <v>       0.03571429       0.00000000       0.10000000 </v>
   <v>       0.07142857       0.00000000       0.10000000 </v>
   <v>       0.10714286       0.00000000       0.10000000 </v>
   <v>       0.14285714       0.00000000       0.10000000 </v>
   <v>       0.17857143       0.00000000       0.10000000 </v>
   <v>       0.21428571       0.00000000       0.10000000 </v>
   <v>       0.25000000       0.00000000       0.10000000 </v>
   <v>       0.28571429       0.00000000       0.10000000 </v>
   <v>       0.32142857       0.00000000       0.10000000 </v>
   <v>       0.35714286       0.00000000       0.10000000 </v>
   <v>       0.39285714       0.00000000       0.10000000 </v>
   <v>       0.42857143       0.00000000       0.10000000 </v>
   <v>       0.46428571       0.00000000       0.10000000 </v>
   <v>       0.50000000       0.00000000       0.10000000 </v>
   <v>      -0.46428571       0.00000000       0.10000000 </v>
   <v>      -0.42857143       0.00000000       0.10000000 </v>
   <v>      -0.39285714       0.00000000       0.10000000 </v>
   <v>      -0.35714286       0.00000000       0.10000000 </v>
   <v>      -0.32142857       0.00000000       0.10000000 </v>
   <v>      -0.28571429       0.00000000       0.10000000 </v>
   <v>      -0.25000000       0.00000000       0.10000000 </v>
   <v>      -0.21428571       0.00000000       0.10000000 </v>
   <v>      -0.17857143       0.00000000       0.10000000 </v>
   <v>      -0.14285714       0.00000000       0.10000000 </v>
   <v>      -0.10714286       0.00000000       0.10000000 </v>
   <v>      -0.07142857       0.00000000       0.10000000 </v>
   <v>      -0.03571429       0.00000000       0.10000000 </v>
   <v>       0.03571429       0.03571429       0.10000000 </v>
   <v>       0.07142857       0.03571429       0.10000000 </v>
   <v>       0.10714286       0.03571429       0.10000000 </v>
   <v>       0.14285714       0.03571429       0.10000000 </v>
   <v>       0.17857143       0.03571429       0.10000000 </v>
   <v>       0.21428571       0.03571429       0.10000000 </v>
   <v>       0.25000000       0.03571429       0.10000000 </v>
   <v>       0.28571429       0.03571429       0.10000000 </v>
   <v>       0.32142857       0.03571429       0.10000000 </v>
   <v>       0.35714286       0.03571429       0.10000000 </v>
   <v>       0.39285714       0.03571429       0.10000000 </v>
   <v>       0.42857143       0.03571429       0.10000000 </v>
   <v>       0.46428571       0.03571429       0.10000000 </v>
   <v>       0.50000000       0.03571429       0.10000000 </v>
   <v>      -0.46428571       0.03571429       0.10000000 </v>
   <v>      -0.42857143       0.03571429       0.10000000 </v>
   <v>      -0.39285714       0.03571429       0.10000000 </v>
   <v>      -0.35714286       0.03571429       0.10000000 </v>
   <v>      -0.32142857       0.03571429       0.10000000 </v>
   <v>      -0.28571429       0.03571429       0.10000000 </v>
   <v>      -0.25000000       0.03571429       0.10000000 </v>
   <v>      -0.21428571       0.03571429       0.10000000 </v>
   <v>      -0.17857143       0.03571429       0.10000000 </v>
   <v>      -0.14285714       0.03571429       0.10000000 </v>
   <v>      -0.10714286       0.03571429       0.10000000 </v>
   <v>       0.07142857       0.07142857       0.10000000 </v>
   <v>       0.10714286       0.07142857       0.10000000 </v>
   <v>       0.14285714       0.07142857       0.10000000 </v>
   <v>       0.17857143       0.07142857       0.10000000 </v>
   <v>       0.21428571       0.07142857       0.10000000 </v>
   <v>       0.25000000       0.07142857       0.10000000 </v>
   <v>       0.28571429       0.07142857       0.10000000 </v>
   <v>       0.32142857       0.07142857       0.10000000 </v>
   <v>       0.35714286       0.07142857       0.10000000 </v>
   <v>       0.39285714       0.07142857       0.10000000 </v>
   <v>       0.42857143       0.07142857       0.10000000 </v>
   <v>       0.46428571       0.07142857       0.10000000 </v>
   <v>       0.50000000       0.07142857       0.10000000 </v>
   <v>      -0.46428571       0.07142857       0.10000000 </v>
   <v>      -0.42857143       0.07142857       0.10000000 </v>
   <v>      -0.39285714       0.07142857       0.10000000 </v>
   <v>      -0.35714286       0.07142857       0.10000000 </v>
   <v>      -0.32142857       0.07142857       0.10000000 </v>
   <v>      -0.28571429       0.07142857       0.10000000 </v>
   <v>      -0.25000000       0.07142857       0.10000000 </v>
   <v>      -0.21428571       0.07142857       0.10000000 </v>
   <v>      -0.17857143       0.07142857       0.10000000 </v>
   <v>       0.10714286       0.10714286       0.10000000 </v>
   <v>       0.14285714       0.10714286       0.10000000 </v>
   <v>       0.17857143       0.10714286       0.10000000 </v>
   <v>       0.21428571       0.10714286       0.10000000 </v>
   <v>       0.25000000       0.10714286       0.10000000 </v>
   <v>       0.28571429       0.10714286       0.10000000 </v>
   <v>       0.32142857       0.10714286       0.10000000 </v>
   <v>       0.35714286       0.10714286       0.10000000 </v>
   <v>       0.39285714       0.10714286       0.10000000 </v>
   <v>       0.42857143       0.10714286       0.10000000 </v>
   <v>       0.46428571       0.10714286       0.10000000 </v>
   <v>       0.50000000       0.10714286       0.10000000 </v>
   <v>      -0.46428571       0.10714286       0.10000000 </v>
   <v>      -0.42857143       0.10714286       0.10000000 </v>
   <v>      -0.39285714       0.10714286       0.10000000 </v>
   <v>      -0.35714286       0.10714286       0.10000000 </v>
   <v>      -0.32142857       0.10714286       0.10000000 </v>
   <v>      -0.28571429       0.10714286       0.10000000 </v>
   <v>      -0.25000000       0.10714286       0.10000000 </v>
   <v>       0.14285714       0.14285714       0.10000000 </v>
   <v>       0.17857143       0.14285714       0.10000000 </v>
   <v>       0.21428571       0.14285714       0.10000000 </v>
   <v>       0.25000000       0.14285714       0.10000000 </v>
   <v>       0.28571429       0.14285714       0.10000000 </v>
   <v>       0.32142857       0.14285714       0.10000000 </v>
   <v>       0.35714286       0.14285714       0.10000000 </v>
   <v>       0.39285714       0.14285714       0.10000000 </v>
   <v>       0.42857143       0.14285714       0.10000000 </v>
   <v>       0.46428571       0.14285714       0.10000000 </v>
   <v>       0.50000000       0.14285714       0.10000000 </v>
   <v>      -0.46428571       0.14285714       0.10000000 </v>
   <v>      -0.42857143       0.14285714       0.10000000 </v>
   <v>      -0.39285714       0.14285714       0.10000000 </v>
   <v>      -0.35714286       0.14285714       0.10000000 </v>
   <v>      -0.32142857       0.14285714       0.10000000 </v>
   <v>       0.17857143       0.17857143       0.10000000 </v>
   <v>       0.21428571       0.17857143       0.10000000 </v>
   <v>       0.25000000       0.17857143       0.10000000 </v>
   <v>       0.28571429       0.17857143       0.10000000 </v>
   <v>       0.32142857       0.17857143       0.10000000 </v>
   <v>       0.35714286       0.17857143       0.10000000 </v>
   <v>       0.39285714       0.17857143       0.10000000 </v>
   <v>       0.42857143       0.17857143       0.10000000 </v>
   <v>       0.46428571       0.17857143       0.10000000 </v>
   <v>       0.50000000       0.17857143       0.10000000 </v>
   <v>      -0.46428571       0.17857143       0.10000000 </v>
   <v>      -0.42857143       0.17857143       0.10000000 </v>
   <v>      -0.39285714       0.17857143       0.10000000 </v>
   <v>       0.21428571       0.21428571       0.10000000 </v>
   <v>       0.25000000       0.21428571       0.10000000 </v>
   <v>       0.28571429       0.21428571       0.10000000 </v>
   <v>       0.32142857       0.21428571       0.10000000 </v>
   <v>       0.35714286       0.21428571       0.10000000 </v>
   <v>       0.39285714       0.21428571       0.10000000 </v>
   <v>       0.42857143       0.21428571       0.10000000 </v>
   <v>       0.46428571       0.21428571       0.10000000 </v>
   <v>       0.50000000       0.21428571       0.10000000 </v>
   <v>      -0.46428571       0.21428571       0.10000000 </v>
   <v>       0.25000000       0.25000000       0.10000000 </v>
   <v>       0.28571429       0.25000000       0.10000000 </v>
   <v>       0.32142857       0.25000000       0.10000000 </v>
   <v>       0.35714286       0.25000000       0.10000000 </v>
   <v>       0.39285714       0.25000000       0.10000000 </v>
   <v>       0.42857143       0.25000000       0.10000000 </v>
   <v>       0.46428571       0.25000000       0.10000000 </v>
   <v>       0.28571429       0.28571429       0.10000000 </v>
   <v>       0.32142857       0.28571429       0.10000000 </v>
   <v>       0.35714286       0.28571429       0.10000000 </v>
   <v>       0.39285714       0.28571429       0.10000000 </v>
   <v>       0.32142857       0.32142857       0.10000000 </v>
   <v>       0.00000000       0.00000000       0.20000000 </v>
   <v>       0.03571429       0.00000000       0.20000000 </v>
   <v>       0.07142857       0.00000000       0.20000000 </v>
   <v>       0.10714286       0.00000000       0.20000000 </v>
   <v>       0.14285714       0.00000000       0.20000000 </v>
   <v>       0.17857143       0.00000000       0.20000000 </v>
   <v>       0.21428571       0.00000000       0.20000000 </v>
   <v>       0.25000000       0.00000000       0.20000000 </v>
   <v>       0.28571429       0.00000000       0.20000000 </v>
   <v>       0.32142857       0.00000000       0.20000000 </v>
   <v>       0.35714286       0.00000000       0.20000000 </v>
   <v>       0.39285714       0.00000000       0.20000000 </v>
   <v>       0.42857143       0.00000000       0.20000000 </v>
   <v>       0.46428571       0.00000000       0.20000000 </v>
   <v>       0.50000000       0.00000000       0.20000000 </v>
   <v>      -0.46428571       0.00000000       0.20000000 </v>
   <v>      -0.42857143       0.00000000       0.20000000 </v>
   <v>      -0.39285714       0.00000000       0.20000000 </v>
   <v>      -0.35714286       0.00000000       0.20000000 </v>
   <v>      -0.32142857       0.00000000       0.20000000 </v>
   <v>      -0.28571429       0.00000000       0.20000000 </v>
   <v>      -0.25000000       0.00000000       0.20000000 </v>
   <v>      -0.21428571       0.00000000       0.20000000 </v>
   <v>      -0.17857143       0.00000000       0.20000000 </v>
   <v>      -0.14285714       0.00000000       0.20000000 </v>
   <v>      -0.10714286       0.00000000       0.20000000 </v>
   <v>      -0.07142857       0.00000000       0.20000000 </v>
   <v>      -0.03571429       0.00000000       0.20000000 </v>
   <v>       0.03571429       0.03571429       0.20000000 </v>
   <v>       0.07142857       0.03571429       0.20000000 </v>
   <v>       0.10714286       0.03571429       0.20000000 </v>
   <v>       0.14285714       0.03571429       0.20000000 </v>
   <v>       0.17857143       0.03571429       0.20000000 </v>
   <v>       0.21428571       0.03571429       0.20000000 </v>
   <v>       0.25000000       0.03571429       0.20000000 </v>
   <v>       0.28571429       0.03571429       0.20000000 </v>
   <v>       0.32142857       0.03571429       0.20000000 </v>
   <v>       0.35714286       0.03571429       0.20000000 </v>
   <v>       0.39285714       0.03571429       0.20000000 </v>
   <v>       0.42857143       0.03571429       0.20000000 </v>
   <v>       0.46428571       0.03571429       0.20000000 </v>
   <v>       0.50000000       0.03571429       0.20000000 </v>
   <v>      -0.46428571       0.03571429       0.20000000 </v>
   <v>      -0.42857143       0.03571429       0.20000000 </v>
   <v>      -0.39285714       0.03571429       0.20000000 </v>
   <v>      -0.35714286       0.03571429       0.20000000 </v>
   <v>      -0.32142857       0.03571429       0.20000000 </v>
   <v>      -0.28571429       0.03571429       0.20000000 </v>
   <v>      -0.25000000       0.03571429       0.20000000 </v>
   <v>      -0.21428571       0.03571429       0.20000000 </v>
   <v>      -0.17857143       0.03571429       0.20000000 </v>
   <v>      -0.14285714       0.03571429       0.20000000 </v>
   <v>      -0.10714286       0.03571429       0.20000000 </v>
   <v>       0.07142857       0.07142857       0.20000000 </v>
   <v>       0.10714286       0.07142857       0.20000000 </v>
   <v>       0.14285714       0.07142857       0.20000000 </v>
   <v>       0.17857143       0.07142857       0.20000000 </v>
   <v>       0.21428571       0.07142857       0.20000000 </v>
   <v>       0.25000000       0.07142857       0.20000000 </v>
   <v>       0.28571429       0.07142857       0.20000000 </v>
   <v>       0.32142857       0.07142857       0.20000000 </v>
   <v>       0.35714286       0.07142857       0.20000000 </v>
   <v>       0.39285714       0.07142857       0.20000000 </v>
   <v>       0.42857143       0.07142857       0.20000000 </v>
   <v>       0.46428571       0.07142857       0.20000000 </v>
   <v>       0.50000000       0.07142857       0.20000000 </v>
   <v>      -0.46428571       0.07142857       0.20000000 </v>
   <v>      -0.42857143       0.07142857       0.20000000 </v>
   <v>      -0.39285714       0.07142857       0.20000000 </v>
   <v>      -0.35714286       0.07142857       0.20000000 </v>
   <v>      -0.32142857       0.07142857       0.20000000 </v>
   <v>      -0.28571429       0.07142857       0.20000000 </v>
   <v>      -0.25000000       0.07142857       0.20000000 </v>
   <v>      -0.21428571       0.07142857       0.20000000 </v>
   <v>      -0.17857143       0.07142857       0.20000000 </v>
   <v>       0.10714286       0.10714286       0.20000000 </v>
   <v>       0.14285714       0.10714286       0.20000000 </v>
   <v>       0.17857143       0.10714286       0.20000000 </v>
   <v>       0.21428571       0.10714286       0.20000000 </v>
   <v>       0.25000000       0.10714286       0.20000000 </v>
   <v>       0.28571429       0.10714286       0.20000000 </v>
   <v>       0.32142857       0.10714286       0.20000000 </v>
   <v>       0.35714286       0.10714286       0.20000000 </v>
   <v>       0.39285714       0.10714286       0.20000000 </v>
   <v>       0.42857143       0.10714286       0.20000000 </v>
   <v>       0.46428571       0.10714286       0.20000000 </v>
   <v>       0.50000000       0.10714286       0.20000000 </v>
   <v>      -0.46428571       0.10714286       0.20000000 </v>
   <v>      -0.42857143       0.10714286       0.20000000 </v>
   <v>      -0.39285714       0.10714286       0.20000000 </v>
   <v>      -0.35714286       0.10714286       0.20000000 </v>
   <v>      -0.32142857       0.10714286       0.20000000 </v>
   <v>      -0.28571429       0.10714286       0.20000000 </v>
   <v>      -0.25000000       0.10714286       0.20000000 </v>
   <v>       0.14285714       0.14285714       0.20000000 </v>
   <v>       0.17857143       0.14285714       0.20000000 </v>
   <v>       0.21428571       0.14285714       0.20000000 </v>
   <v>       0.25000000       0.14285714       0.20000000 </v>
   <v>       0.28571429       0.14285714       0.20000000 </v>
   <v>       0.32142857       0.14285714       0.20000000 </v>
   <v>       0.35714286       0.14285714       0.20000000 </v>
   <v>       0.39285714       0.14285714       0.20000000 </v>
   <v>       0.42857143       0.14285714       0.20000000 </v>
   <v>       0.46428571       0.14285714       0.20000000 </v>
   <v>       0.50000000       0.14285714       0.20000000 </v>
   <v>      -0.46428571       0.14285714       0.20000000 </v>
   <v>      -0.42857143       0.14285714       0.20000000 </v>
   <v>      -0.39285714       0.14285714       0.20000000 </v>
   <v>      -0.35714286       0.14285714       0.20000000 </v>
   <v>      -0.32142857       0.14285714       0.20000000 </v>
   <v>       0.17857143       0.17857143       0.20000000 </v>
   <v>       0.21428571       0.17857143       0.20000000 </v>
   <v>       0.25000000       0.17857143       0.20000000 </v>
   <v>       0.28571429       0.17857143       0.20000000 </v>
   <v>       0.32142857       0.17857143       0.20000000 </v>
   <v>       0.35714286       0.17857143       0.20000000 </v>
   <v>       0.39285714       0.17857143       0.20000000 </v>
   <v>       0.42857143       0.17857143       0.20000000 </v>
   <v>       0.46428571       0.17857143       0.20000000 </v>
   <v>       0.50000000       0.17857143       0.20000000 </v>
   <v>      -0.46428571       0.17857143       0.20000000 </v>
   <v>      -0.42857143       0.17857143       0.20000000 </v>
   <v>      -0.39285714       0.17857143       0.20000000 </v>
   <v>       0.21428571       0.21428571       0.20000000 </v>
   <v>       0.25000000       0.21428571       0.20000000 </v>
   <v>       0.28571429       0.21428571       0.20000000 </v>
   <v>       0.32142857       0.21428571       0.20000000 </v>
   <v>       0.35714286       0.21428571       0.20000000 </v>
   <v>       0.39285714       0.21428571       0.20000000 </v>
   <v>       0.42857143       0.21428571       0.20000000 </v>
   <v>       0.46428571       0.21428571       0.20000000 </v>
   <v>       0.50000000       0.21428571       0.20000000 </v>
   <v>      -0.46428571       0.21428571       0.20000000 </v>
   <v>       0.25000000       0.25000000       0.20000000 </v>
   <v>       0.28571429       0.25000000       0.20000000 </v>
   <v>       0.32142857       0.25000000       0.20000000 </v>
   <v>       0.35714286       0.25000000       0.20000000 </v>
   <v>       0.39285714       0.25000000       0.20000000 </v>
   <v>       0.42857143       0.25000000       0.20000000 </v>
   <v>       0.46428571       0.25000000       0.20000000 </v>
   <v>       0.28571429       0.28571429       0.20000000 </v>
   <v>       0.32142857       0.28571429       0.20000000 </v>
   <v>       0.35714286       0.28571429       0.20000000 </v>
   <v>       0.39285714       0.28571429       0.20000000 </v>
   <v>       0.32142857       0.32142857       0.20000000 </v>
   <v>       0.00000000       0.00000000       0.30000000 </v>
   <v>       0.03571429       0.00000000       0.30000000 </v>
   <v>       0.07142857       0.00000000       0.30000000 </v>
   <v>       0.10714286       0.00000000       0.30000000 </v>
   <v>       0.14285714       0.00000000       0.30000000 </v>
   <v>       0.17857143       0.00000000       0.30000000 </v>
   <v>       0.21428571       0.00000000       0.30000000 </v>
   <v>       0.25000000       0.00000000       0.30000000 </v>
   <v>       0.28571429       0.00000000       0.30000000 </v>
   <v>       0.32142857       0.00000000       0.30000000 </v>
   <v>       0.35714286       0.00000000       0.30000000 </v>
   <v>       0.39285714       0.00000000       0.30000000 </v>
   <v>       0.42857143       0.00000000       0.30000000 </v>
   <v>       0.46428571       0.00000000       0.30000000 </v>
   <v>       0.50000000       0.00000000       0.30000000 </v>
   <v>      -0.46428571       0.00000000       0.30000000 </v>
   <v>      -0.42857143       0.00000000       0.30000000 </v>
   <v>      -0.39285714       0.00000000       0.30000000 </v>
   <v>      -0.35714286       0.00000000       0.30000000 </v>
   <v>      -0.32142857       0.00000000       0.30000000 </v>
   <v>      -0.28571429       0.00000000       0.30000000 </v>
   <v>      -0.25000000       0.00000000       0.30000000 </v>
   <v>      -0.21428571       0.00000000       0.30000000 </v>
   <v>      -0.17857143       0.00000000       0.30000000 </v>
   <v>      -0.14285714       0.00000000       0.30000000 </v>
   <v>      -0.10714286       0.00000000       0.30000000 </v>
   <v>      -0.07142857       0.00000000       0.30000000 </v>
   <v>      -0.03571429       0.00000000       0.30000000 </v>
   <v>       0.03571429       0.03571429       0.30000000 </v>
   <v>       0.07142857       0.03571429       0.30000000 </v>
   <v>       0.10714286       0.03571429       0.30000000 </v>
   <v>       0.14285714       0.03571429       0.30000000 </v>
   <v>       0.17857143       0.03571429       0.30000000 </v>
   <v>       0.21428571       0.03571429       0.30000000 </v>
   <v>       0.25000000       0.03571429       0.30000000 </v>
   <v>       0.28571429       0.03571429       0.30000000 </v>
   <v>       0.32142857       0.03571429       0.30000000 </v>
   <v>       0.35714286       0.03571429       0.30000000 </v>
   <v>       0.39285714       0.03571429       0.30000000 </v>
   <v>       0.42857143       0.03571429       0.30000000 </v>
   <v>       0.46428571       0.03571429       0.30000000 </v>
   <v>       0.50000000       0.03571429       0.30000000 </v>
   <v>      -0.46428571       0.03571429       0.30000000 </v>
   <v>      -0.42857143       0.03571429       0.30000000 </v>
   <v>      -0.39285714       0.03571429       0.30000000 </v>
   <v>      -0.35714286       0.03571429       0.30000000 </v>
   <v>      -0.32142857       0.03571429       0.30000000 </v>
   <v>      -0.28571429       0.03571429       0.30000000 </v>
   <v>      -0.25000000       0.03571429       0.30000000 </v>
   <v>      -0.21428571       0.03571429       0.30000000 </v>
   <v>      -0.17857143       0.03571429       0.30000000 </v>
   <v>      -0.14285714       0.03571429       0.30000000 </v>
   <v>      -0.10714286       0.03571429       0.30000000 </v>
   <v>       0.07142857       0.07142857       0.30000000 </v>
   <v>       0.10714286       0.07142857       0.30000000 </v>
   <v>       0.14285714       0.07142857       0.30000000 </v>
   <v>       0.17857143       0.07142857       0.30000000 </v>
   <v>       0.21428571       0.07142857       0.30000000 </v>
   <v>       0.25000000       0.07142857       0.30000000 </v>
   <v>       0.28571429       0.07142857       0.30000000 </v>
   <v>       0.32142857       0.07142857       0.30000000 </v>
   <v>       0.35714286       0.07142857       0.30000000 </v>
   <v>       0.39285714       0.07142857       0.30000000 </v>
   <v>       0.42857143       0.07142857       0.30000000 </v>
   <v>       0.46428571       0.07142857       0.30000000 </v>
   <v>       0.50000000       0.07142857       0.30000000 </v>
   <v>      -0.46428571       0.07142857       0.30000000 </v>
   <v>      -0.42857143       0.07142857       0.30000000 </v>
   <v>      -0.39285714       0.07142857       0.30000000 </v>
   <v>      -0.35714286       0.07142857       0.30000000 </v>
   <v>      -0.32142857       0.07142857       0.30000000 </v>
   <v>      -0.28571429       0.07142857       0.30000000 </v>
   <v>      -0.25000000       0.07142857       0.30000000 </v>
   <v>      -0.21428571       0.07142857       0.30000000 </v>
   <v>      -0.17857143       0.07142857       0.30000000 </v>
   <v>       0.10714286       0.10714286       0.30000000 </v>
   <v>       0.14285714       0.10714286       0.30000000 </v>
   <v>       0.17857143       0.10714286       0.30000000 </v>
   <v>       0.21428571       0.10714286       0.30000000 </v>
   <v>       0.25000000       0.10714286       0.30000000 </v>
   <v>       0.28571429       0.10714286       0.30000000 </v>
   <v>       0.32142857       0.10714286       0.30000000 </v>
   <v>       0.35714286       0.10714286       0.30000000 </v>
   <v>       0.39285714       0.10714286       0.30000000 </v>
   <v>       0.42857143       0.10714286       0.30000000 </v>
   <v>       0.46428571       0.10714286       0.30000000 </v>
   <v>       0.50000000       0.10714286       0.30000000 </v>
   <v>      -0.46428571       0.10714286       0.30000000 </v>
   <v>      -0.42857143       0.10714286       0.30000000 </v>
   <v>      -0.39285714       0.10714286       0.30000000 </v>
   <v>      -0.35714286       0.10714286       0.30000000 </v>
   <v>      -0.32142857       0.10714286       0.30000000 </v>
   <v>      -0.28571429       0.10714286       0.30000000 </v>
   <v>      -0.25000000       0.10714286       0.30000000 </v>
   <v>       0.14285714       0.14285714       0.30000000 </v>
   <v>       0.17857143       0.14285714       0.30000000 </v>
   <v>       0.21428571       0.14285714       0.30000000 </v>
   <v>       0.25000000       0.14285714       0.30000000 </v>
   <v>       0.28571429       0.14285714       0.30000000 </v>
   <v>       0.32142857       0.14285714       0.30000000 </v>
   <v>       0.35714286       0.14285714       0.30000000 </v>
   <v>       0.39285714       0.14285714       0.30000000 </v>
   <v>       0.42857143       0.14285714       0.30000000 </v>
   <v>       0.46428571       0.14285714       0.30000000 </v>
   <v>       0.50000000       0.14285714       0.30000000 </v>
   <v>      -0.46428571       0.14285714       0.30000000 </v>
   <v>      -0.42857143       0.14285714       0.30000000 </v>
   <v>      -0.39285714       0.14285714       0.30000000 </v>
   <v>      -0.35714286       0.14285714       0.30000000 </v>
   <v>      -0.32142857       0.14285714       0.30000000 </v>
   <v>       0.17857143       0.17857143       0.30000000 </v>
   <v>       0.21428571       0.17857143       0.30000000 </v>
   <v>       0.25000000       0.17857143       0.30000000 </v>
   <v>       0.28571429       0.17857143       0.30000000 </v>
   <v>       0.32142857       0.17857143       0.30000000 </v>
   <v>       0.35714286       0.17857143       0.30000000 </v>
   <v>       0.39285714       0.17857143       0.30000000 </v>
   <v>       0.42857143       0.17857143       0.30000000 </v>
   <v>       0.46428571       0.17857143       0.30000000 </v>
   <v>       0.50000000       0.17857143       0.30000000 </v>
   <v>      -0.46428571       0.17857143       0.30000000 </v>
   <v>      -0.42857143       0.17857143       0.30000000 </v>
   <v>      -0.39285714       0.17857143       0.30000000 </v>
   <v>       0.21428571       0.21428571       0.30000000 </v>
   <v>       0.25000000       0.21428571       0.30000000 </v>
   <v>       0.28571429       0.21428571       0.30000000 </v>
   <v>       0.32142857       0.21428571       0.30000000 </v>
   <v>       0.35714286       0.21428571       0.30000000 </v>
   <v>       0.39285714       0.21428571       0.30000000 </v>
   <v>       0.42857143       0.21428571       0.30000000 </v>
   <v>       0.46428571       0.21428571       0.30000000 </v>
   <v>       0.50000000       0.21428571       0.30000000 </v>
   <v>      -0.46428571       0.21428571       0.30000000 </v>
   <v>       0.25000000       0.25000000       0.30000000 </v>
   <v>       0.28571429       0.25000000       0.30000000 </v>
   <v>       0.32142857       0.25000000       0.30000000 </v>
   <v>       0.35714286       0.25000000       0.30000000 </v>
   <v>       0.39285714       0.25000000       0.30000000 </v>
   <v>       0.42857143       0.25000000       0.30000000 </v>
   <v>       0.46428571       0.25000000       0.30000000 </v>
   <v>       0.28571429       0.28571429       0.30000000 </v>
   <v>       0.32142857       0.28571429       0.30000000 </v>
   <v>       0.35714286       0.28571429       0.30000000 </v>
   <v>       0.39285714       0.28571429       0.30000000 </v>
   <v>       0.32142857       0.32142857       0.30000000 </v>
   <v>       0.00000000       0.00000000       0.40000000 </v>
   <v>       0.03571429       0.00000000       0.40000000 </v>
   <v>       0.07142857       0.00000000       0.40000000 </v>
   <v>       0.10714286       0.00000000       0.40000000 </v>
   <v>       0.14285714       0.00000000       0.40000000 </v>
   <v>       0.17857143       0.00000000       0.40000000 </v>
   <v>       0.21428571       0.00000000       0.40000000 </v>
   <v>       0.25000000       0.00000000       0.40000000 </v>
   <v>       0.28571429       0.00000000       0.40000000 </v>
   <v>       0.32142857       0.00000000       0.40000000 </v>
   <v>       0.35714286       0.00000000       0.40000000 </v>
   <v>       0.39285714       0.00000000       0.40000000 </v>
   <v>       0.42857143       0.00000000       0.40000000 </v>
   <v>       0.46428571       0.00000000       0.40000000 </v>
   <v>       0.50000000       0.00000000       0.40000000 </v>
   <v>      -0.46428571       0.00000000       0.40000000 </v>
   <v>      -0.42857143       0.00000000       0.40000000 </v>
   <v>      -0.39285714       0.00000000       0.40000000 </v>
   <v>      -0.35714286       0.00000000       0.40000000 </v>
   <v>      -0.32142857       0.00000000       0.40000000 </v>
   <v>      -0.28571429       0.00000000       0.40000000 </v>
   <v>      -0.25000000       0.00000000       0.40000000 </v>
   <v>      -0.21428571       0.00000000       0.40000000 </v>
   <v>      -0.17857143       0.00000000       0.40000000 </v>
   <v>      -0.14285714       0.00000000       0.40000000 </v>
   <v>      -0.10714286       0.00000000       0.40000000 </v>
   <v>      -0.07142857       0.00000000       0.40000000 </v>
   <v>      -0.03571429       0.00000000       0.40000000 </v>
   <v>       0.03571429       0.03571429       0.40000000 </v>
   <v>       0.07142857       0.03571429       0.40000000 </v>
   <v>       0.10714286       0.03571429       0.40000000 </v>
   <v>       0.14285714       0.03571429       0.40000000 </v>
   <v>       0.17857143       0.03571429       0.40000000 </v>
   <v>       0.21428571       0.03571429       0.40000000 </v>
   <v>       0.25000000       0.03571429       0.40000000 </v>
   <v>       0.28571429       0.03571429       0.40000000 </v>
   <v>       0.32142857       0.03571429       0.40000000 </v>
   <v>       0.35714286       0.03571429       0.40000000 </v>
   <v>       0.39285714       0.03571429       0.40000000 </v>
   <v>       0.42857143       0.03571429       0.40000000 </v>
   <v>       0.46428571       0.03571429       0.40000000 </v>
   <v>       0.50000000       0.03571429       0.40000000 </v>
   <v>      -0.46428571       0.03571429       0.40000000 </v>
   <v>      -0.42857143       0.03571429       0.40000000 </v>
   <v>      -0.39285714       0.03571429       0.40000000 </v>
   <v>      -0.35714286       0.03571429       0.40000000 </v>
   <v>      -0.32142857       0.03571429       0.40000000 </v>
   <v>      -0.28571429       0.03571429       0.40000000 </v>
   <v>      -0.25000000       0.03571429       0.40000000 </v>
   <v>      -0.21428571       0.03571429       0.40000000 </v>
   <v>      -0.17857143       0.03571429       0.40000000 </v>
   <v>      -0.14285714       0.03571429       0.40000000 </v>
   <v>      -0.10714286       0.03571429       0.40000000 </v>
   <v>       0.07142857       0.07142857       0.40000000 </v>
   <v>       0.10714286       0.07142857       0.40000000 </v>
   <v>       0.14285714       0.07142857       0.40000000 </v>
   <v>       0.17857143       0.07142857       0.40000000 </v>
   <v>       0.21428571       0.07142857       0.40000000 </v>
   <v>       0.25000000       0.07142857       0.40000000 </v>
   <v>       0.28571429       0.07142857       0.40000000 </v>
   <v>       0.32142857       0.07142857       0.40000000 </v>
   <v>       0.35714286       0.07142857       0.40000000 </v>
   <v>       0.39285714       0.07142857       0.40000000 </v>
   <v>       0.42857143       0.07142857       0.40000000 </v>
   <v>       0.46428571       0.07142857       0.40000000 </v>
   <v>       0.50000000       0.07142857       0.40000000 </v>
   <v>      -0.46428571       0.07142857       0.40000000 </v>
   <v>      -0.42857143       0.07142857       0.40000000 </v>
   <v>      -0.39285714       0.07142857       0.40000000 </v>
   <v>      -0.35714286       0.07142857       0.40000000 </v>
   <v>      -0.32142857       0.07142857       0.40000000 </v>
   <v>      -0.28571429       0.07142857       0.40000000 </v>
   <v>      -0.25000000       0.07142857       0.40000000 </v>
   <v>      -0.21428571       0.07142857       0.40000000 </v>
   <v>      -0.17857143       0.07142857       0.40000000 </v>
   <v>       0.10714286       0.10714286       0.40000000 </v>
   <v>       0.14285714       0.10714286       0.40000000 </v>
   <v>       0.17857143       0.10714286       0.40000000 </v>
   <v>       0.21428571       0.10714286       0.40000000 </v>
   <v>       0.25000000       0.10714286       0.40000000 </v>
   <v>       0.28571429       0.10714286       0.40000000 </v>
   <v>       0.32142857       0.10714286       0.40000000 </v>
   <v>       0.35714286       0.10714286       0.40000000 </v>
   <v>       0.39285714       0.10714286       0.40000000 </v>
   <v>       0.42857143       0.10714286       0.40000000 </v>
   <v>       0.46428571       0.10714286       0.40000000 </v>
   <v>       0.50000000       0.10714286       0.40000000 </v>
   <v>      -0.46428571       0.10714286       0.40000000 </v>
   <v>      -0.42857143       0.10714286       0.40000000 </v>
   <v>      -0.39285714       0.10714286       0.40000000 </v>
   <v>      -0.35714286       0.10714286       0.40000000 </v>
   <v>      -0.32142857       0.10714286       0.40000000 </v>
   <v>      -0.28571429       0.10714286       0.40000000 </v>
   <v>      -0.25000000       0.10714286       0.40000000 </v>
   <v>       0.14285714       0.14285714       0.40000000 </v>
   <v>       0.17857143       0.14285714       0.40000000 </v>
   <v>       0.21428571       0.14285714       0.40000000 </v>
   <v>       0.25000000       0.14285714       0.40000000 </v>
   <v>       0.28571429       0.14285714       0.40000000 </v>
   <v>       0.32142857       0.14285714       0.40000000 </v>
   <v>       0.35714286       0.14285714       0.40000000 </v>
   <v>       0.39285714       0.14285714       0.40000000 </v>
   <v>       0.42857143       0.14285714       0.40000000 </v>
   <v>       0.46428571       0.14285714       0.40000000 </v>
   <v>       0.50000000       0.14285714       0.40000000 </v>
   <v>      -0.46428571       0.14285714       0.40000000 </v>
   <v>      -0.42857143       0.14285714       0.40000000 </v>
   <v>      -0.39285714       0.14285714       0.40000000 </v>
   <v>      -0.35714286       0.14285714       0.40000000 </v>
   <v>      -0.32142857       0.14285714       0.40000000 </v>
   <v>       0.17857143       0.17857143       0.40000000 </v>
   <v>       0.21428571       0.17857143       0.40000000 </v>
   <v>       0.25000000       0.17857143       0.40000000 </v>
   <v>       0.28571429       0.17857143       0.40000000 </v>
   <v>       0.32142857       0.17857143       0.40000000 </v>
   <v>       0.35714286       0.17857143       0.40000000 </v>
   <v>       0.39285714       0.17857143       0.40000000 </v>
   <v>       0.42857143       0.17857143       0.40000000 </v>
   <v>       0.46428571       0.17857143       0.40000000 </v>
   <v>       0.50000000       0.17857143       0.40000000 </v>
   <v>      -0.46428571       0.17857143       0.40000000 </v>
   <v>      -0.42857143       0.17857143       0.40000000 </v>
   <v>      -0.39285714       0.17857143       0.40000000 </v>
   <v>       0.21428571       0.21428571       0.40000000 </v>
   <v>       0.25000000       0.21428571       0.40000000 </v>
   <v>       0.28571429       0.21428571       0.40000000 </v>
   <v>       0.32142857       0.21428571       0.40000000 </v>
   <v>       0.35714286       0.21428571       0.40000000 </v>
   <v>       0.39285714       0.21428571       0.40000000 </v>
   <v>       0.42857143       0.21428571       0.40000000 </v>
   <v>       0.46428571       0.21428571       0.40000000 </v>
   <v>       0.50000000       0.21428571       0.40000000 </v>
   <v>      -0.46428571       0.21428571       0.40000000 </v>
   <v>       0.25000000       0.25000000       0.40000000 </v>
   <v>       0.28571429       0.25000000       0.40000000 </v>
   <v>       0.32142857       0.25000000       0.40000000 </v>
   <v>       0.35714286       0.25000000       0.40000000 </v>
   <v>       0.39285714       0.25000000       0.40000000 </v>
   <v>       0.42857143       0.25000000       0.40000000 </v>
   <v>       0.46428571       0.25000000       0.40000000 </v>
   <v>       0.28571429       0.28571429       0.40000000 </v>
   <v>       0.32142857       0.28571429       0.40000000 </v>
   <v>       0.35714286       0.28571429       0.40000000 </v>
   <v>       0.39285714       0.28571429       0.40000000 </v>
   <v>       0.32142857       0.32142857       0.40000000 </v>
   <v>       0.00000000       0.00000000       0.50000000 </v>
   <v>       0.03571429       0.00000000       0.50000000 </v>
   <v>       0.07142857       0.00000000       0.50000000 </v>
   <v>       0.10714286       0.00000000       0.50000000 </v>
   <v>       0.14285714       0.00000000       0.50000000 </v>
   <v>       0.17857143       0.00000000       0.50000000 </v>
   <v>       0.21428571       0.00000000       0.50000000 </v>
   <v>       0.25000000       0.00000000       0.50000000 </v>
   <v>       0.28571429       0.00000000       0.50000000 </v>
   <v>       0.32142857       0.00000000       0.50000000 </v>
   <v>       0.35714286       0.00000000       0.50000000 </v>
   <v>       0.39285714       0.00000000       0.50000000 </v>
   <v>       0.42857143       0.00000000       0.50000000 </v>
   <v>       0.46428571       0.00000000       0.50000000 </v>
   <v>       0.50000000       0.00000000       0.50000000 </v>
   <v>       0.03571429       0.03571429       0.50000000 </v>
   <v>       0.07142857       0.03571429       0.50000000 </v>
   <v>       0.10714286       0.03571429       0.50000000 </v>
   <v>       0.14285714       0.03571429       0.50000000 </v>
   <v>       0.17857143       0.03571429       0.50000000 </v>
   <v>       0.21428571       0.03571429       0.50000000 </v>
   <v>       0.25000000       0.03571429       0.50000000 </v>
   <v>       0.28571429       0.03571429       0.50000000 </v>
   <v>       0.32142857       0.03571429       0.50000000 </v>
   <v>       0.35714286       0.03571429       0.50000000 </v>
   <v>       0.39285714       0.03571429       0.50000000 </v>
   <v>       0.42857143       0.03571429       0.50000000 </v>
   <v>       0.46428571       0.03571429       0.50000000 </v>
   <v>       0.07142857       0.07142857       0.50000000 </v>
   <v>       0.10714286       0.07142857       0.50000000 </v>
   <v>       0.14285714       0.07142857       0.50000000 </v>
   <v>       0.17857143       0.07142857       0.50000000 </v>
   <v>       0.21428571       0.07142857       0.50000000 </v>
   <v>       0.25000000       0.07142857       0.50000000 </v>
   <v>       0.28571429       0.07142857       0.50000000 </v>
   <v>       0.32142857       0.07142857       0.50000000 </v>
   <v>       0.35714286       0.07142857       0.50000000 </v>
   <v>       0.39285714       0.07142857       0.50000000 </v>
   <v>       0.42857143       0.07142857       0.50000000 </v>
   <v>       0.46428571       0.07142857       0.50000000 </v>
   <v>       0.10714286       0.10714286       0.50000000 </v>
   <v>       0.14285714       0.10714286       0.50000000 </v>
   <v>       0.17857143       0.10714286       0.50000000 </v>
   <v>       0.21428571       0.10714286       0.50000000 </v>
   <v>       0.25000000       0.10714286       0.50000000 </v>
   <v>       0.28571429       0.10714286       0.50000000 </v>
   <v>       0.32142857       0.10714286       0.50000000 </v>
   <v>       0.35714286       0.10714286       0.50000000 </v>
   <v>       0.39285714       0.10714286       0.50000000 </v>
   <v>       0.42857143       0.10714286       0.50000000 </v>
   <v>       0.14285714       0.14285714       0.50000000 </v>
   <v>       0.17857143       0.14285714       0.50000000 </v>
   <v>       0.21428571       0.14285714       0.50000000 </v>
   <v>       0.25000000       0.14285714       0.50000000 </v>
   <v>       0.28571429       0.14285714       0.50000000 </v>
   <v>       0.32142857       0.14285714       0.50000000 </v>
   <v>       0.35714286       0.14285714       0.50000000 </v>
   <v>       0.39285714       0.14285714       0.50000000 </v>
   <v>       0.42857143       0.14285714       0.50000000 </v>
   <v>       0.17857143       0.17857143       0.50000000 </v>
   <v>       0.21428571       0.17857143       0.50000000 </v>
   <v>       0.25000000       0.17857143       0.50000000 </v>
   <v>       0.28571429       0.17857143       0.50000000 </v>
   <v>       0.32142857       0.17857143       0.50000000 </v>
   <v>       0.35714286       0.17857143       0.50000000 </v>
   <v>       0.39285714       0.17857143       0.50000000 </v>
   <v>       0.21428571       0.21428571       0.50000000 </v>
   <v>       0.25000000       0.21428571       0.50000000 </v>
   <v>       0.28571429       0.21428571       0.50000000 </v>
   <v>       0.32142857       0.21428571       0.50000000 </v>
   <v>       0.35714286       0.21428571       0.50000000 </v>
   <v>       0.39285714       0.21428571       0.50000000 </v>
   <v>       0.25000000       0.25000000       0.50000000 </v>
   <v>       0.28571429       0.25000000       0.50000000 </v>
   <v>       0.32142857       0.25000000       0.50000000 </v>
   <v>       0.35714286       0.25000000       0.50000000 </v>
   <v>       0.28571429       0.28571429       0.50000000 </v>
   <v>       0.32142857       0.28571429       0.50000000 </v>
   <v>       0.35714286       0.28571429       0.50000000 </v>
   <v>       0.32142857       0.32142857       0.50000000 </v>
  </varray>
  <varray name="weights" >
   <v>       0.00012755 </v>
   <v>       0.00076531 </v>
   <v>       0.00076531 </v>
   <v>       0.00076531 </v>
   <v>       0.00076531 </v>
   <v>       0.00076531 </v>
   <v>       0.00076531 </v>
   <v>       0.00076531 </v>
   <v>       0.00076531 </v>
   <v>       0.00076531 </v>
   <v>       0.00076531 </v>
   <v>       0.00076531 </v>
   <v>       0.00076531 </v>
   <v>       0.00076531 </v>
   <v>       0.00038265 </v>
   <v>       0.00076531 </v>
   <v>       0.00153061 </v>
   <v>       0.00153061 </v>
   <v>       0.00153061 </v>
   <v>       0.00153061 </v>
   <v>       0.00153061 </v>
   <v>       0.00153061 </v>
   <v>       0.00153061 </v>
   <v>       0.00153061 </v>
   <v>       0.00153061 </v>
   <v>       0.00153061 </v>
   <v>       0.00153061 </v>
   <v>       0.00153061 </v>
   <v>       0.00076531 </v>
   <v>       0.00153061 </v>
   <v>       0.00153061 </v>
   <v>       0.00153061 </v>
   <v>       0.00153061 </v>
   <v>       0.00153061 </v>
   <v>       0.00153061 </v>
   <v>       0.00153061 </v>
   <v>       0.00153061 </v>
   <v>       0.00153061 </v>
   <v>       0.00153061 </v>
   <v>       0.00076531 </v>
   <v>       0.00076531 </v>
   <v>       0.00153061 </v>
   <v>       0.00153061 </v>
   <v>       0.00153061 </v>
   <v>       0.00153061 </v>
   <v>       0.00153061 </v>
   <v>       0.00153061 </v>
   <v>       0.00153061 </v>
   <v>       0.00153061 </v>
   <v>       0.00153061 </v>
   <v>       0.00076531 </v>
   <v>       0.00153061 </v>
   <v>       0.00153061 </v>
   <v>       0.00153061 </v>
   <v>       0.00153061 </v>
   <v>       0.00153061 </v>
   <v>       0.00153061 </v>
   <v>       0.00153061 </v>
   <v>       0.00076531 </v>
   <v>       0.00076531 </v>
   <v>       0.00153061 </v>
   <v>       0.00153061 </v>
   <v>       0.00153061 </v>
   <v>       0.00153061 </v>
   <v>       0.00153061 </v>
   <v>       0.00153061 </v>
   <v>       0.00076531 </v>
   <v>       0.00153061 </v>
   <v>       0.00153061 </v>
   <v>       0.00153061 </v>
   <v>       0.00153061 </v>
   <v>       0.00076531 </v>
   <v>       0.00076531 </v>
   <v>       0.00153061 </v>
   <v>       0.00153061 </v>
   <v>       0.00153061 </v>
   <v>       0.00076531 </v>
   <v>       0.00153061 </v>
   <v>       0.00076531 </v>
   <v>       0.00076531 </v>
   <v>       0.00025510 </v>
   <v>       0.00076531 </v>
   <v>       0.00076531 </v>
   <v>       0.00076531 </v>
   <v>       0.00076531 </v>
   <v>       0.00076531 </v>
   <v>       0.00076531 </v>
   <v>       0.00076531 </v>
   <v>       0.00076531 </v>
   <v>       0.00076531 </v>
   <v>       0.00076531 </v>
   <v>       0.00076531 </v>
   <v>       0.00076531 </v>
   <v>       0.00076531 </v>
   <v>       0.00076531 </v>
   <v>       0.00076531 </v>
   <v>       0.00076531 </v>
   <v>       0.00076531 </v>
   <v>       0.00076531 </v>
   <v>       0.00076531 </v>
   <v>       0.00076531 </v>
   <v>       0.00076531 </v>
   <v>       0.00076531 </v>
   <v>       0.00076531 </v>
   <v>       0.00076531 </v>
   <v>       0.00076531 </v>
   <v>       0.00076531 </v>
   <v>       0.00076531 </v>
   <v>       0.00153061 </v>
   <v>       0.00153061 </v>
   <v>       0.00153061 </v>
   <v>       0.00153061 </v>
   <v>       0.00153061 </v>
   <v>       0.00153061 </v>
   <v>       0.00153061 </v>
   <v>       0.00153061 </v>
   <v>       0.00153061 </v>
   <v>       0.00153061 </v>
   <v>       0.00153061 </v>
   <v>       0.00153061 </v>
   <v>       0.00153061 </v>
   <v>       0.00153061 </v>
   <v>       0.00153061 </v>
   <v>       0.00153061 </v>
   <v>       0.00153061 </v>
   <v>       0.00153061 </v>
   <v>       0.00153061 </v>
   <v>       0.00153061 </v>
   <v>       0.00153061 </v>
   <v>       0.00153061 </v>
   <v>       0.00153061 </v>
   <v>       0.00153061 </v>
   <v>       0.00153061 </v>
   <v>       0.00153061 </v>
   <v>       0.00153061 </v>
   <v>       0.00153061 </v>
   <v>       0.00153061 </v>
   <v>       0.00153061 </v>
   <v>       0.00153061 </v>
   <v>       0.00153061 </v>
   <v>       0.00153061 </v>
   <v>       0.00153061 </v>
   <v>       0.00153061 </v>
   <v>       0.00153061 </v>
   <v>       0.00153061 </v>
   <v>       0.00153061 </v>
   <v>       0.00153061 </v>
   <v>       0.00153061 </v>
   <v>       0.00153061 </v>
   <v>       0.00153061 </v>
   <v>       0.00153061 </v>
   <v>       0.00153061 </v>
   <v>       0.00153061 </v>
   <v>       0.00153061 </v>
   <v>       0.00153061 </v>
   <v>       0.00153061 </v>
   <v>       0.00153061 </v>
   <v>       0.00153061 </v>
   <v>       0.00153061 </v>
   <v>       0.00153061 </v>
   <v>       0.00153061 </v>
   <v>       0.00153061 </v>
   <v>       0.00153061 </v>
   <v>       0.00153061 </v>
   <v>       0.00153061 </v>
   <v>       0.00153061 </v>
   <v>       0.00153061 </v>
   <v>       0.00153061 </v>
   <v>       0.00153061 </v>
   <v>       0.00153061 </v>
   <v>       0.00153061 </v>
   <v>       0.00153061 </v>
   <v>       0.00153061 </v>
   <v>       0.00153061 </v>
   <v>       0.00153061 </v>
   <v>       0.00153061 </v>
   <v>       0.00153061 </v>
   <v>       0.00153061 </v>
   <v>       0.00153061 </v>
   <v>       0.00153061 </v>
   <v>       0.00153061 </v>
   <v>       0.00153061 </v>
   <v>       0.00153061 </v>
   <v>       0.00153061 </v>
   <v>       0.00153061 </v>
   <v>       0.00153061 </v>
   <v>       0.00153061 </v>
   <v>       0.00153061 </v>
   <v>       0.00153061 </v>
   <v>       0.00153061 </v>
   <v>       0.00153061 </v>
   <v>       0.00153061 </v>
   <v>       0.00153061 </v>
   <v>       0.00153061 </v>
   <v>       0.00153061 </v>
   <v>       0.00153061 </v>
   <v>       0.00153061 </v>
   <v>       0.00153061 </v>
   <v>       0.00153061 </v>
   <v>       0.00153061 </v>
   <v>       0.00153061 </v>
   <v>       0.00153061 </v>
   <v>       0.00153061 </v>
   <v>       0.00153061 </v>
   <v>       0.00153061 </v>
   <v>       0.00153061 </v>
   <v>       0.00153061 </v>
   <v>       0.00153061 </v>
   <v>       0.00153061 </v>
   <v>       0.00153061 </v>
   <v>       0.00153061 </v>
   <v>       0.00153061 </v>
   <v>       0.00153061 </v>
   <v>       0.00153061 </v>
   <v>       0.00153061 </v>
   <v>       0.00153061 </v>
   <v>       0.00153061 </v>
   <v>       0.00153061 </v>
   <v>       0.00153061 </v>
   <v>       0.00153061 </v>
   <v>       0.00153061 </v>
   <v>       0.00153061 </v>
   <v>       0.00153061 </v>
   <v>       0.00153061 </v>
   <v>       0.00153061 </v>
   <v>       0.00025510 </v>
   <v>       0.00076531 </v>
   <v>       0.00076531 </v>
   <v>       0.00076531 </v>
   <v>       0.00076531 </v>
   <v>       0.00076531 </v>
   <v>       0.00076531 </v>
   <v>       0.00076531 </v>
   <v>       0.00076531 </v>
   <v>       0.00076531 </v>
   <v>       0.00076531 </v>
   <v>       0.00076531 </v>
   <v>       0.00076531 </v>
   <v>       0.00076531 </v>
   <v>       0.00076531 </v>
   <v>       0.00076531 </v>
   <v>       0.00076531 </v>
   <v>       0.00076531 </v>
   <v>       0.00076531 </v>
   <v>       0.00076531 </v>
   <v>       0.00076531 </v>
   <v>       0.00076531 </v>
   <v>       0.00076531 </v>
   <v>       0.00076531 </v>
   <v>       0.00076531 </v>
   <v>       0.00076531 </v>
   <v>       0.00076531 </v>
   <v>       0.00076531 </v>
   <v>       0.00153061 </v>
   <v>       0.00153061 </v>
   <v>       0.00153061 </v>
   <v>       0.00153061 </v>
   <v>       0.00153061 </v>
   <v>       0.00153061 </v>
   <v>       0.00153061 </v>
   <v>       0.00153061 </v>
   <v>       0.00153061 </v>
   <v>       0.00153061 </v>
   <v>       0.00153061 </v>
   <v>       0.00153061 </v>
   <v>       0.00153061 </v>
   <v>       0.00153061 </v>
   <v>       0.00153061 </v>
   <v>       0.00153061 </v>
   <v>       0.00153061 </v>
   <v>       0.00153061 </v>
   <v>       0.00153061 </v>
   <v>       0.00153061 </v>
   <v>       0.00153061 </v>
   <v>       0.00153061 </v>
   <v>       0.00153061 </v>
   <v>       0.00153061 </v>
   <v>       0.00153061 </v>
   <v>       0.00153061 </v>
   <v>       0.00153061 </v>
   <v>       0.00153061 </v>
   <v>       0.00153061 </v>
   <v>       0.00153061 </v>
   <v>       0.00153061 </v>
   <v>       0.00153061 </v>
   <v>       0.00153061 </v>
   <v>       0.00153061 </v>
   <v>       0.00153061 </v>
   <v>       0.00153061 </v>
   <v>       0.00153061 </v>
   <v>       0.00153061 </v>
   <v>       0.00153061 </v>
   <v>       0.00153061 </v>
   <v>       0.00153061 </v>
   <v>       0.00153061 </v>
   <v>       0.00153061 </v>
   <v>       0.00153061 </v>
   <v>       0.00153061 </v>
   <v>       0.00153061 </v>
   <v>       0.00153061 </v>
   <v>       0.00153061 </v>
   <v>       0.00153061 </v>
   <v>       0.00153061 </v>
   <v>       0.00153061 </v>
   <v>       0.00153061 </v>
   <v>       0.00153061 </v>
   <v>       0.00153061 </v>
   <v>       0.00153061 </v>
   <v>       0.00153061 </v>
   <v>       0.00153061 </v>
   <v>       0.00153061 </v>
   <v>       0.00153061 </v>
   <v>       0.00153061 </v>
   <v>       0.00153061 </v>
   <v>       0.00153061 </v>
   <v>       0.00153061 </v>
   <v>       0.00153061 </v>
   <v>       0.00153061 </v>
   <v>       0.00153061 </v>
   <v>       0.00153061 </v>
   <v>       0.00153061 </v>
   <v>       0.00153061 </v>
   <v>       0.00153061 </v>
   <v>       0.00153061 </v>
   <v>       0.00153061 </v>
   <v>       0.00153061 </v>
   <v>       0.00153061 </v>
   <v>       0.00153061 </v>
   <v>       0.00153061 </v>
   <v>       0.00153061 </v>
   <v>       0.00153061 </v>
   <v>       0.00153061 </v>
   <v>       0.00153061 </v>
   <v>       0.00153061 </v>
   <v>       0.00153061 </v>
   <v>       0.00153061 </v>
   <v>       0.00153061 </v>
   <v>       0.00153061 </v>
   <v>       0.00153061 </v>
   <v>       0.00153061 </v>
   <v>       0.00153061 </v>
   <v>       0.00153061 </v>
   <v>       0.00153061 </v>
   <v>       0.00153061 </v>
   <v>       0.00153061 </v>
   <v>       0.00153061 </v>
   <v>       0.00153061 </v>
   <v>       0.00153061 </v>
   <v>       0.00153061 </v>
   <v>       0.00153061 </v>
   <v>       0.00153061 </v>
   <v>       0.00153061 </v>
   <v>       0.00153061 </v>
   <v>       0.00153061 </v>
   <v>       0.00153061 </v>
   <v>       0.00153061 </v>
   <v>       0.00153061 </v>
   <v>       0.00153061 </v>
   <v>       0.00153061 </v>
   <v>       0.00153061 </v>
   <v>       0.00153061 </v>
   <v>       0.00153061 </v>
   <v>       0.00153061 </v>
   <v>       0.00153061 </v>
   <v>       0.00153061 </v>
   <v>       0.00153061 </v>
   <v>       0.00153061 </v>
   <v>       0.00153061 </v>
   <v>       0.00153061 </v>
   <v>       0.00153061 </v>
   <v>       0.00025510 </v>
   <v>       0.00076531 </v>
   <v>       0.00076531 </v>
   <v>       0.00076531 </v>
   <v>       0.00076531 </v>
   <v>       0.00076531 </v>
   <v>       0.00076531 </v>
   <v>       0.00076531 </v>
   <v>       0.00076531 </v>
   <v>       0.00076531 </v>
   <v>       0.00076531 </v>
   <v>       0.00076531 </v>
   <v>       0.00076531 </v>
   <v>       0.00076531 </v>
   <v>       0.00076531 </v>
   <v>       0.00076531 </v>
   <v>       0.00076531 </v>
   <v>       0.00076531 </v>
   <v>       0.00076531 </v>
   <v>       0.00076531 </v>
   <v>       0.00076531 </v>
   <v>       0.00076531 </v>
   <v>       0.00076531 </v>
   <v>       0.00076531 </v>
   <v>       0.00076531 </v>
   <v>       0.00076531 </v>
   <v>       0.00076531 </v>
   <v>       0.00076531 </v>
   <v>       0.00153061 </v>
   <v>       0.00153061 </v>
   <v>       0.00153061 </v>
   <v>       0.00153061 </v>
   <v>       0.00153061 </v>
   <v>       0.00153061 </v>
   <v>       0.00153061 </v>
   <v>       0.00153061 </v>
   <v>       0.00153061 </v>
   <v>       0.00153061 </v>
   <v>       0.00153061 </v>
   <v>       0.00153061 </v>
   <v>       0.00153061 </v>
   <v>       0.00153061 </v>
   <v>       0.00153061 </v>
   <v>       0.00153061 </v>
   <v>       0.00153061 </v>
   <v>       0.00153061 </v>
   <v>       0.00153061 </v>
   <v>       0.00153061 </v>
   <v>       0.00153061 </v>
   <v>       0.00153061 </v>
   <v>       0.00153061 </v>
   <v>       0.00153061 </v>
   <v>       0.00153061 </v>
   <v>       0.00153061 </v>
   <v>       0.00153061 </v>
   <v>       0.00153061 </v>
   <v>       0.00153061 </v>
   <v>       0.00153061 </v>
   <v>       0.00153061 </v>
   <v>       0.00153061 </v>
   <v>       0.00153061 </v>
   <v>       0.00153061 </v>
   <v>       0.00153061 </v>
   <v>       0.00153061 </v>
   <v>       0.00153061 </v>
   <v>       0.00153061 </v>
   <v>       0.00153061 </v>
   <v>       0.00153061 </v>
   <v>       0.00153061 </v>
   <v>       0.00153061 </v>
   <v>       0.00153061 </v>
   <v>       0.00153061 </v>
   <v>       0.00153061 </v>
   <v>       0.00153061 </v>
   <v>       0.00153061 </v>
   <v>       0.00153061 </v>
   <v>       0.00153061 </v>
   <v>       0.00153061 </v>
   <v>       0.00153061 </v>
   <v>       0.00153061 </v>
   <v>       0.00153061 </v>
   <v>       0.00153061 </v>
   <v>       0.00153061 </v>
   <v>       0.00153061 </v>
   <v>       0.00153061 </v>
   <v>       0.00153061 </v>
   <v>       0.00153061 </v>
   <v>       0.00153061 </v>
   <v>       0.00153061 </v>
   <v>       0.00153061 </v>
   <v>       0.00153061 </v>
   <v>       0.00153061 </v>
   <v>       0.00153061 </v>
   <v>       0.00153061 </v>
   <v>       0.00153061 </v>
   <v>       0.00153061 </v>
   <v>       0.00153061 </v>
   <v>       0.00153061 </v>
   <v>       0.00153061 </v>
   <v>       0.00153061 </v>
   <v>       0.00153061 </v>
   <v>       0.00153061 </v>
   <v>       0.00153061 </v>
   <v>       0.00153061 </v>
   <v>       0.00153061 </v>
   <v>       0.00153061 </v>
   <v>       0.00153061 </v>
   <v>       0.00153061 </v>
   <v>       0.00153061 </v>
   <v>       0.00153061 </v>
   <v>       0.00153061 </v>
   <v>       0.00153061 </v>
   <v>       0.00153061 </v>
   <v>       0.00153061 </v>
   <v>       0.00153061 </v>
   <v>       0.00153061 </v>
   <v>       0.00153061 </v>
   <v>       0.00153061 </v>
   <v>       0.00153061 </v>
   <v>       0.00153061 </v>
   <v>       0.00153061 </v>
   <v>       0.00153061 </v>
   <v>       0.00153061 </v>
   <v>       0.00153061 </v>
   <v>       0.00153061 </v>
   <v>       0.00153061 </v>
   <v>       0.00153061 </v>
   <v>       0.00153061 </v>
   <v>       0.00153061 </v>
   <v>       0.00153061 </v>
   <v>       0.00153061 </v>
   <v>       0.00153061 </v>
   <v>       0.00153061 </v>
   <v>       0.00153061 </v>
   <v>       0.00153061 </v>
   <v>       0.00153061 </v>
   <v>       0.00153061 </v>
   <v>       0.00153061 </v>
   <v>       0.00153061 </v>
   <v>       0.00153061 </v>
   <v>       0.00153061 </v>
   <v>       0.00153061 </v>
   <v>       0.00153061 </v>
   <v>       0.00153061 </v>
   <v>       0.00153061 </v>
   <v>       0.00025510 </v>
   <v>       0.00076531 </v>
   <v>       0.00076531 </v>
   <v>       0.00076531 </v>
   <v>       0.00076531 </v>
   <v>       0.00076531 </v>
   <v>       0.00076531 </v>
   <v>       0.00076531 </v>
   <v>       0.00076531 </v>
   <v>       0.00076531 </v>
   <v>       0.00076531 </v>
   <v>       0.00076531 </v>
   <v>       0.00076531 </v>
   <v>       0.00076531 </v>
   <v>       0.00076531 </v>
   <v>       0.00076531 </v>
   <v>       0.00076531 </v>
   <v>       0.00076531 </v>
   <v>       0.00076531 </v>
   <v>       0.00076531 </v>
   <v>       0.00076531 </v>
   <v>       0.00076531 </v>
   <v>       0.00076531 </v>
   <v>       0.00076531 </v>
   <v>       0.00076531 </v>
   <v>       0.00076531 </v>
   <v>       0.00076531 </v>
   <v>       0.00076531 </v>
   <v>       0.00153061 </v>
   <v>       0.00153061 </v>
   <v>       0.00153061 </v>
   <v>       0.00153061 </v>
   <v>       0.00153061 </v>
   <v>       0.00153061 </v>
   <v>       0.00153061 </v>
   <v>       0.00153061 </v>
   <v>       0.00153061 </v>
   <v>       0.00153061 </v>
   <v>       0.00153061 </v>
   <v>       0.00153061 </v>
   <v>       0.00153061 </v>
   <v>       0.00153061 </v>
   <v>       0.00153061 </v>
   <v>       0.00153061 </v>
   <v>       0.00153061 </v>
   <v>       0.00153061 </v>
   <v>       0.00153061 </v>
   <v>       0.00153061 </v>
   <v>       0.00153061 </v>
   <v>       0.00153061 </v>
   <v>       0.00153061 </v>
   <v>       0.00153061 </v>
   <v>       0.00153061 </v>
   <v>       0.00153061 </v>
   <v>       0.00153061 </v>
   <v>       0.00153061 </v>
   <v>       0.00153061 </v>
   <v>       0.00153061 </v>
   <v>       0.00153061 </v>
   <v>       0.00153061 </v>
   <v>       0.00153061 </v>
   <v>       0.00153061 </v>
   <v>       0.00153061 </v>
   <v>       0.00153061 </v>
   <v>       0.00153061 </v>
   <v>       0.00153061 </v>
   <v>       0.00153061 </v>
   <v>       0.00153061 </v>
   <v>       0.00153061 </v>
   <v>       0.00153061 </v>
   <v>       0.00153061 </v>
   <v>       0.00153061 </v>
   <v>       0.00153061 </v>
   <v>       0.00153061 </v>
   <v>       0.00153061 </v>
   <v>       0.00153061 </v>
   <v>       0.00153061 </v>
   <v>       0.00153061 </v>
   <v>       0.00153061 </v>
   <v>       0.00153061 </v>
   <v>       0.00153061 </v>
   <v>       0.00153061 </v>
   <v>       0.00153061 </v>
   <v>       0.00153061 </v>
   <v>       0.00153061 </v>
   <v>       0.00153061 </v>
   <v>       0.00153061 </v>
   <v>       0.00153061 </v>
   <v>       0.00153061 </v>
   <v>       0.00153061 </v>
   <v>       0.00153061 </v>
   <v>       0.00153061 </v>
   <v>       0.00153061 </v>
   <v>       0.00153061 </v>
   <v>       0.00153061 </v>
   <v>       0.00153061 </v>
   <v>       0.00153061 </v>
   <v>       0.00153061 </v>
   <v>       0.00153061 </v>
   <v>       0.00153061 </v>
   <v>       0.00153061 </v>
   <v>       0.00153061 </v>
   <v>       0.00153061 </v>
   <v>       0.00153061 </v>
   <v>       0.00153061 </v>
   <v>       0.00153061 </v>
   <v>       0.00153061 </v>
   <v>       0.00153061 </v>
   <v>       0.00153061 </v>
   <v>       0.00153061 </v>
   <v>       0.00153061 </v>
   <v>       0.00153061 </v>
   <v>       0.00153061 </v>
   <v>       0.00153061 </v>
   <v>       0.00153061 </v>
   <v>       0.00153061 </v>
   <v>       0.00153061 </v>
   <v>       0.00153061 </v>
   <v>       0.00153061 </v>
   <v>       0.00153061 </v>
   <v>       0.00153061 </v>
   <v>       0.00153061 </v>
   <v>       0.00153061 </v>
   <v>       0.00153061 </v>
   <v>       0.00153061 </v>
   <v>       0.00153061 </v>
   <v>       0.00153061 </v>
   <v>       0.00153061 </v>
   <v>       0.00153061 </v>
   <v>       0.00153061 </v>
   <v>       0.00153061 </v>
   <v>       0.00153061 </v>
   <v>       0.00153061 </v>
   <v>       0.00153061 </v>
   <v>       0.00153061 </v>
   <v>       0.00153061 </v>
   <v>       0.00153061 </v>
   <v>       0.00153061 </v>
   <v>       0.00153061 </v>
   <v>       0.00153061 </v>
   <v>       0.00153061 </v>
   <v>       0.00153061 </v>
   <v>       0.00153061 </v>
   <v>       0.00153061 </v>
   <v>       0.00153061 </v>
   <v>       0.00012755 </v>
   <v>       0.00076531 </v>
   <v>       0.00076531 </v>
   <v>       0.00076531 </v>
   <v>       0.00076531 </v>
   <v>       0.00076531 </v>
   <v>       0.00076531 </v>
   <v>       0.00076531 </v>
   <v>       0.00076531 </v>
   <v>       0.00076531 </v>
   <v>       0.00076531 </v>
   <v>       0.00076531 </v>
   <v>       0.00076531 </v>
   <v>       0.00076531 </v>
   <v>       0.00038265 </v>
   <v>       0.00076531 </v>
   <v>       0.00153061 </v>
   <v>       0.00153061 </v>
   <v>       0.00153061 </v>
   <v>       0.00153061 </v>
   <v>       0.00153061 </v>
   <v>       0.00153061 </v>
   <v>       0.00153061 </v>
   <v>       0.00153061 </v>
   <v>       0.00153061 </v>
   <v>       0.00153061 </v>
   <v>       0.00153061 </v>
   <v>       0.00153061 </v>
   <v>       0.00076531 </v>
   <v>       0.00153061 </v>
   <v>       0.00153061 </v>
   <v>       0.00153061 </v>
   <v>       0.00153061 </v>
   <v>       0.00153061 </v>
   <v>       0.00153061 </v>
   <v>       0.00153061 </v>
   <v>       0.00153061 </v>
   <v>       0.00153061 </v>
   <v>       0.00153061 </v>
   <v>       0.00076531 </v>
   <v>       0.00076531 </v>
   <v>       0.00153061 </v>
   <v>       0.00153061 </v>
   <v>       0.00153061 </v>
   <v>       0.00153061 </v>
   <v>       0.00153061 </v>
   <v>       0.00153061 </v>
   <v>       0.00153061 </v>
   <v>       0.00153061 </v>
   <v>       0.00153061 </v>
   <v>       0.00076531 </v>
   <v>       0.00153061 </v>
   <v>       0.00153061 </v>
   <v>       0.00153061 </v>
   <v>       0.00153061 </v>
   <v>       0.00153061 </v>
   <v>       0.00153061 </v>
   <v>       0.00153061 </v>
   <v>       0.00076531 </v>
   <v>       0.00076531 </v>
   <v>       0.00153061 </v>
   <v>       0.00153061 </v>
   <v>       0.00153061 </v>
   <v>       0.00153061 </v>
   <v>       0.00153061 </v>
   <v>       0.00153061 </v>
   <v>       0.00076531 </v>
   <v>       0.00153061 </v>
   <v>       0.00153061 </v>
   <v>       0.00153061 </v>
   <v>       0.00153061 </v>
   <v>       0.00076531 </v>
   <v>       0.00076531 </v>
   <v>       0.00153061 </v>
   <v>       0.00153061 </v>
   <v>       0.00153061 </v>
   <v>       0.00076531 </v>
   <v>       0.00153061 </v>
   <v>       0.00076531 </v>
   <v>       0.00076531 </v>
  </varray>
 </kpoints>
 <parameters>
  <separator name="general" >
   <i type="string" name="SYSTEM">unknown system</i>
   <i type="logical" name="LCOMPAT"> F  </i>
  </separator>
  <separator name="electronic" >
   <i type="string" name="PREC">accura</i>
   <i name="ENMAX">    500.00000000</i>
   <i name="ENAUG">    412.49600000</i>
   <i name="EDIFF">      0.00000100</i>
   <i type="int" name="IALGO">    68</i>
   <i type="int" name="IWAVPR">    11</i>
   <i type="int" name="NBANDS">    20</i>
   <i name="NELECT">     33.00000000</i>
   <i type="int" name="TURBO">     0</i>
   <i type="int" name="IRESTART">     0</i>
   <i type="int" name="NREBOOT">     0</i>
   <i type="int" name="NMIN">     0</i>
   <i name="EREF">      0.00000000</i>
   <separator name="electronic smearing" >
    <i type="int" name="ISMEAR">     1</i>
    <i name="SIGMA">      0.30000000</i>
    <i name="KSPACING">      0.50000000</i>
    <i type="logical" name="KGAMMA"> T  </i>
   </separator>
   <separator name="electronic projectors" >
    <i type="logical" name="LREAL"> F  </i>
    <v name="ROPT">      0.00000000      0.00000000</v>
    <i type="int" name="LMAXPAW">  -100</i>
    <i type="int" name="LMAXMIX">     2</i>
    <i type="logical" name="NLSPLINE"> F  </i>
   </separator>
   <separator name="electronic startup" >
    <i type="int" name="ISTART">     0</i>
    <i type="int" name="ICHARG">     2</i>
    <i type="int" name="INIWAV">     1</i>
   </separator>
   <separator name="electronic spin" >
    <i type="int" name="ISPIN">     1</i>
    <i type="logical" name="LNONCOLLINEAR"> F  </i>
    <v name="MAGMOM">      1.00000000      1.00000000      1.00000000</v>
    <i name="NUPDOWN">     -1.00000000</i>
    <i type="logical" name="LSORBIT"> F  </i>
    <v name="SAXIS">      0.00000000      0.00000000      1.00000000</v>
    <i type="logical" name="LSPIRAL"> F  </i>
    <v name="QSPIRAL">      0.00000000      0.00000000      0.00000000</v>
    <i type="logical" name="LZEROZ"> F  </i>
   </separator>
   <separator name="electronic exchange-correlation" >
    <i type="logical" name="LASPH"> F  </i>
    <i type="logical" name="LMETAGGA"> F  </i>
   </separator>
   <separator name="electronic convergence" >
    <i type="int" name="NELM">   200</i>
    <i type="int" name="NELMDL">     0</i>
    <i type="int" name="NELMIN">     4</i>
    <i name="ENINI">    500.00000000</i>
    <separator name="electronic convergence detail" >
     <i type="logical" name="LDIAG"> T  </i>
     <i type="logical" name="LSUBROT"> F  </i>
     <i name="WEIMIN">      0.00100000</i>
     <i name="EBREAK">      0.00000001</i>
     <i name="DEPER">      0.30000000</i>
     <i type="int" name="NRMM">     4</i>
     <i name="TIME">      0.40000000</i>
    </separator>
   </separator>
   <separator name="electronic mixer" >
    <i name="AMIX">      0.40000000</i>
    <i name="BMIX">      1.00000000</i>
    <i name="AMIN">      0.10000000</i>
    <i name="AMIX_MAG">      1.60000000</i>
    <i name="BMIX_MAG">      1.00000000</i>
    <separator name="electronic mixer details" >
     <i type="int" name="IMIX">     4</i>
     <i type="int" name="MAXMIX">   -45</i>
     <i name="WC">    100.00000000</i>
     <i type="int" name="INIMIX">     1</i>
     <i type="int" name="MIXPRE">     1</i>
     <i type="int" name="MREMOVE">     5</i>
    </separator>
   </separator>
   <separator name="electronic dipolcorrection" >
    <i type="logical" name="LDIPOL"> F  </i>
    <i type="logical" name="LMONO"> F  </i>
    <i type="int" name="IDIPOL">     0</i>
    <i name="EPSILON">      1.00000000</i>
    <v name="DIPOL">   -100.00000000   -100.00000000   -100.00000000</v>
    <i name="EFIELD">      0.00000000</i>
   </separator>
  </separator>
  <separator name="grids" >
   <i type="int" name="NGX">    24</i>
   <i type="int" name="NGY">    24</i>
   <i type="int" name="NGZ">    54</i>
   <i type="int" name="NGXF">    48</i>
   <i type="int" name="NGYF">    48</i>
   <i type="int" name="NGZF">   108</i>
   <i type="logical" name="ADDGRID"> T  </i>
  </separator>
  <separator name="ionic" >
   <i type="int" name="NSW">    30</i>
   <i type="int" name="IBRION">     2</i>
   <i type="int" name="ISIF">     3</i>
   <i name="PSTRESS">      0.00000000</i>
   <i name="EDIFFG">     -0.02000000</i>
   <i type="int" name="NFREE">     1</i>
   <i name="POTIM">      0.50000000</i>
   <i name="SMASS">     -3.00000000</i>
   <i name="SCALEE">      1.00000000</i>
  </separator>
  <separator name="ionic md" >
   <i name="TEBEG">      0.00010000</i>
   <i name="TEEND">      0.00010000</i>
   <i type="int" name="NBLOCK">     1</i>
   <i type="int" name="KBLOCK">    30</i>
   <i type="int" name="NPACO">   256</i>
   <i name="APACO">     16.00000000</i>
  </separator>
  <separator name="symmetry" >
   <i type="int" name="ISYM">     2</i>
   <i name="SYMPREC">      0.00001000</i>
  </separator>
  <separator name="dos" >
   <i type="logical" name="LORBIT"> F  </i>
   <v name="RWIGS">     -1.00000000     -1.00000000</v>
   <i type="int" name="NEDOS">   301</i>
   <i name="EMIN">     10.00000000</i>
   <i name="EMAX">    -10.00000000</i>
   <i name="EFERMI">      0.00000000</i>
  </separator>
  <separator name="writing" >
   <i type="int" name="NWRITE">     2</i>
   <i type="logical" name="LWAVE"> F  </i>
   <i type="logical" name="LCHARG"> F  </i>
   <i type="logical" name="LPARD"> F  </i>
   <i type="logical" name="LVTOT"> F  </i>
   <i type="logical" name="LVHAR"> F  </i>
   <i type="logical" name="LELF"> F  </i>
   <i type="logical" name="LOPTICS"> F  </i>
   <v name="STM">      0.00000000      0.00000000      0.00000000      0.00000000      0.00000000      0.00000000      0.00000000</v>
  </separator>
  <separator name="performance" >
   <i type="int" name="NPAR">     4</i>
   <i type="int" name="NSIM">     4</i>
   <i type="int" name="NBLK">    -1</i>
   <i type="logical" name="LPLANE"> T  </i>
   <i type="logical" name="LSCALAPACK"> T  </i>
   <i type="logical" name="LSCAAWARE"> F  </i>
   <i type="logical" name="LSCALU"> F  </i>
   <i type="logical" name="LASYNC"> F  </i>
   <i type="logical" name="LORBITALREAL"> F  </i>
  </separator>
  <separator name="miscellaneous" >
   <i type="int" name="IDIOT">     3</i>
   <i type="logical" name="LMUSIC"> F  </i>
   <v name="POMASS">    107.86800000    196.96600000</v>
   <v name="DARWINR">      0.00000000      0.00000000</v>
   <v name="DARWINV">      1.00000000      1.00000000</v>
   <i type="logical" name="LCORR"> T  </i>
  </separator>
  <i type="logical" name="GGA_COMPAT"> T  </i>
  <i type="logical" name="LBERRY"> F  </i>
  <i type="int" name="ICORELEVEL">     0</i>
  <i type="logical" name="LDAU"> F  </i>
  <i type="int" name="I_CONSTRAINED_M">     0</i>
  <separator name="electronic exchange-correlation" >
   <i type="string" name="GGA">--</i>
   <i type="int" name="VOSKOWN">     0</i>
   <i type="logical" name="LHFCALC"> F  </i>
   <i type="string" name="PRECFOCK"></i>
   <i type="logical" name="LSYMGRAD"> F  </i>
   <i type="logical" name="LHFONE"> F  </i>
   <i type="logical" name="LRHFCALC"> F  </i>
   <i type="logical" name="LTHOMAS"> F  </i>
   <i type="logical" name="LMODELHF"> F  </i>
   <i name="ENCUT4O">     -1.00000000</i>
   <i type="int" name="EXXOEP">     0</i>
   <i type="int" name="FOURORBIT">     0</i>
   <i name="AEXX">      0.00000000</i>
   <i name="HFALPHA">      0.00000000</i>
   <i name="MCALPHA">      0.00000000</i>
   <i name="ALDAX">      1.00000000</i>
   <i name="AGGAX">      1.00000000</i>
   <i name="ALDAC">      1.00000000</i>
   <i name="AGGAC">      1.00000000</i>
   <i type="int" name="NKREDX">     1</i>
   <i type="int" name="NKREDY">     1</i>
   <i type="int" name="NKREDZ">     1</i>
   <i type="logical" name="SHIFTRED"> F  </i>
   <i type="logical" name="ODDONLY"> F  </i>
   <i type="logical" name="EVENONLY"> F  </i>
   <i type="int" name="LMAXFOCK">     0</i>
   <i type="int" name="NMAXFOCKAE">     0</i>
   <i type="logical" name="LFOCKAEDFT"> F  </i>
   <i name="HFSCREEN">      0.00000000</i>
   <i name="HFSCREENC">      0.00000000</i>
   <i type="int" name="NBANDSGWLOW">     0</i>
  </separator>
  <separator name="vdW DFT" >
   <i type="logical" name="LUSE_VDW"> F  </i>
   <i name="Zab_VDW">     -0.84910000</i>
   <i name="PARAM1">      0.12340000</i>
   <i name="PARAM2">      1.00000000</i>
   <i name="PARAM3">      0.00000000</i>
  </separator>
  <separator name="model GW" >
   <i type="int" name="MODEL_GW">     0</i>
   <i name="MODEL_EPS0">     10.70773053</i>
   <i name="MODEL_ALPHA">      1.00000000</i>
  </separator>
  <separator name="linear response parameters" >
   <i type="logical" name="LEPSILON"> F  </i>
   <i type="logical" name="LRPA"> F  </i>
   <i type="logical" name="LNABLA"> F  </i>
   <i type="logical" name="LVEL"> F  </i>
   <i type="int" name="KINTER">     0</i>
   <i name="CSHIFT">      0.10000000</i>
   <i name="OMEGAMAX">     -1.00000000</i>
   <i name="DEG_THRESHOLD">      0.00200000</i>
  </separator>
  <separator name="orbital magnetization" >
   <i type="logical" name="NUCIND"> F  </i>
   <v name="MAGPOS">      0.00000000      0.00000000      0.00000000</v>
   <i type="logical" name="LNICSALL"> T  </i>
   <i type="logical" name="ORBITALMAG"> F  </i>
   <i type="logical" name="LMAGBLOCH"> F  </i>
   <i type="logical" name="LCHIMAG"> F  </i>
   <i type="logical" name="LGAUGE"> T  </i>
   <i type="int" name="MAGATOM">     0</i>
   <v name="MAGDIPOL">      0.00000000      0.00000000      0.00000000</v>
   <v name="AVECCONST">      0.00000000      0.00000000      0.00000000</v>
  </separator>
  <separator name="response functions" >
   <i type="logical" name="LADDER"> F  </i>
   <i type="logical" name="LFXC"> F  </i>
   <i type="logical" name="LHARTREE"> T  </i>
   <i type="int" name="IBSE">     0</i>
   <i type="logical" name="LTCTE"> F  </i>
   <i type="logical" name="LTETE"> F  </i>
   <i type="logical" name="LTRIPLET"> F  </i>
   <i type="logical" name="LFXCEPS"> F  </i>
   <i type="logical" name="LFXHEG"> F  </i>
   <i type="logical" name="L2ORDER"> F  </i>
   <i type="logical" name="LUSEW"> F  </i>
[...]
       <r>   14.1485    0.0000 </r>
      </set>
      <set comment="kpoint 736">
       <r>    2.6521    1.0000 </r>
       <r>    2.9089    1.0000 </r>
       <r>    2.9229    1.0000 </r>
       <r>    3.1601    1.0000 </r>
       <r>    3.2201    1.0000 </r>
       <r>    3.3847    1.0000 </r>
       <r>    3.7980    1.0000 </r>
       <r>    3.8677    1.0000 </r>
       <r>    4.3096    1.0000 </r>
       <r>    4.5794    1.0000 </r>
       <r>    5.0331    1.0000 </r>
       <r>    5.3023    1.0000 </r>
       <r>    5.8238    1.0000 </r>
       <r>    6.1671    1.0000 </r>
       <r>    6.2515    1.0000 </r>
       <r>   10.5859    0.0000 </r>
       <r>   10.6440    0.0000 </r>
       <r>   11.4294    0.0000 </r>
       <r>   11.9506    0.0000 </r>
       <r>   14.0270    0.0000 </r>
      </set>
      <set comment="kpoint 737">
       <r>    2.7347    1.0000 </r>
       <r>    2.8153    1.0000 </r>
       <r>    2.9217    1.0000 </r>
       <r>    3.2903    1.0000 </r>
       <r>    3.3641    1.0000 </r>
       <r>    3.4499    1.0000 </r>
       <r>    3.5992    1.0000 </r>
       <r>    3.9497    1.0000 </r>
       <r>    4.0058    1.0000 </r>
       <r>    4.7819    1.0000 </r>
       <r>    4.8903    1.0000 </r>
       <r>    5.1209    1.0000 </r>
       <r>    5.8154    1.0000 </r>
       <r>    6.1200    1.0000 </r>
       <r>    6.3469    1.0000 </r>
       <r>    9.8598    0.0000 </r>
       <r>    9.9316    0.0000 </r>
       <r>   12.5794    0.0000 </r>
       <r>   13.0726    0.0000 </r>
       <r>   13.9318    0.0000 </r>
      </set>
      <set comment="kpoint 738">
       <r>    2.8166    1.0000 </r>
       <r>    2.9310    1.0000 </r>
       <r>    2.9755    1.0000 </r>
       <r>    3.2165    1.0000 </r>
       <r>    3.2969    1.0000 </r>
       <r>    3.3337    1.0000 </r>
       <r>    3.6954    1.0000 </r>
       <r>    3.8880    1.0000 </r>
       <r>    4.0832    1.0000 </r>
       <r>    4.7649    1.0000 </r>
       <r>    4.9265    1.0000 </r>
       <r>    5.1493    1.0000 </r>
       <r>    5.8098    1.0000 </r>
       <r>    6.1418    1.0000 </r>
       <r>    6.2709    1.0000 </r>
       <r>   10.5831    0.0000 </r>
       <r>   10.6641    0.0000 </r>
       <r>   12.0803    0.0000 </r>
       <r>   12.4842    0.0000 </r>
       <r>   13.4697    0.0000 </r>
      </set>
      <set comment="kpoint 739">
       <r>    2.8438    1.0000 </r>
       <r>    2.9965    1.0000 </r>
       <r>    3.0199    1.0000 </r>
       <r>    3.2017    1.0000 </r>
       <r>    3.2031    1.0000 </r>
       <r>    3.2928    1.0000 </r>
       <r>    3.7971    1.0000 </r>
       <r>    3.7975    1.0000 </r>
       <r>    4.1285    1.0000 </r>
       <r>    4.7430    1.0000 </r>
       <r>    4.9436    1.0000 </r>
       <r>    5.1696    1.0000 </r>
       <r>    5.8097    1.0000 </r>
       <r>    6.1738    1.0000 </r>
       <r>    6.2116    1.0000 </r>
       <r>   11.0636    0.0000 </r>
       <r>   11.1996    0.0000 </r>
       <r>   11.5713    0.0000 </r>
       <r>   12.0803    0.0000 </r>
       <r>   13.2978    0.0000 </r>
      </set>
      <set comment="kpoint 740">
       <r>    2.9827    1.0000 </r>
       <r>    3.0352    1.0000 </r>
       <r>    3.0627    1.0000 </r>
       <r>    3.1404    1.0000 </r>
       <r>    3.2028    1.0000 </r>
       <r>    3.2178    1.0000 </r>
       <r>    3.7828    1.0000 </r>
       <r>    3.8920    1.0000 </r>
       <r>    3.9896    1.0000 </r>
       <r>    4.8681    1.0000 </r>
       <r>    4.8769    1.0000 </r>
       <r>    5.0883    1.0000 </r>
       <r>    5.8042    1.0000 </r>
       <r>    6.1633    1.0000 </r>
       <r>    6.2077    1.0000 </r>
       <r>   11.1903    0.0000 </r>
       <r>   11.2350    0.0000 </r>
       <r>   12.0999    0.0000 </r>
       <r>   12.2737    0.0000 </r>
       <r>   12.8279    0.0000 </r>
      </set>
     </set>
    </set>
   </array>
  </eigenvalues>
  <separator name="orbital magnetization" >
   <v name="MAGDIPOLOUT">      0.00000000      0.00000000      0.00000000</v>
  </separator>
  <dos>
   <i name="efermi">      8.42493499 </i>
   <total>
    <array>
     <dimension dim="1">gridpoints</dimension>
     <dimension dim="2">spin</dimension>
     <field>energy</field>
     <field>total</field>
     <field>integrated</field>
     <set>
      <set comment="spin 1">
       <r>    -3.4667     0.0000     0.0000 </r>
       <r>    -3.3713     0.0000     0.0000 </r>
       <r>    -3.2759     0.0000     0.0000 </r>
       <r>    -3.1805     0.0000     0.0000 </r>
       <r>    -3.0851     0.0000     0.0000 </r>
       <r>    -2.9898     0.0000     0.0000 </r>
       <r>    -2.8944     0.0000     0.0000 </r>
       <r>    -2.7990     0.0000     0.0000 </r>
       <r>    -2.7036     0.0000     0.0000 </r>
       <r>    -2.6082     0.0000     0.0000 </r>
       <r>    -2.5128     0.0000     0.0000 </r>
       <r>    -2.4175     0.0000     0.0000 </r>
       <r>    -2.3221     0.0000     0.0000 </r>
       <r>    -2.2267     0.0000     0.0000 </r>
       <r>    -2.1313     0.0000     0.0000 </r>
       <r>    -2.0359     0.0000     0.0000 </r>
       <r>    -1.9406     0.0000     0.0000 </r>
       <r>    -1.8452     0.0000     0.0000 </r>
       <r>    -1.7498     0.0000     0.0000 </r>
       <r>    -1.6544     0.0000     0.0000 </r>
       <r>    -1.5590     0.0000     0.0000 </r>
       <r>    -1.4636     0.0000     0.0000 </r>
       <r>    -1.3683     0.0000     0.0000 </r>
       <r>    -1.2729     0.0000     0.0000 </r>
       <r>    -1.1775    -0.0001     0.0000 </r>
       <r>    -1.0821    -0.0003     0.0000 </r>
       <r>    -0.9867    -0.0009    -0.0001 </r>
       <r>    -0.8914    -0.0021    -0.0003 </r>
       <r>    -0.7960    -0.0038    -0.0007 </r>
       <r>    -0.7006    -0.0043    -0.0011 </r>
       <r>    -0.6052     0.0003    -0.0011 </r>
       <r>    -0.5098     0.0147     0.0003 </r>
       <r>    -0.4144     0.0417     0.0043 </r>
       <r>    -0.3191     0.0791     0.0119 </r>
       <r>    -0.2237     0.1218     0.0235 </r>
       <r>    -0.1283     0.1639     0.0391 </r>
       <r>    -0.0329     0.2013     0.0583 </r>
       <r>     0.0625     0.2312     0.0804 </r>
       <r>     0.1578     0.2522     0.1044 </r>
       <r>     0.2532     0.2644     0.1296 </r>
       <r>     0.3486     0.2704     0.1554 </r>
       <r>     0.4440     0.2739     0.1815 </r>
       <r>     0.5394     0.2784     0.2081 </r>
       <r>     0.6347     0.2870     0.2355 </r>
       <r>     0.7301     0.3031     0.2644 </r>
       <r>     0.8255     0.3287     0.2957 </r>
       <r>     0.9209     0.3626     0.3303 </r>
       <r>     1.0163     0.4022     0.3687 </r>
       <r>     1.1117     0.4466     0.4113 </r>
       <r>     1.2070     0.4954     0.4585 </r>
       <r>     1.3024     0.5466     0.5107 </r>
       <r>     1.3978     0.6025     0.5681 </r>
       <r>     1.4932     0.6777     0.6328 </r>
       <r>     1.5886     0.8004     0.7091 </r>
       <r>     1.6839     1.0004     0.8045 </r>
       <r>     1.7793     1.2924     0.9278 </r>
       <r>     1.8747     1.6781     1.0879 </r>
       <r>     1.9701     2.1711     1.2950 </r>
       <r>     2.0655     2.8026     1.5623 </r>
       <r>     2.1609     3.5752     1.9033 </r>
       <r>     2.2562     4.4228     2.3251 </r>
       <r>     2.3516     5.2413     2.8251 </r>
       <r>     2.4470     5.9478     3.3924 </r>
       <r>     2.5424     6.4856     4.0110 </r>
       <r>     2.6378     6.7991     4.6595 </r>
       <r>     2.7331     6.8410     5.3120 </r>
       <r>     2.8285     6.6088     5.9423 </r>
       <r>     2.9239     6.1737     6.5312 </r>
       <r>     3.0193     5.6962     7.0745 </r>
       <r>     3.1147     5.3968     7.5893 </r>
       <r>     3.2100     5.4438     8.1085 </r>
       <r>     3.3054     5.8259     8.6642 </r>
       <r>     3.4008     6.3479     9.2697 </r>
       <r>     3.4962     6.7777     9.9161 </r>
       <r>     3.5916     7.0192    10.5856 </r>
       <r>     3.6870     7.1776    11.2703 </r>
       <r>     3.7823     7.4861    11.9843 </r>
       <r>     3.8777     8.1367    12.7604 </r>
       <r>     3.9731     9.0902    13.6274 </r>
       <r>     4.0685     9.9903    14.5803 </r>
       <r>     4.1639    10.3222    15.5649 </r>
       <r>     4.2592     9.7859    16.4983 </r>
       <r>     4.3546     8.5732    17.3160 </r>
       <r>     4.4500     7.2542    18.0079 </r>
       <r>     4.5454     6.3786    18.6163 </r>
       <r>     4.6408     6.1747    19.2053 </r>
       <r>     4.7362     6.5256    19.8277 </r>
       <r>     4.8315     7.1048    20.5053 </r>
       <r>     4.9269     7.5418    21.2247 </r>
       <r>     5.0223     7.5904    21.9487 </r>
       <r>     5.1177     7.2570    22.6409 </r>
       <r>     5.2131     6.7752    23.2871 </r>
       <r>     5.3084     6.4071    23.8982 </r>
       <r>     5.4038     6.2463    24.4940 </r>
       <r>     5.4992     6.2221    25.0875 </r>
       <r>     5.5946     6.2616    25.6847 </r>
       <r>     5.6900     6.3815    26.2934 </r>
       <r>     5.7854     6.6112    26.9240 </r>
       <r>     5.8807     6.8888    27.5810 </r>
       <r>     5.9761     7.0736    28.2557 </r>
       <r>     6.0715     7.0402    28.9272 </r>
       <r>     6.1669     6.7310    29.5692 </r>
       <r>     6.2623     6.1337    30.1543 </r>
       <r>     6.3576     5.2543    30.6555 </r>
       <r>     6.4530     4.1528    31.0516 </r>
       <r>     6.5484     2.9840    31.3362 </r>
       <r>     6.6438     1.9559    31.5227 </r>
       <r>     6.7392     1.2232    31.6394 </r>
       <r>     6.8345     0.8243    31.7180 </r>
       <r>     6.9299     0.6955    31.7844 </r>
       <r>     7.0253     0.7193    31.8530 </r>
       <r>     7.1207     0.7758    31.9270 </r>
       <r>     7.2161     0.7966    32.0030 </r>
       <r>     7.3115     0.7886    32.0782 </r>
       <r>     7.4068     0.7940    32.1539 </r>
       <r>     7.5022     0.8240    32.2325 </r>
       <r>     7.5976     0.8461    32.3132 </r>
       <r>     7.6930     0.8313    32.3925 </r>
       <r>     7.7884     0.7966    32.4685 </r>
       <r>     7.8837     0.7868    32.5435 </r>
       <r>     7.9791     0.8219    32.6219 </r>
       <r>     8.0745     0.8717    32.7051 </r>
       <r>     8.1699     0.8881    32.7898 </r>
       <r>     8.2653     0.8578    32.8716 </r>
       <r>     8.3607     0.8124    32.9491 </r>
       <r>     8.4560     0.7924    33.0247 </r>
       <r>     8.5514     0.8103    33.1020 </r>
       <r>     8.6468     0.8460    33.1827 </r>
       <r>     8.7422     0.8672    33.2654 </r>
       <r>     8.8376     0.8574    33.3471 </r>
       <r>     8.9329     0.8291    33.4262 </r>
       <r>     9.0283     0.8066    33.5032 </r>
       <r>     9.1237     0.8023    33.5797 </r>
       <r>     9.2191     0.8126    33.6572 </r>
       <r>     9.3145     0.8300    33.7364 </r>
       <r>     9.4098     0.8453    33.8170 </r>
       <r>     9.5052     0.8481    33.8979 </r>
       <r>     9.6006     0.8362    33.9776 </r>
       <r>     9.6960     0.8226    34.0561 </r>
       <r>     9.7914     0.8211    34.1344 </r>
       <r>     9.8868     0.8273    34.2133 </r>
       <r>     9.9821     0.8267    34.2922 </r>
       <r>    10.0775     0.8188    34.3703 </r>
       <r>    10.1729     0.8163    34.4481 </r>
       <r>    10.2683     0.8199    34.5263 </r>
       <r>    10.3637     0.8132    34.6039 </r>
       <r>    10.4590     0.7876    34.6790 </r>
       <r>    10.5544     0.7565    34.7512 </r>
       <r>    10.6498     0.7375    34.8215 </r>
       <r>    10.7452     0.7318    34.8913 </r>
       <r>    10.8406     0.7301    34.9610 </r>
       <r>    10.9360     0.7261    35.0302 </r>
       <r>    11.0313     0.7221    35.0991 </r>
       <r>    11.1267     0.7303    35.1688 </r>
       <r>    11.2221     0.7701    35.2422 </r>
       <r>    11.3175     0.8512    35.3234 </r>
       <r>    11.4129     0.9528    35.4143 </r>
       <r>    11.5082     1.0312    35.5126 </r>
       <r>    11.6036     1.0595    35.6137 </r>
       <r>    11.6990     1.0519    35.7140 </r>
       <r>    11.7944     1.0437    35.8136 </r>
       <r>    11.8898     1.0553    35.9142 </r>
       <r>    11.9851     1.0776    36.0170 </r>
       <r>    12.0805     1.0840    36.1204 </r>
       <r>    12.1759     1.0524    36.2208 </r>
       <r>    12.2713     0.9855    36.3148 </r>
       <r>    12.3667     0.9133    36.4019 </r>
       <r>    12.4621     0.8729    36.4852 </r>
       <r>    12.5574     0.8792    36.5690 </r>
       <r>    12.6528     0.9124    36.6560 </r>
       <r>    12.7482     0.9355    36.7453 </r>
       <r>    12.8436     0.9260    36.8336 </r>
       <r>    12.9390     0.8923    36.9187 </r>
       <r>    13.0343     0.8608    37.0008 </r>
       <r>    13.1297     0.8468    37.0816 </r>
       <r>    13.2251     0.8435    37.1620 </r>
       <r>    13.3205     0.8394    37.2421 </r>
       <r>    13.4159     0.8372    37.3220 </r>
       <r>    13.5113     0.8519    37.4032 </r>
       <r>    13.6066     0.8969    37.4888 </r>
       <r>    13.7020     0.9713    37.5814 </r>
       <r>    13.7974     1.0539    37.6819 </r>
       <r>    13.8928     1.1089    37.7877 </r>
       <r>    13.9882     1.1079    37.8934 </r>
       <r>    14.0835     1.0524    37.9938 </r>
       <r>    14.1789     0.9716    38.0864 </r>
       <r>    14.2743     0.8939    38.1717 </r>
       <r>    14.3697     0.8239    38.2503 </r>
       <r>    14.4651     0.7533    38.3221 </r>
       <r>    14.5605     0.6868    38.3876 </r>
       <r>    14.6558     0.6434    38.4490 </r>
       <r>    14.7512     0.6306    38.5092 </r>
       <r>    14.8466     0.6281    38.5691 </r>
       <r>    14.9420     0.6073    38.6270 </r>
       <r>    15.0374     0.5611    38.6805 </r>
       <r>    15.1327     0.5097    38.7291 </r>
       <r>    15.2281     0.4777    38.7747 </r>
       <r>    15.3235     0.4697    38.8195 </r>
       <r>    15.4189     0.4682    38.8642 </r>
       <r>    15.5143     0.4521    38.9073 </r>
       <r>    15.6096     0.4168    38.9470 </r>
       <r>    15.7050     0.3789    38.9832 </r>
       <r>    15.8004     0.3628    39.0178 </r>
       <r>    15.8958     0.3773    39.0538 </r>
       <r>    15.9912     0.4056    39.0924 </r>
       <r>    16.0866     0.4192    39.1324 </r>
       <r>    16.1819     0.4044    39.1710 </r>
       <r>    16.2773     0.3708    39.2064 </r>
       <r>    16.3727     0.3361    39.2384 </r>
       <r>    16.4681     0.3080    39.2678 </r>
       <r>    16.5635     0.2834    39.2948 </r>
       <r>    16.6588     0.2615    39.3198 </r>
       <r>    16.7542     0.2514    39.3438 </r>
       <r>    16.8496     0.2620    39.3687 </r>
       <r>    16.9450     0.2882    39.3962 </r>
       <r>    17.0404     0.3094    39.4257 </r>
       <r>    17.1358     0.3052    39.4549 </r>
       <r>    17.2311     0.2739    39.4810 </r>
       <r>    17.3265     0.2333    39.5032 </r>
       <r>    17.4219     0.2058    39.5229 </r>
       <r>    17.5173     0.2020    39.5421 </r>
       <r>    17.6127     0.2173    39.5629 </r>
       <r>    17.7080     0.2374    39.5855 </r>
       <r>    17.8034     0.2453    39.6089 </r>
       <r>    17.8988     0.2294    39.6308 </r>
       <r>    17.9942     0.1914    39.6490 </r>
       <r>    18.0896     0.1454    39.6629 </r>
       <r>    18.1849     0.1074    39.6732 </r>
       <r>    18.2803     0.0867    39.6814 </r>
       <r>    18.3757     0.0840    39.6894 </r>
       <r>    18.4711     0.0964    39.6986 </r>
       <r>    18.5665     0.1193    39.7100 </r>
       <r>    18.6619     0.1475    39.7241 </r>
       <r>    18.7572     0.1752    39.7408 </r>
       <r>    18.8526     0.1952    39.7594 </r>
       <r>    18.9480     0.1982    39.7783 </r>
       <r>    19.0434     0.1772    39.7952 </r>
       <r>    19.1388     0.1356    39.8081 </r>
       <r>    19.2341     0.0892    39.8166 </r>
       <r>    19.3295     0.0549    39.8219 </r>
       <r>    19.4249     0.0399    39.8257 </r>
       <r>    19.5203     0.0408    39.8296 </r>
       <r>    19.6157     0.0518    39.8345 </r>
       <r>    19.7111     0.0710    39.8413 </r>
       <r>    19.8064     0.0989    39.8507 </r>
       <r>    19.9018     0.1315    39.8633 </r>
       <r>    19.9972     0.1557    39.8781 </r>
       <r>    20.0926     0.1566    39.8931 </r>
       <r>    20.1880     0.1301    39.9055 </r>
       <r>    20.2833     0.0885    39.9139 </r>
       <r>    20.3787     0.0509    39.9188 </r>
       <r>    20.4741     0.0282    39.9215 </r>
       <r>    20.5695     0.0188    39.9232 </r>
       <r>    20.6649     0.0173    39.9249 </r>
       <r>    20.7603     0.0235    39.9271 </r>
       <r>    20.8556     0.0399    39.9310 </r>
       <r>    20.9510     0.0650    39.9371 </r>
       <r>    21.0464     0.0909    39.9458 </r>
       <r>    21.1418     0.1073    39.9561 </r>
       <r>    21.2372     0.1058    39.9661 </r>
       <r>    21.3325     0.0851    39.9743 </r>
       <r>    21.4279     0.0532    39.9793 </r>
       <r>    21.5233     0.0243    39.9817 </r>
       <r>    21.6187     0.0098    39.9826 </r>
       <r>    21.7141     0.0120    39.9837 </r>
       <r>    21.8094     0.0236    39.9860 </r>
       <r>    21.9048     0.0347    39.9893 </r>
       <r>    22.0002     0.0385    39.9930 </r>
       <r>    22.0956     0.0340    39.9962 </r>
       <r>    22.1910     0.0242    39.9985 </r>
       <r>    22.2864     0.0134    39.9998 </r>
       <r>    22.3817     0.0050    40.0003 </r>
       <r>    22.4771     0.0004    40.0003 </r>
       <r>    22.5725    -0.0012    40.0002 </r>
       <r>    22.6679    -0.0011    40.0001 </r>
       <r>    22.7633    -0.0006    40.0000 </r>
       <r>    22.8586    -0.0002    40.0000 </r>
       <r>    22.9540    -0.0001    40.0000 </r>
       <r>    23.0494     0.0000    40.0000 </r>
       <r>    23.1448     0.0000    40.0000 </r>
       <r>    23.2402     0.0000    40.0000 </r>
       <r>    23.3356     0.0000    40.0000 </r>
       <r>    23.4309     0.0000    40.0000 </r>
       <r>    23.5263     0.0000    40.0000 </r>
       <r>    23.6217     0.0000    40.0000 </r>
       <r>    23.7171     0.0000    40.0000 </r>
       <r>    23.8125     0.0000    40.0000 </r>
       <r>    23.9078     0.0000    40.0000 </r>
       <r>    24.0032     0.0000    40.0000 </r>
       <r>    24.0986     0.0000    40.0000 </r>
       <r>    24.1940     0.0000    40.0000 </r>
       <r>    24.2894     0.0000    40.0000 </r>
       <r>    24.3847     0.0000    40.0000 </r>
       <r>    24.4801     0.0000    40.0000 </r>
       <r>    24.5755     0.0000    40.0000 </r>
       <r>    24.6709     0.0000    40.0000 </r>
       <r>    24.7663     0.0000    40.0000 </r>
       <r>    24.8617     0.0000    40.0000 </r>
       <r>    24.9570     0.0000    40.0000 </r>
       <r>    25.0524     0.0000    40.0000 </r>
       <r>    25.1478     0.0000    40.0000 </r>
      </set>
     </set>
    </array>
   </total>
  </dos>
 </calculation>
 <structure name="finalpos" >
  <crystal>
   <varray name="basis" >
    <v>      -2.07041037       2.07041037       0.00000000 </v>
    <v>       0.00000000      -2.07041037      -2.07041037 </v>
    <v>      -4.16325791      -4.16325791       4.16325791 </v>
   </varray>
   <i name="volume">     53.53865266 </i>
   <varray name="rec_basis" >
    <v>      -0.32199736       0.16099868      -0.16099868 </v>
    <v>      -0.16099868      -0.16099868      -0.32199736 </v>
    <v>      -0.08006550      -0.08006550       0.08006550 </v>
   </varray>
  </crystal>
  <varray name="positions" >
   <v>       0.33333333       0.66666667       0.33333333 </v>
   <v>       0.00000000       0.00000000       0.00344549 </v>
   <v>       0.66666667       0.33333333       0.66322118 </v>
  </varray>
 </structure>
</modeling>
