<?xml version="1.0" encoding="ISO-8859-1"?>
<modeling>
 <generator>
  <i name="program" type="string">vasp </i>
  <i name="version" type="string">5.3.5  </i>
  <i name="subversion" type="string">31Mar14 (build Jun 20 2014 13:15:13) complex                          parallel </i>
  <i name="platform" type="string">LinuxIFC </i>
  <i name="date" type="string">2025 12 12 </i>
  <i name="time" type="string">12:58:42 </i>
 </generator>
 <incar>
  <i type="string" name="PREC">accurate</i>
  <i type="int" name="IALGO">    38</i>
  <i type="logical" name="ADDGRID"> T  </i>
  <i type="int" name="ISPIN">     2</i>
  <i type="int" name="NELM">   100</i>
  <i type="int" name="NELMIN">     4</i>
  <i name="EDIFF">      0.00000100</i>
  <i name="ENCUT">    500.00000000</i>
  <i type="logical" name="LREAL"> F  </i>
  <i type="int" name="ISMEAR">     0</i>
  <i name="SIGMA">      0.05000000</i>
  <i type="logical" name="LWAVE"> F  </i>
  <i type="logical" name="LCHARG"> F  </i>
  <i type="int" name="NELM">   100</i>
  <i type="logical" name="LDAU"> T  </i>
  <v name="LDAUU">      0.00000000      4.00000000      0.00000000</v>
  <v name="LDAUJ">      0.00000000      0.00000000      0.00000000</v>
 </incar>
 <kpoints>
  <generation param="Auto">
   <i name="subdivisionlength">     20.00000000 </i>
   <v type="int" name="divisions">       4        4        3 </v>
   <v name="usershift">      0.00000000       0.00000000       0.00000000 </v>
   <v name="genvec1">      0.25000000       0.00000000       0.00000000 </v>
   <v name="genvec2">      0.00000000       0.25000000       0.00000000 </v>
   <v name="genvec3">      0.00000000       0.00000000       0.33333333 </v>
   <v name="shift">      0.00000000       0.00000000       0.00000000 </v>
  </generation>
  <varray name="kpointlist" >
   <v>       0.00000000       0.00000000       0.00000000 </v>
   <v>       0.25000000       0.00000000       0.00000000 </v>
   <v>       0.50000000       0.00000000       0.00000000 </v>
   <v>       0.00000000       0.25000000       0.00000000 </v>
   <v>       0.25000000       0.25000000       0.00000000 </v>
   <v>       0.50000000       0.25000000       0.00000000 </v>
   <v>      -0.25000000       0.25000000       0.00000000 </v>
   <v>       0.00000000       0.50000000       0.00000000 </v>
   <v>       0.25000000       0.50000000       0.00000000 </v>
   <v>       0.50000000       0.50000000       0.00000000 </v>
   <v>       0.00000000       0.00000000       0.33333333 </v>
   <v>       0.25000000       0.00000000       0.33333333 </v>
   <v>       0.50000000       0.00000000       0.33333333 </v>
   <v>      -0.25000000       0.00000000       0.33333333 </v>
   <v>       0.00000000       0.25000000       0.33333333 </v>
   <v>       0.25000000       0.25000000       0.33333333 </v>
   <v>       0.50000000       0.25000000       0.33333333 </v>
   <v>      -0.25000000       0.25000000       0.33333333 </v>
   <v>       0.00000000       0.50000000       0.33333333 </v>
   <v>       0.25000000       0.50000000       0.33333333 </v>
   <v>       0.50000000       0.50000000       0.33333333 </v>
   <v>      -0.25000000       0.50000000       0.33333333 </v>
   <v>       0.00000000      -0.25000000       0.33333333 </v>
   <v>       0.25000000      -0.25000000       0.33333333 </v>
   <v>       0.50000000      -0.25000000       0.33333333 </v>
   <v>      -0.25000000      -0.25000000       0.33333333 </v>
  </varray>
  <varray name="weights" >
   <v>       0.02083333 </v>
   <v>       0.04166667 </v>
   <v>       0.02083333 </v>
   <v>       0.04166667 </v>
   <v>       0.04166667 </v>
   <v>       0.04166667 </v>
   <v>       0.04166667 </v>
   <v>       0.02083333 </v>
   <v>       0.04166667 </v>
   <v>       0.02083333 </v>
   <v>       0.04166667 </v>
   <v>       0.04166667 </v>
   <v>       0.04166667 </v>
   <v>       0.04166667 </v>
   <v>       0.04166667 </v>
   <v>       0.04166667 </v>
   <v>       0.04166667 </v>
   <v>       0.04166667 </v>
   <v>       0.04166667 </v>
   <v>       0.04166667 </v>
   <v>       0.04166667 </v>
   <v>       0.04166667 </v>
   <v>       0.04166667 </v>
   <v>       0.04166667 </v>
   <v>       0.04166667 </v>
   <v>       0.04166667 </v>
  </varray>
 </kpoints>
 <parameters>
  <separator name="general" >
   <i type="string" name="SYSTEM">unknown system</i>
   <i type="logical" name="LCOMPAT"> F  </i>
  </separator>
  <separator name="electronic" >
   <i type="string" name="PREC">accura</i>
   <i name="ENMAX">    500.00000000</i>
   <i name="ENAUG">    586.98000000</i>
   <i name="EDIFF">      0.00000100</i>
   <i type="int" name="IALGO">    38</i>
   <i type="int" name="IWAVPR">    10</i>
   <i type="int" name="NBANDS">    88</i>
   <i name="NELECT">    132.00000000</i>
   <i type="int" name="TURBO">     0</i>
   <i type="int" name="IRESTART">     0</i>
   <i type="int" name="NREBOOT">     0</i>
   <i type="int" name="NMIN">     0</i>
   <i name="EREF">      0.00000000</i>
   <separator name="electronic smearing" >
    <i type="int" name="ISMEAR">     0</i>
    <i name="SIGMA">      0.05000000</i>
    <i name="KSPACING">      0.50000000</i>
    <i type="logical" name="KGAMMA"> T  </i>
   </separator>
   <separator name="electronic projectors" >
    <i type="logical" name="LREAL"> F  </i>
    <v name="ROPT">      0.00000000      0.00000000      0.00000000</v>
    <i type="int" name="LMAXPAW">  -100</i>
    <i type="int" name="LMAXMIX">     2</i>
    <i type="logical" name="NLSPLINE"> F  </i>
   </separator>
   <separator name="electronic startup" >
    <i type="int" name="ISTART">     0</i>
    <i type="int" name="ICHARG">     2</i>
    <i type="int" name="INIWAV">     1</i>
   </separator>
   <separator name="electronic spin" >
    <i type="int" name="ISPIN">     2</i>
    <i type="logical" name="LNONCOLLINEAR"> F  </i>
    <v name="MAGMOM">      1.00000000      1.00000000      1.00000000      1.00000000      1.00000000      1.00000000      1.00000000      1.00000000      1.00000000      1.00000000      1.00000000      1.00000000      1.00000000      1.00000000      1.00000000      1.00000000</v>
    <i name="NUPDOWN">     -1.00000000</i>
    <i type="logical" name="LSORBIT"> F  </i>
    <v name="SAXIS">      0.00000000      0.00000000      1.00000000</v>
    <i type="logical" name="LSPIRAL"> F  </i>
    <v name="QSPIRAL">      0.00000000      0.00000000      0.00000000</v>
    <i type="logical" name="LZEROZ"> F  </i>
   </separator>
   <separator name="electronic exchange-correlation" >
    <i type="logical" name="LASPH"> F  </i>
    <i type="logical" name="LMETAGGA"> F  </i>
   </separator>
   <separator name="electronic convergence" >
    <i type="int" name="NELM">   100</i>
    <i type="int" name="NELMDL">    -5</i>
    <i type="int" name="NELMIN">     4</i>
    <i name="ENINI">    500.00000000</i>
    <separator name="electronic convergence detail" >
     <i type="logical" name="LDIAG"> T  </i>
     <i type="logical" name="LSUBROT"> F  </i>
     <i name="WEIMIN">      0.00000000</i>
     <i name="EBREAK">      0.00000000</i>
     <i name="DEPER">      0.30000000</i>
     <i type="int" name="NRMM">     4</i>
     <i name="TIME">      0.40000000</i>
    </separator>
   </separator>
   <separator name="electronic mixer" >
    <i name="AMIX">      0.40000000</i>
    <i name="BMIX">      1.00000000</i>
    <i name="AMIN">      0.10000000</i>
    <i name="AMIX_MAG">      1.60000000</i>
    <i name="BMIX_MAG">      1.00000000</i>
    <separator name="electronic mixer details" >
     <i type="int" name="IMIX">     4</i>
     <i type="int" name="MAXMIX">   -45</i>
     <i name="WC">    100.00000000</i>
     <i type="int" name="INIMIX">     1</i>
     <i type="int" name="MIXPRE">     1</i>
     <i type="int" name="MREMOVE">     5</i>
    </separator>
   </separator>
   <separator name="electronic dipolcorrection" >
    <i type="logical" name="LDIPOL"> F  </i>
    <i type="logical" name="LMONO"> F  </i>
    <i type="int" name="IDIPOL">     0</i>
    <i name="EPSILON">      1.00000000</i>
    <v name="DIPOL">   -100.00000000   -100.00000000   -100.00000000</v>
    <i name="EFIELD">      0.00000000</i>
   </separator>
  </separator>
  <separator name="grids" >
   <i type="int" name="NGX">    42</i>
   <i type="int" name="NGY">    42</i>
   <i type="int" name="NGZ">    70</i>
   <i type="int" name="NGXF">    84</i>
   <i type="int" name="NGYF">    84</i>
   <i type="int" name="NGZF">   140</i>
   <i type="logical" name="ADDGRID"> T  </i>
  </separator>
  <separator name="ionic" >
   <i type="int" name="NSW">     0</i>
   <i type="int" name="IBRION">    -1</i>
   <i type="int" name="ISIF">     2</i>
   <i name="PSTRESS">      0.00000000</i>
   <i name="EDIFFG">      0.00001000</i>
   <i type="int" name="NFREE">     0</i>
   <i name="POTIM">      0.50000000</i>
   <i name="SMASS">     -3.00000000</i>
   <i name="SCALEE">      1.00000000</i>
  </separator>
  <separator name="ionic md" >
   <i name="TEBEG">      0.00010000</i>
   <i name="TEEND">      0.00010000</i>
   <i type="int" name="NBLOCK">     1</i>
   <i type="int" name="KBLOCK">     1</i>
   <i type="int" name="NPACO">   256</i>
   <i name="APACO">     16.00000000</i>
  </separator>
  <separator name="symmetry" >
   <i type="int" name="ISYM">     2</i>
   <i name="SYMPREC">      0.00001000</i>
  </separator>
  <separator name="dos" >
   <i type="logical" name="LORBIT"> F  </i>
   <v name="RWIGS">     -1.00000000     -1.00000000     -1.00000000</v>
   <i type="int" name="NEDOS">   301</i>
   <i name="EMIN">     10.00000000</i>
   <i name="EMAX">    -10.00000000</i>
   <i name="EFERMI">      0.00000000</i>
  </separator>
  <separator name="writing" >
   <i type="int" name="NWRITE">     2</i>
   <i type="logical" name="LWAVE"> F  </i>
   <i type="logical" name="LCHARG"> F  </i>
   <i type="logical" name="LPARD"> F  </i>
   <i type="logical" name="LVTOT"> F  </i>
   <i type="logical" name="LVHAR"> F  </i>
   <i type="logical" name="LELF"> F  </i>
   <i type="logical" name="LOPTICS"> F  </i>
   <v name="STM">      0.00000000      0.00000000      0.00000000      0.00000000      0.00000000      0.00000000      0.00000000</v>
  </separator>
  <separator name="performance" >
   <i type="int" name="NPAR">     4</i>
   <i type="int" name="NSIM">     4</i>
   <i type="int" name="NBLK">    -1</i>
   <i type="logical" name="LPLANE"> T  </i>
   <i type="logical" name="LSCALAPACK"> T  </i>
   <i type="logical" name="LSCAAWARE"> F  </i>
   <i type="logical" name="LSCALU"> F  </i>
   <i type="logical" name="LASYNC"> F  </i>
   <i type="logical" name="LORBITALREAL"> F  </i>
  </separator>
  <separator name="miscellaneous" >
   <i type="int" name="IDIOT">     3</i>
   <i type="logical" name="LMUSIC"> F  </i>
   <v name="POMASS">     87.62000000     63.54600000     16.00000000</v>
   <v name="DARWINR">      0.00000000      0.00000000      0.00000000</v>
   <v name="DARWINV">      1.00000000      1.00000000      1.00000000</v>
   <i type="logical" name="LCORR"> T  </i>
  </separator>
  <i type="logical" name="GGA_COMPAT"> T  </i>
  <i type="logical" name="LBERRY"> F  </i>
  <i type="int" name="ICORELEVEL">     0</i>
  <i type="logical" name="LDAU"> T  </i>
  <v type="int" name="LDAUTYPE">     2</v>
  <v type="int" name="LDAUL">     2</v>
  <v name="LDAUU">      0.00000000</v>
  <v name="LDAUJ">      0.00000000</v>
  <i type="int" name="LDAUPRINT">     0</i>
  <i type="int" name="I_CONSTRAINED_M">     0</i>
  <separator name="electronic exchange-correlation" >
   <i type="string" name="GGA">--</i>
   <i type="int" name="VOSKOWN">     0</i>
   <i type="logical" name="LHFCALC"> F  </i>
   <i type="string" name="PRECFOCK"></i>
   <i type="logical" name="LSYMGRAD"> F  </i>
   <i type="logical" name="LHFONE"> F  </i>
   <i type="logical" name="LRHFCALC"> F  </i>
   <i type="logical" name="LTHOMAS"> F  </i>
   <i type="logical" name="LMODELHF"> F  </i>
   <i name="ENCUT4O">     -1.00000000</i>
   <i type="int" name="EXXOEP">     0</i>
   <i type="int" name="FOURORBIT">     0</i>
   <i name="AEXX">      0.00000000</i>
   <i name="HFALPHA">      0.00000000</i>
   <i name="MCALPHA">      0.00000000</i>
   <i name="ALDAX">      1.00000000</i>
   <i name="AGGAX">      1.00000000</i>
   <i name="ALDAC">      1.00000000</i>
   <i name="AGGAC">      1.00000000</i>
   <i type="int" name="NKREDX">     1</i>
   <i type="int" name="NKREDY">     1</i>
   <i type="int" name="NKREDZ">     1</i>
   <i type="logical" name="SHIFTRED"> F  </i>
   <i type="logical" name="ODDONLY"> F  </i>
   <i type="logical" name="EVENONLY"> F  </i>
   <i type="int" name="LMAXFOCK">     0</i>
   <i type="int" name="NMAXFOCKAE">     0</i>
   <i type="logical" name="LFOCKAEDFT"> F  </i>
   <i name="HFSCREEN">      0.00000000</i>
   <i name="HFSCREENC">      0.00000000</i>
   <i type="int" name="NBANDSGWLOW">     0</i>
  </separator>
  <separator name="vdW DFT" >
   <i type="logical" name="LUSE_VDW"> F  </i>
   <i name="Zab_VDW">     -0.84910000</i>
   <i name="PARAM1">      0.12340000</i>
   <i name="PARAM2">      1.00000000</i>
   <i name="PARAM3">      0.00000000</i>
  </separator>
  <separator name="model GW" >
   <i type="int" name="MODEL_GW">     0</i>
   <i name="MODEL_EPS0">      9.60000000</i>
   <i name="MODEL_ALPHA">      1.00000000</i>
  </separator>
  <separator name="linear response parameters" >
   <i type="logical" name="LEPSILON"> F  </i>
   <i type="logical" name="LRPA"> F  </i>
   <i type="logical" name="LNABLA"> F  </i>
   <i type="logical" name="LVEL"> F  </i>
   <i type="int" name="KINTER">     0</i>
   <i name="CSHIFT">      0.10000000</i>
   <i name="OMEGAMAX">     -1.00000000</i>
   <i name="DEG_THRESHOLD">      0.00200000</i>
  </separator>
  <separator name="orbital magnetization" >
   <i type="logical" name="NUCIND"> F  </i>
   <v name="MAGPOS">      0.00000000      0.00000000      0.00000000</v>
   <i type="logical" name="LNICSALL"> T  </i>
   <i type="logical" name="ORBITALMAG"> F  </i>
   <i type="logical" name="LMAGBLOCH"> F  </i>
   <i type="logical" name="LCHIMAG"> F  </i>
   <i type="logical" name="LGAUGE"> T  </i>
   <i type="int" name="MAGATOM">     0</i>
   <v name="MAGDIPOL">      0.00000000      0.00000000      0.00000000</v>
   <v name="AVECCONST">      0.00000000      0.00000000      0.00000000</v>
  </separator>
  <separator name="response functions" >
   <i type="logical" name="LADDER"> F  </i>
   <i type="logical" name="LFXC"> F  </i>
   <i type="logical" name="LHARTREE"> T  </i>
   <i type="int" name="IBSE">     0</i>
   <i type="logical" name="LTCTE"> F  </i>
   <i type="logical" name="LTETE"> F  </i>
   <i type="logical" name="LTRIPLET"> F  </i>
   <i type="logical" name="LFXCEPS"> F  </i>
   <i type="logical" name="LFXHEG"> F  </i>
   <i type="logical" name="L2ORDER"> F  </i>
   <i type="logical" name="LUSEW"> F  </i>
   <i name="ENCUTGW">     -2.00000000</i>
   <i name="ENCUTGWSOFT">     -2.00000000</i>
   <i name="ENCUTLF">     -1.00000000</i>
   <i type="int" name="LMAXMP2">    -1</i>
   <i name="SCISSOR">      0.00000000</i>
   <i type="int" name="NOMEGA">     0</i>
   <i type="int" name="NOMEGAR">     0</i>
   <i type="int" name="NBANDSGW">    -1</i>
   <i type="int" name="NBANDSO">    -1</i>
   <i type="int" name="NBANDSV">    -1</i>
   <i type="int" name="NELM">   100</i>
   <i type="int" name="DIM">     3</i>
   <i type="int" name="ANTIRES">     0</i>
   <i name="OMEGAMAX">    -30.00000000</i>
   <i name="OMEGAMIN">    -30.00000000</i>
   <i name="OMEGATL">   -200.00000000</i>
   <i type="int" name="OMEGAGRID">     0</i>
   <i name="CSHIFT">     -0.10000000</i>
   <i type="logical" name="SELFENERGY"> F  </i>
   <i type="logical" name="LSPECTRAL"> F  </i>
   <i type="logical" name="ODDONLYGW"> F  </i>
   <i type="logical" name="EVENONLYGW"> F  </i>
   <i type="int" name="NKREDLFX">     1</i>
   <i type="int" name="NKREDLFY">     1</i>
   <i type="int" name="NKREDLFZ">     1</i>
   <i type="int" name="MAXMEM">  1800</i>
   <i type="int" name="TELESCOPE">     0</i>
   <i type="int" name="TAUPAR">     1</i>
  </separator>
  <separator name="External order field" >
   <i name="OFIELD_KAPPA">      0.00000000</i>
   <v name="OFIELD_K">      0.00000000      0.00000000      0.00000000</v>
   <i name="OFIELD_Q6_NEAR">      0.00000000</i>
   <i name="OFIELD_Q6_FAR">      0.00000000</i>
   <i name="OFIELD_A">      0.00000000</i>
  </separator>
 </parameters>
 <atominfo>
  <atoms>      16 </atoms>
  <types>       3 </types>
  <array name="atoms" >
   <dimension dim="1">ion</dimension>
   <field type="string">element</field>
   <field type="int">atomtype</field>
   <set>
    <rc><c>Sr</c><c>   1</c></rc>
    <rc><c>Sr</c><c>   1</c></rc>
    <rc><c>Sr</c><c>   1</c></rc>
    <rc><c>Sr</c><c>   1</c></rc>
    <rc><c>Cu</c><c>   2</c></rc>
    <rc><c>Cu</c><c>   2</c></rc>
    <rc><c>Cu</c><c>   2</c></rc>
    <rc><c>Cu</c><c>   2</c></rc>
    <rc><c>O </c><c>   3</c></rc>
    <rc><c>O </c><c>   3</c></rc>
    <rc><c>O </c><c>   3</c></rc>
    <rc><c>O </c><c>   3</c></rc>
    <rc><c>O </c><c>   3</c></rc>
    <rc><c>O </c><c>   3</c></rc>
    <rc><c>O </c><c>   3</c></rc>
    <rc><c>O </c><c>   3</c></rc>
   </set>
  </array>
  <array name="atomtypes" >
   <dimension dim="1">type</dimension>
   <field type="int">atomspertype</field>
   <field type="string">element</field>
   <field>mass</field>
   <field>valence</field>
   <field type="string">pseudopotential</field>
   <set>
    <rc><c>   4</c><c>Sr</c><c>     87.62000000</c><c>     10.00000000</c><c>  PAW_PBE Sr_sv 07Sep2000               </c></rc>
    <rc><c>   4</c><c>Cu</c><c>     63.54600000</c><c>     11.00000000</c><c>  PAW_PBE Cu 22Jun2005                  </c></rc>
    <rc><c>   8</c><c>O </c><c>     16.00000000</c><c>      6.00000000</c><c>  PAW_PBE O_s 07Sep2000                 </c></rc>
   </set>
  </array>
 </atominfo>
 <structure name="initialpos" >
  <crystal>
   <varray name="basis" >
    <v>       5.65685425       0.00000000       0.00000000 </v>
    <v>       0.00000000       5.65685425       0.00000000 </v>
    <v>      -2.82842712      -2.82842712       8.00000000 </v>
   </varray>
   <i name="volume">    256.00000000 </i>
   <varray name="rec_basis" >
    <v>       0.17677670       0.00000000       0.06250000 </v>
    <v>       0.00000000       0.17677670       0.06250000 </v>
    <v>       0.00000000       0.00000000       0.12500000 </v>
   </varray>
  </crystal>
  <varray name="positions" >
   <v>       0.00000000       0.00000000       0.00000000 </v>
   <v>       0.25000000       0.25000000       0.50000000 </v>
   <v>       0.50000000       0.50000000       0.00000000 </v>
   <v>       0.75000000       0.75000000       0.50000000 </v>
   <v>       0.12500000       0.62500000       0.25000000 </v>
   <v>       0.37500000       0.87500000       0.75000000 </v>
   <v>       0.62500000       0.12500000       0.25000000 </v>
   <v>       0.87500000       0.37500000       0.75000000 </v>
   <v>       0.25000000       0.75000000       0.50000000 </v>
   <v>       0.50000000       0.00000000       0.00000000 </v>
   <v>       0.75000000       0.25000000       0.50000000 </v>
   <v>       0.62500000       0.12500000       0.75000000 </v>
   <v>       0.87500000       0.37500000       0.25000000 </v>
   <v>       0.12500000       0.12500000       0.75000000 </v>
   <v>       0.37500000       0.37500000       0.25000000 </v>
   <v>       0.62500000       0.62500000       0.75000000 </v>
  </varray>
 </structure>
 <calculation>
  <scstep>
   <time name="dav">    5.36    5.36</time>
   <time name="total">    5.59    5.60</time>
   <energy>
    <i name="alphaZ">    598.65364144 </i>
    <i name="ewald">  -8616.02063087 </i>
    <i name="hartreedc">  -3828.08698712 </i>
    <i name="XCdc">    543.16391033 </i>
    <i name="pawpsdc">  10188.96972968 </i>
    <i name="pawaedc"> -10517.73277125 </i>
    <i name="eentropy">     -0.00225744 </i>
    <i name="bandstr">    874.80203773 </i>
    <i name="atom">  12395.00728236 </i>
    <i name="e_fr_energy">   1638.75395485 </i>
    <i name="e_wo_entrp">   1638.75621230 </i>
    <i name="e_0_energy">   1638.75508358 </i>
   </energy>
  </scstep>
  <scstep>
   <time name="dav">    6.03    6.03</time>
   <time name="total">    6.03    6.04</time>
   <energy>
    <i name="e_fr_energy">    148.90844879 </i>
    <i name="e_wo_entrp">    148.91423000 </i>
    <i name="e_0_energy">    148.91133940 </i>
   </energy>
  </scstep>
  <scstep>
   <time name="dav">    5.92    5.92</time>
   <time name="total">    5.92    5.94</time>
   <energy>
    <i name="e_fr_energy">    -77.77056678 </i>
    <i name="e_wo_entrp">    -77.76042544 </i>
    <i name="e_0_energy">    -77.76549611 </i>
   </energy>
  </scstep>
  <scstep>
   <time name="dav">    7.71    7.71</time>
   <time name="total">    7.72    7.73</time>
   <energy>
    <i name="e_fr_energy">    -95.38847329 </i>
    <i name="e_wo_entrp">    -95.37733046 </i>
    <i name="e_0_energy">    -95.38290188 </i>
   </energy>
  </scstep>
  <scstep>
   <time name="dav">    9.63    9.64</time>
   <time name="total">   10.12   10.14</time>
   <energy>
    <i name="e_fr_energy">    -96.39150736 </i>
    <i name="e_wo_entrp">    -96.37911779 </i>
    <i name="e_0_energy">    -96.38531257 </i>
   </energy>
  </scstep>
  <scstep>
   <time name="dav">    7.85    7.85</time>
   <time name="total">    8.56    8.58</time>
   <energy>
    <i name="e_fr_energy">    -86.40136440 </i>
    <i name="e_wo_entrp">    -86.38767444 </i>
    <i name="e_0_energy">    -86.39451942 </i>
   </energy>
  </scstep>
  <scstep>
   <time name="dav">    7.90    7.90</time>
   <time name="total">    8.61    8.62</time>
   <energy>
    <i name="e_fr_energy">    -77.96395354 </i>
    <i name="e_wo_entrp">    -77.95414753 </i>
    <i name="e_0_energy">    -77.95905054 </i>
   </energy>
  </scstep>
  <scstep>
   <time name="dav">    8.15    8.15</time>
   <time name="total">    8.87    8.89</time>
   <energy>
    <i name="e_fr_energy">    -78.56393077 </i>
    <i name="e_wo_entrp">    -78.54968892 </i>
    <i name="e_0_energy">    -78.55680985 </i>
   </energy>
  </scstep>
  <scstep>
   <time name="dav">    8.20    8.21</time>
   <time name="total">    8.91    8.93</time>
   <energy>
    <i name="e_fr_energy">    -79.15208047 </i>
    <i name="e_wo_entrp">    -79.14833488 </i>
    <i name="e_0_energy">    -79.15020768 </i>
   </energy>
  </scstep>
  <scstep>
   <time name="dav">    7.66    7.67</time>
   <time name="total">    8.38    8.40</time>
   <energy>
    <i name="e_fr_energy">    -77.52264225 </i>
    <i name="e_wo_entrp">    -77.51417978 </i>
    <i name="e_0_energy">    -77.51841101 </i>
   </energy>
  </scstep>
  <scstep>
   <time name="dav">    8.25    8.25</time>
   <time name="total">    8.97    8.98</time>
   <energy>
    <i name="e_fr_energy">    -77.23208114 </i>
    <i name="e_wo_entrp">    -77.22141068 </i>
    <i name="e_0_energy">    -77.22674591 </i>
   </energy>
  </scstep>
  <scstep>
   <time name="dav">    7.71    7.71</time>
   <time name="total">    8.43    8.44</time>
   <energy>
    <i name="e_fr_energy">    -77.23142333 </i>
    <i name="e_wo_entrp">    -77.22175015 </i>
    <i name="e_0_energy">    -77.22658674 </i>
   </energy>
  </scstep>
  <scstep>
   <time name="dav">    8.15    8.15</time>
   <time name="total">    8.87    8.89</time>
   <energy>
    <i name="e_fr_energy">    -77.24076329 </i>
    <i name="e_wo_entrp">    -77.23175315 </i>
    <i name="e_0_energy">    -77.23625822 </i>
   </energy>
  </scstep>
  <scstep>
   <time name="dav">    8.23    8.24</time>
   <time name="total">    8.95    8.97</time>
   <energy>
    <i name="e_fr_energy">    -77.24505091 </i>
    <i name="e_wo_entrp">    -77.23539898 </i>
    <i name="e_0_energy">    -77.24022494 </i>
   </energy>
  </scstep>
  <scstep>
   <time name="dav">    7.89    7.89</time>
   <time name="total">    8.62    8.63</time>
   <energy>
    <i name="e_fr_energy">    -77.24485339 </i>
    <i name="e_wo_entrp">    -77.23585907 </i>
    <i name="e_0_energy">    -77.24035623 </i>
   </energy>
  </scstep>
  <scstep>
   <time name="dav">    7.26    7.26</time>
   <time name="total">    7.98    7.99</time>
   <energy>
    <i name="e_fr_energy">    -77.24471163 </i>
    <i name="e_wo_entrp">    -77.23517778 </i>
    <i name="e_0_energy">    -77.23994471 </i>
   </energy>
  </scstep>
  <scstep>
   <time name="dav">    8.01    8.01</time>
   <time name="total">    8.73    8.74</time>
   <energy>
    <i name="e_fr_energy">    -77.24504462 </i>
    <i name="e_wo_entrp">    -77.23547139 </i>
    <i name="e_0_energy">    -77.24025801 </i>
   </energy>
  </scstep>
  <scstep>
   <time name="dav">    8.07    8.07</time>
   <time name="total">    8.79    8.80</time>
   <energy>
    <i name="e_fr_energy">    -77.24538852 </i>
    <i name="e_wo_entrp">    -77.23581640 </i>
    <i name="e_0_energy">    -77.24060246 </i>
   </energy>
  </scstep>
  <scstep>
   <time name="dav">    8.39    8.39</time>
   <time name="total">    9.10    9.12</time>
   <energy>
    <i name="e_fr_energy">    -77.24571304 </i>
    <i name="e_wo_entrp">    -77.23607438 </i>
    <i name="e_0_energy">    -77.24089371 </i>
   </energy>
  </scstep>
  <scstep>
   <time name="dav">    7.89    7.89</time>
   <time name="total">    8.61    8.62</time>
   <energy>
    <i name="e_fr_energy">    -77.24580434 </i>
    <i name="e_wo_entrp">    -77.23614929 </i>
    <i name="e_0_energy">    -77.24097681 </i>
   </energy>
  </scstep>
  <scstep>
   <time name="dav">    7.62    7.62</time>
   <time name="total">    8.34    8.36</time>
   <energy>
    <i name="e_fr_energy">    -77.24580864 </i>
    <i name="e_wo_entrp">    -77.23613289 </i>
    <i name="e_0_energy">    -77.24097077 </i>
   </energy>
  </scstep>
  <scstep>
   <time name="dav">    7.87    7.87</time>
   <time name="total">    8.59    8.61</time>
   <energy>
    <i name="e_fr_energy">    -77.24560101 </i>
    <i name="e_wo_entrp">    -77.23595490 </i>
    <i name="e_0_energy">    -77.24077795 </i>
   </energy>
  </scstep>
  <scstep>
   <time name="dav">    7.54    7.55</time>
   <time name="total">    8.26    8.28</time>
   <energy>
    <i name="e_fr_energy">    -77.24500795 </i>
    <i name="e_wo_entrp">    -77.23549310 </i>
    <i name="e_0_energy">    -77.24025052 </i>
   </energy>
  </scstep>
  <scstep>
   <time name="dav">    8.04    8.04</time>
   <time name="total">    8.76    8.77</time>
   <energy>
    <i name="e_fr_energy">    -77.24492616 </i>
    <i name="e_wo_entrp">    -77.23548118 </i>
    <i name="e_0_energy">    -77.24020367 </i>
   </energy>
  </scstep>
  <scstep>
   <time name="dav">    8.40    8.41</time>
   <time name="total">    9.13    9.14</time>
   <energy>
    <i name="e_fr_energy">    -77.24489690 </i>
    <i name="e_wo_entrp">    -77.23549753 </i>
    <i name="e_0_energy">    -77.24019721 </i>
   </energy>
  </scstep>
  <scstep>
   <time name="dav">    7.38    7.38</time>
   <time name="total">    8.24    8.25</time>
   <energy>
    <i name="e_fr_energy">    -77.24484532 </i>
    <i name="e_wo_entrp">    -77.23549643 </i>
    <i name="e_0_energy">    -77.24017087 </i>
   </energy>
  </scstep>
  <scstep>
   <time name="dav">    7.43    7.43</time>
   <time name="total">    8.16    8.17</time>
   <energy>
    <i name="e_fr_energy">    -77.24470332 </i>
    <i name="e_wo_entrp">    -77.23546566 </i>
    <i name="e_0_energy">    -77.24008449 </i>
   </energy>
  </scstep>
  <scstep>
   <time name="dav">    7.63    7.63</time>
   <time name="total">    8.35    8.37</time>
   <energy>
    <i name="e_fr_energy">    -77.24459622 </i>
    <i name="e_wo_entrp">    -77.23547315 </i>
    <i name="e_0_energy">    -77.24003469 </i>
   </energy>
  </scstep>
  <scstep>
   <time name="dav">    7.33    7.33</time>
   <time name="total">    8.06    8.07</time>
   <energy>
    <i name="e_fr_energy">    -77.24462105 </i>
    <i name="e_wo_entrp">    -77.23551421 </i>
    <i name="e_0_energy">    -77.24006763 </i>
   </energy>
  </scstep>
  <scstep>
   <time name="dav">    5.57    5.57</time>
   <time name="total">    6.53    6.54</time>
   <energy>
    <i name="e_fr_energy">    -77.24461600 </i>
    <i name="e_wo_entrp">    -77.23551723 </i>
    <i name="e_0_energy">    -77.24006662 </i>
   </energy>
  </scstep>
  <scstep>
   <time name="dav">    4.49    4.49</time>
   <time name="total">    5.22    5.24</time>
   <energy>
    <i name="e_fr_energy">    -77.24463468 </i>
    <i name="e_wo_entrp">    -77.23552883 </i>
    <i name="e_0_energy">    -77.24008175 </i>
   </energy>
  </scstep>
  <scstep>
   <time name="dav">    6.28    6.28</time>
   <time name="total">    7.00    7.02</time>
   <energy>
    <i name="e_fr_energy">    -77.24468050 </i>
    <i name="e_wo_entrp">    -77.23555658 </i>
    <i name="e_0_energy">    -77.24011854 </i>
   </energy>
  </scstep>
  <scstep>
   <time name="dav">    7.82    7.82</time>
   <time name="total">    8.54    8.56</time>
   <energy>
    <i name="e_fr_energy">    -77.24489216 </i>
    <i name="e_wo_entrp">    -77.23567139 </i>
    <i name="e_0_energy">    -77.24028177 </i>
   </energy>
  </scstep>
  <scstep>
   <time name="dav">    7.63    7.63</time>
   <time name="total">    8.35    8.37</time>
   <energy>
    <i name="e_fr_energy">    -77.24509575 </i>
    <i name="e_wo_entrp">    -77.23579536 </i>
    <i name="e_0_energy">    -77.24044555 </i>
   </energy>
  </scstep>
  <scstep>
   <time name="dav">    7.67    7.69</time>
   <time name="total">    8.40    8.44</time>
   <energy>
    <i name="e_fr_energy">    -77.24514532 </i>
    <i name="e_wo_entrp">    -77.23583916 </i>
    <i name="e_0_energy">    -77.24049224 </i>
   </energy>
  </scstep>
  <scstep>
   <time name="dav">    7.45    7.45</time>
   <time name="total">    8.18    8.20</time>
   <energy>
    <i name="e_fr_energy">    -77.24506167 </i>
    <i name="e_wo_entrp">    -77.23578592 </i>
    <i name="e_0_energy">    -77.24042380 </i>
   </energy>
  </scstep>
  <scstep>
   <time name="dav">    7.13    7.13</time>
   <time name="total">    7.86    7.88</time>
   <energy>
    <i name="e_fr_energy">    -77.24504678 </i>
    <i name="e_wo_entrp">    -77.23580326 </i>
    <i name="e_0_energy">    -77.24042502 </i>
   </energy>
  </scstep>
  <scstep>
   <time name="dav">    4.51    4.51</time>
   <time name="total">    5.23    5.25</time>
   <energy>
    <i name="e_fr_energy">    -77.24505683 </i>
    <i name="e_wo_entrp">    -77.23583015 </i>
    <i name="e_0_energy">    -77.24044349 </i>
   </energy>
  </scstep>
  <scstep>
   <time name="dav">    6.77    6.77</time>
   <time name="total">    7.50    7.52</time>
   <energy>
    <i name="e_fr_energy">    -77.24503542 </i>
    <i name="e_wo_entrp">    -77.23583665 </i>
    <i name="e_0_energy">    -77.24043603 </i>
   </energy>
  </scstep>
  <scstep>
   <time name="dav">    7.73    7.73</time>
   <time name="total">    8.46    8.48</time>
   <energy>
    <i name="e_fr_energy">    -77.24495952 </i>
    <i name="e_wo_entrp">    -77.23585986 </i>
    <i name="e_0_energy">    -77.24040969 </i>
   </energy>
  </scstep>
  <scstep>
   <time name="dav">    7.40    7.40</time>
   <time name="total">    8.13    8.39</time>
   <energy>
    <i name="e_fr_energy">    -77.24485824 </i>
    <i name="e_wo_entrp">    -77.23589485 </i>
    <i name="e_0_energy">    -77.24037654 </i>
   </energy>
  </scstep>
  <scstep>
   <time name="dav">    7.33    7.34</time>
   <time name="total">    8.06    8.08</time>
   <energy>
    <i name="e_fr_energy">    -77.24465036 </i>
    <i name="e_wo_entrp">    -77.23592771 </i>
    <i name="e_0_energy">    -77.24028903 </i>
   </energy>
  </scstep>
  <scstep>
   <time name="dav">    8.26    8.26</time>
   <time name="total">    8.99    9.01</time>
   <energy>
    <i name="e_fr_energy">    -77.24466761 </i>
    <i name="e_wo_entrp">    -77.23600062 </i>
    <i name="e_0_energy">    -77.24033411 </i>
   </energy>
  </scstep>
  <scstep>
   <time name="dav">    7.23    7.23</time>
   <time name="total">    8.10    8.12</time>
   <energy>
    <i name="e_fr_energy">    -77.24474863 </i>
    <i name="e_wo_entrp">    -77.23601625 </i>
    <i name="e_0_energy">    -77.24038244 </i>
   </energy>
  </scstep>
  <scstep>
   <time name="dav">    6.48    6.48</time>
   <time name="total">    7.21    7.22</time>
   <energy>
    <i name="e_fr_energy">    -77.24475088 </i>
    <i name="e_wo_entrp">    -77.23601297 </i>
    <i name="e_0_energy">    -77.24038192 </i>
   </energy>
  </scstep>
  <scstep>
   <time name="dav">    5.10    5.11</time>
   <time name="total">    5.83    5.85</time>
   <energy>
    <i name="e_fr_energy">    -77.24477228 </i>
    <i name="e_wo_entrp">    -77.23601912 </i>
    <i name="e_0_energy">    -77.24039570 </i>
   </energy>
  </scstep>
  <scstep>
   <time name="dav">    4.00    4.24</time>
   <time name="total">    4.73    5.00</time>
   <energy>
    <i name="e_fr_energy">    -77.24477376 </i>
    <i name="e_wo_entrp">    -77.23601608 </i>
    <i name="e_0_energy">    -77.24039492 </i>
   </energy>
  </scstep>
  <scstep>
   <time name="dav">    3.96    3.97</time>
   <time name="total">    4.20    4.21</time>
   <energy>
    <i name="alphaZ">    598.65364144 </i>
    <i name="ewald">  -8616.02063087 </i>
    <i name="hartreedc">  -3835.71021581 </i>
    <i name="XCdc">    543.32388350 </i>
    <i name="pawpsdc">  15503.16747255 </i>
    <i name="pawaedc"> -15868.47355329 </i>
    <i name="eentropy">     -0.00875408 </i>
    <i name="bandstr">   -797.18389884 </i>
    <i name="atom">  12395.00728236 </i>
    <i name="e_fr_energy">    -77.24477303 </i>
    <i name="e_wo_entrp">    -77.23601895 </i>
    <i name="e_0_energy">    -77.24039599 </i>
   </energy>
  </scstep>
  <structure>
   <crystal>
    <varray name="basis" >
     <v>       5.65685425       0.00000000       0.00000000 </v>
     <v>       0.00000000       5.65685425       0.00000000 </v>
     <v>      -2.82842712      -2.82842712       8.00000000 </v>
    </varray>
    <i name="volume">    256.00000000 </i>
    <varray name="rec_basis" >
     <v>       0.17677670       0.00000000       0.06250000 </v>
     <v>       0.00000000       0.17677670       0.06250000 </v>
     <v>       0.00000000       0.00000000       0.12500000 </v>
    </varray>
   </crystal>
   <varray name="positions" >
    <v>       0.00000000       0.00000000       0.00000000 </v>
    <v>       0.25000000       0.25000000       0.50000000 </v>
    <v>       0.50000000       0.50000000       0.00000000 </v>
    <v>       0.75000000       0.75000000       0.50000000 </v>
    <v>       0.12500000       0.62500000       0.25000000 </v>
    <v>       0.37500000       0.87500000       0.75000000 </v>
    <v>       0.62500000       0.12500000       0.25000000 </v>
    <v>       0.87500000       0.37500000       0.75000000 </v>
    <v>       0.25000000       0.75000000       0.50000000 </v>
    <v>       0.50000000       0.00000000       0.00000000 </v>
    <v>       0.75000000       0.25000000       0.50000000 </v>
    <v>       0.62500000       0.12500000       0.75000000 </v>
    <v>       0.87500000       0.37500000       0.25000000 </v>
    <v>       0.12500000       0.12500000       0.75000000 </v>
    <v>       0.37500000       0.37500000       0.25000000 </v>
    <v>       0.62500000       0.62500000       0.75000000 </v>
   </varray>
  </structure>
  <varray name="forces" >
   <v>      -0.48778854       1.43136778      -0.62258640 </v>
   <v>       0.47917213       0.35711816       0.59034411 </v>
   <v>       0.51512479      -1.38125043      -0.66264104 </v>
   <v>      -0.47250933      -0.32934776       0.56553484 </v>
   <v>       0.01708046      -1.58555305       0.97478037 </v>
   <v>       0.81281824       0.79847760      -0.04733399 </v>
   <v>       0.00982204       1.12821844       0.20689181 </v>
   <v>      -0.97426098      -1.01197062      -0.67782039 </v>
   <v>      -0.34107826       0.42532530       0.16949407 </v>
   <v>      -0.46458989      -1.21382575       0.66164205 </v>
   <v>       0.35617674      -0.37423883      -1.61803052 </v>
   <v>       0.53551600       0.55058846       0.65170161 </v>
   <v>       0.50473937       0.59854510      -0.69157523 </v>
   <v>      -0.49428060       0.51826075       0.63013407 </v>
   <v>      -0.50072263       0.60126400      -0.71787295 </v>
   <v>       0.50478046      -0.51297915       0.58733758 </v>
  </varray>
  <varray name="stress" >
   <v>     -69.52096268      -2.71991847      -7.18765654 </v>
   <v>      -2.71991849     -99.29218550       9.04836426 </v>
   <v>      -7.18765619       9.04836445     -79.11406073 </v>
  </varray>
  <energy>
   <i name="e_fr_energy">    -77.24477303 </i>
   <i name="e_wo_entrp">    -77.24039599 </i>
   <i name="e_0_energy">     -0.00875408 </i>
  </energy>
  <time name="totalsc">  386.69  388.01</time>
  <eigenvalues>
   <array>
    <dimension dim="1">band</dimension>
    <dimension dim="2">kpoint</dimension>
    <dimension dim="3">spin</dimension>
    <field>eigene</field>
    <field>occ</field>
    <set>
     <set comment="spin 1">
      <set comment="kpoint 1">
       <r>  -31.7142    1.0000 </r>
       <r>  -31.6842    1.0000 </r>
       <r>  -31.0786    1.0000 </r>
       <r>  -31.0462    1.0000 </r>
       <r>  -14.8866    1.0000 </r>
       <r>  -14.6785    1.0000 </r>
       <r>  -14.3367    1.0000 </r>
       <r>  -14.1451    1.0000 </r>
       <r>  -13.9770    1.0000 </r>
       <r>  -13.9606    1.0000 </r>
       <r>  -13.8913    1.0000 </r>
       <r>  -13.7520    1.0000 </r>
       <r>  -13.7130    1.0000 </r>
       <r>  -13.6753    1.0000 </r>
       <r>  -13.5803    1.0000 </r>
       <r>  -13.4702    1.0000 </r>
       <r>  -13.3779    1.0000 </r>
       <r>  -13.3156    1.0000 </r>
       <r>  -13.2090    1.0000 </r>
       <r>  -13.1126    1.0000 </r>
       <r>  -12.9546    1.0000 </r>
       <r>  -12.9116    1.0000 </r>
       <r>  -12.8612    1.0000 </r>
       <r>  -12.6297    1.0000 </r>
       <r>   -2.8685    1.0000 </r>
       <r>   -2.5358    1.0000 </r>
       <r>   -2.2425    1.0000 </r>
       <r>   -1.9859    1.0000 </r>
       <r>   -1.8179    1.0000 </r>
       <r>   -1.8014    1.0000 </r>
       <r>   -1.7477    1.0000 </r>
       <r>   -1.6615    1.0000 </r>
       <r>   -1.4227    1.0000 </r>
       <r>   -1.3635    1.0000 </r>
       <r>   -1.3081    1.0000 </r>
       <r>   -1.1746    1.0000 </r>
       <r>   -1.0745    1.0000 </r>
       <r>   -0.8415    1.0000 </r>
       <r>   -0.7246    1.0000 </r>
       <r>   -0.6834    1.0000 </r>
       <r>   -0.6386    1.0000 </r>
       <r>   -0.4268    1.0000 </r>
       <r>   -0.4158    1.0000 </r>
       <r>   -0.2919    1.0000 </r>
       <r>   -0.1480    1.0000 </r>
       <r>    0.0197    1.0000 </r>
       <r>    0.0600    1.0000 </r>
       <r>    0.3117    1.0000 </r>
       <r>    0.4495    1.0000 </r>
       <r>    0.8174    1.0000 </r>
       <r>    0.8456    1.0000 </r>
       <r>    0.8631    1.0000 </r>
       <r>    1.0486    1.0000 </r>
       <r>    1.2279    1.0000 </r>
       <r>    1.2563    1.0000 </r>
       <r>    1.3280    1.0000 </r>
       <r>    1.3731    1.0000 </r>
       <r>    1.4736    1.0000 </r>
       <r>    1.5979    1.0000 </r>
       <r>    1.6993    1.0000 </r>
       <r>    1.7905    1.0000 </r>
       <r>    1.8697    1.0000 </r>
       <r>    2.0086    1.0000 </r>
       <r>    2.1871    1.0000 </r>
       <r>    2.2502    1.0000 </r>
       <r>    2.3160    1.0000 </r>
       <r>    2.9232    0.0000 </r>
       <r>    2.9841    0.0000 </r>
       <r>    3.4977    0.0000 </r>
       <r>    4.8482    0.0000 </r>
       <r>    4.9919    0.0000 </r>
       <r>    5.8021    0.0000 </r>
       <r>    6.8376    0.0000 </r>
       <r>    7.1386    0.0000 </r>
       <r>    7.6212    0.0000 </r>
       <r>    7.9594    0.0000 </r>
       <r>    8.1270    0.0000 </r>
       <r>    8.7293    0.0000 </r>
       <r>    8.8847    0.0000 </r>
       <r>    9.0004    0.0000 </r>
       <r>    9.1591    0.0000 </r>
       <r>    9.3053    0.0000 </r>
       <r>    9.3895    0.0000 </r>
       <r>    9.5194    0.0000 </r>
       <r>    9.5874    0.0000 </r>
       <r>    9.8667    0.0000 </r>
       <r>   10.0027    0.0000 </r>
       <r>   10.0183    0.0000 </r>
      </set>
      <set comment="kpoint 2">
       <r>  -31.7113    1.0000 </r>
       <r>  -31.6870    1.0000 </r>
       <r>  -31.0756    1.0000 </r>
       <r>  -31.0488    1.0000 </r>
       <r>  -14.8087    1.0000 </r>
       <r>  -14.7022    1.0000 </r>
       <r>  -14.4446    1.0000 </r>
       <r>  -14.3077    1.0000 </r>
       <r>  -14.1072    1.0000 </r>
       <r>  -14.0340    1.0000 </r>
       <r>  -13.8887    1.0000 </r>
       <r>  -13.8333    1.0000 </r>
       <r>  -13.7183    1.0000 </r>
       <r>  -13.5533    1.0000 </r>
       <r>  -13.4943    1.0000 </r>
       <r>  -13.4545    1.0000 </r>
       <r>  -13.3484    1.0000 </r>
       <r>  -13.2917    1.0000 </r>
       <r>  -13.2010    1.0000 </r>
       <r>  -13.0691    1.0000 </r>
       <r>  -12.8474    1.0000 </r>
       <r>  -12.8044    1.0000 </r>
       <r>  -12.7720    1.0000 </r>
       <r>  -12.6617    1.0000 </r>
       <r>   -2.6672    1.0000 </r>
       <r>   -2.5677    1.0000 </r>
       <r>   -2.1680    1.0000 </r>
       <r>   -1.9974    1.0000 </r>
       <r>   -1.8686    1.0000 </r>
       <r>   -1.7636    1.0000 </r>
       <r>   -1.6933    1.0000 </r>
       <r>   -1.6715    1.0000 </r>
       <r>   -1.4806    1.0000 </r>
       <r>   -1.3196    1.0000 </r>
       <r>   -1.2997    1.0000 </r>
       <r>   -1.2208    1.0000 </r>
       <r>   -1.1408    1.0000 </r>
       <r>   -1.0878    1.0000 </r>
       <r>   -0.8227    1.0000 </r>
       <r>   -0.8009    1.0000 </r>
       <r>   -0.7229    1.0000 </r>
       <r>   -0.4823    1.0000 </r>
       <r>   -0.4708    1.0000 </r>
       <r>   -0.4521    1.0000 </r>
       <r>   -0.0275    1.0000 </r>
       <r>    0.1904    1.0000 </r>
       <r>    0.2630    1.0000 </r>
       <r>    0.3999    1.0000 </r>
       <r>    0.5078    1.0000 </r>
       <r>    0.7910    1.0000 </r>
       <r>    0.8800    1.0000 </r>
       <r>    0.9980    1.0000 </r>
       <r>    1.0762    1.0000 </r>
       <r>    1.1661    1.0000 </r>
       <r>    1.1995    1.0000 </r>
       <r>    1.3040    1.0000 </r>
       <r>    1.3445    1.0000 </r>
       <r>    1.3962    1.0000 </r>
       <r>    1.5106    1.0000 </r>
       <r>    1.6202    1.0000 </r>
       <r>    1.6688    1.0000 </r>
       <r>    1.7731    1.0000 </r>
       <r>    1.8633    1.0000 </r>
       <r>    2.0560    1.0000 </r>
       <r>    2.2748    1.0000 </r>
       <r>    2.5574    1.0000 </r>
       <r>    2.6726    0.9685 </r>
       <r>    3.0455    0.0000 </r>
       <r>    3.3332    0.0000 </r>
       <r>    4.6803    0.0000 </r>
       <r>    4.9807    0.0000 </r>
       <r>    5.8580    0.0000 </r>
       <r>    7.1839    0.0000 </r>
       <r>    7.5133    0.0000 </r>
       <r>    7.8510    0.0000 </r>
       <r>    8.0224    0.0000 </r>
       <r>    8.3727    0.0000 </r>
       <r>    8.5571    0.0000 </r>
       <r>    8.8148    0.0000 </r>
       <r>    8.9593    0.0000 </r>
       <r>    9.1223    0.0000 </r>
       <r>    9.2544    0.0000 </r>
       <r>    9.4165    0.0000 </r>
       <r>    9.5810    0.0000 </r>
       <r>    9.8011    0.0000 </r>
       <r>    9.9492    0.0000 </r>
       <r>   10.0089    0.0000 </r>
       <r>   10.2626    0.0000 </r>
      </set>
      <set comment="kpoint 3">
       <r>  -31.7073    1.0000 </r>
       <r>  -31.6908    1.0000 </r>
       <r>  -31.0719    1.0000 </r>
       <r>  -31.0523    1.0000 </r>
       <r>  -14.8066    1.0000 </r>
       <r>  -14.5868    1.0000 </r>
       <r>  -14.5351    1.0000 </r>
       <r>  -14.4547    1.0000 </r>
       <r>  -14.1729    1.0000 </r>
       <r>  -14.0852    1.0000 </r>
       <r>  -13.9828    1.0000 </r>
       <r>  -13.9162    1.0000 </r>
       <r>  -13.7389    1.0000 </r>
       <r>  -13.5196    1.0000 </r>
       <r>  -13.4639    1.0000 </r>
       <r>  -13.3738    1.0000 </r>
       <r>  -13.3506    1.0000 </r>
       <r>  -13.2238    1.0000 </r>
       <r>  -13.1456    1.0000 </r>
       <r>  -13.0361    1.0000 </r>
       <r>  -12.7572    1.0000 </r>
       <r>  -12.7355    1.0000 </r>
       <r>  -12.6929    1.0000 </r>
       <r>  -12.6662    1.0000 </r>
       <r>   -2.6175    1.0000 </r>
       <r>   -2.2279    1.0000 </r>
       <r>   -2.1314    1.0000 </r>
       <r>   -2.0526    1.0000 </r>
       <r>   -1.9393    1.0000 </r>
       <r>   -1.8218    1.0000 </r>
       <r>   -1.7201    1.0000 </r>
       <r>   -1.6780    1.0000 </r>
       <r>   -1.5006    1.0000 </r>
       <r>   -1.4706    1.0000 </r>
       <r>   -1.3588    1.0000 </r>
       <r>   -1.2482    1.0000 </r>
       <r>   -1.1247    1.0000 </r>
       <r>   -1.0671    1.0000 </r>
       <r>   -0.8918    1.0000 </r>
       <r>   -0.8554    1.0000 </r>
       <r>   -0.7944    1.0000 </r>
       <r>   -0.6657    1.0000 </r>
       <r>   -0.6091    1.0000 </r>
       <r>   -0.5228    1.0000 </r>
       <r>    0.1048    1.0000 </r>
       <r>    0.2464    1.0000 </r>
       <r>    0.4344    1.0000 </r>
       <r>    0.6305    1.0000 </r>
       <r>    0.7023    1.0000 </r>
       <r>    0.7330    1.0000 </r>
       <r>    0.8214    1.0000 </r>
       <r>    1.0031    1.0000 </r>
       <r>    1.1199    1.0000 </r>
       <r>    1.2171    1.0000 </r>
       <r>    1.2337    1.0000 </r>
       <r>    1.2699    1.0000 </r>
       <r>    1.3067    1.0000 </r>
       <r>    1.3230    1.0000 </r>
       <r>    1.4521    1.0000 </r>
       <r>    1.4935    1.0000 </r>
       <r>    1.5444    1.0000 </r>
       <r>    1.6923    1.0000 </r>
       <r>    1.6955    1.0000 </r>
       <r>    1.9244    1.0000 </r>
       <r>    2.2508    1.0000 </r>
       <r>    2.5040    1.0000 </r>
       <r>    2.7579    0.2900 </r>
       <r>    2.8241    0.0076 </r>
       <r>    3.2879    0.0000 </r>
       <r>    4.7361    0.0000 </r>
       <r>    5.0118    0.0000 </r>
       <r>    5.9149    0.0000 </r>
       <r>    7.2636    0.0000 </r>
       <r>    7.8471    0.0000 </r>
       <r>    8.0923    0.0000 </r>
       <r>    8.2542    0.0000 </r>
       <r>    8.3746    0.0000 </r>
       <r>    8.4274    0.0000 </r>
       <r>    8.5892    0.0000 </r>
       <r>    8.7921    0.0000 </r>
       <r>    8.9161    0.0000 </r>
       <r>    9.3176    0.0000 </r>
       <r>    9.5432    0.0000 </r>
       <r>    9.6724    0.0000 </r>
       <r>    9.8364    0.0000 </r>
       <r>   10.2329    0.0000 </r>
       <r>   10.3676    0.0000 </r>
       <r>   10.4601    0.0000 </r>
      </set>
      <set comment="kpoint 4">
       <r>  -31.7113    1.0000 </r>
       <r>  -31.6869    1.0000 </r>
       <r>  -31.0756    1.0000 </r>
       <r>  -31.0488    1.0000 </r>
       <r>  -14.8318    1.0000 </r>
       <r>  -14.7502    1.0000 </r>
       <r>  -14.4308    1.0000 </r>
       <r>  -14.2006    1.0000 </r>
       <r>  -14.1280    1.0000 </r>
       <r>  -13.9924    1.0000 </r>
       <r>  -13.9290    1.0000 </r>
       <r>  -13.8207    1.0000 </r>
       <r>  -13.7326    1.0000 </r>
       <r>  -13.6454    1.0000 </r>
       <r>  -13.4931    1.0000 </r>
       <r>  -13.4222    1.0000 </r>
       <r>  -13.3367    1.0000 </r>
       <r>  -13.2896    1.0000 </r>
       <r>  -13.1169    1.0000 </r>
       <r>  -13.0514    1.0000 </r>
       <r>  -12.9249    1.0000 </r>
       <r>  -12.8329    1.0000 </r>
       <r>  -12.7711    1.0000 </r>
       <r>  -12.6348    1.0000 </r>
       <r>   -2.7122    1.0000 </r>
       <r>   -2.6156    1.0000 </r>
       <r>   -2.1701    1.0000 </r>
       <r>   -1.9991    1.0000 </r>
       <r>   -1.8221    1.0000 </r>
       <r>   -1.7992    1.0000 </r>
       <r>   -1.7076    1.0000 </r>
       <r>   -1.6980    1.0000 </r>
       <r>   -1.4804    1.0000 </r>
       <r>   -1.3416    1.0000 </r>
       <r>   -1.3328    1.0000 </r>
       <r>   -1.2213    1.0000 </r>
       <r>   -1.1484    1.0000 </r>
       <r>   -1.0639    1.0000 </r>
       <r>   -0.8457    1.0000 </r>
       <r>   -0.8196    1.0000 </r>
       <r>   -0.7171    1.0000 </r>
       <r>   -0.4856    1.0000 </r>
       <r>   -0.4740    1.0000 </r>
       <r>   -0.3242    1.0000 </r>
       <r>   -0.0166    1.0000 </r>
       <r>    0.1035    1.0000 </r>
       <r>    0.2631    1.0000 </r>
       <r>    0.3884    1.0000 </r>
       <r>    0.5050    1.0000 </r>
       <r>    0.7317    1.0000 </r>
       <r>    0.8319    1.0000 </r>
       <r>    0.9077    1.0000 </r>
       <r>    1.0349    1.0000 </r>
       <r>    1.1679    1.0000 </r>
       <r>    1.2309    1.0000 </r>
       <r>    1.3125    1.0000 </r>
       <r>    1.4044    1.0000 </r>
       <r>    1.4500    1.0000 </r>
       <r>    1.5308    1.0000 </r>
       <r>    1.6246    1.0000 </r>
       <r>    1.6929    1.0000 </r>
       <r>    1.8351    1.0000 </r>
       <r>    1.8929    1.0000 </r>
       <r>    2.0662    1.0000 </r>
       <r>    2.2158    1.0000 </r>
       <r>    2.6808    0.9481 </r>
       <r>    2.8581    0.0004 </r>
       <r>    3.0352    0.0000 </r>
       <r>    3.3588    0.0000 </r>
       <r>    4.7839    0.0000 </r>
       <r>    5.4215    0.0000 </r>
       <r>    6.1749    0.0000 </r>
       <r>    6.8548    0.0000 </r>
       <r>    7.3583    0.0000 </r>
       <r>    7.6686    0.0000 </r>
       <r>    8.0796    0.0000 </r>
       <r>    8.2509    0.0000 </r>
       <r>    8.3085    0.0000 </r>
       <r>    8.5264    0.0000 </r>
       <r>    8.7993    0.0000 </r>
       <r>    9.1144    0.0000 </r>
       <r>    9.2780    0.0000 </r>
       <r>    9.3692    0.0000 </r>
       <r>    9.5723    0.0000 </r>
       <r>    9.8065    0.0000 </r>
       <r>    9.9317    0.0000 </r>
       <r>   10.0493    0.0000 </r>
       <r>   10.1798    0.0000 </r>
      </set>
      <set comment="kpoint 5">
       <r>  -31.7095    1.0000 </r>
       <r>  -31.6886    1.0000 </r>
       <r>  -31.0738    1.0000 </r>
       <r>  -31.0503    1.0000 </r>
       <r>  -14.8544    1.0000 </r>
       <r>  -14.7379    1.0000 </r>
       <r>  -14.4502    1.0000 </r>
       <r>  -14.3047    1.0000 </r>
       <r>  -14.2597    1.0000 </r>
       <r>  -14.1190    1.0000 </r>
       <r>  -13.9455    1.0000 </r>
       <r>  -13.8006    1.0000 </r>
       <r>  -13.6896    1.0000 </r>
       <r>  -13.5573    1.0000 </r>
       <r>  -13.4758    1.0000 </r>
       <r>  -13.4480    1.0000 </r>
       <r>  -13.3368    1.0000 </r>
       <r>  -13.1721    1.0000 </r>
       <r>  -13.0923    1.0000 </r>
       <r>  -13.0123    1.0000 </r>
       <r>  -12.8927    1.0000 </r>
       <r>  -12.8193    1.0000 </r>
       <r>  -12.6551    1.0000 </r>
       <r>  -12.6094    1.0000 </r>
       <r>   -2.8709    1.0000 </r>
       <r>   -2.6511    1.0000 </r>
       <r>   -2.0573    1.0000 </r>
       <r>   -1.9999    1.0000 </r>
       <r>   -1.9174    1.0000 </r>
       <r>   -1.8232    1.0000 </r>
       <r>   -1.7589    1.0000 </r>
       <r>   -1.6256    1.0000 </r>
       <r>   -1.5716    1.0000 </r>
       <r>   -1.2897    1.0000 </r>
       <r>   -1.2155    1.0000 </r>
       <r>   -1.1697    1.0000 </r>
       <r>   -1.0805    1.0000 </r>
       <r>   -0.8834    1.0000 </r>
       <r>   -0.8003    1.0000 </r>
       <r>   -0.6747    1.0000 </r>
       <r>   -0.6342    1.0000 </r>
       <r>   -0.6274    1.0000 </r>
       <r>   -0.4643    1.0000 </r>
       <r>   -0.3793    1.0000 </r>
       <r>   -0.0500    1.0000 </r>
       <r>    0.0755    1.0000 </r>
       <r>    0.2137    1.0000 </r>
       <r>    0.3131    1.0000 </r>
       <r>    0.5566    1.0000 </r>
       <r>    0.6512    1.0000 </r>
       <r>    0.7310    1.0000 </r>
       <r>    0.9405    1.0000 </r>
       <r>    1.0188    1.0000 </r>
       <r>    1.0837    1.0000 </r>
       <r>    1.2020    1.0000 </r>
       <r>    1.2523    1.0000 </r>
       <r>    1.2951    1.0000 </r>
       <r>    1.3876    1.0000 </r>
       <r>    1.4840    1.0000 </r>
       <r>    1.5881    1.0000 </r>
       <r>    1.6606    1.0000 </r>
       <r>    1.6819    1.0000 </r>
       <r>    1.9783    1.0000 </r>
       <r>    2.0174    1.0000 </r>
       <r>    2.1854    1.0000 </r>
       <r>    2.4332    1.0000 </r>
       <r>    2.7227    0.6707 </r>
       <r>    3.0175    0.0000 </r>
       <r>    3.3987    0.0000 </r>
       <r>    4.8674    0.0000 </r>
       <r>    5.2339    0.0000 </r>
       <r>    6.2704    0.0000 </r>
       <r>    7.1574    0.0000 </r>
       <r>    7.5591    0.0000 </r>
       <r>    7.8588    0.0000 </r>
       <r>    7.9873    0.0000 </r>
       <r>    8.3402    0.0000 </r>
       <r>    8.5821    0.0000 </r>
       <r>    8.6684    0.0000 </r>
       <r>    8.8246    0.0000 </r>
       <r>    9.2030    0.0000 </r>
       <r>    9.4643    0.0000 </r>
       <r>    9.5569    0.0000 </r>
       <r>    9.6910    0.0000 </r>
       <r>    9.8602    0.0000 </r>
       <r>    9.8858    0.0000 </r>
       <r>   10.1300    0.0000 </r>
       <r>   10.3420    0.0000 </r>
      </set>
      <set comment="kpoint 6">
       <r>  -31.7073    1.0000 </r>
       <r>  -31.6906    1.0000 </r>
       <r>  -31.0717    1.0000 </r>
       <r>  -31.0521    1.0000 </r>
       <r>  -14.8931    1.0000 </r>
       <r>  -14.6664    1.0000 </r>
       <r>  -14.5440    1.0000 </r>
       <r>  -14.4971    1.0000 </r>
       <r>  -14.2175    1.0000 </r>
       <r>  -14.1373    1.0000 </r>
       <r>  -13.9241    1.0000 </r>
       <r>  -13.8658    1.0000 </r>
       <r>  -13.7117    1.0000 </r>
       <r>  -13.5250    1.0000 </r>
       <r>  -13.4677    1.0000 </r>
       <r>  -13.3971    1.0000 </r>
       <r>  -13.3616    1.0000 </r>
       <r>  -13.1216    1.0000 </r>
       <r>  -13.0672    1.0000 </r>
       <r>  -12.9814    1.0000 </r>
       <r>  -12.8366    1.0000 </r>
       <r>  -12.7891    1.0000 </r>
       <r>  -12.5766    1.0000 </r>
       <r>  -12.5531    1.0000 </r>
       <r>   -2.7020    1.0000 </r>
       <r>   -2.5480    1.0000 </r>
       <r>   -2.0989    1.0000 </r>
       <r>   -1.9927    1.0000 </r>
       <r>   -1.9186    1.0000 </r>
       <r>   -1.8789    1.0000 </r>
       <r>   -1.7515    1.0000 </r>
       <r>   -1.6043    1.0000 </r>
       <r>   -1.4326    1.0000 </r>
       <r>   -1.3466    1.0000 </r>
       <r>   -1.2886    1.0000 </r>
       <r>   -1.1559    1.0000 </r>
       <r>   -1.0774    1.0000 </r>
       <r>   -0.9863    1.0000 </r>
       <r>   -0.8793    1.0000 </r>
       <r>   -0.8357    1.0000 </r>
       <r>   -0.7895    1.0000 </r>
       <r>   -0.7468    1.0000 </r>
       <r>   -0.5246    1.0000 </r>
       <r>   -0.4928    1.0000 </r>
       <r>   -0.1082    1.0000 </r>
       <r>    0.1032    1.0000 </r>
       <r>    0.2515    1.0000 </r>
       <r>    0.4529    1.0000 </r>
       <r>    0.6133    1.0000 </r>
       <r>    0.7282    1.0000 </r>
       <r>    0.8910    1.0000 </r>
       <r>    0.9663    1.0000 </r>
       <r>    1.0510    1.0000 </r>
       <r>    1.1132    1.0000 </r>
       <r>    1.1630    1.0000 </r>
       <r>    1.2514    1.0000 </r>
       <r>    1.2738    1.0000 </r>
       <r>    1.3497    1.0000 </r>
       <r>    1.4179    1.0000 </r>
       <r>    1.4598    1.0000 </r>
       <r>    1.5646    1.0000 </r>
       <r>    1.6454    1.0000 </r>
       <r>    1.7001    1.0000 </r>
       <r>    1.9488    1.0000 </r>
       <r>    2.2005    1.0000 </r>
       <r>    2.3130    1.0000 </r>
       <r>    2.7303    0.5894 </r>
       <r>    3.0501    0.0000 </r>
       <r>    3.5570    0.0000 </r>
       <r>    4.9414    0.0000 </r>
       <r>    5.2174    0.0000 </r>
       <r>    6.2518    0.0000 </r>
       <r>    7.1003    0.0000 </r>
       <r>    7.6062    0.0000 </r>
       <r>    7.8589    0.0000 </r>
       <r>    8.0664    0.0000 </r>
       <r>    8.4491    0.0000 </r>
       <r>    8.6542    0.0000 </r>
       <r>    8.7720    0.0000 </r>
       <r>    8.9212    0.0000 </r>
       <r>    9.3906    0.0000 </r>
       <r>    9.4299    0.0000 </r>
       <r>    9.6676    0.0000 </r>
       <r>    9.7944    0.0000 </r>
       <r>    9.9910    0.0000 </r>
       <r>   10.1084    0.0000 </r>
       <r>   10.2684    0.0000 </r>
       <r>   10.3773    0.0000 </r>
      </set>
      <set comment="kpoint 7">
       <r>  -31.7095    1.0000 </r>
       <r>  -31.6886    1.0000 </r>
       <r>  -31.0738    1.0000 </r>
       <r>  -31.0503    1.0000 </r>
       <r>  -14.8095    1.0000 </r>
       <r>  -14.7391    1.0000 </r>
       <r>  -14.5676    1.0000 </r>
       <r>  -14.4020    1.0000 </r>
       <r>  -14.1304    1.0000 </r>
       <r>  -13.9984    1.0000 </r>
       <r>  -13.9500    1.0000 </r>
       <r>  -13.8014    1.0000 </r>
       <r>  -13.6627    1.0000 </r>
       <r>  -13.5908    1.0000 </r>
       <r>  -13.4979    1.0000 </r>
       <r>  -13.4541    1.0000 </r>
       <r>  -13.3990    1.0000 </r>
       <r>  -13.1622    1.0000 </r>
       <r>  -13.0797    1.0000 </r>
       <r>  -13.0351    1.0000 </r>
       <r>  -12.9067    1.0000 </r>
       <r>  -12.7665    1.0000 </r>
       <r>  -12.6652    1.0000 </r>
       <r>  -12.6201    1.0000 </r>
       <r>   -2.6090    1.0000 </r>
       <r>   -2.2506    1.0000 </r>
       <r>   -2.1522    1.0000 </r>
       <r>   -2.0560    1.0000 </r>
       <r>   -1.8551    1.0000 </r>
       <r>   -1.8286    1.0000 </r>
       <r>   -1.7433    1.0000 </r>
       <r>   -1.6934    1.0000 </r>
       <r>   -1.5575    1.0000 </r>
       <r>   -1.5275    1.0000 </r>
       <r>   -1.3382    1.0000 </r>
       <r>   -1.2495    1.0000 </r>
       <r>   -1.2009    1.0000 </r>
       <r>   -1.0916    1.0000 </r>
       <r>   -1.0020    1.0000 </r>
       <r>   -0.8342    1.0000 </r>
       <r>   -0.7576    1.0000 </r>
       <r>   -0.5280    1.0000 </r>
       <r>   -0.4665    1.0000 </r>
       <r>   -0.4223    1.0000 </r>
       <r>   -0.1375    1.0000 </r>
       <r>    0.0858    1.0000 </r>
       <r>    0.3431    1.0000 </r>
       <r>    0.4695    1.0000 </r>
       <r>    0.6088    1.0000 </r>
       <r>    0.7551    1.0000 </r>
       <r>    0.8811    1.0000 </r>
       <r>    0.9289    1.0000 </r>
       <r>    1.0480    1.0000 </r>
       <r>    1.1567    1.0000 </r>
       <r>    1.2264    1.0000 </r>
       <r>    1.2761    1.0000 </r>
       <r>    1.3485    1.0000 </r>
       <r>    1.4000    1.0000 </r>
       <r>    1.4544    1.0000 </r>
       <r>    1.5795    1.0000 </r>
       <r>    1.6260    1.0000 </r>
       <r>    1.7325    1.0000 </r>
       <r>    1.8217    1.0000 </r>
       <r>    1.9947    1.0000 </r>
       <r>    2.2652    1.0000 </r>
       <r>    2.6658    0.9798 </r>
       <r>    2.7348    0.5397 </r>
       <r>    2.8745    0.0001 </r>
       <r>    3.5987    0.0000 </r>
       <r>    4.9554    0.0000 </r>
       <r>    5.2581    0.0000 </r>
       <r>    5.8987    0.0000 </r>
       <r>    7.2498    0.0000 </r>
       <r>    7.6229    0.0000 </r>
       <r>    7.8942    0.0000 </r>
       <r>    8.0132    0.0000 </r>
       <r>    8.1963    0.0000 </r>
       <r>    8.4811    0.0000 </r>
       <r>    8.5949    0.0000 </r>
       <r>    8.8224    0.0000 </r>
       <r>    9.1018    0.0000 </r>
       <r>    9.4628    0.0000 </r>
       <r>    9.5534    0.0000 </r>
       <r>    9.6522    0.0000 </r>
       <r>    9.7994    0.0000 </r>
       <r>    9.9565    0.0000 </r>
       <r>   10.0645    0.0000 </r>
       <r>   10.2646    0.0000 </r>
      </set>
      <set comment="kpoint 8">
       <r>  -31.7075    1.0000 </r>
       <r>  -31.6906    1.0000 </r>
       <r>  -31.0719    1.0000 </r>
       <r>  -31.0523    1.0000 </r>
       <r>  -14.8250    1.0000 </r>
       <r>  -14.7660    1.0000 </r>
       <r>  -14.5240    1.0000 </r>
       <r>  -14.1898    1.0000 </r>
       <r>  -14.1784    1.0000 </r>
       <r>  -14.0948    1.0000 </r>
       <r>  -14.0007    1.0000 </r>
       <r>  -13.8337    1.0000 </r>
       <r>  -13.7740    1.0000 </r>
       <r>  -13.6749    1.0000 </r>
       <r>  -13.4535    1.0000 </r>
       <r>  -13.4007    1.0000 </r>
       <r>  -13.3192    1.0000 </r>
       <r>  -13.1674    1.0000 </r>
       <r>  -13.0465    1.0000 </r>
       <r>  -13.0008    1.0000 </r>
       <r>  -12.8949    1.0000 </r>
       <r>  -12.8118    1.0000 </r>
       <r>  -12.6517    1.0000 </r>
       <r>  -12.6211    1.0000 </r>
       <r>   -2.7764    1.0000 </r>
       <r>   -2.2339    1.0000 </r>
       <r>   -2.1404    1.0000 </r>
       <r>   -2.0674    1.0000 </r>
       <r>   -1.8744    1.0000 </r>
       <r>   -1.8239    1.0000 </r>
       <r>   -1.7963    1.0000 </r>
       <r>   -1.7153    1.0000 </r>
       <r>   -1.5149    1.0000 </r>
       <r>   -1.4883    1.0000 </r>
       <r>   -1.3679    1.0000 </r>
       <r>   -1.3129    1.0000 </r>
       <r>   -1.1236    1.0000 </r>
       <r>   -1.0859    1.0000 </r>
       <r>   -1.0373    1.0000 </r>
       <r>   -0.8761    1.0000 </r>
       <r>   -0.6685    1.0000 </r>
       <r>   -0.6301    1.0000 </r>
       <r>   -0.5543    1.0000 </r>
       <r>   -0.3608    1.0000 </r>
       <r>    0.1369    1.0000 </r>
       <r>    0.2293    1.0000 </r>
       <r>    0.2653    1.0000 </r>
       <r>    0.4955    1.0000 </r>
       <r>    0.5653    1.0000 </r>
       <r>    0.5880    1.0000 </r>
       <r>    0.8873    1.0000 </r>
       <r>    1.0266    1.0000 </r>
       <r>    1.0856    1.0000 </r>
       <r>    1.1528    1.0000 </r>
       <r>    1.1877    1.0000 </r>
       <r>    1.2676    1.0000 </r>
       <r>    1.3445    1.0000 </r>
       <r>    1.4139    1.0000 </r>
       <r>    1.4557    1.0000 </r>
       <r>    1.5385    1.0000 </r>
       <r>    1.6461    1.0000 </r>
       <r>    1.6906    1.0000 </r>
       <r>    1.8506    1.0000 </r>
       <r>    1.9771    1.0000 </r>
       <r>    2.3380    1.0000 </r>
       <r>    2.7956    0.0526 </r>
       <r>    2.8323    0.0039 </r>
       <r>    2.9950    0.0000 </r>
       <r>    3.4061    0.0000 </r>
       <r>    4.9320    0.0000 </r>
       <r>    5.7392    0.0000 </r>
       <r>    6.5957    0.0000 </r>
       <r>    6.8651    0.0000 </r>
       <r>    7.2412    0.0000 </r>
       <r>    7.4347    0.0000 </r>
       <r>    8.0125    0.0000 </r>
       <r>    8.2179    0.0000 </r>
       <r>    8.4797    0.0000 </r>
       <r>    8.6282    0.0000 </r>
       <r>    8.6887    0.0000 </r>
       <r>    8.8039    0.0000 </r>
       <r>    9.1550    0.0000 </r>
       <r>    9.3214    0.0000 </r>
       <r>    9.4020    0.0000 </r>
       <r>    9.7891    0.0000 </r>
       <r>   10.0215    0.0000 </r>
       <r>   10.2239    0.0000 </r>
       <r>   10.3509    0.0000 </r>
      </set>
      <set comment="kpoint 9">
       <r>  -31.7074    1.0000 </r>
       <r>  -31.6905    1.0000 </r>
       <r>  -31.0717    1.0000 </r>
       <r>  -31.0521    1.0000 </r>
       <r>  -14.8902    1.0000 </r>
       <r>  -14.7642    1.0000 </r>
       <r>  -14.5688    1.0000 </r>
       <r>  -14.3615    1.0000 </r>
       <r>  -14.2308    1.0000 </r>
       <r>  -14.1151    1.0000 </r>
       <r>  -13.9311    1.0000 </r>
       <r>  -13.8436    1.0000 </r>
       <r>  -13.6931    1.0000 </r>
       <r>  -13.6169    1.0000 </r>
       <r>  -13.4505    1.0000 </r>
       <r>  -13.4114    1.0000 </r>
       <r>  -13.3470    1.0000 </r>
       <r>  -13.0791    1.0000 </r>
       <r>  -13.0232    1.0000 </r>
       <r>  -12.9725    1.0000 </r>
       <r>  -12.8952    1.0000 </r>
       <r>  -12.8175    1.0000 </r>
       <r>  -12.5716    1.0000 </r>
       <r>  -12.5429    1.0000 </r>
       <r>   -2.7598    1.0000 </r>
       <r>   -2.5704    1.0000 </r>
       <r>   -2.1013    1.0000 </r>
       <r>   -1.9843    1.0000 </r>
       <r>   -1.9224    1.0000 </r>
       <r>   -1.8757    1.0000 </r>
       <r>   -1.7817    1.0000 </r>
       <r>   -1.6094    1.0000 </r>
       <r>   -1.4397    1.0000 </r>
       <r>   -1.3496    1.0000 </r>
       <r>   -1.2485    1.0000 </r>
       <r>   -1.2025    1.0000 </r>
       <r>   -1.1668    1.0000 </r>
       <r>   -1.0217    1.0000 </r>
       <r>   -0.9673    1.0000 </r>
       <r>   -0.8422    1.0000 </r>
       <r>   -0.7665    1.0000 </r>
       <r>   -0.5392    1.0000 </r>
       <r>   -0.4986    1.0000 </r>
       <r>   -0.4794    1.0000 </r>
       <r>   -0.1106    1.0000 </r>
       <r>    0.0621    1.0000 </r>
       <r>    0.2139    1.0000 </r>
       <r>    0.4490    1.0000 </r>
       <r>    0.5519    1.0000 </r>
       <r>    0.6876    1.0000 </r>
       <r>    0.8079    1.0000 </r>
       <r>    0.9236    1.0000 </r>
       <r>    0.9935    1.0000 </r>
       <r>    1.1243    1.0000 </r>
       <r>    1.1815    1.0000 </r>
       <r>    1.2433    1.0000 </r>
       <r>    1.3261    1.0000 </r>
       <r>    1.3819    1.0000 </r>
       <r>    1.4516    1.0000 </r>
       <r>    1.5329    1.0000 </r>
       <r>    1.5928    1.0000 </r>
       <r>    1.6705    1.0000 </r>
       <r>    1.8184    1.0000 </r>
       <r>    1.9226    1.0000 </r>
       <r>    2.2233    1.0000 </r>
       <r>    2.3330    1.0000 </r>
       <r>    2.7977    0.0465 </r>
       <r>    3.1738    0.0000 </r>
       <r>    3.6344    0.0000 </r>
       <r>    5.1346    0.0000 </r>
       <r>    5.6027    0.0000 </r>
       <r>    6.2797    0.0000 </r>
       <r>    7.1509    0.0000 </r>
       <r>    7.3414    0.0000 </r>
       <r>    7.5784    0.0000 </r>
       <r>    8.0374    0.0000 </r>
       <r>    8.3599    0.0000 </r>
       <r>    8.5168    0.0000 </r>
       <r>    8.6724    0.0000 </r>
       <r>    8.8897    0.0000 </r>
       <r>    9.1266    0.0000 </r>
       <r>    9.4205    0.0000 </r>
       <r>    9.5889    0.0000 </r>
       <r>    9.7568    0.0000 </r>
       <r>    9.9043    0.0000 </r>
       <r>   10.1299    0.0000 </r>
       <r>   10.1576    0.0000 </r>
       <r>   10.2904    0.0000 </r>
      </set>
      <set comment="kpoint 10">
       <r>  -31.7072    1.0000 </r>
       <r>  -31.6905    1.0000 </r>
       <r>  -31.0715    1.0000 </r>
       <r>  -31.0519    1.0000 </r>
       <r>  -14.9623    1.0000 </r>
       <r>  -14.7396    1.0000 </r>
       <r>  -14.6513    1.0000 </r>
       <r>  -14.3988    1.0000 </r>
       <r>  -14.2595    1.0000 </r>
       <r>  -14.2226    1.0000 </r>
       <r>  -13.8376    1.0000 </r>
       <r>  -13.7869    1.0000 </r>
       <r>  -13.7247    1.0000 </r>
       <r>  -13.5621    1.0000 </r>
       <r>  -13.5025    1.0000 </r>
       <r>  -13.3967    1.0000 </r>
       <r>  -13.3735    1.0000 </r>
       <r>  -13.0375    1.0000 </r>
       <r>  -13.0094    1.0000 </r>
       <r>  -12.9172    1.0000 </r>
       <r>  -12.8758    1.0000 </r>
       <r>  -12.7996    1.0000 </r>
       <r>  -12.4984    1.0000 </r>
       <r>  -12.4656    1.0000 </r>
       <r>   -2.8568    1.0000 </r>
       <r>   -2.5845    1.0000 </r>
       <r>   -2.1095    1.0000 </r>
       <r>   -2.0264    1.0000 </r>
       <r>   -1.9469    1.0000 </r>
       <r>   -1.9036    1.0000 </r>
       <r>   -1.7565    1.0000 </r>
       <r>   -1.6223    1.0000 </r>
       <r>   -1.5009    1.0000 </r>
       <r>   -1.3478    1.0000 </r>
       <r>   -1.1387    1.0000 </r>
       <r>   -1.1015    1.0000 </r>
       <r>   -0.9770    1.0000 </r>
       <r>   -0.8698    1.0000 </r>
       <r>   -0.8402    1.0000 </r>
       <r>   -0.8064    1.0000 </r>
       <r>   -0.7976    1.0000 </r>
       <r>   -0.7465    1.0000 </r>
       <r>   -0.4364    1.0000 </r>
       <r>   -0.2900    1.0000 </r>
       <r>   -0.2789    1.0000 </r>
       <r>   -0.0191    1.0000 </r>
       <r>    0.0751    1.0000 </r>
       <r>    0.3138    1.0000 </r>
       <r>    0.5851    1.0000 </r>
       <r>    0.6722    1.0000 </r>
       <r>    0.7164    1.0000 </r>
       <r>    0.9315    1.0000 </r>
       <r>    1.0079    1.0000 </r>
       <r>    1.1013    1.0000 </r>
       <r>    1.1095    1.0000 </r>
       <r>    1.1857    1.0000 </r>
       <r>    1.2157    1.0000 </r>
       <r>    1.2962    1.0000 </r>
       <r>    1.4436    1.0000 </r>
       <r>    1.4972    1.0000 </r>
       <r>    1.5248    1.0000 </r>
       <r>    1.6243    1.0000 </r>
       <r>    1.6747    1.0000 </r>
       <r>    1.8235    1.0000 </r>
       <r>    2.1043    1.0000 </r>
       <r>    2.1658    1.0000 </r>
       <r>    2.7967    0.0494 </r>
       <r>    3.3263    0.0000 </r>
       <r>    3.8796    0.0000 </r>
       <r>    5.2046    0.0000 </r>
       <r>    5.5133    0.0000 </r>
       <r>    6.6061    0.0000 </r>
       <r>    7.0157    0.0000 </r>
       <r>    7.2027    0.0000 </r>
       <r>    7.4674    0.0000 </r>
       <r>    7.7949    0.0000 </r>
       <r>    8.4438    0.0000 </r>
       <r>    8.6691    0.0000 </r>
       <r>    8.8445    0.0000 </r>
       <r>    9.2622    0.0000 </r>
       <r>    9.4535    0.0000 </r>
       <r>    9.6372    0.0000 </r>
       <r>    9.6937    0.0000 </r>
       <r>    9.8625    0.0000 </r>
       <r>   10.1222    0.0000 </r>
       <r>   10.1863    0.0000 </r>
       <r>   10.2020    0.0000 </r>
       <r>   10.4932    0.0000 </r>
      </set>
      <set comment="kpoint 11">
       <r>  -31.7142    1.0000 </r>
       <r>  -31.6842    1.0000 </r>
       <r>  -31.0786    1.0000 </r>
       <r>  -31.0461    1.0000 </r>
       <r>  -14.8408    1.0000 </r>
       <r>  -14.7119    1.0000 </r>
       <r>  -14.3702    1.0000 </r>
       <r>  -14.1251    1.0000 </r>
       <r>  -14.0033    1.0000 </r>
       <r>  -13.9087    1.0000 </r>
       <r>  -13.8371    1.0000 </r>
       <r>  -13.7855    1.0000 </r>
       <r>  -13.7235    1.0000 </r>
       <r>  -13.6914    1.0000 </r>
       <r>  -13.6001    1.0000 </r>
       <r>  -13.5044    1.0000 </r>
       <r>  -13.4506    1.0000 </r>
       <r>  -13.2646    1.0000 </r>
       <r>  -13.1936    1.0000 </r>
       <r>  -13.1174    1.0000 </r>
       <r>  -12.9536    1.0000 </r>
       <r>  -12.9087    1.0000 </r>
       <r>  -12.8063    1.0000 </r>
       <r>  -12.6381    1.0000 </r>
       <r>   -2.9070    1.0000 </r>
       <r>   -2.6100    1.0000 </r>
       <r>   -2.0974    1.0000 </r>
       <r>   -1.9882    1.0000 </r>
       <r>   -1.8626    1.0000 </r>
       <r>   -1.8332    1.0000 </r>
       <r>   -1.8198    1.0000 </r>
       <r>   -1.6902    1.0000 </r>
       <r>   -1.4760    1.0000 </r>
       <r>   -1.3297    1.0000 </r>
       <r>   -1.1781    1.0000 </r>
       <r>   -1.0798    1.0000 </r>
       <r>   -1.0229    1.0000 </r>
       <r>   -0.8332    1.0000 </r>
       <r>   -0.7130    1.0000 </r>
       <r>   -0.6978    1.0000 </r>
       <r>   -0.6559    1.0000 </r>
       <r>   -0.5097    1.0000 </r>
       <r>   -0.4227    1.0000 </r>
       <r>   -0.2917    1.0000 </r>
       <r>   -0.1106    1.0000 </r>
       <r>    0.0149    1.0000 </r>
       <r>    0.0770    1.0000 </r>
       <r>    0.3685    1.0000 </r>
       <r>    0.5007    1.0000 </r>
       <r>    0.7396    1.0000 </r>
       <r>    0.8762    1.0000 </r>
       <r>    0.8981    1.0000 </r>
       <r>    1.0323    1.0000 </r>
       <r>    1.2156    1.0000 </r>
       <r>    1.2764    1.0000 </r>
       <r>    1.3141    1.0000 </r>
       <r>    1.4144    1.0000 </r>
       <r>    1.4502    1.0000 </r>
       <r>    1.4913    1.0000 </r>
       <r>    1.5775    1.0000 </r>
       <r>    1.7013    1.0000 </r>
       <r>    1.8084    1.0000 </r>
       <r>    1.8988    1.0000 </r>
       <r>    2.1052    1.0000 </r>
       <r>    2.2534    1.0000 </r>
       <r>    2.5876    1.0000 </r>
       <r>    2.9295    0.0000 </r>
       <r>    3.2604    0.0000 </r>
       <r>    3.5326    0.0000 </r>
       <r>    4.3177    0.0000 </r>
       <r>    5.4067    0.0000 </r>
       <r>    5.8134    0.0000 </r>
       <r>    6.8185    0.0000 </r>
       <r>    7.2633    0.0000 </r>
       <r>    7.5441    0.0000 </r>
       <r>    7.8644    0.0000 </r>
       <r>    8.3043    0.0000 </r>
       <r>    8.4806    0.0000 </r>
       <r>    8.6552    0.0000 </r>
       <r>    9.0247    0.0000 </r>
       <r>    9.1269    0.0000 </r>
       <r>    9.3739    0.0000 </r>
       <r>    9.3914    0.0000 </r>
       <r>    9.4614    0.0000 </r>
       <r>    9.8338    0.0000 </r>
       <r>    9.9789    0.0000 </r>
       <r>   10.0417    0.0000 </r>
       <r>   10.1944    0.0000 </r>
      </set>
      <set comment="kpoint 12">
       <r>  -31.7112    1.0000 </r>
       <r>  -31.6870    1.0000 </r>
       <r>  -31.0757    1.0000 </r>
       <r>  -31.0488    1.0000 </r>
       <r>  -14.7919    1.0000 </r>
       <r>  -14.6946    1.0000 </r>
       <r>  -14.5022    1.0000 </r>
       <r>  -14.1917    1.0000 </r>
       <r>  -14.1107    1.0000 </r>
       <r>  -14.0173    1.0000 </r>
       <r>  -13.9580    1.0000 </r>
       <r>  -13.9101    1.0000 </r>
       <r>  -13.7241    1.0000 </r>
       <r>  -13.5716    1.0000 </r>
       <r>  -13.5124    1.0000 </r>
       <r>  -13.4521    1.0000 </r>
       <r>  -13.3074    1.0000 </r>
       <r>  -13.2455    1.0000 </r>
       <r>  -13.1978    1.0000 </r>
       <r>  -13.0709    1.0000 </r>
       <r>  -12.8614    1.0000 </r>
       <r>  -12.8047    1.0000 </r>
       <r>  -12.7508    1.0000 </r>
       <r>  -12.6644    1.0000 </r>
       <r>   -2.7477    1.0000 </r>
       <r>   -2.5698    1.0000 </r>
       <r>   -2.0170    1.0000 </r>
       <r>   -2.0062    1.0000 </r>
       <r>   -1.9626    1.0000 </r>
       <r>   -1.7876    1.0000 </r>
       <r>   -1.7254    1.0000 </r>
       <r>   -1.7112    1.0000 </r>
       <r>   -1.5176    1.0000 </r>
       <r>   -1.2847    1.0000 </r>
       <r>   -1.2142    1.0000 </r>
       <r>   -1.1749    1.0000 </r>
       <r>   -1.0446    1.0000 </r>
       <r>   -1.0272    1.0000 </r>
       <r>   -0.8494    1.0000 </r>
       <r>   -0.8156    1.0000 </r>
       <r>   -0.6757    1.0000 </r>
       <r>   -0.5925    1.0000 </r>
       <r>   -0.5171    1.0000 </r>
       <r>   -0.4540    1.0000 </r>
       <r>    0.0073    1.0000 </r>
       <r>    0.1878    1.0000 </r>
       <r>    0.2325    1.0000 </r>
       <r>    0.4630    1.0000 </r>
       <r>    0.5884    1.0000 </r>
       <r>    0.7077    1.0000 </r>
       <r>    0.9209    1.0000 </r>
       <r>    0.9823    1.0000 </r>
       <r>    1.0792    1.0000 </r>
       <r>    1.1240    1.0000 </r>
       <r>    1.2582    1.0000 </r>
       <r>    1.2799    1.0000 </r>
       <r>    1.3446    1.0000 </r>
       <r>    1.3703    1.0000 </r>
       <r>    1.4888    1.0000 </r>
       <r>    1.5394    1.0000 </r>
       <r>    1.6112    1.0000 </r>
       <r>    1.7224    1.0000 </r>
       <r>    1.8586    1.0000 </r>
       <r>    2.0237    1.0000 </r>
       <r>    2.2657    1.0000 </r>
       <r>    2.6003    1.0000 </r>
       <r>    2.8213    0.0094 </r>
       <r>    3.1358    0.0000 </r>
       <r>    3.3091    0.0000 </r>
       <r>    4.4059    0.0000 </r>
       <r>    5.1357    0.0000 </r>
       <r>    6.0059    0.0000 </r>
       <r>    7.1484    0.0000 </r>
       <r>    7.6299    0.0000 </r>
       <r>    7.8655    0.0000 </r>
       <r>    8.0753    0.0000 </r>
       <r>    8.3457    0.0000 </r>
       <r>    8.5442    0.0000 </r>
       <r>    8.6639    0.0000 </r>
       <r>    8.8207    0.0000 </r>
       <r>    8.9047    0.0000 </r>
       <r>    9.1849    0.0000 </r>
       <r>    9.5825    0.0000 </r>
       <r>    9.6431    0.0000 </r>
       <r>    9.8471    0.0000 </r>
       <r>   10.0798    0.0000 </r>
       <r>   10.1136    0.0000 </r>
       <r>   10.2740    0.0000 </r>
      </set>
      <set comment="kpoint 13">
       <r>  -31.7073    1.0000 </r>
       <r>  -31.6908    1.0000 </r>
       <r>  -31.0719    1.0000 </r>
       <r>  -31.0523    1.0000 </r>
       <r>  -14.7877    1.0000 </r>
       <r>  -14.6305    1.0000 </r>
       <r>  -14.5122    1.0000 </r>
       <r>  -14.4661    1.0000 </r>
       <r>  -14.1723    1.0000 </r>
       <r>  -14.0419    1.0000 </r>
       <r>  -13.9891    1.0000 </r>
       <r>  -13.9363    1.0000 </r>
       <r>  -13.7422    1.0000 </r>
       <r>  -13.5367    1.0000 </r>
       <r>  -13.4687    1.0000 </r>
       <r>  -13.3726    1.0000 </r>
       <r>  -13.3189    1.0000 </r>
       <r>  -13.2195    1.0000 </r>
       <r>  -13.1613    1.0000 </r>
       <r>  -13.0365    1.0000 </r>
       <r>  -12.7636    1.0000 </r>
       <r>  -12.7299    1.0000 </r>
       <r>  -12.6912    1.0000 </r>
       <r>  -12.6673    1.0000 </r>
       <r>   -2.6420    1.0000 </r>
       <r>   -2.2418    1.0000 </r>
       <r>   -2.1257    1.0000 </r>
       <r>   -2.0473    1.0000 </r>
       <r>   -1.9332    1.0000 </r>
       <r>   -1.8125    1.0000 </r>
       <r>   -1.7495    1.0000 </r>
       <r>   -1.6913    1.0000 </r>
       <r>   -1.5171    1.0000 </r>
       <r>   -1.4581    1.0000 </r>
       <r>   -1.3251    1.0000 </r>
       <r>   -1.2330    1.0000 </r>
       <r>   -1.0974    1.0000 </r>
       <r>   -1.0492    1.0000 </r>
       <r>   -0.8919    1.0000 </r>
       <r>   -0.8714    1.0000 </r>
       <r>   -0.8121    1.0000 </r>
       <r>   -0.7096    1.0000 </r>
       <r>   -0.5631    1.0000 </r>
       <r>   -0.5116    1.0000 </r>
       <r>    0.1432    1.0000 </r>
       <r>    0.3152    1.0000 </r>
       <r>    0.4635    1.0000 </r>
       <r>    0.5713    1.0000 </r>
       <r>    0.6540    1.0000 </r>
       <r>    0.7206    1.0000 </r>
       <r>    0.8613    1.0000 </r>
       <r>    1.0601    1.0000 </r>
       <r>    1.1687    1.0000 </r>
       <r>    1.1951    1.0000 </r>
       <r>    1.2332    1.0000 </r>
       <r>    1.2685    1.0000 </r>
       <r>    1.3174    1.0000 </r>
       <r>    1.3529    1.0000 </r>
       <r>    1.3928    1.0000 </r>
       <r>    1.4269    1.0000 </r>
       <r>    1.5195    1.0000 </r>
       <r>    1.6490    1.0000 </r>
       <r>    1.6661    1.0000 </r>
       <r>    1.9314    1.0000 </r>
       <r>    2.1743    1.0000 </r>
       <r>    2.6143    0.9998 </r>
       <r>    2.7206    0.6916 </r>
       <r>    2.8561    0.0004 </r>
       <r>    3.1839    0.0000 </r>
       <r>    4.6404    0.0000 </r>
       <r>    5.0868    0.0000 </r>
       <r>    6.2959    0.0000 </r>
       <r>    7.1823    0.0000 </r>
       <r>    7.6036    0.0000 </r>
       <r>    8.0406    0.0000 </r>
       <r>    8.3100    0.0000 </r>
       <r>    8.3651    0.0000 </r>
       <r>    8.4955    0.0000 </r>
       <r>    8.5835    0.0000 </r>
       <r>    8.8190    0.0000 </r>
       <r>    8.9946    0.0000 </r>
       <r>    9.2786    0.0000 </r>
       <r>    9.3545    0.0000 </r>
       <r>    9.7072    0.0000 </r>
       <r>    9.9631    0.0000 </r>
       <r>   10.1580    0.0000 </r>
       <r>   10.3037    0.0000 </r>
       <r>   10.4244    0.0000 </r>
      </set>
      <set comment="kpoint 14">
       <r>  -31.7112    1.0000 </r>
       <r>  -31.6870    1.0000 </r>
       <r>  -31.0756    1.0000 </r>
       <r>  -31.0488    1.0000 </r>
       <r>  -14.8018    1.0000 </r>
       <r>  -14.6954    1.0000 </r>
       <r>  -14.4746    1.0000 </r>
       <r>  -14.2956    1.0000 </r>
       <r>  -14.0725    1.0000 </r>
       <r>  -14.0316    1.0000 </r>
       <r>  -13.9183    1.0000 </r>
       <r>  -13.8483    1.0000 </r>
       <r>  -13.7121    1.0000 </r>
       <r>  -13.5676    1.0000 </r>
       <r>  -13.5096    1.0000 </r>
       <r>  -13.4610    1.0000 </r>
       <r>  -13.3179    1.0000 </r>
       <r>  -13.2750    1.0000 </r>
       <r>  -13.2034    1.0000 </r>
       <r>  -13.0721    1.0000 </r>
       <r>  -12.8516    1.0000 </r>
       <r>  -12.8043    1.0000 </r>
       <r>  -12.7673    1.0000 </r>
       <r>  -12.6617    1.0000 </r>
       <r>   -2.7316    1.0000 </r>
       <r>   -2.5386    1.0000 </r>
       <r>   -2.1355    1.0000 </r>
       <r>   -2.0004    1.0000 </r>
       <r>   -1.8790    1.0000 </r>
       <r>   -1.7739    1.0000 </r>
       <r>   -1.7093    1.0000 </r>
[...]
       <r>     1.7776     9.7554    61.9871 </r>
       <r>     1.9324     7.2464    63.1088 </r>
       <r>     2.0872     5.2305    63.9184 </r>
       <r>     2.2420     4.4718    64.6106 </r>
       <r>     2.3968     4.4431    65.2984 </r>
       <r>     2.5516     1.4180    65.5179 </r>
       <r>     2.7064     3.2539    66.0216 </r>
       <r>     2.8612     5.2482    66.8340 </r>
       <r>     3.0160     3.2959    67.3442 </r>
       <r>     3.1708     3.3337    67.8602 </r>
       <r>     3.3256     1.7437    68.1301 </r>
       <r>     3.4804     3.0528    68.6027 </r>
       <r>     3.6351     1.8943    68.8959 </r>
       <r>     3.7899     0.4584    68.9669 </r>
       <r>     3.9447     0.2096    68.9993 </r>
       <r>     4.0995     0.0044    69.0000 </r>
       <r>     4.2543     0.0098    69.0015 </r>
       <r>     4.4091     0.4617    69.0730 </r>
       <r>     4.5639     0.3409    69.1258 </r>
       <r>     4.7187     1.1276    69.3003 </r>
       <r>     4.8735     1.7108    69.5651 </r>
       <r>     5.0283     1.9329    69.8643 </r>
       <r>     5.1831     1.8154    70.1454 </r>
       <r>     5.3379     2.3558    70.5100 </r>
       <r>     5.4927     1.3270    70.7154 </r>
       <r>     5.6475     1.3753    70.9283 </r>
       <r>     5.8023     0.7129    71.0387 </r>
       <r>     5.9571     1.1828    71.2218 </r>
       <r>     6.1119     1.0943    71.3912 </r>
       <r>     6.2666     1.8341    71.6751 </r>
       <r>     6.4214     1.0222    71.8333 </r>
       <r>     6.5762     0.4859    71.9085 </r>
       <r>     6.7310     0.7244    72.0207 </r>
       <r>     6.8858     1.3081    72.2231 </r>
       <r>     7.0406     1.1339    72.3987 </r>
       <r>     7.1954     2.8540    72.8404 </r>
       <r>     7.3502     2.3623    73.2061 </r>
       <r>     7.5050     1.9388    73.5062 </r>
       <r>     7.6598     4.1530    74.1491 </r>
       <r>     7.8146     2.1731    74.4855 </r>
       <r>     7.9694     4.6929    75.2119 </r>
       <r>     8.1242     4.1156    75.8490 </r>
       <r>     8.2790     3.3076    76.3610 </r>
       <r>     8.4338     4.9313    77.1243 </r>
       <r>     8.5886     5.2685    77.9398 </r>
       <r>     8.7434     5.3194    78.7632 </r>
       <r>     8.8982     6.2027    79.7234 </r>
       <r>     9.0529     3.8917    80.3258 </r>
       <r>     9.2077     3.1990    80.8210 </r>
       <r>     9.3625     4.7146    81.5508 </r>
       <r>     9.5173     5.7576    82.4420 </r>
       <r>     9.6721     6.2943    83.4163 </r>
       <r>     9.8269     5.8056    84.3150 </r>
       <r>     9.9817     5.8454    85.2198 </r>
       <r>    10.1365     6.5082    86.2273 </r>
       <r>    10.2913     6.9856    87.3086 </r>
       <r>    10.4461     3.7679    87.8919 </r>
       <r>    10.6009     0.6980    87.9999 </r>
       <r>    10.7557     0.0007    88.0000 </r>
       <r>    10.9105     0.0000    88.0000 </r>
       <r>    11.0653     0.0000    88.0000 </r>
       <r>    11.2201     0.0000    88.0000 </r>
       <r>    11.3749     0.0000    88.0000 </r>
       <r>    11.5297     0.0000    88.0000 </r>
       <r>    11.6844     0.0000    88.0000 </r>
       <r>    11.8392     0.0000    88.0000 </r>
       <r>    11.9940     0.0000    88.0000 </r>
       <r>    12.1488     0.0000    88.0000 </r>
       <r>    12.3036     0.0000    88.0000 </r>
       <r>    12.4584     0.0000    88.0000 </r>
       <r>    12.6132     0.0000    88.0000 </r>
      </set>
      <set comment="spin 2">
       <r>   -33.8251     0.0000     0.0000 </r>
       <r>   -33.6703     0.0000     0.0000 </r>
       <r>   -33.5155     0.0000     0.0000 </r>
       <r>   -33.3607     0.0000     0.0000 </r>
       <r>   -33.2059     0.0000     0.0000 </r>
       <r>   -33.0511     0.0000     0.0000 </r>
       <r>   -32.8963     0.0000     0.0000 </r>
       <r>   -32.7415     0.0000     0.0000 </r>
       <r>   -32.5867     0.0000     0.0000 </r>
       <r>   -32.4319     0.0000     0.0000 </r>
       <r>   -32.2771     0.0000     0.0000 </r>
       <r>   -32.1223     0.0000     0.0000 </r>
       <r>   -31.9675     0.0000     0.0000 </r>
       <r>   -31.8127     0.0121     0.0019 </r>
       <r>   -31.6580    11.1594     1.7293 </r>
       <r>   -31.5032     1.7489     2.0000 </r>
       <r>   -31.3484     0.0000     2.0000 </r>
       <r>   -31.1936     0.0025     2.0004 </r>
       <r>   -31.0388     9.5122     3.4728 </r>
       <r>   -30.8840     3.4057     4.0000 </r>
       <r>   -30.7292     0.0000     4.0000 </r>
       <r>   -30.5744     0.0000     4.0000 </r>
       <r>   -30.4196     0.0000     4.0000 </r>
       <r>   -30.2648     0.0000     4.0000 </r>
       <r>   -30.1100     0.0000     4.0000 </r>
       <r>   -29.9552     0.0000     4.0000 </r>
       <r>   -29.8004     0.0000     4.0000 </r>
       <r>   -29.6456     0.0000     4.0000 </r>
       <r>   -29.4908     0.0000     4.0000 </r>
       <r>   -29.3360     0.0000     4.0000 </r>
       <r>   -29.1812     0.0000     4.0000 </r>
       <r>   -29.0264     0.0000     4.0000 </r>
       <r>   -28.8717     0.0000     4.0000 </r>
       <r>   -28.7169     0.0000     4.0000 </r>
       <r>   -28.5621     0.0000     4.0000 </r>
       <r>   -28.4073     0.0000     4.0000 </r>
       <r>   -28.2525     0.0000     4.0000 </r>
       <r>   -28.0977     0.0000     4.0000 </r>
       <r>   -27.9429     0.0000     4.0000 </r>
       <r>   -27.7881     0.0000     4.0000 </r>
       <r>   -27.6333     0.0000     4.0000 </r>
       <r>   -27.4785     0.0000     4.0000 </r>
       <r>   -27.3237     0.0000     4.0000 </r>
       <r>   -27.1689     0.0000     4.0000 </r>
       <r>   -27.0141     0.0000     4.0000 </r>
       <r>   -26.8593     0.0000     4.0000 </r>
       <r>   -26.7045     0.0000     4.0000 </r>
       <r>   -26.5497     0.0000     4.0000 </r>
       <r>   -26.3949     0.0000     4.0000 </r>
       <r>   -26.2402     0.0000     4.0000 </r>
       <r>   -26.0854     0.0000     4.0000 </r>
       <r>   -25.9306     0.0000     4.0000 </r>
       <r>   -25.7758     0.0000     4.0000 </r>
       <r>   -25.6210     0.0000     4.0000 </r>
       <r>   -25.4662     0.0000     4.0000 </r>
       <r>   -25.3114     0.0000     4.0000 </r>
       <r>   -25.1566     0.0000     4.0000 </r>
       <r>   -25.0018     0.0000     4.0000 </r>
       <r>   -24.8470     0.0000     4.0000 </r>
       <r>   -24.6922     0.0000     4.0000 </r>
       <r>   -24.5374     0.0000     4.0000 </r>
       <r>   -24.3826     0.0000     4.0000 </r>
       <r>   -24.2278     0.0000     4.0000 </r>
       <r>   -24.0730     0.0000     4.0000 </r>
       <r>   -23.9182     0.0000     4.0000 </r>
       <r>   -23.7634     0.0000     4.0000 </r>
       <r>   -23.6086     0.0000     4.0000 </r>
       <r>   -23.4539     0.0000     4.0000 </r>
       <r>   -23.2991     0.0000     4.0000 </r>
       <r>   -23.1443     0.0000     4.0000 </r>
       <r>   -22.9895     0.0000     4.0000 </r>
       <r>   -22.8347     0.0000     4.0000 </r>
       <r>   -22.6799     0.0000     4.0000 </r>
       <r>   -22.5251     0.0000     4.0000 </r>
       <r>   -22.3703     0.0000     4.0000 </r>
       <r>   -22.2155     0.0000     4.0000 </r>
       <r>   -22.0607     0.0000     4.0000 </r>
       <r>   -21.9059     0.0000     4.0000 </r>
       <r>   -21.7511     0.0000     4.0000 </r>
       <r>   -21.5963     0.0000     4.0000 </r>
       <r>   -21.4415     0.0000     4.0000 </r>
       <r>   -21.2867     0.0000     4.0000 </r>
       <r>   -21.1319     0.0000     4.0000 </r>
       <r>   -20.9771     0.0000     4.0000 </r>
       <r>   -20.8224     0.0000     4.0000 </r>
       <r>   -20.6676     0.0000     4.0000 </r>
       <r>   -20.5128     0.0000     4.0000 </r>
       <r>   -20.3580     0.0000     4.0000 </r>
       <r>   -20.2032     0.0000     4.0000 </r>
       <r>   -20.0484     0.0000     4.0000 </r>
       <r>   -19.8936     0.0000     4.0000 </r>
       <r>   -19.7388     0.0000     4.0000 </r>
       <r>   -19.5840     0.0000     4.0000 </r>
       <r>   -19.4292     0.0000     4.0000 </r>
       <r>   -19.2744     0.0000     4.0000 </r>
       <r>   -19.1196     0.0000     4.0000 </r>
       <r>   -18.9648     0.0000     4.0000 </r>
       <r>   -18.8100     0.0000     4.0000 </r>
       <r>   -18.6552     0.0000     4.0000 </r>
       <r>   -18.5004     0.0000     4.0000 </r>
       <r>   -18.3456     0.0000     4.0000 </r>
       <r>   -18.1908     0.0000     4.0000 </r>
       <r>   -18.0361     0.0000     4.0000 </r>
       <r>   -17.8813     0.0000     4.0000 </r>
       <r>   -17.7265     0.0000     4.0000 </r>
       <r>   -17.5717     0.0000     4.0000 </r>
       <r>   -17.4169     0.0000     4.0000 </r>
       <r>   -17.2621     0.0000     4.0000 </r>
       <r>   -17.1073     0.0000     4.0000 </r>
       <r>   -16.9525     0.0000     4.0000 </r>
       <r>   -16.7977     0.0000     4.0000 </r>
       <r>   -16.6429     0.0000     4.0000 </r>
       <r>   -16.4881     0.0000     4.0000 </r>
       <r>   -16.3333     0.0000     4.0000 </r>
       <r>   -16.1785     0.0000     4.0000 </r>
       <r>   -16.0237     0.0000     4.0000 </r>
       <r>   -15.8689     0.0000     4.0000 </r>
       <r>   -15.7141     0.0000     4.0000 </r>
       <r>   -15.5593     0.0000     4.0000 </r>
       <r>   -15.4046     0.0000     4.0000 </r>
       <r>   -15.2498     0.0000     4.0000 </r>
       <r>   -15.0950     0.0002     4.0000 </r>
       <r>   -14.9402     0.4645     4.0719 </r>
       <r>   -14.7854     4.9138     4.8326 </r>
       <r>   -14.6306     7.0401     5.9223 </r>
       <r>   -14.4758     4.5148     6.6212 </r>
       <r>   -14.3210     4.8833     7.3771 </r>
       <r>   -14.1662     6.8274     8.4339 </r>
       <r>   -14.0114     8.0062     9.6732 </r>
       <r>   -13.8566     9.4922    11.1426 </r>
       <r>   -13.7018     8.8980    12.5200 </r>
       <r>   -13.5470     8.2094    13.7907 </r>
       <r>   -13.3922    12.8920    15.7863 </r>
       <r>   -13.2374     9.5549    17.2654 </r>
       <r>   -13.0826     7.4958    18.4257 </r>
       <r>   -12.9278    11.0499    20.1361 </r>
       <r>   -12.7730    10.9319    21.8283 </r>
       <r>   -12.6183     7.9282    23.0556 </r>
       <r>   -12.4635     5.7269    23.9421 </r>
       <r>   -12.3087     0.3742    24.0000 </r>
       <r>   -12.1539     0.0000    24.0000 </r>
       <r>   -11.9991     0.0000    24.0000 </r>
       <r>   -11.8443     0.0000    24.0000 </r>
       <r>   -11.6895     0.0000    24.0000 </r>
       <r>   -11.5347     0.0000    24.0000 </r>
       <r>   -11.3799     0.0000    24.0000 </r>
       <r>   -11.2251     0.0000    24.0000 </r>
       <r>   -11.0703     0.0000    24.0000 </r>
       <r>   -10.9155     0.0000    24.0000 </r>
       <r>   -10.7607     0.0000    24.0000 </r>
       <r>   -10.6059     0.0000    24.0000 </r>
       <r>   -10.4511     0.0000    24.0000 </r>
       <r>   -10.2963     0.0000    24.0000 </r>
       <r>   -10.1415     0.0000    24.0000 </r>
       <r>    -9.9868     0.0000    24.0000 </r>
       <r>    -9.8320     0.0000    24.0000 </r>
       <r>    -9.6772     0.0000    24.0000 </r>
       <r>    -9.5224     0.0000    24.0000 </r>
       <r>    -9.3676     0.0000    24.0000 </r>
       <r>    -9.2128     0.0000    24.0000 </r>
       <r>    -9.0580     0.0000    24.0000 </r>
       <r>    -8.9032     0.0000    24.0000 </r>
       <r>    -8.7484     0.0000    24.0000 </r>
       <r>    -8.5936     0.0000    24.0000 </r>
       <r>    -8.4388     0.0000    24.0000 </r>
       <r>    -8.2840     0.0000    24.0000 </r>
       <r>    -8.1292     0.0000    24.0000 </r>
       <r>    -7.9744     0.0000    24.0000 </r>
       <r>    -7.8196     0.0000    24.0000 </r>
       <r>    -7.6648     0.0000    24.0000 </r>
       <r>    -7.5100     0.0000    24.0000 </r>
       <r>    -7.3552     0.0000    24.0000 </r>
       <r>    -7.2005     0.0000    24.0000 </r>
       <r>    -7.0457     0.0000    24.0000 </r>
       <r>    -6.8909     0.0000    24.0000 </r>
       <r>    -6.7361     0.0000    24.0000 </r>
       <r>    -6.5813     0.0000    24.0000 </r>
       <r>    -6.4265     0.0000    24.0000 </r>
       <r>    -6.2717     0.0000    24.0000 </r>
       <r>    -6.1169     0.0000    24.0000 </r>
       <r>    -5.9621     0.0000    24.0000 </r>
       <r>    -5.8073     0.0000    24.0000 </r>
       <r>    -5.6525     0.0000    24.0000 </r>
       <r>    -5.4977     0.0000    24.0000 </r>
       <r>    -5.3429     0.0000    24.0000 </r>
       <r>    -5.1881     0.0000    24.0000 </r>
       <r>    -5.0333     0.0000    24.0000 </r>
       <r>    -4.8785     0.0000    24.0000 </r>
       <r>    -4.7237     0.0000    24.0000 </r>
       <r>    -4.5690     0.0000    24.0000 </r>
       <r>    -4.4142     0.0000    24.0000 </r>
       <r>    -4.2594     0.0000    24.0000 </r>
       <r>    -4.1046     0.0000    24.0000 </r>
       <r>    -3.9498     0.0000    24.0000 </r>
       <r>    -3.7950     0.0000    24.0000 </r>
       <r>    -3.6402     0.0000    24.0000 </r>
       <r>    -3.4854     0.0000    24.0000 </r>
       <r>    -3.3306     0.0000    24.0000 </r>
       <r>    -3.1758     0.0000    24.0000 </r>
       <r>    -3.0210     0.0000    24.0000 </r>
       <r>    -2.8662     0.2383    24.0369 </r>
       <r>    -2.7114     2.0701    24.3573 </r>
       <r>    -2.5566     3.0408    24.8280 </r>
       <r>    -2.4018     1.3968    25.0442 </r>
       <r>    -2.2470     3.9634    25.6578 </r>
       <r>    -2.0922     3.9004    26.2615 </r>
       <r>    -1.9374     6.1734    27.2171 </r>
       <r>    -1.7827    14.6306    29.4819 </r>
       <r>    -1.6279    10.8825    31.1664 </r>
       <r>    -1.4731     7.5223    32.3308 </r>
       <r>    -1.3183     8.0693    33.5799 </r>
       <r>    -1.1635    12.5737    35.5262 </r>
       <r>    -1.0087    11.2756    37.2716 </r>
       <r>    -0.8539     9.1504    38.6881 </r>
       <r>    -0.6991    12.4106    40.6092 </r>
       <r>    -0.5443     6.9699    41.6881 </r>
       <r>    -0.3895    12.0882    43.5592 </r>
       <r>    -0.2347     3.0965    44.0386 </r>
       <r>    -0.0799     1.1046    44.2096 </r>
       <r>     0.0749     5.1024    44.9994 </r>
       <r>     0.2297     7.0912    46.0970 </r>
       <r>     0.3845     6.1824    47.0541 </r>
       <r>     0.5393     6.5734    48.0716 </r>
       <r>     0.6941     7.0714    49.1662 </r>
       <r>     0.8488     7.4339    50.3169 </r>
       <r>     1.0036     8.8867    51.6925 </r>
       <r>     1.1584    11.3228    53.4452 </r>
       <r>     1.3132    15.6573    55.8689 </r>
       <r>     1.4680    14.7109    58.1460 </r>
       <r>     1.6228    12.9357    60.1484 </r>
       <r>     1.7776    10.3094    61.7442 </r>
       <r>     1.9324     7.1081    62.8445 </r>
       <r>     2.0872     6.0228    63.7768 </r>
       <r>     2.2420     4.1170    64.4141 </r>
       <r>     2.3968     4.3917    65.0939 </r>
       <r>     2.5516     2.0700    65.4144 </r>
       <r>     2.7064     2.2853    65.7681 </r>
       <r>     2.8612     4.1758    66.4145 </r>
       <r>     3.0160     4.2051    67.0654 </r>
       <r>     3.1708     1.2813    67.2638 </r>
       <r>     3.3256     4.0116    67.8847 </r>
       <r>     3.4804     3.5269    68.4307 </r>
       <r>     3.6351     2.2351    68.7766 </r>
       <r>     3.7899     1.0456    68.9385 </r>
       <r>     3.9447     0.2997    68.9849 </r>
       <r>     4.0995     0.0977    69.0000 </r>
       <r>     4.2543     0.0000    69.0000 </r>
       <r>     4.4091     0.1256    69.0194 </r>
       <r>     4.5639     0.6772    69.1243 </r>
       <r>     4.7187     0.7036    69.2332 </r>
       <r>     4.8735     1.8374    69.5176 </r>
       <r>     5.0283     1.8563    69.8049 </r>
       <r>     5.1831     1.8552    70.0921 </r>
       <r>     5.3379     2.4646    70.4736 </r>
       <r>     5.4927     1.4822    70.7031 </r>
       <r>     5.6475     1.3428    70.9109 </r>
       <r>     5.8023     0.6411    71.0102 </r>
       <r>     5.9571     1.2454    71.2029 </r>
       <r>     6.1119     1.0187    71.3606 </r>
       <r>     6.2666     1.6816    71.6209 </r>
       <r>     6.4214     1.3683    71.8328 </r>
       <r>     6.5762     0.2711    71.8747 </r>
       <r>     6.7310     0.8928    72.0129 </r>
       <r>     6.8858     1.1811    72.1957 </r>
       <r>     7.0406     1.1440    72.3728 </r>
       <r>     7.1954     2.6599    72.7846 </r>
       <r>     7.3502     2.5994    73.1869 </r>
       <r>     7.5050     1.9525    73.4892 </r>
       <r>     7.6598     4.0146    74.1106 </r>
       <r>     7.8146     2.2642    74.4611 </r>
       <r>     7.9694     4.6689    75.1838 </r>
       <r>     8.1242     4.1481    75.8259 </r>
       <r>     8.2790     3.2949    76.3360 </r>
       <r>     8.4338     4.8059    77.0799 </r>
       <r>     8.5886     5.3203    77.9034 </r>
       <r>     8.7434     5.2781    78.7205 </r>
       <r>     8.8982     6.2886    79.6939 </r>
       <r>     9.0529     3.9318    80.3025 </r>
       <r>     9.2077     3.2395    80.8040 </r>
       <r>     9.3625     4.5608    81.5100 </r>
       <r>     9.5173     5.8410    82.4141 </r>
       <r>     9.6721     6.2740    83.3853 </r>
       <r>     9.8269     5.7553    84.2762 </r>
       <r>     9.9817     5.9231    85.1931 </r>
       <r>    10.1365     6.4419    86.1902 </r>
       <r>    10.2913     6.9973    87.2734 </r>
       <r>    10.4461     3.9179    87.8798 </r>
       <r>    10.6009     0.7750    87.9998 </r>
       <r>    10.7557     0.0013    88.0000 </r>
       <r>    10.9105     0.0000    88.0000 </r>
       <r>    11.0653     0.0000    88.0000 </r>
       <r>    11.2201     0.0000    88.0000 </r>
       <r>    11.3749     0.0000    88.0000 </r>
       <r>    11.5297     0.0000    88.0000 </r>
       <r>    11.6844     0.0000    88.0000 </r>
       <r>    11.8392     0.0000    88.0000 </r>
       <r>    11.9940     0.0000    88.0000 </r>
       <r>    12.1488     0.0000    88.0000 </r>
       <r>    12.3036     0.0000    88.0000 </r>
       <r>    12.4584     0.0000    88.0000 </r>
       <r>    12.6132     0.0000    88.0000 </r>
      </set>
     </set>
    </array>
   </total>
  </dos>
 </calculation>
 <structure name="finalpos" >
  <crystal>
   <varray name="basis" >
    <v>       5.65685425       0.00000000       0.00000000 </v>
    <v>       0.00000000       5.65685425       0.00000000 </v>
    <v>      -2.82842712      -2.82842712       8.00000000 </v>
   </varray>
   <i name="volume">    256.00000000 </i>
   <varray name="rec_basis" >
    <v>       0.17677670       0.00000000       0.06250000 </v>
    <v>       0.00000000       0.17677670       0.06250000 </v>
    <v>       0.00000000       0.00000000       0.12500000 </v>
   </varray>
  </crystal>
  <varray name="positions" >
   <v>       0.00000000       0.00000000       0.00000000 </v>
   <v>       0.25000000       0.25000000       0.50000000 </v>
   <v>       0.50000000       0.50000000       0.00000000 </v>
   <v>       0.75000000       0.75000000       0.50000000 </v>
   <v>       0.12500000       0.62500000       0.25000000 </v>
   <v>       0.37500000       0.87500000       0.75000000 </v>
   <v>       0.62500000       0.12500000       0.25000000 </v>
   <v>       0.87500000       0.37500000       0.75000000 </v>
   <v>       0.25000000       0.75000000       0.50000000 </v>
   <v>       0.50000000       0.00000000       0.00000000 </v>
   <v>       0.75000000       0.25000000       0.50000000 </v>
   <v>       0.62500000       0.12500000       0.75000000 </v>
   <v>       0.87500000       0.37500000       0.25000000 </v>
   <v>       0.12500000       0.12500000       0.75000000 </v>
   <v>       0.37500000       0.37500000       0.25000000 </v>
   <v>       0.62500000       0.62500000       0.75000000 </v>
  </varray>
 </structure>
</modeling>
