<?xml version="1.0" encoding="ISO-8859-1"?>
<modeling>
 <generator>
  <i name="program" type="string">vasp </i>
  <i name="version" type="string">5.3.5  </i>
  <i name="subversion" type="string">31Mar14 (build Jun 20 2014 13:15:13) complex                          parallel </i>
  <i name="platform" type="string">LinuxIFC </i>
  <i name="date" type="string">2025 11 21 </i>
  <i name="time" type="string">10:50:48 </i>
 </generator>
 <incar>
  <i type="string" name="PREC">accurate</i>
  <i type="int" name="IALGO">    68</i>
  <i type="logical" name="ADDGRID"> T  </i>
  <i type="int" name="NELM">   100</i>
  <i type="int" name="NELMIN">     4</i>
  <i type="int" name="IBRION">     2</i>
  <i name="EDIFF">      0.00000100</i>
  <i name="EDIFFG">     -0.02000000</i>
  <i type="int" name="NSW">    30</i>
  <i type="int" name="ISIF">     3</i>
  <i name="ENCUT">    500.00000000</i>
  <i type="logical" name="LREAL"> F  </i>
  <i type="int" name="ISMEAR">     1</i>
  <i name="SIGMA">      0.30000000</i>
  <i type="logical" name="LWAVE"> F  </i>
  <i type="logical" name="LCHARG"> F  </i>
  <i type="int" name="NELM">   100</i>
 </incar>
 <kpoints>
  <generation param="Auto">
   <i name="subdivisionlength">     70.00000000 </i>
   <v type="int" name="divisions">      28       28        6 </v>
   <v name="usershift">      0.00000000       0.00000000       0.00000000 </v>
   <v name="genvec1">      0.03571429       0.00000000       0.00000000 </v>
   <v name="genvec2">      0.00000000       0.03571429       0.00000000 </v>
   <v name="genvec3">      0.00000000       0.00000000       0.16666667 </v>
   <v name="shift">      0.00000000       0.00000000       0.00000000 </v>
  </generation>
  <varray name="kpointlist" >
   <v>       0.00000000       0.00000000       0.00000000 </v>
   <v>       0.03571429       0.00000000       0.00000000 </v>
   <v>       0.07142857       0.00000000       0.00000000 </v>
   <v>       0.10714286       0.00000000       0.00000000 </v>
   <v>       0.14285714       0.00000000       0.00000000 </v>
   <v>       0.17857143       0.00000000       0.00000000 </v>
   <v>       0.21428571       0.00000000       0.00000000 </v>
   <v>       0.25000000       0.00000000       0.00000000 </v>
   <v>       0.28571429       0.00000000       0.00000000 </v>
   <v>       0.32142857       0.00000000       0.00000000 </v>
   <v>       0.35714286       0.00000000       0.00000000 </v>
   <v>       0.39285714       0.00000000       0.00000000 </v>
   <v>       0.42857143       0.00000000       0.00000000 </v>
   <v>       0.46428571       0.00000000       0.00000000 </v>
   <v>       0.50000000       0.00000000       0.00000000 </v>
   <v>       0.00000000       0.03571429       0.00000000 </v>
   <v>       0.03571429       0.03571429       0.00000000 </v>
   <v>       0.07142857       0.03571429       0.00000000 </v>
   <v>       0.10714286       0.03571429       0.00000000 </v>
   <v>       0.14285714       0.03571429       0.00000000 </v>
   <v>       0.17857143       0.03571429       0.00000000 </v>
   <v>       0.21428571       0.03571429       0.00000000 </v>
   <v>       0.25000000       0.03571429       0.00000000 </v>
   <v>       0.28571429       0.03571429       0.00000000 </v>
   <v>       0.32142857       0.03571429       0.00000000 </v>
   <v>       0.35714286       0.03571429       0.00000000 </v>
   <v>       0.39285714       0.03571429       0.00000000 </v>
   <v>       0.42857143       0.03571429       0.00000000 </v>
   <v>       0.46428571       0.03571429       0.00000000 </v>
   <v>       0.00000000       0.07142857       0.00000000 </v>
   <v>       0.03571429       0.07142857       0.00000000 </v>
   <v>       0.07142857       0.07142857       0.00000000 </v>
   <v>       0.10714286       0.07142857       0.00000000 </v>
   <v>       0.14285714       0.07142857       0.00000000 </v>
   <v>       0.17857143       0.07142857       0.00000000 </v>
   <v>       0.21428571       0.07142857       0.00000000 </v>
   <v>       0.25000000       0.07142857       0.00000000 </v>
   <v>       0.28571429       0.07142857       0.00000000 </v>
   <v>       0.32142857       0.07142857       0.00000000 </v>
   <v>       0.35714286       0.07142857       0.00000000 </v>
   <v>       0.39285714       0.07142857       0.00000000 </v>
   <v>       0.42857143       0.07142857       0.00000000 </v>
   <v>       0.46428571       0.07142857       0.00000000 </v>
   <v>      -0.03571429       0.07142857       0.00000000 </v>
   <v>       0.00000000       0.10714286       0.00000000 </v>
   <v>       0.03571429       0.10714286       0.00000000 </v>
   <v>       0.07142857       0.10714286       0.00000000 </v>
   <v>       0.10714286       0.10714286       0.00000000 </v>
   <v>       0.14285714       0.10714286       0.00000000 </v>
   <v>       0.17857143       0.10714286       0.00000000 </v>
   <v>       0.21428571       0.10714286       0.00000000 </v>
   <v>       0.25000000       0.10714286       0.00000000 </v>
   <v>       0.28571429       0.10714286       0.00000000 </v>
   <v>       0.32142857       0.10714286       0.00000000 </v>
   <v>       0.35714286       0.10714286       0.00000000 </v>
   <v>       0.39285714       0.10714286       0.00000000 </v>
   <v>       0.42857143       0.10714286       0.00000000 </v>
   <v>      -0.07142857       0.10714286       0.00000000 </v>
   <v>       0.00000000       0.14285714       0.00000000 </v>
   <v>       0.03571429       0.14285714       0.00000000 </v>
   <v>       0.07142857       0.14285714       0.00000000 </v>
   <v>       0.10714286       0.14285714       0.00000000 </v>
   <v>       0.14285714       0.14285714       0.00000000 </v>
   <v>       0.17857143       0.14285714       0.00000000 </v>
   <v>       0.21428571       0.14285714       0.00000000 </v>
   <v>       0.25000000       0.14285714       0.00000000 </v>
   <v>       0.28571429       0.14285714       0.00000000 </v>
   <v>       0.32142857       0.14285714       0.00000000 </v>
   <v>       0.35714286       0.14285714       0.00000000 </v>
   <v>       0.39285714       0.14285714       0.00000000 </v>
   <v>       0.42857143       0.14285714       0.00000000 </v>
   <v>      -0.10714286       0.14285714       0.00000000 </v>
   <v>      -0.07142857       0.14285714       0.00000000 </v>
   <v>       0.00000000       0.17857143       0.00000000 </v>
   <v>       0.03571429       0.17857143       0.00000000 </v>
   <v>       0.07142857       0.17857143       0.00000000 </v>
   <v>       0.10714286       0.17857143       0.00000000 </v>
   <v>       0.14285714       0.17857143       0.00000000 </v>
   <v>       0.17857143       0.17857143       0.00000000 </v>
   <v>       0.21428571       0.17857143       0.00000000 </v>
   <v>       0.25000000       0.17857143       0.00000000 </v>
   <v>       0.28571429       0.17857143       0.00000000 </v>
   <v>       0.32142857       0.17857143       0.00000000 </v>
   <v>       0.35714286       0.17857143       0.00000000 </v>
   <v>       0.39285714       0.17857143       0.00000000 </v>
   <v>      -0.14285714       0.17857143       0.00000000 </v>
   <v>      -0.10714286       0.17857143       0.00000000 </v>
   <v>       0.00000000       0.21428571       0.00000000 </v>
   <v>       0.03571429       0.21428571       0.00000000 </v>
   <v>       0.07142857       0.21428571       0.00000000 </v>
   <v>       0.10714286       0.21428571       0.00000000 </v>
   <v>       0.14285714       0.21428571       0.00000000 </v>
   <v>       0.17857143       0.21428571       0.00000000 </v>
   <v>       0.21428571       0.21428571       0.00000000 </v>
   <v>       0.25000000       0.21428571       0.00000000 </v>
   <v>       0.28571429       0.21428571       0.00000000 </v>
   <v>       0.32142857       0.21428571       0.00000000 </v>
   <v>       0.35714286       0.21428571       0.00000000 </v>
   <v>       0.39285714       0.21428571       0.00000000 </v>
   <v>      -0.17857143       0.21428571       0.00000000 </v>
   <v>      -0.14285714       0.21428571       0.00000000 </v>
   <v>      -0.10714286       0.21428571       0.00000000 </v>
   <v>       0.00000000       0.25000000       0.00000000 </v>
   <v>       0.03571429       0.25000000       0.00000000 </v>
   <v>       0.07142857       0.25000000       0.00000000 </v>
   <v>       0.10714286       0.25000000       0.00000000 </v>
   <v>       0.14285714       0.25000000       0.00000000 </v>
   <v>       0.17857143       0.25000000       0.00000000 </v>
   <v>       0.21428571       0.25000000       0.00000000 </v>
   <v>       0.25000000       0.25000000       0.00000000 </v>
   <v>       0.28571429       0.25000000       0.00000000 </v>
   <v>       0.32142857       0.25000000       0.00000000 </v>
   <v>       0.35714286       0.25000000       0.00000000 </v>
   <v>      -0.21428571       0.25000000       0.00000000 </v>
   <v>      -0.17857143       0.25000000       0.00000000 </v>
   <v>      -0.14285714       0.25000000       0.00000000 </v>
   <v>       0.00000000       0.28571429       0.00000000 </v>
   <v>       0.03571429       0.28571429       0.00000000 </v>
   <v>       0.07142857       0.28571429       0.00000000 </v>
   <v>       0.10714286       0.28571429       0.00000000 </v>
   <v>       0.14285714       0.28571429       0.00000000 </v>
   <v>       0.17857143       0.28571429       0.00000000 </v>
   <v>       0.21428571       0.28571429       0.00000000 </v>
   <v>       0.25000000       0.28571429       0.00000000 </v>
   <v>       0.28571429       0.28571429       0.00000000 </v>
   <v>       0.32142857       0.28571429       0.00000000 </v>
   <v>       0.35714286       0.28571429       0.00000000 </v>
   <v>      -0.25000000       0.28571429       0.00000000 </v>
   <v>      -0.21428571       0.28571429       0.00000000 </v>
   <v>      -0.17857143       0.28571429       0.00000000 </v>
   <v>      -0.14285714       0.28571429       0.00000000 </v>
   <v>       0.00000000       0.32142857       0.00000000 </v>
   <v>       0.03571429       0.32142857       0.00000000 </v>
   <v>       0.07142857       0.32142857       0.00000000 </v>
   <v>       0.10714286       0.32142857       0.00000000 </v>
   <v>       0.14285714       0.32142857       0.00000000 </v>
   <v>       0.17857143       0.32142857       0.00000000 </v>
   <v>       0.21428571       0.32142857       0.00000000 </v>
   <v>       0.25000000       0.32142857       0.00000000 </v>
   <v>       0.28571429       0.32142857       0.00000000 </v>
   <v>       0.32142857       0.32142857       0.00000000 </v>
   <v>      -0.28571429       0.32142857       0.00000000 </v>
   <v>      -0.25000000       0.32142857       0.00000000 </v>
   <v>      -0.21428571       0.32142857       0.00000000 </v>
   <v>      -0.17857143       0.32142857       0.00000000 </v>
   <v>       0.00000000       0.35714286       0.00000000 </v>
   <v>       0.03571429       0.35714286       0.00000000 </v>
   <v>       0.07142857       0.35714286       0.00000000 </v>
   <v>       0.10714286       0.35714286       0.00000000 </v>
   <v>       0.14285714       0.35714286       0.00000000 </v>
   <v>       0.17857143       0.35714286       0.00000000 </v>
   <v>       0.21428571       0.35714286       0.00000000 </v>
   <v>       0.25000000       0.35714286       0.00000000 </v>
   <v>       0.28571429       0.35714286       0.00000000 </v>
   <v>       0.32142857       0.35714286       0.00000000 </v>
   <v>      -0.32142857       0.35714286       0.00000000 </v>
   <v>      -0.28571429       0.35714286       0.00000000 </v>
   <v>      -0.25000000       0.35714286       0.00000000 </v>
   <v>      -0.21428571       0.35714286       0.00000000 </v>
   <v>      -0.17857143       0.35714286       0.00000000 </v>
   <v>       0.00000000       0.39285714       0.00000000 </v>
   <v>       0.03571429       0.39285714       0.00000000 </v>
   <v>       0.07142857       0.39285714       0.00000000 </v>
   <v>       0.10714286       0.39285714       0.00000000 </v>
   <v>       0.14285714       0.39285714       0.00000000 </v>
   <v>       0.17857143       0.39285714       0.00000000 </v>
   <v>       0.21428571       0.39285714       0.00000000 </v>
   <v>       0.25000000       0.39285714       0.00000000 </v>
   <v>       0.28571429       0.39285714       0.00000000 </v>
   <v>      -0.35714286       0.39285714       0.00000000 </v>
   <v>      -0.32142857       0.39285714       0.00000000 </v>
   <v>      -0.28571429       0.39285714       0.00000000 </v>
   <v>      -0.25000000       0.39285714       0.00000000 </v>
   <v>      -0.21428571       0.39285714       0.00000000 </v>
   <v>       0.00000000       0.42857143       0.00000000 </v>
   <v>       0.03571429       0.42857143       0.00000000 </v>
   <v>       0.07142857       0.42857143       0.00000000 </v>
   <v>       0.10714286       0.42857143       0.00000000 </v>
   <v>       0.14285714       0.42857143       0.00000000 </v>
   <v>       0.17857143       0.42857143       0.00000000 </v>
   <v>       0.21428571       0.42857143       0.00000000 </v>
   <v>       0.25000000       0.42857143       0.00000000 </v>
   <v>       0.28571429       0.42857143       0.00000000 </v>
   <v>      -0.39285714       0.42857143       0.00000000 </v>
   <v>      -0.35714286       0.42857143       0.00000000 </v>
   <v>      -0.32142857       0.42857143       0.00000000 </v>
   <v>      -0.28571429       0.42857143       0.00000000 </v>
   <v>      -0.25000000       0.42857143       0.00000000 </v>
   <v>      -0.21428571       0.42857143       0.00000000 </v>
   <v>       0.00000000       0.46428571       0.00000000 </v>
   <v>       0.03571429       0.46428571       0.00000000 </v>
   <v>       0.07142857       0.46428571       0.00000000 </v>
   <v>       0.10714286       0.46428571       0.00000000 </v>
   <v>       0.14285714       0.46428571       0.00000000 </v>
   <v>       0.17857143       0.46428571       0.00000000 </v>
   <v>       0.21428571       0.46428571       0.00000000 </v>
   <v>       0.25000000       0.46428571       0.00000000 </v>
   <v>      -0.42857143       0.46428571       0.00000000 </v>
   <v>      -0.39285714       0.46428571       0.00000000 </v>
   <v>      -0.35714286       0.46428571       0.00000000 </v>
   <v>      -0.32142857       0.46428571       0.00000000 </v>
   <v>      -0.28571429       0.46428571       0.00000000 </v>
   <v>      -0.25000000       0.46428571       0.00000000 </v>
   <v>       0.00000000       0.50000000       0.00000000 </v>
   <v>       0.03571429       0.50000000       0.00000000 </v>
   <v>       0.07142857       0.50000000       0.00000000 </v>
   <v>       0.10714286       0.50000000       0.00000000 </v>
   <v>       0.14285714       0.50000000       0.00000000 </v>
   <v>       0.17857143       0.50000000       0.00000000 </v>
   <v>       0.21428571       0.50000000       0.00000000 </v>
   <v>       0.25000000       0.50000000       0.00000000 </v>
   <v>       0.00000000       0.00000000       0.16666667 </v>
   <v>       0.03571429       0.00000000       0.16666667 </v>
   <v>       0.07142857       0.00000000       0.16666667 </v>
   <v>       0.10714286       0.00000000       0.16666667 </v>
   <v>       0.14285714       0.00000000       0.16666667 </v>
   <v>       0.17857143       0.00000000       0.16666667 </v>
   <v>       0.21428571       0.00000000       0.16666667 </v>
   <v>       0.25000000       0.00000000       0.16666667 </v>
   <v>       0.28571429       0.00000000       0.16666667 </v>
   <v>       0.32142857       0.00000000       0.16666667 </v>
   <v>       0.35714286       0.00000000       0.16666667 </v>
   <v>       0.39285714       0.00000000       0.16666667 </v>
   <v>       0.42857143       0.00000000       0.16666667 </v>
   <v>       0.46428571       0.00000000       0.16666667 </v>
   <v>       0.50000000       0.00000000       0.16666667 </v>
   <v>      -0.46428571       0.00000000       0.16666667 </v>
   <v>      -0.42857143       0.00000000       0.16666667 </v>
   <v>      -0.39285714       0.00000000       0.16666667 </v>
   <v>      -0.35714286       0.00000000       0.16666667 </v>
   <v>      -0.32142857       0.00000000       0.16666667 </v>
   <v>      -0.28571429       0.00000000       0.16666667 </v>
   <v>      -0.25000000       0.00000000       0.16666667 </v>
   <v>      -0.21428571       0.00000000       0.16666667 </v>
   <v>      -0.17857143       0.00000000       0.16666667 </v>
   <v>      -0.14285714       0.00000000       0.16666667 </v>
   <v>      -0.10714286       0.00000000       0.16666667 </v>
   <v>      -0.07142857       0.00000000       0.16666667 </v>
   <v>      -0.03571429       0.00000000       0.16666667 </v>
   <v>       0.00000000       0.03571429       0.16666667 </v>
   <v>       0.03571429       0.03571429       0.16666667 </v>
   <v>       0.07142857       0.03571429       0.16666667 </v>
   <v>       0.10714286       0.03571429       0.16666667 </v>
   <v>       0.14285714       0.03571429       0.16666667 </v>
   <v>       0.17857143       0.03571429       0.16666667 </v>
   <v>       0.21428571       0.03571429       0.16666667 </v>
   <v>       0.25000000       0.03571429       0.16666667 </v>
   <v>       0.28571429       0.03571429       0.16666667 </v>
   <v>       0.32142857       0.03571429       0.16666667 </v>
   <v>       0.35714286       0.03571429       0.16666667 </v>
   <v>       0.39285714       0.03571429       0.16666667 </v>
   <v>       0.42857143       0.03571429       0.16666667 </v>
   <v>       0.46428571       0.03571429       0.16666667 </v>
   <v>       0.50000000       0.03571429       0.16666667 </v>
   <v>      -0.46428571       0.03571429       0.16666667 </v>
   <v>      -0.42857143       0.03571429       0.16666667 </v>
   <v>      -0.39285714       0.03571429       0.16666667 </v>
   <v>      -0.35714286       0.03571429       0.16666667 </v>
   <v>      -0.32142857       0.03571429       0.16666667 </v>
   <v>      -0.28571429       0.03571429       0.16666667 </v>
   <v>      -0.25000000       0.03571429       0.16666667 </v>
   <v>      -0.21428571       0.03571429       0.16666667 </v>
   <v>      -0.17857143       0.03571429       0.16666667 </v>
   <v>      -0.14285714       0.03571429       0.16666667 </v>
   <v>      -0.10714286       0.03571429       0.16666667 </v>
   <v>      -0.07142857       0.03571429       0.16666667 </v>
   <v>      -0.03571429       0.03571429       0.16666667 </v>
   <v>       0.00000000       0.07142857       0.16666667 </v>
   <v>       0.03571429       0.07142857       0.16666667 </v>
   <v>       0.07142857       0.07142857       0.16666667 </v>
   <v>       0.10714286       0.07142857       0.16666667 </v>
   <v>       0.14285714       0.07142857       0.16666667 </v>
   <v>       0.17857143       0.07142857       0.16666667 </v>
   <v>       0.21428571       0.07142857       0.16666667 </v>
   <v>       0.25000000       0.07142857       0.16666667 </v>
   <v>       0.28571429       0.07142857       0.16666667 </v>
   <v>       0.32142857       0.07142857       0.16666667 </v>
   <v>       0.35714286       0.07142857       0.16666667 </v>
   <v>       0.39285714       0.07142857       0.16666667 </v>
   <v>       0.42857143       0.07142857       0.16666667 </v>
   <v>       0.46428571       0.07142857       0.16666667 </v>
   <v>       0.50000000       0.07142857       0.16666667 </v>
   <v>      -0.46428571       0.07142857       0.16666667 </v>
   <v>      -0.42857143       0.07142857       0.16666667 </v>
   <v>      -0.39285714       0.07142857       0.16666667 </v>
   <v>      -0.35714286       0.07142857       0.16666667 </v>
   <v>      -0.32142857       0.07142857       0.16666667 </v>
   <v>      -0.28571429       0.07142857       0.16666667 </v>
   <v>      -0.25000000       0.07142857       0.16666667 </v>
   <v>      -0.21428571       0.07142857       0.16666667 </v>
   <v>      -0.17857143       0.07142857       0.16666667 </v>
   <v>      -0.14285714       0.07142857       0.16666667 </v>
   <v>      -0.10714286       0.07142857       0.16666667 </v>
   <v>      -0.07142857       0.07142857       0.16666667 </v>
   <v>      -0.03571429       0.07142857       0.16666667 </v>
   <v>       0.00000000       0.10714286       0.16666667 </v>
   <v>       0.03571429       0.10714286       0.16666667 </v>
   <v>       0.07142857       0.10714286       0.16666667 </v>
   <v>       0.10714286       0.10714286       0.16666667 </v>
   <v>       0.14285714       0.10714286       0.16666667 </v>
   <v>       0.17857143       0.10714286       0.16666667 </v>
   <v>       0.21428571       0.10714286       0.16666667 </v>
   <v>       0.25000000       0.10714286       0.16666667 </v>
   <v>       0.28571429       0.10714286       0.16666667 </v>
   <v>       0.32142857       0.10714286       0.16666667 </v>
   <v>       0.35714286       0.10714286       0.16666667 </v>
   <v>       0.39285714       0.10714286       0.16666667 </v>
   <v>       0.42857143       0.10714286       0.16666667 </v>
   <v>       0.46428571       0.10714286       0.16666667 </v>
   <v>       0.50000000       0.10714286       0.16666667 </v>
   <v>      -0.46428571       0.10714286       0.16666667 </v>
   <v>      -0.42857143       0.10714286       0.16666667 </v>
   <v>      -0.39285714       0.10714286       0.16666667 </v>
   <v>      -0.35714286       0.10714286       0.16666667 </v>
   <v>      -0.32142857       0.10714286       0.16666667 </v>
   <v>      -0.28571429       0.10714286       0.16666667 </v>
   <v>      -0.25000000       0.10714286       0.16666667 </v>
   <v>      -0.21428571       0.10714286       0.16666667 </v>
   <v>      -0.17857143       0.10714286       0.16666667 </v>
   <v>      -0.14285714       0.10714286       0.16666667 </v>
   <v>      -0.10714286       0.10714286       0.16666667 </v>
   <v>      -0.07142857       0.10714286       0.16666667 </v>
   <v>      -0.03571429       0.10714286       0.16666667 </v>
   <v>       0.00000000       0.14285714       0.16666667 </v>
   <v>       0.03571429       0.14285714       0.16666667 </v>
   <v>       0.07142857       0.14285714       0.16666667 </v>
   <v>       0.10714286       0.14285714       0.16666667 </v>
   <v>       0.14285714       0.14285714       0.16666667 </v>
   <v>       0.17857143       0.14285714       0.16666667 </v>
   <v>       0.21428571       0.14285714       0.16666667 </v>
   <v>       0.25000000       0.14285714       0.16666667 </v>
   <v>       0.28571429       0.14285714       0.16666667 </v>
   <v>       0.32142857       0.14285714       0.16666667 </v>
   <v>       0.35714286       0.14285714       0.16666667 </v>
   <v>       0.39285714       0.14285714       0.16666667 </v>
   <v>       0.42857143       0.14285714       0.16666667 </v>
   <v>       0.46428571       0.14285714       0.16666667 </v>
   <v>       0.50000000       0.14285714       0.16666667 </v>
   <v>      -0.46428571       0.14285714       0.16666667 </v>
   <v>      -0.42857143       0.14285714       0.16666667 </v>
   <v>      -0.39285714       0.14285714       0.16666667 </v>
   <v>      -0.35714286       0.14285714       0.16666667 </v>
   <v>      -0.32142857       0.14285714       0.16666667 </v>
   <v>      -0.28571429       0.14285714       0.16666667 </v>
   <v>      -0.25000000       0.14285714       0.16666667 </v>
   <v>      -0.21428571       0.14285714       0.16666667 </v>
   <v>      -0.17857143       0.14285714       0.16666667 </v>
   <v>      -0.14285714       0.14285714       0.16666667 </v>
   <v>      -0.10714286       0.14285714       0.16666667 </v>
   <v>      -0.07142857       0.14285714       0.16666667 </v>
   <v>      -0.03571429       0.14285714       0.16666667 </v>
   <v>       0.00000000       0.17857143       0.16666667 </v>
   <v>       0.03571429       0.17857143       0.16666667 </v>
   <v>       0.07142857       0.17857143       0.16666667 </v>
   <v>       0.10714286       0.17857143       0.16666667 </v>
   <v>       0.14285714       0.17857143       0.16666667 </v>
   <v>       0.17857143       0.17857143       0.16666667 </v>
   <v>       0.21428571       0.17857143       0.16666667 </v>
   <v>       0.25000000       0.17857143       0.16666667 </v>
   <v>       0.28571429       0.17857143       0.16666667 </v>
   <v>       0.32142857       0.17857143       0.16666667 </v>
   <v>       0.35714286       0.17857143       0.16666667 </v>
   <v>       0.39285714       0.17857143       0.16666667 </v>
   <v>       0.42857143       0.17857143       0.16666667 </v>
   <v>       0.46428571       0.17857143       0.16666667 </v>
   <v>       0.50000000       0.17857143       0.16666667 </v>
   <v>      -0.46428571       0.17857143       0.16666667 </v>
   <v>      -0.42857143       0.17857143       0.16666667 </v>
   <v>      -0.39285714       0.17857143       0.16666667 </v>
   <v>      -0.35714286       0.17857143       0.16666667 </v>
   <v>      -0.32142857       0.17857143       0.16666667 </v>
   <v>      -0.28571429       0.17857143       0.16666667 </v>
   <v>      -0.25000000       0.17857143       0.16666667 </v>
   <v>      -0.21428571       0.17857143       0.16666667 </v>
   <v>      -0.17857143       0.17857143       0.16666667 </v>
   <v>      -0.14285714       0.17857143       0.16666667 </v>
   <v>      -0.10714286       0.17857143       0.16666667 </v>
   <v>      -0.07142857       0.17857143       0.16666667 </v>
   <v>      -0.03571429       0.17857143       0.16666667 </v>
   <v>       0.00000000       0.21428571       0.16666667 </v>
   <v>       0.03571429       0.21428571       0.16666667 </v>
   <v>       0.07142857       0.21428571       0.16666667 </v>
   <v>       0.10714286       0.21428571       0.16666667 </v>
   <v>       0.14285714       0.21428571       0.16666667 </v>
   <v>       0.17857143       0.21428571       0.16666667 </v>
   <v>       0.21428571       0.21428571       0.16666667 </v>
   <v>       0.25000000       0.21428571       0.16666667 </v>
   <v>       0.28571429       0.21428571       0.16666667 </v>
   <v>       0.32142857       0.21428571       0.16666667 </v>
   <v>       0.35714286       0.21428571       0.16666667 </v>
   <v>       0.39285714       0.21428571       0.16666667 </v>
   <v>       0.42857143       0.21428571       0.16666667 </v>
   <v>       0.46428571       0.21428571       0.16666667 </v>
   <v>       0.50000000       0.21428571       0.16666667 </v>
   <v>      -0.46428571       0.21428571       0.16666667 </v>
   <v>      -0.42857143       0.21428571       0.16666667 </v>
   <v>      -0.39285714       0.21428571       0.16666667 </v>
   <v>      -0.35714286       0.21428571       0.16666667 </v>
   <v>      -0.32142857       0.21428571       0.16666667 </v>
   <v>      -0.28571429       0.21428571       0.16666667 </v>
   <v>      -0.25000000       0.21428571       0.16666667 </v>
   <v>      -0.21428571       0.21428571       0.16666667 </v>
   <v>      -0.17857143       0.21428571       0.16666667 </v>
   <v>      -0.14285714       0.21428571       0.16666667 </v>
   <v>      -0.10714286       0.21428571       0.16666667 </v>
   <v>      -0.07142857       0.21428571       0.16666667 </v>
   <v>      -0.03571429       0.21428571       0.16666667 </v>
   <v>       0.00000000       0.25000000       0.16666667 </v>
   <v>       0.03571429       0.25000000       0.16666667 </v>
   <v>       0.07142857       0.25000000       0.16666667 </v>
   <v>       0.10714286       0.25000000       0.16666667 </v>
   <v>       0.14285714       0.25000000       0.16666667 </v>
   <v>       0.17857143       0.25000000       0.16666667 </v>
   <v>       0.21428571       0.25000000       0.16666667 </v>
   <v>       0.25000000       0.25000000       0.16666667 </v>
   <v>       0.28571429       0.25000000       0.16666667 </v>
   <v>       0.32142857       0.25000000       0.16666667 </v>
   <v>       0.35714286       0.25000000       0.16666667 </v>
   <v>       0.39285714       0.25000000       0.16666667 </v>
   <v>       0.42857143       0.25000000       0.16666667 </v>
   <v>       0.46428571       0.25000000       0.16666667 </v>
   <v>       0.50000000       0.25000000       0.16666667 </v>
   <v>      -0.46428571       0.25000000       0.16666667 </v>
   <v>      -0.42857143       0.25000000       0.16666667 </v>
   <v>      -0.39285714       0.25000000       0.16666667 </v>
   <v>      -0.35714286       0.25000000       0.16666667 </v>
   <v>      -0.32142857       0.25000000       0.16666667 </v>
   <v>      -0.28571429       0.25000000       0.16666667 </v>
   <v>      -0.25000000       0.25000000       0.16666667 </v>
   <v>      -0.21428571       0.25000000       0.16666667 </v>
   <v>      -0.17857143       0.25000000       0.16666667 </v>
   <v>      -0.14285714       0.25000000       0.16666667 </v>
   <v>      -0.10714286       0.25000000       0.16666667 </v>
   <v>      -0.07142857       0.25000000       0.16666667 </v>
   <v>      -0.03571429       0.25000000       0.16666667 </v>
   <v>       0.00000000       0.28571429       0.16666667 </v>
   <v>       0.03571429       0.28571429       0.16666667 </v>
   <v>       0.07142857       0.28571429       0.16666667 </v>
   <v>       0.10714286       0.28571429       0.16666667 </v>
   <v>       0.14285714       0.28571429       0.16666667 </v>
   <v>       0.17857143       0.28571429       0.16666667 </v>
   <v>       0.21428571       0.28571429       0.16666667 </v>
   <v>       0.25000000       0.28571429       0.16666667 </v>
   <v>       0.28571429       0.28571429       0.16666667 </v>
   <v>       0.32142857       0.28571429       0.16666667 </v>
   <v>       0.35714286       0.28571429       0.16666667 </v>
   <v>       0.39285714       0.28571429       0.16666667 </v>
   <v>       0.42857143       0.28571429       0.16666667 </v>
   <v>       0.46428571       0.28571429       0.16666667 </v>
   <v>       0.50000000       0.28571429       0.16666667 </v>
   <v>      -0.46428571       0.28571429       0.16666667 </v>
   <v>      -0.42857143       0.28571429       0.16666667 </v>
   <v>      -0.39285714       0.28571429       0.16666667 </v>
   <v>      -0.35714286       0.28571429       0.16666667 </v>
   <v>      -0.32142857       0.28571429       0.16666667 </v>
   <v>      -0.28571429       0.28571429       0.16666667 </v>
   <v>      -0.25000000       0.28571429       0.16666667 </v>
   <v>      -0.21428571       0.28571429       0.16666667 </v>
   <v>      -0.17857143       0.28571429       0.16666667 </v>
   <v>      -0.14285714       0.28571429       0.16666667 </v>
   <v>      -0.10714286       0.28571429       0.16666667 </v>
   <v>      -0.07142857       0.28571429       0.16666667 </v>
   <v>      -0.03571429       0.28571429       0.16666667 </v>
   <v>       0.00000000       0.32142857       0.16666667 </v>
   <v>       0.03571429       0.32142857       0.16666667 </v>
   <v>       0.07142857       0.32142857       0.16666667 </v>
   <v>       0.10714286       0.32142857       0.16666667 </v>
   <v>       0.14285714       0.32142857       0.16666667 </v>
   <v>       0.17857143       0.32142857       0.16666667 </v>
   <v>       0.21428571       0.32142857       0.16666667 </v>
   <v>       0.25000000       0.32142857       0.16666667 </v>
   <v>       0.28571429       0.32142857       0.16666667 </v>
   <v>       0.32142857       0.32142857       0.16666667 </v>
   <v>       0.35714286       0.32142857       0.16666667 </v>
   <v>       0.39285714       0.32142857       0.16666667 </v>
   <v>       0.42857143       0.32142857       0.16666667 </v>
   <v>       0.46428571       0.32142857       0.16666667 </v>
   <v>       0.50000000       0.32142857       0.16666667 </v>
   <v>      -0.46428571       0.32142857       0.16666667 </v>
   <v>      -0.42857143       0.32142857       0.16666667 </v>
   <v>      -0.39285714       0.32142857       0.16666667 </v>
   <v>      -0.35714286       0.32142857       0.16666667 </v>
   <v>      -0.32142857       0.32142857       0.16666667 </v>
   <v>      -0.28571429       0.32142857       0.16666667 </v>
   <v>      -0.25000000       0.32142857       0.16666667 </v>
   <v>      -0.21428571       0.32142857       0.16666667 </v>
   <v>      -0.17857143       0.32142857       0.16666667 </v>
   <v>      -0.14285714       0.32142857       0.16666667 </v>
   <v>      -0.10714286       0.32142857       0.16666667 </v>
   <v>      -0.07142857       0.32142857       0.16666667 </v>
   <v>      -0.03571429       0.32142857       0.16666667 </v>
   <v>       0.00000000       0.35714286       0.16666667 </v>
   <v>       0.03571429       0.35714286       0.16666667 </v>
   <v>       0.07142857       0.35714286       0.16666667 </v>
   <v>       0.10714286       0.35714286       0.16666667 </v>
   <v>       0.14285714       0.35714286       0.16666667 </v>
   <v>       0.17857143       0.35714286       0.16666667 </v>
   <v>       0.21428571       0.35714286       0.16666667 </v>
   <v>       0.25000000       0.35714286       0.16666667 </v>
   <v>       0.28571429       0.35714286       0.16666667 </v>
   <v>       0.32142857       0.35714286       0.16666667 </v>
   <v>       0.35714286       0.35714286       0.16666667 </v>
   <v>       0.39285714       0.35714286       0.16666667 </v>
   <v>       0.42857143       0.35714286       0.16666667 </v>
   <v>       0.46428571       0.35714286       0.16666667 </v>
   <v>       0.50000000       0.35714286       0.16666667 </v>
   <v>      -0.46428571       0.35714286       0.16666667 </v>
   <v>      -0.42857143       0.35714286       0.16666667 </v>
   <v>      -0.39285714       0.35714286       0.16666667 </v>
   <v>      -0.35714286       0.35714286       0.16666667 </v>
   <v>      -0.32142857       0.35714286       0.16666667 </v>
   <v>      -0.28571429       0.35714286       0.16666667 </v>
   <v>      -0.25000000       0.35714286       0.16666667 </v>
   <v>      -0.21428571       0.35714286       0.16666667 </v>
   <v>      -0.17857143       0.35714286       0.16666667 </v>
   <v>      -0.14285714       0.35714286       0.16666667 </v>
   <v>      -0.10714286       0.35714286       0.16666667 </v>
   <v>      -0.07142857       0.35714286       0.16666667 </v>
   <v>      -0.03571429       0.35714286       0.16666667 </v>
   <v>       0.00000000       0.39285714       0.16666667 </v>
   <v>       0.03571429       0.39285714       0.16666667 </v>
   <v>       0.07142857       0.39285714       0.16666667 </v>
   <v>       0.10714286       0.39285714       0.16666667 </v>
   <v>       0.14285714       0.39285714       0.16666667 </v>
   <v>       0.17857143       0.39285714       0.16666667 </v>
   <v>       0.21428571       0.39285714       0.16666667 </v>
   <v>       0.25000000       0.39285714       0.16666667 </v>
   <v>       0.28571429       0.39285714       0.16666667 </v>
   <v>       0.32142857       0.39285714       0.16666667 </v>
   <v>       0.35714286       0.39285714       0.16666667 </v>
   <v>       0.39285714       0.39285714       0.16666667 </v>
   <v>       0.42857143       0.39285714       0.16666667 </v>
   <v>       0.46428571       0.39285714       0.16666667 </v>
   <v>       0.50000000       0.39285714       0.16666667 </v>
   <v>      -0.46428571       0.39285714       0.16666667 </v>
   <v>      -0.42857143       0.39285714       0.16666667 </v>
   <v>      -0.39285714       0.39285714       0.16666667 </v>
   <v>      -0.35714286       0.39285714       0.16666667 </v>
   <v>      -0.32142857       0.39285714       0.16666667 </v>
   <v>      -0.28571429       0.39285714       0.16666667 </v>
   <v>      -0.25000000       0.39285714       0.16666667 </v>
   <v>      -0.21428571       0.39285714       0.16666667 </v>
   <v>      -0.17857143       0.39285714       0.16666667 </v>
   <v>      -0.14285714       0.39285714       0.16666667 </v>
   <v>      -0.10714286       0.39285714       0.16666667 </v>
   <v>      -0.07142857       0.39285714       0.16666667 </v>
   <v>      -0.03571429       0.39285714       0.16666667 </v>
   <v>       0.00000000       0.42857143       0.16666667 </v>
   <v>       0.03571429       0.42857143       0.16666667 </v>
   <v>       0.07142857       0.42857143       0.16666667 </v>
   <v>       0.10714286       0.42857143       0.16666667 </v>
   <v>       0.14285714       0.42857143       0.16666667 </v>
   <v>       0.17857143       0.42857143       0.16666667 </v>
   <v>       0.21428571       0.42857143       0.16666667 </v>
   <v>       0.25000000       0.42857143       0.16666667 </v>
   <v>       0.28571429       0.42857143       0.16666667 </v>
   <v>       0.32142857       0.42857143       0.16666667 </v>
   <v>       0.35714286       0.42857143       0.16666667 </v>
   <v>       0.39285714       0.42857143       0.16666667 </v>
   <v>       0.42857143       0.42857143       0.16666667 </v>
   <v>       0.46428571       0.42857143       0.16666667 </v>
   <v>       0.50000000       0.42857143       0.16666667 </v>
   <v>      -0.46428571       0.42857143       0.16666667 </v>
   <v>      -0.42857143       0.42857143       0.16666667 </v>
   <v>      -0.39285714       0.42857143       0.16666667 </v>
   <v>      -0.35714286       0.42857143       0.16666667 </v>
   <v>      -0.32142857       0.42857143       0.16666667 </v>
   <v>      -0.28571429       0.42857143       0.16666667 </v>
   <v>      -0.25000000       0.42857143       0.16666667 </v>
   <v>      -0.21428571       0.42857143       0.16666667 </v>
   <v>      -0.17857143       0.42857143       0.16666667 </v>
   <v>      -0.14285714       0.42857143       0.16666667 </v>
   <v>      -0.10714286       0.42857143       0.16666667 </v>
   <v>      -0.07142857       0.42857143       0.16666667 </v>
   <v>      -0.03571429       0.42857143       0.16666667 </v>
   <v>       0.00000000       0.46428571       0.16666667 </v>
   <v>       0.03571429       0.46428571       0.16666667 </v>
   <v>       0.07142857       0.46428571       0.16666667 </v>
   <v>       0.10714286       0.46428571       0.16666667 </v>
   <v>       0.14285714       0.46428571       0.16666667 </v>
   <v>       0.17857143       0.46428571       0.16666667 </v>
   <v>       0.21428571       0.46428571       0.16666667 </v>
   <v>       0.25000000       0.46428571       0.16666667 </v>
   <v>       0.28571429       0.46428571       0.16666667 </v>
   <v>       0.32142857       0.46428571       0.16666667 </v>
   <v>       0.35714286       0.46428571       0.16666667 </v>
   <v>       0.39285714       0.46428571       0.16666667 </v>
   <v>       0.42857143       0.46428571       0.16666667 </v>
   <v>       0.46428571       0.46428571       0.16666667 </v>
   <v>       0.50000000       0.46428571       0.16666667 </v>
   <v>      -0.46428571       0.46428571       0.16666667 </v>
   <v>      -0.42857143       0.46428571       0.16666667 </v>
   <v>      -0.39285714       0.46428571       0.16666667 </v>
   <v>      -0.35714286       0.46428571       0.16666667 </v>
   <v>      -0.32142857       0.46428571       0.16666667 </v>
   <v>      -0.28571429       0.46428571       0.16666667 </v>
   <v>      -0.25000000       0.46428571       0.16666667 </v>
   <v>      -0.21428571       0.46428571       0.16666667 </v>
   <v>      -0.17857143       0.46428571       0.16666667 </v>
   <v>      -0.14285714       0.46428571       0.16666667 </v>
   <v>      -0.10714286       0.46428571       0.16666667 </v>
   <v>      -0.07142857       0.46428571       0.16666667 </v>
   <v>      -0.03571429       0.46428571       0.16666667 </v>
   <v>       0.00000000       0.50000000       0.16666667 </v>
   <v>       0.03571429       0.50000000       0.16666667 </v>
   <v>       0.07142857       0.50000000       0.16666667 </v>
   <v>       0.10714286       0.50000000       0.16666667 </v>
   <v>       0.14285714       0.50000000       0.16666667 </v>
   <v>       0.17857143       0.50000000       0.16666667 </v>
   <v>       0.21428571       0.50000000       0.16666667 </v>
   <v>       0.25000000       0.50000000       0.16666667 </v>
   <v>       0.28571429       0.50000000       0.16666667 </v>
   <v>       0.32142857       0.50000000       0.16666667 </v>
   <v>       0.35714286       0.50000000       0.16666667 </v>
   <v>       0.39285714       0.50000000       0.16666667 </v>
   <v>       0.42857143       0.50000000       0.16666667 </v>
   <v>       0.46428571       0.50000000       0.16666667 </v>
   <v>       0.00000000       0.00000000       0.33333333 </v>
   <v>       0.03571429       0.00000000       0.33333333 </v>
   <v>       0.07142857       0.00000000       0.33333333 </v>
   <v>       0.10714286       0.00000000       0.33333333 </v>
   <v>       0.14285714       0.00000000       0.33333333 </v>
   <v>       0.17857143       0.00000000       0.33333333 </v>
   <v>       0.21428571       0.00000000       0.33333333 </v>
   <v>       0.25000000       0.00000000       0.33333333 </v>
   <v>       0.28571429       0.00000000       0.33333333 </v>
   <v>       0.32142857       0.00000000       0.33333333 </v>
   <v>       0.35714286       0.00000000       0.33333333 </v>
   <v>       0.39285714       0.00000000       0.33333333 </v>
   <v>       0.42857143       0.00000000       0.33333333 </v>
   <v>       0.46428571       0.00000000       0.33333333 </v>
   <v>      -0.46428571       0.00000000       0.33333333 </v>
   <v>      -0.42857143       0.00000000       0.33333333 </v>
   <v>      -0.39285714       0.00000000       0.33333333 </v>
   <v>      -0.35714286       0.00000000       0.33333333 </v>
   <v>      -0.32142857       0.00000000       0.33333333 </v>
   <v>      -0.28571429       0.00000000       0.33333333 </v>
   <v>      -0.25000000       0.00000000       0.33333333 </v>
   <v>      -0.21428571       0.00000000       0.33333333 </v>
   <v>      -0.17857143       0.00000000       0.33333333 </v>
   <v>      -0.14285714       0.00000000       0.33333333 </v>
   <v>      -0.10714286       0.00000000       0.33333333 </v>
   <v>      -0.07142857       0.00000000       0.33333333 </v>
   <v>      -0.03571429       0.00000000       0.33333333 </v>
   <v>       0.00000000       0.03571429       0.33333333 </v>
   <v>       0.03571429       0.03571429       0.33333333 </v>
   <v>       0.07142857       0.03571429       0.33333333 </v>
   <v>       0.10714286       0.03571429       0.33333333 </v>
   <v>       0.14285714       0.03571429       0.33333333 </v>
   <v>       0.17857143       0.03571429       0.33333333 </v>
   <v>       0.21428571       0.03571429       0.33333333 </v>
   <v>       0.25000000       0.03571429       0.33333333 </v>
   <v>       0.28571429       0.03571429       0.33333333 </v>
   <v>       0.32142857       0.03571429       0.33333333 </v>
   <v>       0.35714286       0.03571429       0.33333333 </v>
   <v>       0.39285714       0.03571429       0.33333333 </v>
   <v>       0.42857143       0.03571429       0.33333333 </v>
   <v>      -0.46428571       0.03571429       0.33333333 </v>
   <v>      -0.42857143       0.03571429       0.33333333 </v>
   <v>      -0.39285714       0.03571429       0.33333333 </v>
   <v>      -0.35714286       0.03571429       0.33333333 </v>
   <v>      -0.32142857       0.03571429       0.33333333 </v>
   <v>      -0.28571429       0.03571429       0.33333333 </v>
   <v>      -0.25000000       0.03571429       0.33333333 </v>
   <v>      -0.21428571       0.03571429       0.33333333 </v>
   <v>      -0.17857143       0.03571429       0.33333333 </v>
   <v>      -0.14285714       0.03571429       0.33333333 </v>
   <v>      -0.10714286       0.03571429       0.33333333 </v>
   <v>      -0.07142857       0.03571429       0.33333333 </v>
   <v>      -0.03571429       0.03571429       0.33333333 </v>
   <v>       0.00000000       0.07142857       0.33333333 </v>
   <v>       0.03571429       0.07142857       0.33333333 </v>
   <v>       0.07142857       0.07142857       0.33333333 </v>
   <v>       0.10714286       0.07142857       0.33333333 </v>
   <v>       0.14285714       0.07142857       0.33333333 </v>
   <v>       0.17857143       0.07142857       0.33333333 </v>
   <v>       0.21428571       0.07142857       0.33333333 </v>
   <v>       0.25000000       0.07142857       0.33333333 </v>
   <v>       0.28571429       0.07142857       0.33333333 </v>
   <v>       0.32142857       0.07142857       0.33333333 </v>
   <v>       0.35714286       0.07142857       0.33333333 </v>
   <v>       0.39285714       0.07142857       0.33333333 </v>
   <v>       0.46428571       0.07142857       0.33333333 </v>
   <v>      -0.46428571       0.07142857       0.33333333 </v>
   <v>      -0.42857143       0.07142857       0.33333333 </v>
   <v>      -0.39285714       0.07142857       0.33333333 </v>
   <v>      -0.35714286       0.07142857       0.33333333 </v>
   <v>      -0.32142857       0.07142857       0.33333333 </v>
   <v>      -0.28571429       0.07142857       0.33333333 </v>
   <v>      -0.25000000       0.07142857       0.33333333 </v>
   <v>      -0.21428571       0.07142857       0.33333333 </v>
   <v>      -0.17857143       0.07142857       0.33333333 </v>
   <v>      -0.14285714       0.07142857       0.33333333 </v>
   <v>      -0.10714286       0.07142857       0.33333333 </v>
   <v>      -0.07142857       0.07142857       0.33333333 </v>
   <v>      -0.03571429       0.07142857       0.33333333 </v>
   <v>       0.00000000       0.10714286       0.33333333 </v>
   <v>       0.03571429       0.10714286       0.33333333 </v>
   <v>       0.07142857       0.10714286       0.33333333 </v>
   <v>       0.10714286       0.10714286       0.33333333 </v>
   <v>       0.14285714       0.10714286       0.33333333 </v>
   <v>       0.17857143       0.10714286       0.33333333 </v>
   <v>       0.21428571       0.10714286       0.33333333 </v>
   <v>       0.25000000       0.10714286       0.33333333 </v>
   <v>       0.28571429       0.10714286       0.33333333 </v>
   <v>       0.32142857       0.10714286       0.33333333 </v>
   <v>       0.35714286       0.10714286       0.33333333 </v>
   <v>       0.42857143       0.10714286       0.33333333 </v>
   <v>       0.46428571       0.10714286       0.33333333 </v>
   <v>      -0.46428571       0.10714286       0.33333333 </v>
   <v>      -0.42857143       0.10714286       0.33333333 </v>
   <v>      -0.39285714       0.10714286       0.33333333 </v>
   <v>      -0.35714286       0.10714286       0.33333333 </v>
   <v>      -0.32142857       0.10714286       0.33333333 </v>
   <v>      -0.28571429       0.10714286       0.33333333 </v>
   <v>      -0.25000000       0.10714286       0.33333333 </v>
   <v>      -0.21428571       0.10714286       0.33333333 </v>
   <v>      -0.17857143       0.10714286       0.33333333 </v>
   <v>      -0.14285714       0.10714286       0.33333333 </v>
   <v>      -0.10714286       0.10714286       0.33333333 </v>
   <v>      -0.07142857       0.10714286       0.33333333 </v>
   <v>      -0.03571429       0.10714286       0.33333333 </v>
   <v>       0.00000000       0.14285714       0.33333333 </v>
   <v>       0.03571429       0.14285714       0.33333333 </v>
   <v>       0.07142857       0.14285714       0.33333333 </v>
   <v>       0.10714286       0.14285714       0.33333333 </v>
   <v>       0.14285714       0.14285714       0.33333333 </v>
   <v>       0.17857143       0.14285714       0.33333333 </v>
   <v>       0.21428571       0.14285714       0.33333333 </v>
   <v>       0.25000000       0.14285714       0.33333333 </v>
   <v>       0.28571429       0.14285714       0.33333333 </v>
   <v>       0.32142857       0.14285714       0.33333333 </v>
   <v>       0.39285714       0.14285714       0.33333333 </v>
   <v>       0.42857143       0.14285714       0.33333333 </v>
   <v>       0.46428571       0.14285714       0.33333333 </v>
   <v>      -0.46428571       0.14285714       0.33333333 </v>
   <v>      -0.42857143       0.14285714       0.33333333 </v>
   <v>      -0.39285714       0.14285714       0.33333333 </v>
   <v>      -0.35714286       0.14285714       0.33333333 </v>
   <v>      -0.32142857       0.14285714       0.33333333 </v>
   <v>      -0.28571429       0.14285714       0.33333333 </v>
   <v>      -0.25000000       0.14285714       0.33333333 </v>
   <v>      -0.21428571       0.14285714       0.33333333 </v>
   <v>      -0.17857143       0.14285714       0.33333333 </v>
   <v>      -0.14285714       0.14285714       0.33333333 </v>
   <v>      -0.10714286       0.14285714       0.33333333 </v>
   <v>      -0.07142857       0.14285714       0.33333333 </v>
   <v>      -0.03571429       0.14285714       0.33333333 </v>
   <v>       0.00000000       0.17857143       0.33333333 </v>
   <v>       0.03571429       0.17857143       0.33333333 </v>
   <v>       0.07142857       0.17857143       0.33333333 </v>
   <v>       0.10714286       0.17857143       0.33333333 </v>
   <v>       0.14285714       0.17857143       0.33333333 </v>
   <v>       0.17857143       0.17857143       0.33333333 </v>
   <v>       0.21428571       0.17857143       0.33333333 </v>
   <v>       0.25000000       0.17857143       0.33333333 </v>
   <v>       0.28571429       0.17857143       0.33333333 </v>
   <v>       0.35714286       0.17857143       0.33333333 </v>
   <v>       0.39285714       0.17857143       0.33333333 </v>
   <v>       0.42857143       0.17857143       0.33333333 </v>
   <v>       0.46428571       0.17857143       0.33333333 </v>
   <v>      -0.46428571       0.17857143       0.33333333 </v>
   <v>      -0.42857143       0.17857143       0.33333333 </v>
   <v>      -0.39285714       0.17857143       0.33333333 </v>
   <v>      -0.35714286       0.17857143       0.33333333 </v>
   <v>      -0.32142857       0.17857143       0.33333333 </v>
   <v>      -0.28571429       0.17857143       0.33333333 </v>
   <v>      -0.25000000       0.17857143       0.33333333 </v>
   <v>      -0.21428571       0.17857143       0.33333333 </v>
   <v>      -0.17857143       0.17857143       0.33333333 </v>
   <v>      -0.14285714       0.17857143       0.33333333 </v>
   <v>      -0.10714286       0.17857143       0.33333333 </v>
   <v>      -0.07142857       0.17857143       0.33333333 </v>
   <v>      -0.03571429       0.17857143       0.33333333 </v>
   <v>       0.00000000       0.21428571       0.33333333 </v>
   <v>       0.03571429       0.21428571       0.33333333 </v>
   <v>       0.07142857       0.21428571       0.33333333 </v>
   <v>       0.10714286       0.21428571       0.33333333 </v>
   <v>       0.14285714       0.21428571       0.33333333 </v>
   <v>       0.17857143       0.21428571       0.33333333 </v>
   <v>       0.21428571       0.21428571       0.33333333 </v>
   <v>       0.25000000       0.21428571       0.33333333 </v>
   <v>       0.32142857       0.21428571       0.33333333 </v>
   <v>       0.35714286       0.21428571       0.33333333 </v>
   <v>       0.39285714       0.21428571       0.33333333 </v>
   <v>       0.42857143       0.21428571       0.33333333 </v>
   <v>       0.46428571       0.21428571       0.33333333 </v>
   <v>      -0.46428571       0.21428571       0.33333333 </v>
   <v>      -0.42857143       0.21428571       0.33333333 </v>
   <v>      -0.39285714       0.21428571       0.33333333 </v>
   <v>      -0.35714286       0.21428571       0.33333333 </v>
   <v>      -0.32142857       0.21428571       0.33333333 </v>
   <v>      -0.28571429       0.21428571       0.33333333 </v>
   <v>      -0.25000000       0.21428571       0.33333333 </v>
   <v>      -0.21428571       0.21428571       0.33333333 </v>
   <v>      -0.17857143       0.21428571       0.33333333 </v>
   <v>      -0.14285714       0.21428571       0.33333333 </v>
   <v>      -0.10714286       0.21428571       0.33333333 </v>
   <v>      -0.07142857       0.21428571       0.33333333 </v>
   <v>      -0.03571429       0.21428571       0.33333333 </v>
   <v>       0.00000000       0.25000000       0.33333333 </v>
   <v>       0.03571429       0.25000000       0.33333333 </v>
   <v>       0.07142857       0.25000000       0.33333333 </v>
   <v>       0.10714286       0.25000000       0.33333333 </v>
   <v>       0.14285714       0.25000000       0.33333333 </v>
   <v>       0.17857143       0.25000000       0.33333333 </v>
   <v>       0.21428571       0.25000000       0.33333333 </v>
   <v>       0.28571429       0.25000000       0.33333333 </v>
   <v>       0.32142857       0.25000000       0.33333333 </v>
   <v>       0.35714286       0.25000000       0.33333333 </v>
   <v>       0.39285714       0.25000000       0.33333333 </v>
   <v>       0.42857143       0.25000000       0.33333333 </v>
   <v>       0.46428571       0.25000000       0.33333333 </v>
   <v>      -0.46428571       0.25000000       0.33333333 </v>
   <v>      -0.42857143       0.25000000       0.33333333 </v>
   <v>      -0.39285714       0.25000000       0.33333333 </v>
   <v>      -0.35714286       0.25000000       0.33333333 </v>
   <v>      -0.32142857       0.25000000       0.33333333 </v>
   <v>      -0.28571429       0.25000000       0.33333333 </v>
   <v>      -0.25000000       0.25000000       0.33333333 </v>
   <v>      -0.21428571       0.25000000       0.33333333 </v>
   <v>      -0.17857143       0.25000000       0.33333333 </v>
   <v>      -0.14285714       0.25000000       0.33333333 </v>
   <v>      -0.10714286       0.25000000       0.33333333 </v>
   <v>      -0.07142857       0.25000000       0.33333333 </v>
   <v>      -0.03571429       0.25000000       0.33333333 </v>
   <v>       0.00000000       0.28571429       0.33333333 </v>
   <v>       0.03571429       0.28571429       0.33333333 </v>
   <v>       0.07142857       0.28571429       0.33333333 </v>
   <v>       0.10714286       0.28571429       0.33333333 </v>
   <v>       0.14285714       0.28571429       0.33333333 </v>
   <v>       0.17857143       0.28571429       0.33333333 </v>
   <v>       0.25000000       0.28571429       0.33333333 </v>
   <v>       0.28571429       0.28571429       0.33333333 </v>
   <v>       0.32142857       0.28571429       0.33333333 </v>
   <v>       0.35714286       0.28571429       0.33333333 </v>
   <v>       0.39285714       0.28571429       0.33333333 </v>
   <v>       0.42857143       0.28571429       0.33333333 </v>
   <v>       0.46428571       0.28571429       0.33333333 </v>
   <v>      -0.46428571       0.28571429       0.33333333 </v>
   <v>      -0.42857143       0.28571429       0.33333333 </v>
   <v>      -0.39285714       0.28571429       0.33333333 </v>
   <v>      -0.35714286       0.28571429       0.33333333 </v>
   <v>      -0.32142857       0.28571429       0.33333333 </v>
   <v>      -0.28571429       0.28571429       0.33333333 </v>
   <v>      -0.25000000       0.28571429       0.33333333 </v>
   <v>      -0.21428571       0.28571429       0.33333333 </v>
   <v>      -0.17857143       0.28571429       0.33333333 </v>
   <v>      -0.14285714       0.28571429       0.33333333 </v>
   <v>      -0.10714286       0.28571429       0.33333333 </v>
   <v>      -0.07142857       0.28571429       0.33333333 </v>
   <v>      -0.03571429       0.28571429       0.33333333 </v>
   <v>       0.00000000       0.32142857       0.33333333 </v>
   <v>       0.03571429       0.32142857       0.33333333 </v>
   <v>       0.07142857       0.32142857       0.33333333 </v>
   <v>       0.10714286       0.32142857       0.33333333 </v>
   <v>       0.14285714       0.32142857       0.33333333 </v>
   <v>       0.21428571       0.32142857       0.33333333 </v>
   <v>       0.25000000       0.32142857       0.33333333 </v>
   <v>       0.28571429       0.32142857       0.33333333 </v>
   <v>       0.32142857       0.32142857       0.33333333 </v>
   <v>       0.35714286       0.32142857       0.33333333 </v>
   <v>       0.39285714       0.32142857       0.33333333 </v>
   <v>       0.42857143       0.32142857       0.33333333 </v>
   <v>       0.46428571       0.32142857       0.33333333 </v>
   <v>      -0.46428571       0.32142857       0.33333333 </v>
   <v>      -0.42857143       0.32142857       0.33333333 </v>
   <v>      -0.39285714       0.32142857       0.33333333 </v>
   <v>      -0.35714286       0.32142857       0.33333333 </v>
   <v>      -0.32142857       0.32142857       0.33333333 </v>
   <v>      -0.28571429       0.32142857       0.33333333 </v>
   <v>      -0.25000000       0.32142857       0.33333333 </v>
   <v>      -0.21428571       0.32142857       0.33333333 </v>
   <v>      -0.17857143       0.32142857       0.33333333 </v>
   <v>      -0.14285714       0.32142857       0.33333333 </v>
   <v>      -0.10714286       0.32142857       0.33333333 </v>
   <v>      -0.07142857       0.32142857       0.33333333 </v>
   <v>      -0.03571429       0.32142857       0.33333333 </v>
   <v>       0.00000000       0.35714286       0.33333333 </v>
   <v>       0.03571429       0.35714286       0.33333333 </v>
   <v>       0.07142857       0.35714286       0.33333333 </v>
   <v>       0.10714286       0.35714286       0.33333333 </v>
   <v>       0.17857143       0.35714286       0.33333333 </v>
   <v>       0.21428571       0.35714286       0.33333333 </v>
   <v>       0.25000000       0.35714286       0.33333333 </v>
   <v>       0.28571429       0.35714286       0.33333333 </v>
   <v>       0.32142857       0.35714286       0.33333333 </v>
   <v>       0.35714286       0.35714286       0.33333333 </v>
   <v>       0.39285714       0.35714286       0.33333333 </v>
   <v>       0.42857143       0.35714286       0.33333333 </v>
   <v>       0.46428571       0.35714286       0.33333333 </v>
   <v>      -0.46428571       0.35714286       0.33333333 </v>
   <v>      -0.42857143       0.35714286       0.33333333 </v>
   <v>      -0.39285714       0.35714286       0.33333333 </v>
   <v>      -0.35714286       0.35714286       0.33333333 </v>
   <v>      -0.32142857       0.35714286       0.33333333 </v>
   <v>      -0.28571429       0.35714286       0.33333333 </v>
   <v>      -0.25000000       0.35714286       0.33333333 </v>
   <v>      -0.21428571       0.35714286       0.33333333 </v>
   <v>      -0.17857143       0.35714286       0.33333333 </v>
   <v>      -0.14285714       0.35714286       0.33333333 </v>
   <v>      -0.10714286       0.35714286       0.33333333 </v>
   <v>      -0.07142857       0.35714286       0.33333333 </v>
   <v>      -0.03571429       0.35714286       0.33333333 </v>
   <v>       0.00000000       0.39285714       0.33333333 </v>
   <v>       0.03571429       0.39285714       0.33333333 </v>
   <v>       0.07142857       0.39285714       0.33333333 </v>
   <v>       0.14285714       0.39285714       0.33333333 </v>
   <v>       0.17857143       0.39285714       0.33333333 </v>
   <v>       0.21428571       0.39285714       0.33333333 </v>
   <v>       0.25000000       0.39285714       0.33333333 </v>
   <v>       0.28571429       0.39285714       0.33333333 </v>
   <v>       0.32142857       0.39285714       0.33333333 </v>
   <v>       0.35714286       0.39285714       0.33333333 </v>
   <v>       0.39285714       0.39285714       0.33333333 </v>
   <v>       0.42857143       0.39285714       0.33333333 </v>
   <v>       0.46428571       0.39285714       0.33333333 </v>
   <v>      -0.46428571       0.39285714       0.33333333 </v>
   <v>      -0.42857143       0.39285714       0.33333333 </v>
   <v>      -0.39285714       0.39285714       0.33333333 </v>
   <v>      -0.35714286       0.39285714       0.33333333 </v>
   <v>      -0.32142857       0.39285714       0.33333333 </v>
   <v>      -0.28571429       0.39285714       0.33333333 </v>
   <v>      -0.25000000       0.39285714       0.33333333 </v>
   <v>      -0.21428571       0.39285714       0.33333333 </v>
   <v>      -0.17857143       0.39285714       0.33333333 </v>
   <v>      -0.14285714       0.39285714       0.33333333 </v>
   <v>      -0.10714286       0.39285714       0.33333333 </v>
   <v>      -0.07142857       0.39285714       0.33333333 </v>
   <v>      -0.03571429       0.39285714       0.33333333 </v>
   <v>       0.00000000       0.42857143       0.33333333 </v>
   <v>       0.03571429       0.42857143       0.33333333 </v>
   <v>       0.10714286       0.42857143       0.33333333 </v>
   <v>       0.14285714       0.42857143       0.33333333 </v>
   <v>       0.17857143       0.42857143       0.33333333 </v>
   <v>       0.21428571       0.42857143       0.33333333 </v>
   <v>       0.25000000       0.42857143       0.33333333 </v>
   <v>       0.28571429       0.42857143       0.33333333 </v>
   <v>       0.32142857       0.42857143       0.33333333 </v>
   <v>       0.35714286       0.42857143       0.33333333 </v>
   <v>       0.39285714       0.42857143       0.33333333 </v>
   <v>       0.42857143       0.42857143       0.33333333 </v>
   <v>       0.46428571       0.42857143       0.33333333 </v>
   <v>      -0.46428571       0.42857143       0.33333333 </v>
   <v>      -0.42857143       0.42857143       0.33333333 </v>
   <v>      -0.39285714       0.42857143       0.33333333 </v>
   <v>      -0.35714286       0.42857143       0.33333333 </v>
   <v>      -0.32142857       0.42857143       0.33333333 </v>
   <v>      -0.28571429       0.42857143       0.33333333 </v>
   <v>      -0.25000000       0.42857143       0.33333333 </v>
   <v>      -0.21428571       0.42857143       0.33333333 </v>
   <v>      -0.17857143       0.42857143       0.33333333 </v>
   <v>      -0.14285714       0.42857143       0.33333333 </v>
   <v>      -0.10714286       0.42857143       0.33333333 </v>
   <v>      -0.07142857       0.42857143       0.33333333 </v>
   <v>      -0.03571429       0.42857143       0.33333333 </v>
   <v>       0.00000000       0.46428571       0.33333333 </v>
   <v>       0.07142857       0.46428571       0.33333333 </v>
   <v>       0.10714286       0.46428571       0.33333333 </v>
   <v>       0.14285714       0.46428571       0.33333333 </v>
   <v>       0.17857143       0.46428571       0.33333333 </v>
   <v>       0.21428571       0.46428571       0.33333333 </v>
   <v>       0.25000000       0.46428571       0.33333333 </v>
   <v>       0.28571429       0.46428571       0.33333333 </v>
   <v>       0.32142857       0.46428571       0.33333333 </v>
   <v>       0.35714286       0.46428571       0.33333333 </v>
   <v>       0.39285714       0.46428571       0.33333333 </v>
   <v>       0.42857143       0.46428571       0.33333333 </v>
   <v>       0.46428571       0.46428571       0.33333333 </v>
   <v>      -0.46428571       0.46428571       0.33333333 </v>
   <v>      -0.42857143       0.46428571       0.33333333 </v>
   <v>      -0.39285714       0.46428571       0.33333333 </v>
   <v>      -0.35714286       0.46428571       0.33333333 </v>
   <v>      -0.32142857       0.46428571       0.33333333 </v>
   <v>      -0.28571429       0.46428571       0.33333333 </v>
   <v>      -0.25000000       0.46428571       0.33333333 </v>
   <v>      -0.21428571       0.46428571       0.33333333 </v>
   <v>      -0.17857143       0.46428571       0.33333333 </v>
   <v>      -0.14285714       0.46428571       0.33333333 </v>
   <v>      -0.10714286       0.46428571       0.33333333 </v>
   <v>      -0.07142857       0.46428571       0.33333333 </v>
   <v>      -0.03571429       0.46428571       0.33333333 </v>
   <v>       0.03571429       0.50000000       0.33333333 </v>
   <v>       0.07142857       0.50000000       0.33333333 </v>
   <v>       0.10714286       0.50000000       0.33333333 </v>
   <v>       0.14285714       0.50000000       0.33333333 </v>
   <v>       0.17857143       0.50000000       0.33333333 </v>
   <v>       0.21428571       0.50000000       0.33333333 </v>
   <v>       0.25000000       0.50000000       0.33333333 </v>
   <v>       0.28571429       0.50000000       0.33333333 </v>
   <v>       0.32142857       0.50000000       0.33333333 </v>
   <v>       0.35714286       0.50000000       0.33333333 </v>
   <v>       0.39285714       0.50000000       0.33333333 </v>
   <v>       0.42857143       0.50000000       0.33333333 </v>
   <v>       0.46428571       0.50000000       0.33333333 </v>
   <v>       0.00000000       0.00000000       0.50000000 </v>
   <v>       0.03571429       0.00000000       0.50000000 </v>
   <v>       0.07142857       0.00000000       0.50000000 </v>
   <v>       0.10714286       0.00000000       0.50000000 </v>
   <v>       0.14285714       0.00000000       0.50000000 </v>
   <v>       0.17857143       0.00000000       0.50000000 </v>
   <v>       0.21428571       0.00000000       0.50000000 </v>
   <v>       0.25000000       0.00000000       0.50000000 </v>
   <v>       0.28571429       0.00000000       0.50000000 </v>
   <v>       0.32142857       0.00000000       0.50000000 </v>
   <v>       0.35714286       0.00000000       0.50000000 </v>
   <v>       0.39285714       0.00000000       0.50000000 </v>
   <v>       0.42857143       0.00000000       0.50000000 </v>
   <v>       0.46428571       0.00000000       0.50000000 </v>
   <v>       0.00000000       0.03571429       0.50000000 </v>
   <v>       0.03571429       0.03571429       0.50000000 </v>
   <v>       0.07142857       0.03571429       0.50000000 </v>
   <v>       0.10714286       0.03571429       0.50000000 </v>
   <v>       0.14285714       0.03571429       0.50000000 </v>
   <v>       0.17857143       0.03571429       0.50000000 </v>
   <v>       0.21428571       0.03571429       0.50000000 </v>
   <v>       0.25000000       0.03571429       0.50000000 </v>
   <v>       0.28571429       0.03571429       0.50000000 </v>
   <v>       0.32142857       0.03571429       0.50000000 </v>
   <v>       0.35714286       0.03571429       0.50000000 </v>
   <v>       0.39285714       0.03571429       0.50000000 </v>
   <v>       0.42857143       0.03571429       0.50000000 </v>
   <v>       0.00000000       0.07142857       0.50000000 </v>
   <v>       0.03571429       0.07142857       0.50000000 </v>
   <v>       0.07142857       0.07142857       0.50000000 </v>
   <v>       0.10714286       0.07142857       0.50000000 </v>
   <v>       0.14285714       0.07142857       0.50000000 </v>
   <v>       0.17857143       0.07142857       0.50000000 </v>
   <v>       0.21428571       0.07142857       0.50000000 </v>
   <v>       0.25000000       0.07142857       0.50000000 </v>
   <v>       0.28571429       0.07142857       0.50000000 </v>
   <v>       0.32142857       0.07142857       0.50000000 </v>
   <v>       0.35714286       0.07142857       0.50000000 </v>
   <v>       0.39285714       0.07142857       0.50000000 </v>
   <v>       0.46428571       0.07142857       0.50000000 </v>
   <v>      -0.03571429       0.07142857       0.50000000 </v>
   <v>       0.00000000       0.10714286       0.50000000 </v>
   <v>       0.03571429       0.10714286       0.50000000 </v>
   <v>       0.07142857       0.10714286       0.50000000 </v>
   <v>       0.10714286       0.10714286       0.50000000 </v>
   <v>       0.14285714       0.10714286       0.50000000 </v>
   <v>       0.17857143       0.10714286       0.50000000 </v>
   <v>       0.21428571       0.10714286       0.50000000 </v>
   <v>       0.25000000       0.10714286       0.50000000 </v>
   <v>       0.28571429       0.10714286       0.50000000 </v>
   <v>       0.32142857       0.10714286       0.50000000 </v>
   <v>       0.35714286       0.10714286       0.50000000 </v>
   <v>       0.42857143       0.10714286       0.50000000 </v>
   <v>      -0.07142857       0.10714286       0.50000000 </v>
   <v>       0.00000000       0.14285714       0.50000000 </v>
   <v>       0.03571429       0.14285714       0.50000000 </v>
   <v>       0.07142857       0.14285714       0.50000000 </v>
   <v>       0.10714286       0.14285714       0.50000000 </v>
   <v>       0.14285714       0.14285714       0.50000000 </v>
   <v>       0.17857143       0.14285714       0.50000000 </v>
   <v>       0.21428571       0.14285714       0.50000000 </v>
   <v>       0.25000000       0.14285714       0.50000000 </v>
   <v>       0.28571429       0.14285714       0.50000000 </v>
   <v>       0.32142857       0.14285714       0.50000000 </v>
   <v>       0.39285714       0.14285714       0.50000000 </v>
   <v>       0.42857143       0.14285714       0.50000000 </v>
   <v>      -0.10714286       0.14285714       0.50000000 </v>
   <v>      -0.07142857       0.14285714       0.50000000 </v>
   <v>       0.00000000       0.17857143       0.50000000 </v>
   <v>       0.03571429       0.17857143       0.50000000 </v>
   <v>       0.07142857       0.17857143       0.50000000 </v>
   <v>       0.10714286       0.17857143       0.50000000 </v>
   <v>       0.14285714       0.17857143       0.50000000 </v>
   <v>       0.17857143       0.17857143       0.50000000 </v>
   <v>       0.21428571       0.17857143       0.50000000 </v>
   <v>       0.25000000       0.17857143       0.50000000 </v>
   <v>       0.28571429       0.17857143       0.50000000 </v>
   <v>       0.35714286       0.17857143       0.50000000 </v>
   <v>       0.39285714       0.17857143       0.50000000 </v>
   <v>      -0.14285714       0.17857143       0.50000000 </v>
   <v>      -0.10714286       0.17857143       0.50000000 </v>
   <v>       0.00000000       0.21428571       0.50000000 </v>
   <v>       0.03571429       0.21428571       0.50000000 </v>
   <v>       0.07142857       0.21428571       0.50000000 </v>
   <v>       0.10714286       0.21428571       0.50000000 </v>
   <v>       0.14285714       0.21428571       0.50000000 </v>
   <v>       0.17857143       0.21428571       0.50000000 </v>
   <v>       0.21428571       0.21428571       0.50000000 </v>
   <v>       0.25000000       0.21428571       0.50000000 </v>
   <v>       0.32142857       0.21428571       0.50000000 </v>
   <v>       0.35714286       0.21428571       0.50000000 </v>
   <v>       0.39285714       0.21428571       0.50000000 </v>
   <v>      -0.17857143       0.21428571       0.50000000 </v>
   <v>      -0.14285714       0.21428571       0.50000000 </v>
   <v>      -0.10714286       0.21428571       0.50000000 </v>
   <v>       0.00000000       0.25000000       0.50000000 </v>
   <v>       0.03571429       0.25000000       0.50000000 </v>
   <v>       0.07142857       0.25000000       0.50000000 </v>
   <v>       0.10714286       0.25000000       0.50000000 </v>
   <v>       0.14285714       0.25000000       0.50000000 </v>
   <v>       0.17857143       0.25000000       0.50000000 </v>
   <v>       0.21428571       0.25000000       0.50000000 </v>
   <v>       0.28571429       0.25000000       0.50000000 </v>
   <v>       0.32142857       0.25000000       0.50000000 </v>
   <v>       0.35714286       0.25000000       0.50000000 </v>
   <v>      -0.21428571       0.25000000       0.50000000 </v>
   <v>      -0.17857143       0.25000000       0.50000000 </v>
   <v>      -0.14285714       0.25000000       0.50000000 </v>
   <v>       0.00000000       0.28571429       0.50000000 </v>
   <v>       0.03571429       0.28571429       0.50000000 </v>
   <v>       0.07142857       0.28571429       0.50000000 </v>
   <v>       0.10714286       0.28571429       0.50000000 </v>
   <v>       0.14285714       0.28571429       0.50000000 </v>
   <v>       0.17857143       0.28571429       0.50000000 </v>
   <v>       0.25000000       0.28571429       0.50000000 </v>
   <v>       0.28571429       0.28571429       0.50000000 </v>
   <v>       0.32142857       0.28571429       0.50000000 </v>
   <v>       0.35714286       0.28571429       0.50000000 </v>
   <v>      -0.25000000       0.28571429       0.50000000 </v>
   <v>      -0.21428571       0.28571429       0.50000000 </v>
   <v>      -0.17857143       0.28571429       0.50000000 </v>
   <v>      -0.14285714       0.28571429       0.50000000 </v>
   <v>       0.00000000       0.32142857       0.50000000 </v>
   <v>       0.03571429       0.32142857       0.50000000 </v>
   <v>       0.07142857       0.32142857       0.50000000 </v>
   <v>       0.10714286       0.32142857       0.50000000 </v>
   <v>       0.14285714       0.32142857       0.50000000 </v>
   <v>       0.21428571       0.32142857       0.50000000 </v>
   <v>       0.25000000       0.32142857       0.50000000 </v>
   <v>       0.28571429       0.32142857       0.50000000 </v>
   <v>       0.32142857       0.32142857       0.50000000 </v>
   <v>      -0.28571429       0.32142857       0.50000000 </v>
   <v>      -0.25000000       0.32142857       0.50000000 </v>
   <v>      -0.21428571       0.32142857       0.50000000 </v>
   <v>      -0.17857143       0.32142857       0.50000000 </v>
   <v>       0.00000000       0.35714286       0.50000000 </v>
   <v>       0.03571429       0.35714286       0.50000000 </v>
   <v>       0.07142857       0.35714286       0.50000000 </v>
   <v>       0.10714286       0.35714286       0.50000000 </v>
   <v>       0.17857143       0.35714286       0.50000000 </v>
   <v>       0.21428571       0.35714286       0.50000000 </v>
   <v>       0.25000000       0.35714286       0.50000000 </v>
   <v>       0.28571429       0.35714286       0.50000000 </v>
   <v>       0.32142857       0.35714286       0.50000000 </v>
   <v>      -0.32142857       0.35714286       0.50000000 </v>
   <v>      -0.28571429       0.35714286       0.50000000 </v>
   <v>      -0.25000000       0.35714286       0.50000000 </v>
   <v>      -0.21428571       0.35714286       0.50000000 </v>
   <v>      -0.17857143       0.35714286       0.50000000 </v>
   <v>       0.00000000       0.39285714       0.50000000 </v>
   <v>       0.03571429       0.39285714       0.50000000 </v>
   <v>       0.07142857       0.39285714       0.50000000 </v>
   <v>       0.14285714       0.39285714       0.50000000 </v>
   <v>       0.17857143       0.39285714       0.50000000 </v>
   <v>       0.21428571       0.39285714       0.50000000 </v>
   <v>       0.25000000       0.39285714       0.50000000 </v>
   <v>       0.28571429       0.39285714       0.50000000 </v>
   <v>      -0.35714286       0.39285714       0.50000000 </v>
   <v>      -0.32142857       0.39285714       0.50000000 </v>
   <v>      -0.28571429       0.39285714       0.50000000 </v>
   <v>      -0.25000000       0.39285714       0.50000000 </v>
   <v>      -0.21428571       0.39285714       0.50000000 </v>
   <v>       0.00000000       0.42857143       0.50000000 </v>
   <v>       0.03571429       0.42857143       0.50000000 </v>
   <v>       0.10714286       0.42857143       0.50000000 </v>
   <v>       0.14285714       0.42857143       0.50000000 </v>
   <v>       0.17857143       0.42857143       0.50000000 </v>
   <v>       0.21428571       0.42857143       0.50000000 </v>
   <v>       0.25000000       0.42857143       0.50000000 </v>
   <v>       0.28571429       0.42857143       0.50000000 </v>
   <v>      -0.39285714       0.42857143       0.50000000 </v>
   <v>      -0.35714286       0.42857143       0.50000000 </v>
   <v>      -0.32142857       0.42857143       0.50000000 </v>
   <v>      -0.28571429       0.42857143       0.50000000 </v>
   <v>      -0.25000000       0.42857143       0.50000000 </v>
   <v>      -0.21428571       0.42857143       0.50000000 </v>
   <v>       0.00000000       0.46428571       0.50000000 </v>
   <v>       0.07142857       0.46428571       0.50000000 </v>
   <v>       0.10714286       0.46428571       0.50000000 </v>
   <v>       0.14285714       0.46428571       0.50000000 </v>
   <v>       0.17857143       0.46428571       0.50000000 </v>
   <v>       0.21428571       0.46428571       0.50000000 </v>
   <v>       0.25000000       0.46428571       0.50000000 </v>
   <v>      -0.42857143       0.46428571       0.50000000 </v>
   <v>      -0.39285714       0.46428571       0.50000000 </v>
   <v>      -0.35714286       0.46428571       0.50000000 </v>
   <v>      -0.32142857       0.46428571       0.50000000 </v>
   <v>      -0.28571429       0.46428571       0.50000000 </v>
   <v>      -0.25000000       0.46428571       0.50000000 </v>
   <v>       0.03571429       0.50000000       0.50000000 </v>
   <v>       0.07142857       0.50000000       0.50000000 </v>
   <v>       0.10714286       0.50000000       0.50000000 </v>
   <v>       0.14285714       0.50000000       0.50000000 </v>
   <v>       0.17857143       0.50000000       0.50000000 </v>
   <v>       0.21428571       0.50000000       0.50000000 </v>
   <v>       0.25000000       0.50000000       0.50000000 </v>
  </varray>
  <varray name="weights" >
   <v>       0.00021259 </v>
   <v>       0.00042517 </v>
   <v>       0.00042517 </v>
   <v>       0.00042517 </v>
   <v>       0.00042517 </v>
   <v>       0.00042517 </v>
   <v>       0.00042517 </v>
   <v>       0.00042517 </v>
   <v>       0.00042517 </v>
   <v>       0.00042517 </v>
   <v>       0.00042517 </v>
   <v>       0.00042517 </v>
   <v>       0.00042517 </v>
   <v>       0.00042517 </v>
   <v>       0.00063776 </v>
   <v>       0.00085034 </v>
   <v>       0.00085034 </v>
   <v>       0.00085034 </v>
   <v>       0.00085034 </v>
   <v>       0.00085034 </v>
   <v>       0.00085034 </v>
   <v>       0.00085034 </v>
   <v>       0.00085034 </v>
   <v>       0.00085034 </v>
   <v>       0.00085034 </v>
   <v>       0.00085034 </v>
   <v>       0.00085034 </v>
   <v>       0.00085034 </v>
   <v>       0.00170068 </v>
   <v>       0.00085034 </v>
   <v>       0.00085034 </v>
   <v>       0.00085034 </v>
   <v>       0.00085034 </v>
   <v>       0.00085034 </v>
   <v>       0.00085034 </v>
   <v>       0.00085034 </v>
   <v>       0.00085034 </v>
   <v>       0.00085034 </v>
   <v>       0.00085034 </v>
   <v>       0.00085034 </v>
   <v>       0.00085034 </v>
   <v>       0.00170068 </v>
   <v>       0.00042517 </v>
   <v>       0.00042517 </v>
   <v>       0.00085034 </v>
   <v>       0.00085034 </v>
   <v>       0.00085034 </v>
   <v>       0.00085034 </v>
   <v>       0.00085034 </v>
   <v>       0.00085034 </v>
   <v>       0.00085034 </v>
   <v>       0.00085034 </v>
   <v>       0.00085034 </v>
   <v>       0.00085034 </v>
   <v>       0.00085034 </v>
   <v>       0.00170068 </v>
   <v>       0.00085034 </v>
   <v>       0.00085034 </v>
   <v>       0.00085034 </v>
   <v>       0.00085034 </v>
   <v>       0.00085034 </v>
   <v>       0.00085034 </v>
   <v>       0.00085034 </v>
   <v>       0.00085034 </v>
   <v>       0.00085034 </v>
   <v>       0.00085034 </v>
   <v>       0.00085034 </v>
   <v>       0.00085034 </v>
   <v>       0.00170068 </v>
   <v>       0.00085034 </v>
   <v>       0.00042517 </v>
   <v>       0.00085034 </v>
   <v>       0.00042517 </v>
   <v>       0.00085034 </v>
   <v>       0.00085034 </v>
   <v>       0.00085034 </v>
   <v>       0.00085034 </v>
   <v>       0.00085034 </v>
   <v>       0.00085034 </v>
   <v>       0.00085034 </v>
   <v>       0.00085034 </v>
   <v>       0.00085034 </v>
   <v>       0.00170068 </v>
   <v>       0.00085034 </v>
   <v>       0.00085034 </v>
   <v>       0.00085034 </v>
   <v>       0.00085034 </v>
   <v>       0.00085034 </v>
   <v>       0.00085034 </v>
   <v>       0.00085034 </v>
   <v>       0.00085034 </v>
   <v>       0.00085034 </v>
   <v>       0.00085034 </v>
   <v>       0.00085034 </v>
   <v>       0.00085034 </v>
   <v>       0.00170068 </v>
   <v>       0.00085034 </v>
   <v>       0.00085034 </v>
   <v>       0.00042517 </v>
   <v>       0.00085034 </v>
   <v>       0.00085034 </v>
   <v>       0.00042517 </v>
   <v>       0.00085034 </v>
   <v>       0.00085034 </v>
   <v>       0.00085034 </v>
   <v>       0.00085034 </v>
   <v>       0.00085034 </v>
   <v>       0.00085034 </v>
   <v>       0.00085034 </v>
   <v>       0.00170068 </v>
[...]
       <r>    3.0614    1.0000 </r>
       <r>    3.3239    1.0000 </r>
       <r>    3.5539    1.0000 </r>
       <r>    3.6665    1.0000 </r>
       <r>    3.8912    1.0000 </r>
       <r>    4.1287    1.0000 </r>
       <r>    4.1829    1.0000 </r>
       <r>    4.3626    1.0000 </r>
       <r>    4.5081    1.0000 </r>
       <r>    4.7682    1.0000 </r>
       <r>    4.9351    1.0000 </r>
       <r>    5.1485    1.0000 </r>
       <r>    5.3116    1.0000 </r>
       <r>    5.4421    1.0000 </r>
       <r>    5.5571    1.0000 </r>
       <r>    5.7814    1.0000 </r>
       <r>    6.0888    1.0000 </r>
       <r>    6.4368    1.0000 </r>
       <r>    7.9904    1.0339 </r>
       <r>    8.1897    0.8516 </r>
       <r>    9.9642    0.0000 </r>
       <r>   10.0584    0.0000 </r>
       <r>   12.1854    0.0000 </r>
       <r>   12.7045    0.0000 </r>
       <r>   13.7488    0.0000 </r>
       <r>   14.2513    0.0000 </r>
       <r>   14.9671    0.0000 </r>
       <r>   15.5690    0.0000 </r>
       <r>   16.8131    0.0000 </r>
      </set>
      <set comment="kpoint 1190">
       <r>    2.3978    1.0000 </r>
       <r>    2.4286    1.0000 </r>
       <r>    2.6098    1.0000 </r>
       <r>    2.7821    1.0000 </r>
       <r>    2.8344    1.0000 </r>
       <r>    2.9169    1.0000 </r>
       <r>    3.2375    1.0000 </r>
       <r>    3.2423    1.0000 </r>
       <r>    3.2797    1.0000 </r>
       <r>    3.4789    1.0000 </r>
       <r>    3.5822    1.0000 </r>
       <r>    3.6825    1.0000 </r>
       <r>    3.9410    1.0000 </r>
       <r>    4.0745    1.0000 </r>
       <r>    4.3784    1.0000 </r>
       <r>    4.4665    1.0000 </r>
       <r>    4.6412    1.0000 </r>
       <r>    4.8228    1.0000 </r>
       <r>    4.9920    1.0000 </r>
       <r>    5.2245    1.0000 </r>
       <r>    5.2996    1.0000 </r>
       <r>    5.4805    1.0000 </r>
       <r>    5.7886    1.0000 </r>
       <r>    6.0859    1.0000 </r>
       <r>    6.4573    1.0000 </r>
       <r>    8.0168    1.0291 </r>
       <r>    8.1452    0.9269 </r>
       <r>    9.9954    0.0000 </r>
       <r>   10.0844    0.0000 </r>
       <r>   12.7238    0.0000 </r>
       <r>   13.2954    0.0000 </r>
       <r>   13.8969    0.0000 </r>
       <r>   14.6094    0.0000 </r>
       <r>   14.7912    0.0000 </r>
       <r>   15.0843    0.0000 </r>
       <r>   16.4187    0.0000 </r>
      </set>
      <set comment="kpoint 1191">
       <r>    2.4679    1.0000 </r>
       <r>    2.4803    1.0000 </r>
       <r>    2.6391    1.0000 </r>
       <r>    2.8012    1.0000 </r>
       <r>    2.8400    1.0000 </r>
       <r>    3.0590    1.0000 </r>
       <r>    3.0703    1.0000 </r>
       <r>    3.4426    1.0000 </r>
       <r>    3.4562    1.0000 </r>
       <r>    3.4724    1.0000 </r>
       <r>    3.5386    1.0000 </r>
       <r>    3.5527    1.0000 </r>
       <r>    3.6666    1.0000 </r>
       <r>    4.1904    1.0000 </r>
       <r>    4.1912    1.0000 </r>
       <r>    4.5458    1.0000 </r>
       <r>    4.6040    1.0000 </r>
       <r>    4.7607    1.0000 </r>
       <r>    5.0160    1.0000 </r>
       <r>    5.0775    1.0000 </r>
       <r>    5.2844    1.0000 </r>
       <r>    5.4643    1.0000 </r>
       <r>    5.7925    1.0000 </r>
       <r>    6.0852    1.0000 </r>
       <r>    6.4653    1.0000 </r>
       <r>    8.0286    1.0256 </r>
       <r>    8.1294    0.9483 </r>
       <r>   10.0066    0.0000 </r>
       <r>   10.0884    0.0000 </r>
       <r>   13.0420    0.0000 </r>
       <r>   13.4502    0.0000 </r>
       <r>   14.3144    0.0000 </r>
       <r>   14.3661    0.0000 </r>
       <r>   14.4223    0.0000 </r>
       <r>   15.3462    0.0000 </r>
       <r>   15.9973    0.0000 </r>
      </set>
     </set>
    </set>
   </array>
  </eigenvalues>
  <separator name="orbital magnetization" >
   <v name="MAGDIPOLOUT">      0.00000000      0.00000000      0.00000000</v>
  </separator>
  <dos>
   <i name="efermi">      8.32987112 </i>
   <total>
    <array>
     <dimension dim="1">gridpoints</dimension>
     <dimension dim="2">spin</dimension>
     <field>energy</field>
     <field>total</field>
     <field>integrated</field>
     <set>
      <set comment="spin 1">
       <r>    -3.6066     0.0000     0.0000 </r>
       <r>    -3.5042     0.0000     0.0000 </r>
       <r>    -3.4019     0.0000     0.0000 </r>
       <r>    -3.2996     0.0000     0.0000 </r>
       <r>    -3.1973     0.0000     0.0000 </r>
       <r>    -3.0950     0.0000     0.0000 </r>
       <r>    -2.9926     0.0000     0.0000 </r>
       <r>    -2.8903     0.0000     0.0000 </r>
       <r>    -2.7880     0.0000     0.0000 </r>
       <r>    -2.6857     0.0000     0.0000 </r>
       <r>    -2.5834     0.0000     0.0000 </r>
       <r>    -2.4811     0.0000     0.0000 </r>
       <r>    -2.3787     0.0000     0.0000 </r>
       <r>    -2.2764     0.0000     0.0000 </r>
       <r>    -2.1741     0.0000     0.0000 </r>
       <r>    -2.0718     0.0000     0.0000 </r>
       <r>    -1.9695     0.0000     0.0000 </r>
       <r>    -1.8671     0.0000     0.0000 </r>
       <r>    -1.7648     0.0000     0.0000 </r>
       <r>    -1.6625     0.0000     0.0000 </r>
       <r>    -1.5602     0.0000     0.0000 </r>
       <r>    -1.4579     0.0000     0.0000 </r>
       <r>    -1.3556    -0.0001     0.0000 </r>
       <r>    -1.2532    -0.0004    -0.0001 </r>
       <r>    -1.1509    -0.0016    -0.0002 </r>
       <r>    -1.0486    -0.0042    -0.0006 </r>
       <r>    -0.9463    -0.0076    -0.0014 </r>
       <r>    -0.8440    -0.0067    -0.0021 </r>
       <r>    -0.7416     0.0094    -0.0011 </r>
       <r>    -0.6393     0.0508     0.0041 </r>
       <r>    -0.5370     0.1148     0.0158 </r>
       <r>    -0.4347     0.1824     0.0345 </r>
       <r>    -0.3324     0.2319     0.0582 </r>
       <r>    -0.2301     0.2556     0.0843 </r>
       <r>    -0.1277     0.2606     0.1110 </r>
       <r>    -0.0254     0.2598     0.1376 </r>
       <r>     0.0769     0.2646     0.1647 </r>
       <r>     0.1792     0.2857     0.1939 </r>
       <r>     0.2815     0.3302     0.2277 </r>
       <r>     0.3839     0.3953     0.2681 </r>
       <r>     0.4862     0.4663     0.3159 </r>
       <r>     0.5885     0.5267     0.3697 </r>
       <r>     0.6908     0.5680     0.4279 </r>
       <r>     0.7931     0.5914     0.4884 </r>
       <r>     0.8954     0.6076     0.5505 </r>
       <r>     0.9978     0.6332     0.6153 </r>
       <r>     1.1001     0.6789     0.6848 </r>
       <r>     1.2024     0.7482     0.7613 </r>
       <r>     1.3047     0.8442     0.8477 </r>
       <r>     1.4070     0.9815     0.9481 </r>
       <r>     1.5094     1.2058     1.0715 </r>
       <r>     1.6117     1.5850     1.2337 </r>
       <r>     1.7140     2.1496     1.4536 </r>
       <r>     1.8163     2.8629     1.7466 </r>
       <r>     1.9186     3.6777     2.1228 </r>
       <r>     2.0209     4.6022     2.5937 </r>
       <r>     2.1233     5.7013     3.1771 </r>
       <r>     2.2256     7.0436     3.8978 </r>
       <r>     2.3279     8.6104     4.7788 </r>
       <r>     2.4302    10.2082     5.8233 </r>
       <r>     2.5325    11.4867     6.9986 </r>
       <r>     2.6348    12.1130     8.2379 </r>
       <r>     2.7372    11.9692     9.4626 </r>
       <r>     2.8395    11.2165    10.6103 </r>
       <r>     2.9418    10.2474    11.6587 </r>
       <r>     3.0441     9.5705    12.6380 </r>
       <r>     3.1464     9.5623    13.6164 </r>
       <r>     3.2488    10.1884    14.6588 </r>
       <r>     3.3511    11.0316    15.7876 </r>
       <r>     3.4534    11.6893    16.9836 </r>
       <r>     3.5557    12.1383    18.2256 </r>
       <r>     3.6580    12.7098    19.5260 </r>
       <r>     3.7603    13.7264    20.9305 </r>
       <r>     3.8627    15.1170    22.4772 </r>
       <r>     3.9650    16.3225    24.1473 </r>
       <r>     4.0673    16.6456    25.8504 </r>
       <r>     4.1696    15.8278    27.4699 </r>
       <r>     4.2719    14.3158    28.9347 </r>
       <r>     4.3743    12.9204    30.2567 </r>
       <r>     4.4766    12.2149    31.5065 </r>
       <r>     4.5789    12.2188    32.7567 </r>
       <r>     4.6812    12.5196    34.0377 </r>
       <r>     4.7835    12.6390    35.3309 </r>
       <r>     4.8858    12.3756    36.5971 </r>
       <r>     4.9882    11.8979    37.8145 </r>
       <r>     5.0905    11.5497    38.9962 </r>
       <r>     5.1928    11.5356    40.1765 </r>
       <r>     5.2951    11.7158    41.3753 </r>
       <r>     5.3974    11.7004    42.5724 </r>
       <r>     5.4998    11.1964    43.7180 </r>
       <r>     5.6021    10.2715    44.7690 </r>
       <r>     5.7044     9.3211    45.7227 </r>
       <r>     5.8067     8.8292    46.6261 </r>
       <r>     5.9090     9.0288    47.5499 </r>
       <r>     6.0113     9.6167    48.5338 </r>
       <r>     6.1137     9.8793    49.5447 </r>
       <r>     6.2160     9.2820    50.4944 </r>
       <r>     6.3183     7.8793    51.3006 </r>
       <r>     6.4206     6.0928    51.9240 </r>
       <r>     6.5229     4.3075    52.3647 </r>
       <r>     6.6253     2.7972    52.6509 </r>
       <r>     6.7276     1.7713    52.8322 </r>
       <r>     6.8299     1.2830    52.9634 </r>
       <r>     6.9322     1.1781    53.0840 </r>
       <r>     7.0345     1.2264    53.2095 </r>
       <r>     7.1368     1.2824    53.3407 </r>
       <r>     7.2392     1.3200    53.4758 </r>
       <r>     7.3415     1.3606    53.6150 </r>
       <r>     7.4438     1.3990    53.7581 </r>
       <r>     7.5461     1.4012    53.9015 </r>
       <r>     7.6484     1.3593    54.0406 </r>
       <r>     7.7508     1.3225    54.1759 </r>
       <r>     7.8531     1.3500    54.3140 </r>
       <r>     7.9554     1.4356    54.4609 </r>
       <r>     8.0577     1.5036    54.6147 </r>
       <r>     8.1600     1.4880    54.7670 </r>
       <r>     8.2623     1.4011    54.9104 </r>
       <r>     8.3647     1.3198    55.0454 </r>
       <r>     8.4670     1.3163    55.1801 </r>
       <r>     8.5693     1.3926    55.3226 </r>
       <r>     8.6716     1.4763    55.4736 </r>
       <r>     8.7739     1.4909    55.6262 </r>
       <r>     8.8763     1.4266    55.7721 </r>
       <r>     8.9786     1.3392    55.9092 </r>
       <r>     9.0809     1.2981    56.0420 </r>
       <r>     9.1832     1.3349    56.1786 </r>
       <r>     9.2855     1.4157    56.3234 </r>
       <r>     9.3878     1.4647    56.4733 </r>
       <r>     9.4902     1.4338    56.6200 </r>
       <r>     9.5925     1.3519    56.7583 </r>
       <r>     9.6948     1.2950    56.8908 </r>
       <r>     9.7971     1.3099    57.0248 </r>
       <r>     9.8994     1.3727    57.1653 </r>
       <r>    10.0018     1.4169    57.3103 </r>
       <r>    10.1041     1.3965    57.4532 </r>
       <r>    10.2064     1.3248    57.5887 </r>
       <r>    10.3087     1.2578    57.7174 </r>
       <r>    10.4110     1.2378    57.8441 </r>
       <r>    10.5133     1.2533    57.9723 </r>
       <r>    10.6157     1.2556    58.1008 </r>
       <r>    10.7180     1.2148    58.2250 </r>
       <r>    10.8203     1.1500    58.3427 </r>
       <r>    10.9226     1.1010    58.4554 </r>
       <r>    11.0249     1.0928    58.5672 </r>
       <r>    11.1273     1.1458    58.6844 </r>
       <r>    11.2296     1.2964    58.8171 </r>
       <r>    11.3319     1.5590    58.9766 </r>
       <r>    11.4342     1.8590    59.1668 </r>
       <r>    11.5365     2.0470    59.3762 </r>
       <r>    11.6388     2.0210    59.5830 </r>
       <r>    11.7412     1.8306    59.7703 </r>
       <r>    11.8435     1.6331    59.9374 </r>
       <r>    11.9458     1.5413    60.0951 </r>
       <r>    12.0481     1.5392    60.2526 </r>
       <r>    12.1504     1.5490    60.4111 </r>
       <r>    12.2528     1.5376    60.5684 </r>
       <r>    12.3551     1.5287    60.7248 </r>
       <r>    12.4574     1.5403    60.8824 </r>
       <r>    12.5597     1.5509    61.0411 </r>
       <r>    12.6620     1.5327    61.1979 </r>
       <r>    12.7643     1.4891    61.3503 </r>
       <r>    12.8667     1.4498    61.4987 </r>
       <r>    12.9690     1.4416    61.6462 </r>
       <r>    13.0713     1.4716    61.7967 </r>
       <r>    13.1736     1.5285    61.9531 </r>
       <r>    13.2759     1.5905    62.1159 </r>
       <r>    13.3783     1.6354    62.2832 </r>
       <r>    13.4806     1.6525    62.4523 </r>
       <r>    13.5829     1.6501    62.6211 </r>
       <r>    13.6852     1.6531    62.7903 </r>
       <r>    13.7875     1.6806    62.9622 </r>
       <r>    13.8898     1.7192    63.1381 </r>
       <r>    13.9922     1.7298    63.3151 </r>
       <r>    14.0945     1.6964    63.4887 </r>
       <r>    14.1968     1.6530    63.6578 </r>
       <r>    14.2991     1.6413    63.8257 </r>
       <r>    14.4014     1.6562    63.9952 </r>
       <r>    14.5038     1.6541    64.1644 </r>
       <r>    14.6061     1.6082    64.3290 </r>
       <r>    14.7084     1.5385    64.4864 </r>
       <r>    14.8107     1.4906    64.6389 </r>
       <r>    14.9130     1.4886    64.7912 </r>
       <r>    15.0153     1.5160    64.9463 </r>
       <r>    15.1177     1.5478    65.1047 </r>
       <r>    15.2200     1.5880    65.2672 </r>
       <r>    15.3223     1.6573    65.4368 </r>
       <r>    15.4246     1.7496    65.6158 </r>
       <r>    15.5269     1.8240    65.8024 </r>
       <r>    15.6293     1.8467    65.9914 </r>
       <r>    15.7316     1.8347    66.1791 </r>
       <r>    15.8339     1.8387    66.3672 </r>
       <r>    15.9362     1.8751    66.5591 </r>
       <r>    16.0385     1.8936    66.7528 </r>
       <r>    16.1408     1.8368    66.9408 </r>
       <r>    16.2432     1.7108    67.1158 </r>
       <r>    16.3455     1.5754    67.2770 </r>
       <r>    16.4478     1.4845    67.4289 </r>
       <r>    16.5501     1.4591    67.5782 </r>
       <r>    16.6524     1.4932    67.7310 </r>
       <r>    16.7548     1.5574    67.8903 </r>
       <r>    16.8571     1.6058    68.0546 </r>
       <r>    16.9594     1.6010    68.2184 </r>
       <r>    17.0617     1.5389    68.3759 </r>
       <r>    17.1640     1.4442    68.5237 </r>
       <r>    17.2663     1.3439    68.6612 </r>
       <r>    17.3687     1.2560    68.7897 </r>
       <r>    17.4710     1.1963    68.9121 </r>
       <r>    17.5733     1.1676    69.0315 </r>
       <r>    17.6756     1.1463    69.1488 </r>
       <r>    17.7779     1.0998    69.2613 </r>
       <r>    17.8803     1.0228    69.3660 </r>
       <r>    17.9826     0.9423    69.4624 </r>
       <r>    18.0849     0.8886    69.5533 </r>
       <r>    18.1872     0.8693    69.6423 </r>
       <r>    18.2895     0.8664    69.7309 </r>
       <r>    18.3918     0.8516    69.8181 </r>
       <r>    18.4942     0.8099    69.9009 </r>
       <r>    18.5965     0.7540    69.9781 </r>
       <r>    18.6988     0.7131    70.0510 </r>
       <r>    18.8011     0.7021    70.1229 </r>
       <r>    18.9034     0.7020    70.1947 </r>
       <r>    19.0058     0.6791    70.2642 </r>
       <r>    19.1081     0.6251    70.3281 </r>
       <r>    19.2104     0.5709    70.3866 </r>
       <r>    19.3127     0.5527    70.4431 </r>
       <r>    19.4150     0.5732    70.5018 </r>
       <r>    19.5173     0.6007    70.5632 </r>
       <r>    19.6197     0.6025    70.6249 </r>
       <r>    19.7220     0.5696    70.6832 </r>
       <r>    19.8243     0.5170    70.7360 </r>
       <r>    19.9266     0.4669    70.7838 </r>
       <r>    20.0289     0.4365    70.8285 </r>
       <r>    20.1313     0.4328    70.8728 </r>
       <r>    20.2336     0.4497    70.9188 </r>
       <r>    20.3359     0.4651    70.9664 </r>
       <r>    20.4382     0.4554    71.0130 </r>
       <r>    20.5405     0.4199    71.0559 </r>
       <r>    20.6428     0.3849    71.0953 </r>
       <r>    20.7452     0.3765    71.1338 </r>
       <r>    20.8475     0.3934    71.1741 </r>
       <r>    20.9498     0.4090    71.2159 </r>
       <r>    21.0521     0.3991    71.2568 </r>
       <r>    21.1544     0.3654    71.2941 </r>
       <r>    21.2568     0.3338    71.3283 </r>
       <r>    21.3591     0.3266    71.3617 </r>
       <r>    21.4614     0.3376    71.3963 </r>
       <r>    21.5637     0.3370    71.4307 </r>
       <r>    21.6660     0.3066    71.4621 </r>
       <r>    21.7683     0.2643    71.4892 </r>
       <r>    21.8707     0.2456    71.5143 </r>
       <r>    21.9730     0.2637    71.5413 </r>
       <r>    22.0753     0.2967    71.5716 </r>
       <r>    22.1776     0.3111    71.6035 </r>
       <r>    22.2799     0.2946    71.6336 </r>
       <r>    22.3823     0.2678    71.6610 </r>
       <r>    22.4846     0.2667    71.6883 </r>
       <r>    22.5869     0.3102    71.7200 </r>
       <r>    22.6892     0.3787    71.7588 </r>
       <r>    22.7915     0.4237    71.8021 </r>
       <r>    22.8938     0.4072    71.8438 </r>
       <r>    22.9962     0.3387    71.8785 </r>
       <r>    23.0985     0.2647    71.9055 </r>
       <r>    23.2008     0.2209    71.9281 </r>
       <r>    23.3031     0.2037    71.9490 </r>
       <r>    23.4054     0.1865    71.9681 </r>
       <r>    23.5078     0.1511    71.9835 </r>
       <r>    23.6101     0.1003    71.9938 </r>
       <r>    23.7124     0.0503    71.9989 </r>
       <r>    23.8147     0.0154    72.0005 </r>
       <r>    23.9170    -0.0007    72.0004 </r>
       <r>    24.0193    -0.0036    72.0001 </r>
       <r>    24.1217    -0.0015    71.9999 </r>
       <r>    24.2240     0.0003    71.9999 </r>
       <r>    24.3263     0.0006    72.0000 </r>
       <r>    24.4286     0.0002    72.0000 </r>
       <r>    24.5309    -0.0001    72.0000 </r>
       <r>    24.6333    -0.0001    72.0000 </r>
       <r>    24.7356    -0.0001    72.0000 </r>
       <r>    24.8379     0.0000    72.0000 </r>
       <r>    24.9402     0.0000    72.0000 </r>
       <r>    25.0425     0.0000    72.0000 </r>
       <r>    25.1448     0.0000    72.0000 </r>
       <r>    25.2472     0.0000    72.0000 </r>
       <r>    25.3495     0.0000    72.0000 </r>
       <r>    25.4518     0.0000    72.0000 </r>
       <r>    25.5541     0.0000    72.0000 </r>
       <r>    25.6564     0.0000    72.0000 </r>
       <r>    25.7588     0.0000    72.0000 </r>
       <r>    25.8611     0.0000    72.0000 </r>
       <r>    25.9634     0.0000    72.0000 </r>
       <r>    26.0657     0.0000    72.0000 </r>
       <r>    26.1680     0.0000    72.0000 </r>
       <r>    26.2703     0.0000    72.0000 </r>
       <r>    26.3727     0.0000    72.0000 </r>
       <r>    26.4750     0.0000    72.0000 </r>
       <r>    26.5773     0.0000    72.0000 </r>
       <r>    26.6796     0.0000    72.0000 </r>
       <r>    26.7819     0.0000    72.0000 </r>
       <r>    26.8843     0.0000    72.0000 </r>
       <r>    26.9866     0.0000    72.0000 </r>
       <r>    27.0889     0.0000    72.0000 </r>
      </set>
     </set>
    </array>
   </total>
  </dos>
 </calculation>
 <structure name="finalpos" >
  <crystal>
   <varray name="basis" >
    <v>       0.00000000       2.06893723       2.06893723 </v>
    <v>      -2.06893723       0.00000000      -2.06893723 </v>
    <v>      -6.27256496      -8.34150219       6.27256496 </v>
   </varray>
   <i name="volume">     89.40525546 </i>
   <varray name="rec_basis" >
    <v>      -0.19303166       0.29030829       0.19303166 </v>
    <v>      -0.33818580       0.14515414      -0.14515414 </v>
    <v>      -0.04787751      -0.04787751       0.04787751 </v>
   </varray>
  </crystal>
  <varray name="positions" >
   <v>       0.59923188       0.79961594       0.39884782 </v>
   <v>       0.80076812       0.40038406       0.20115218 </v>
   <v>       0.00149402       0.00074701       0.00224102 </v>
   <v>       0.20000000       0.60000000       0.80000000 </v>
   <v>       0.39850598       0.19925299       0.59775898 </v>
  </varray>
 </structure>
</modeling>
