<?xml version="1.0" encoding="ISO-8859-1"?>
<modeling>
 <generator>
  <i name="program" type="string">vasp </i>
  <i name="version" type="string">5.3.5  </i>
  <i name="subversion" type="string">31Mar14 (build Jun 20 2014 13:15:13) complex                          parallel </i>
  <i name="platform" type="string">LinuxIFC </i>
  <i name="date" type="string">2025 12 16 </i>
  <i name="time" type="string">16:07:17 </i>
 </generator>
 <incar>
  <i type="string" name="PREC">accurate</i>
  <i type="int" name="IALGO">    68</i>
  <i type="logical" name="ADDGRID"> T  </i>
  <i type="int" name="NELM">   100</i>
  <i type="int" name="NELMIN">     4</i>
  <i type="int" name="IBRION">     2</i>
  <i name="EDIFF">      0.00000100</i>
  <i name="EDIFFG">     -0.02000000</i>
  <i type="int" name="NSW">    30</i>
  <i type="int" name="ISIF">     3</i>
  <i name="ENCUT">    600.00000000</i>
  <i type="logical" name="LREAL"> F  </i>
  <i type="int" name="ISMEAR">     0</i>
  <i name="SIGMA">      0.10000000</i>
  <i type="logical" name="LWAVE"> F  </i>
  <i type="logical" name="LCHARG"> F  </i>
  <i type="int" name="NELM">   100</i>
 </incar>
 <kpoints>
  <generation param="Auto">
   <i name="subdivisionlength">     20.00000000 </i>
   <v type="int" name="divisions">       2        6        3 </v>
   <v name="usershift">      0.00000000       0.00000000       0.00000000 </v>
   <v name="genvec1">      0.50000000       0.00000000       0.00000000 </v>
   <v name="genvec2">      0.00000000       0.16666667       0.00000000 </v>
   <v name="genvec3">      0.00000000       0.00000000       0.33333333 </v>
   <v name="shift">      0.00000000       0.00000000       0.00000000 </v>
  </generation>
  <varray name="kpointlist" >
   <v>       0.00000000       0.00000000       0.00000000 </v>
   <v>       0.50000000       0.00000000       0.00000000 </v>
   <v>       0.00000000       0.16666667       0.00000000 </v>
   <v>       0.50000000       0.16666667       0.00000000 </v>
   <v>       0.00000000       0.33333333       0.00000000 </v>
   <v>       0.50000000       0.33333333       0.00000000 </v>
   <v>       0.00000000       0.50000000       0.00000000 </v>
   <v>       0.50000000       0.50000000       0.00000000 </v>
   <v>       0.00000000       0.00000000       0.33333333 </v>
   <v>       0.50000000       0.00000000       0.33333333 </v>
   <v>       0.00000000       0.16666667       0.33333333 </v>
   <v>       0.50000000       0.16666667       0.33333333 </v>
   <v>       0.00000000       0.33333333       0.33333333 </v>
   <v>       0.50000000       0.33333333       0.33333333 </v>
   <v>       0.00000000       0.50000000       0.33333333 </v>
   <v>       0.50000000       0.50000000       0.33333333 </v>
  </varray>
  <varray name="weights" >
   <v>       0.02777778 </v>
   <v>       0.02777778 </v>
   <v>       0.05555556 </v>
   <v>       0.05555556 </v>
   <v>       0.05555556 </v>
   <v>       0.05555556 </v>
   <v>       0.02777778 </v>
   <v>       0.02777778 </v>
   <v>       0.05555556 </v>
   <v>       0.05555556 </v>
   <v>       0.11111111 </v>
   <v>       0.11111111 </v>
   <v>       0.11111111 </v>
   <v>       0.11111111 </v>
   <v>       0.05555556 </v>
   <v>       0.05555556 </v>
  </varray>
 </kpoints>
 <parameters>
  <separator name="general" >
   <i type="string" name="SYSTEM">unknown system</i>
   <i type="logical" name="LCOMPAT"> F  </i>
  </separator>
  <separator name="electronic" >
   <i type="string" name="PREC">accura</i>
   <i name="ENMAX">    600.00000000</i>
   <i name="ENAUG">    644.87300000</i>
   <i name="EDIFF">      0.00000100</i>
   <i type="int" name="IALGO">    68</i>
   <i type="int" name="IWAVPR">    11</i>
   <i type="int" name="NBANDS">    64</i>
   <i name="NELECT">     96.00000000</i>
   <i type="int" name="TURBO">     0</i>
   <i type="int" name="IRESTART">     0</i>
   <i type="int" name="NREBOOT">     0</i>
   <i type="int" name="NMIN">     0</i>
   <i name="EREF">      0.00000000</i>
   <separator name="electronic smearing" >
    <i type="int" name="ISMEAR">     0</i>
    <i name="SIGMA">      0.10000000</i>
    <i name="KSPACING">      0.50000000</i>
    <i type="logical" name="KGAMMA"> T  </i>
   </separator>
   <separator name="electronic projectors" >
    <i type="logical" name="LREAL"> F  </i>
    <v name="ROPT">      0.00000000      0.00000000      0.00000000      0.00000000</v>
    <i type="int" name="LMAXPAW">  -100</i>
    <i type="int" name="LMAXMIX">     2</i>
    <i type="logical" name="NLSPLINE"> F  </i>
   </separator>
   <separator name="electronic startup" >
    <i type="int" name="ISTART">     0</i>
    <i type="int" name="ICHARG">     2</i>
    <i type="int" name="INIWAV">     1</i>
   </separator>
   <separator name="electronic spin" >
    <i type="int" name="ISPIN">     1</i>
    <i type="logical" name="LNONCOLLINEAR"> F  </i>
    <v name="MAGMOM">      1.00000000      1.00000000      1.00000000      1.00000000      1.00000000      1.00000000      1.00000000      1.00000000      1.00000000      1.00000000      1.00000000      1.00000000      1.00000000      1.00000000      1.00000000      1.00000000      1.00000000      1.00000000      1.00000000      1.00000000
      1.00000000      1.00000000      1.00000000      1.00000000</v>
    <i name="NUPDOWN">     -1.00000000</i>
    <i type="logical" name="LSORBIT"> F  </i>
    <v name="SAXIS">      0.00000000      0.00000000      1.00000000</v>
    <i type="logical" name="LSPIRAL"> F  </i>
    <v name="QSPIRAL">      0.00000000      0.00000000      0.00000000</v>
    <i type="logical" name="LZEROZ"> F  </i>
   </separator>
   <separator name="electronic exchange-correlation" >
    <i type="logical" name="LASPH"> F  </i>
    <i type="logical" name="LMETAGGA"> F  </i>
   </separator>
   <separator name="electronic convergence" >
    <i type="int" name="NELM">   100</i>
    <i type="int" name="NELMDL">     0</i>
    <i type="int" name="NELMIN">     4</i>
    <i name="ENINI">    600.00000000</i>
    <separator name="electronic convergence detail" >
     <i type="logical" name="LDIAG"> T  </i>
     <i type="logical" name="LSUBROT"> F  </i>
     <i name="WEIMIN">      0.00100000</i>
     <i name="EBREAK">      0.00000000</i>
     <i name="DEPER">      0.30000000</i>
     <i type="int" name="NRMM">     4</i>
     <i name="TIME">      0.40000000</i>
    </separator>
   </separator>
   <separator name="electronic mixer" >
    <i name="AMIX">      0.40000000</i>
    <i name="BMIX">      1.00000000</i>
    <i name="AMIN">      0.10000000</i>
    <i name="AMIX_MAG">      1.60000000</i>
    <i name="BMIX_MAG">      1.00000000</i>
    <separator name="electronic mixer details" >
     <i type="int" name="IMIX">     4</i>
     <i type="int" name="MAXMIX">   -45</i>
     <i name="WC">    100.00000000</i>
     <i type="int" name="INIMIX">     1</i>
     <i type="int" name="MIXPRE">     1</i>
     <i type="int" name="MREMOVE">     5</i>
    </separator>
   </separator>
   <separator name="electronic dipolcorrection" >
    <i type="logical" name="LDIPOL"> F  </i>
    <i type="logical" name="LMONO"> F  </i>
    <i type="int" name="IDIPOL">     0</i>
    <i name="EPSILON">      1.00000000</i>
    <v name="DIPOL">   -100.00000000   -100.00000000   -100.00000000</v>
    <i name="EFIELD">      0.00000000</i>
   </separator>
  </separator>
  <separator name="grids" >
   <i type="int" name="NGX">    96</i>
   <i type="int" name="NGY">    28</i>
   <i type="int" name="NGZ">    60</i>
   <i type="int" name="NGXF">   192</i>
   <i type="int" name="NGYF">    56</i>
   <i type="int" name="NGZF">   120</i>
   <i type="logical" name="ADDGRID"> T  </i>
  </separator>
  <separator name="ionic" >
   <i type="int" name="NSW">    30</i>
   <i type="int" name="IBRION">     2</i>
   <i type="int" name="ISIF">     3</i>
   <i name="PSTRESS">      0.00000000</i>
   <i name="EDIFFG">     -0.02000000</i>
   <i type="int" name="NFREE">     1</i>
   <i name="POTIM">      0.50000000</i>
   <i name="SMASS">     -3.00000000</i>
   <i name="SCALEE">      1.00000000</i>
  </separator>
  <separator name="ionic md" >
   <i name="TEBEG">      0.00010000</i>
   <i name="TEEND">      0.00010000</i>
   <i type="int" name="NBLOCK">     1</i>
   <i type="int" name="KBLOCK">    30</i>
   <i type="int" name="NPACO">   256</i>
   <i name="APACO">     16.00000000</i>
  </separator>
  <separator name="symmetry" >
   <i type="int" name="ISYM">     2</i>
   <i name="SYMPREC">      0.00001000</i>
  </separator>
  <separator name="dos" >
   <i type="logical" name="LORBIT"> F  </i>
   <v name="RWIGS">     -1.00000000     -1.00000000     -1.00000000     -1.00000000</v>
   <i type="int" name="NEDOS">   301</i>
   <i name="EMIN">     10.00000000</i>
   <i name="EMAX">    -10.00000000</i>
   <i name="EFERMI">      0.00000000</i>
  </separator>
  <separator name="writing" >
   <i type="int" name="NWRITE">     2</i>
   <i type="logical" name="LWAVE"> F  </i>
   <i type="logical" name="LCHARG"> F  </i>
   <i type="logical" name="LPARD"> F  </i>
   <i type="logical" name="LVTOT"> F  </i>
   <i type="logical" name="LVHAR"> F  </i>
   <i type="logical" name="LELF"> F  </i>
   <i type="logical" name="LOPTICS"> F  </i>
   <v name="STM">      0.00000000      0.00000000      0.00000000      0.00000000      0.00000000      0.00000000      0.00000000</v>
  </separator>
  <separator name="performance" >
   <i type="int" name="NPAR">     4</i>
   <i type="int" name="NSIM">     4</i>
   <i type="int" name="NBLK">    -1</i>
   <i type="logical" name="LPLANE"> T  </i>
   <i type="logical" name="LSCALAPACK"> T  </i>
   <i type="logical" name="LSCAAWARE"> F  </i>
   <i type="logical" name="LSCALU"> F  </i>
   <i type="logical" name="LASYNC"> F  </i>
   <i type="logical" name="LORBITALREAL"> F  </i>
  </separator>
  <separator name="miscellaneous" >
   <i type="int" name="IDIOT">     3</i>
   <i type="logical" name="LMUSIC"> F  </i>
   <v name="POMASS">     28.08500000     26.98100000     12.01100000     14.00100000</v>
   <v name="DARWINR">      0.00000000      0.00000000      0.00000000      0.00000000</v>
   <v name="DARWINV">      1.00000000      1.00000000      1.00000000      1.00000000</v>
   <i type="logical" name="LCORR"> T  </i>
  </separator>
  <i type="logical" name="GGA_COMPAT"> T  </i>
  <i type="logical" name="LBERRY"> F  </i>
  <i type="int" name="ICORELEVEL">     0</i>
  <i type="logical" name="LDAU"> F  </i>
  <i type="int" name="I_CONSTRAINED_M">     0</i>
  <separator name="electronic exchange-correlation" >
   <i type="string" name="GGA">--</i>
   <i type="int" name="VOSKOWN">     0</i>
   <i type="logical" name="LHFCALC"> F  </i>
   <i type="string" name="PRECFOCK"></i>
   <i type="logical" name="LSYMGRAD"> F  </i>
   <i type="logical" name="LHFONE"> F  </i>
   <i type="logical" name="LRHFCALC"> F  </i>
   <i type="logical" name="LTHOMAS"> F  </i>
   <i type="logical" name="LMODELHF"> F  </i>
   <i name="ENCUT4O">     -1.00000000</i>
   <i type="int" name="EXXOEP">     0</i>
   <i type="int" name="FOURORBIT">     0</i>
   <i name="AEXX">      0.00000000</i>
   <i name="HFALPHA">      0.00000000</i>
   <i name="MCALPHA">      0.00000000</i>
   <i name="ALDAX">      1.00000000</i>
   <i name="AGGAX">      1.00000000</i>
   <i name="ALDAC">      1.00000000</i>
   <i name="AGGAC">      1.00000000</i>
   <i type="int" name="NKREDX">     1</i>
   <i type="int" name="NKREDY">     1</i>
   <i type="int" name="NKREDZ">     1</i>
   <i type="logical" name="SHIFTRED"> F  </i>
   <i type="logical" name="ODDONLY"> F  </i>
   <i type="logical" name="EVENONLY"> F  </i>
   <i type="int" name="LMAXFOCK">     0</i>
   <i type="int" name="NMAXFOCKAE">     0</i>
   <i type="logical" name="LFOCKAEDFT"> F  </i>
   <i name="HFSCREEN">      0.00000000</i>
   <i name="HFSCREENC">      0.00000000</i>
   <i type="int" name="NBANDSGWLOW">     0</i>
  </separator>
  <separator name="vdW DFT" >
   <i type="logical" name="LUSE_VDW"> F  </i>
   <i name="Zab_VDW">     -0.84910000</i>
   <i name="PARAM1">      0.12340000</i>
   <i name="PARAM2">      1.00000000</i>
   <i name="PARAM3">      0.00000000</i>
  </separator>
  <separator name="model GW" >
   <i type="int" name="MODEL_GW">     0</i>
   <i name="MODEL_EPS0">      6.43004555</i>
   <i name="MODEL_ALPHA">      1.00000000</i>
  </separator>
  <separator name="linear response parameters" >
   <i type="logical" name="LEPSILON"> F  </i>
   <i type="logical" name="LRPA"> F  </i>
   <i type="logical" name="LNABLA"> F  </i>
   <i type="logical" name="LVEL"> F  </i>
   <i type="int" name="KINTER">     0</i>
   <i name="CSHIFT">      0.10000000</i>
   <i name="OMEGAMAX">     -1.00000000</i>
   <i name="DEG_THRESHOLD">      0.00200000</i>
  </separator>
  <separator name="orbital magnetization" >
   <i type="logical" name="NUCIND"> F  </i>
   <v name="MAGPOS">      0.00000000      0.00000000      0.00000000</v>
   <i type="logical" name="LNICSALL"> T  </i>
   <i type="logical" name="ORBITALMAG"> F  </i>
   <i type="logical" name="LMAGBLOCH"> F  </i>
   <i type="logical" name="LCHIMAG"> F  </i>
   <i type="logical" name="LGAUGE"> T  </i>
   <i type="int" name="MAGATOM">     0</i>
   <v name="MAGDIPOL">      0.00000000      0.00000000      0.00000000</v>
   <v name="AVECCONST">      0.00000000      0.00000000      0.00000000</v>
  </separator>
  <separator name="response functions" >
   <i type="logical" name="LADDER"> F  </i>
   <i type="logical" name="LFXC"> F  </i>
   <i type="logical" name="LHARTREE"> T  </i>
   <i type="int" name="IBSE">     0</i>
   <i type="logical" name="LTCTE"> F  </i>
   <i type="logical" name="LTETE"> F  </i>
   <i type="logical" name="LTRIPLET"> F  </i>
   <i type="logical" name="LFXCEPS"> F  </i>
   <i type="logical" name="LFXHEG"> F  </i>
   <i type="logical" name="L2ORDER"> F  </i>
   <i type="logical" name="LUSEW"> F  </i>
   <i name="ENCUTGW">     -2.00000000</i>
   <i name="ENCUTGWSOFT">     -2.00000000</i>
   <i name="ENCUTLF">     -1.00000000</i>
   <i type="int" name="LMAXMP2">    -1</i>
   <i name="SCISSOR">      0.00000000</i>
   <i type="int" name="NOMEGA">     0</i>
   <i type="int" name="NOMEGAR">     0</i>
   <i type="int" name="NBANDSGW">    -1</i>
   <i type="int" name="NBANDSO">    -1</i>
   <i type="int" name="NBANDSV">    -1</i>
   <i type="int" name="NELM">   100</i>
   <i type="int" name="DIM">     3</i>
   <i type="int" name="ANTIRES">     0</i>
   <i name="OMEGAMAX">    -30.00000000</i>
   <i name="OMEGAMIN">    -30.00000000</i>
   <i name="OMEGATL">   -200.00000000</i>
   <i type="int" name="OMEGAGRID">     0</i>
   <i name="CSHIFT">     -0.10000000</i>
   <i type="logical" name="SELFENERGY"> F  </i>
   <i type="logical" name="LSPECTRAL"> F  </i>
   <i type="logical" name="ODDONLYGW"> F  </i>
   <i type="logical" name="EVENONLYGW"> F  </i>
   <i type="int" name="NKREDLFX">     1</i>
   <i type="int" name="NKREDLFY">     1</i>
   <i type="int" name="NKREDLFZ">     1</i>
   <i type="int" name="MAXMEM">  1800</i>
   <i type="int" name="TELESCOPE">     0</i>
   <i type="int" name="TAUPAR">     1</i>
  </separator>
  <separator name="External order field" >
   <i name="OFIELD_KAPPA">      0.00000000</i>
   <v name="OFIELD_K">      0.00000000      0.00000000      0.00000000</v>
   <i name="OFIELD_Q6_NEAR">      0.00000000</i>
   <i name="OFIELD_Q6_FAR">      0.00000000</i>
   <i name="OFIELD_A">      0.00000000</i>
  </separator>
 </parameters>
 <atominfo>
  <atoms>      24 </atoms>
  <types>       4 </types>
  <array name="atoms" >
   <dimension dim="1">ion</dimension>
   <field type="string">element</field>
   <field type="int">atomtype</field>
   <set>
    <rc><c>Si</c><c>   1</c></rc>
    <rc><c>Si</c><c>   1</c></rc>
    <rc><c>Si</c><c>   1</c></rc>
    <rc><c>Si</c><c>   1</c></rc>
    <rc><c>Si</c><c>   1</c></rc>
    <rc><c>Si</c><c>   1</c></rc>
    <rc><c>Al</c><c>   2</c></rc>
    <rc><c>Al</c><c>   2</c></rc>
    <rc><c>Al</c><c>   2</c></rc>
    <rc><c>Al</c><c>   2</c></rc>
    <rc><c>Al</c><c>   2</c></rc>
    <rc><c>Al</c><c>   2</c></rc>
    <rc><c>C </c><c>   3</c></rc>
    <rc><c>C </c><c>   3</c></rc>
    <rc><c>C </c><c>   3</c></rc>
    <rc><c>C </c><c>   3</c></rc>
    <rc><c>C </c><c>   3</c></rc>
    <rc><c>C </c><c>   3</c></rc>
    <rc><c>N </c><c>   4</c></rc>
    <rc><c>N </c><c>   4</c></rc>
    <rc><c>N </c><c>   4</c></rc>
    <rc><c>N </c><c>   4</c></rc>
    <rc><c>N </c><c>   4</c></rc>
    <rc><c>N </c><c>   4</c></rc>
   </set>
  </array>
  <array name="atomtypes" >
   <dimension dim="1">type</dimension>
   <field type="int">atomspertype</field>
   <field type="string">element</field>
   <field>mass</field>
   <field>valence</field>
   <field type="string">pseudopotential</field>
   <set>
    <rc><c>   6</c><c>Si</c><c>     28.08500000</c><c>      4.00000000</c><c>  PAW_PBE Si 05Jan2001                  </c></rc>
    <rc><c>   6</c><c>Al</c><c>     26.98100000</c><c>      3.00000000</c><c>  PAW_PBE Al 04Jan2001                  </c></rc>
    <rc><c>   6</c><c>C </c><c>     12.01100000</c><c>      4.00000000</c><c>  PAW_PBE C 08Apr2002                   </c></rc>
    <rc><c>   6</c><c>N </c><c>     14.00100000</c><c>      5.00000000</c><c>  PAW_PBE N_s 07Sep2000                 </c></rc>
   </set>
  </array>
 </atominfo>
 <structure name="initialpos" >
  <crystal>
   <varray name="basis" >
    <v>      11.46140262       0.00000000      -0.03309082 </v>
    <v>       0.00000000       3.11499666       0.00000000 </v>
    <v>      -1.85659813       0.00000000       7.20944292 </v>
   </varray>
   <i name="volume">    257.20182206 </i>
   <varray name="rec_basis" >
    <v>       0.08731428       0.00000000       0.02248544 </v>
    <v>       0.00000000       0.32102763       0.00000000 </v>
    <v>       0.00040077       0.00000000       0.13881018 </v>
   </varray>
  </crystal>
  <varray name="positions" >
   <v>       0.05055614       0.50000000       0.10751884 </v>
   <v>       0.21596047       0.00000000       0.44856299 </v>
   <v>       0.28404766       0.00000000       0.05226228 </v>
   <v>       0.55055614       0.00000000       0.10751884 </v>
   <v>       0.71596047       0.50000000       0.44856299 </v>
   <v>       0.78404766       0.50000000       0.05226228 </v>
   <v>       0.38878825       0.50000000       0.78436993 </v>
   <v>       0.44789769       0.50000000       0.38276482 </v>
   <v>       0.11523724       0.50000000       0.72118997 </v>
   <v>       0.88878825       0.00000000       0.78436993 </v>
   <v>       0.94789769       0.00000000       0.38276482 </v>
   <v>       0.61523724       0.00000000       0.72118997 </v>
   <v>       0.26189972       0.50000000       0.91955695 </v>
   <v>       0.43001277       0.00000000       0.22322477 </v>
   <v>       0.09978289       0.00000000       0.56567738 </v>
   <v>       0.76189972       0.00000000       0.91955695 </v>
   <v>       0.93001277       0.50000000       0.22322477 </v>
   <v>       0.59978289       0.50000000       0.56567738 </v>
   <v>       0.15414388       0.00000000       0.18206033 </v>
   <v>       0.31112084       0.50000000       0.50272698 </v>
   <v>       0.49055244       0.00000000       0.86008477 </v>
   <v>       0.65414388       0.50000000       0.18206033 </v>
   <v>       0.81112084       0.00000000       0.50272698 </v>
   <v>       0.99055244       0.50000000       0.86008477 </v>
  </varray>
 </structure>
 <calculation>
  <scstep>
   <time name="dav">    0.79    0.80</time>
   <time name="total">    0.86    0.87</time>
   <energy>
    <i name="alphaZ">     95.14839509 </i>
    <i name="ewald">  -3394.65204992 </i>
    <i name="hartreedc">   -546.14779066 </i>
    <i name="XCdc">     -8.75304350 </i>
    <i name="pawpsdc">   2806.70641217 </i>
    <i name="pawaedc">  -2519.94783863 </i>
    <i name="eentropy">     -0.02401542 </i>
    <i name="bandstr">    666.19839890 </i>
    <i name="atom">   3409.81467736 </i>
    <i name="e_fr_energy">    508.34314537 </i>
    <i name="e_wo_entrp">    508.36716080 </i>
    <i name="e_0_energy">    508.35515309 </i>
   </energy>
  </scstep>
  <scstep>
   <time name="dav">    0.93    0.93</time>
   <time name="total">    0.93    0.94</time>
   <energy>
    <i name="e_fr_energy">   -146.97158450 </i>
    <i name="e_wo_entrp">   -146.97158450 </i>
    <i name="e_0_energy">   -146.97158450 </i>
   </energy>
  </scstep>
  <scstep>
   <time name="dav">    0.94    0.95</time>
   <time name="total">    0.95    0.96</time>
   <energy>
    <i name="e_fr_energy">   -200.20514967 </i>
    <i name="e_wo_entrp">   -200.20514967 </i>
    <i name="e_0_energy">   -200.20514967 </i>
   </energy>
  </scstep>
  <scstep>
   <time name="dav">    0.92    0.93</time>
   <time name="total">    0.93    0.94</time>
   <energy>
    <i name="e_fr_energy">   -201.66962413 </i>
    <i name="e_wo_entrp">   -201.66962413 </i>
    <i name="e_0_energy">   -201.66962413 </i>
   </energy>
  </scstep>
  <scstep>
   <time name="dav">    0.91    0.91</time>
   <time name="total">    1.02    1.04</time>
   <energy>
    <i name="e_fr_energy">   -201.71613593 </i>
    <i name="e_wo_entrp">   -201.71613593 </i>
    <i name="e_0_energy">   -201.71613593 </i>
   </energy>
  </scstep>
  <scstep>
   <time name="diag">    0.16    0.16</time>
   <time name="diis">    0.62    0.62</time>
   <time name="orth">    0.03    0.03</time>
   <time name="total">    0.99    1.00</time>
   <energy>
    <i name="e_fr_energy">   -173.31152903 </i>
    <i name="e_wo_entrp">   -173.31152903 </i>
    <i name="e_0_energy">   -173.31152903 </i>
   </energy>
  </scstep>
  <scstep>
   <time name="diag">    0.18    0.18</time>
   <time name="diis">    0.64    0.64</time>
   <time name="orth">    0.03    0.03</time>
   <time name="total">    1.03    1.04</time>
   <energy>
    <i name="e_fr_energy">   -172.90317013 </i>
    <i name="e_wo_entrp">   -172.90317013 </i>
    <i name="e_0_energy">   -172.90317013 </i>
   </energy>
  </scstep>
  <scstep>
   <time name="diag">    0.16    0.16</time>
   <time name="diis">    0.62    0.62</time>
   <time name="orth">    0.03    0.03</time>
   <time name="total">    0.99    1.00</time>
   <energy>
    <i name="e_fr_energy">   -173.23967617 </i>
    <i name="e_wo_entrp">   -173.23967617 </i>
    <i name="e_0_energy">   -173.23967617 </i>
   </energy>
  </scstep>
  <scstep>
   <time name="diag">    0.16    0.16</time>
   <time name="diis">    0.62    0.62</time>
   <time name="orth">    0.03    0.03</time>
   <time name="total">    0.98    1.00</time>
   <energy>
    <i name="e_fr_energy">   -172.66336806 </i>
    <i name="e_wo_entrp">   -172.66336806 </i>
    <i name="e_0_energy">   -172.66336806 </i>
   </energy>
  </scstep>
  <scstep>
   <time name="diag">    0.16    0.16</time>
   <time name="diis">    0.61    0.61</time>
   <time name="orth">    0.03    0.03</time>
   <time name="total">    0.97    0.99</time>
   <energy>
    <i name="e_fr_energy">   -172.67076345 </i>
    <i name="e_wo_entrp">   -172.67076345 </i>
    <i name="e_0_energy">   -172.67076345 </i>
   </energy>
  </scstep>
  <scstep>
   <time name="diag">    0.16    0.16</time>
   <time name="diis">    0.60    0.60</time>
   <time name="orth">    0.03    0.03</time>
   <time name="total">    0.97    0.98</time>
   <energy>
    <i name="e_fr_energy">   -172.66889127 </i>
    <i name="e_wo_entrp">   -172.66889127 </i>
    <i name="e_0_energy">   -172.66889127 </i>
   </energy>
  </scstep>
  <scstep>
   <time name="diag">    0.16    0.16</time>
   <time name="diis">    0.60    0.60</time>
   <time name="orth">    0.03    0.03</time>
   <time name="total">    0.97    0.99</time>
   <energy>
    <i name="e_fr_energy">   -172.66877743 </i>
    <i name="e_wo_entrp">   -172.66877743 </i>
    <i name="e_0_energy">   -172.66877743 </i>
   </energy>
  </scstep>
  <scstep>
   <time name="diag">    0.16    0.16</time>
   <time name="diis">    0.61    0.61</time>
   <time name="orth">    0.03    0.03</time>
   <time name="total">    0.98    0.99</time>
   <energy>
    <i name="e_fr_energy">   -172.66864643 </i>
    <i name="e_wo_entrp">   -172.66864643 </i>
    <i name="e_0_energy">   -172.66864643 </i>
   </energy>
  </scstep>
  <scstep>
   <time name="diag">    0.16    0.16</time>
   <time name="diis">    0.61    0.61</time>
   <time name="orth">    0.03    0.03</time>
   <time name="total">    0.97    0.99</time>
   <energy>
    <i name="e_fr_energy">   -172.66865093 </i>
    <i name="e_wo_entrp">   -172.66865093 </i>
    <i name="e_0_energy">   -172.66865093 </i>
   </energy>
  </scstep>
  <scstep>
   <time name="diag">    0.16    0.16</time>
   <time name="diis">    0.54    0.54</time>
   <time name="orth">    0.03    0.03</time>
   <time name="total">    0.90    0.92</time>
   <energy>
    <i name="e_fr_energy">   -172.66865235 </i>
    <i name="e_wo_entrp">   -172.66865235 </i>
    <i name="e_0_energy">   -172.66865235 </i>
   </energy>
  </scstep>
  <scstep>
   <time name="diag">    0.16    0.16</time>
   <time name="diis">    0.41    0.41</time>
   <time name="orth">    0.03    0.06</time>
   <time name="total">    0.67    0.70</time>
   <energy>
    <i name="alphaZ">     95.14839509 </i>
    <i name="ewald">  -3394.65204992 </i>
    <i name="hartreedc">   -703.67468454 </i>
    <i name="XCdc">      5.50568305 </i>
    <i name="pawpsdc">  14624.48807330 </i>
    <i name="pawaedc"> -14343.75809763 </i>
    <i name="eentropy">      0.00000000 </i>
    <i name="bandstr">    134.45935153 </i>
    <i name="atom">   3409.81467736 </i>
    <i name="e_fr_energy">   -172.66865176 </i>
    <i name="e_wo_entrp">   -172.66865176 </i>
    <i name="e_0_energy">   -172.66865176 </i>
   </energy>
  </scstep>
  <structure>
   <crystal>
    <varray name="basis" >
     <v>      11.46140262       0.00000000      -0.03309082 </v>
     <v>       0.00000000       3.11499666       0.00000000 </v>
     <v>      -1.85659813       0.00000000       7.20944292 </v>
    </varray>
    <i name="volume">    257.20182206 </i>
    <varray name="rec_basis" >
     <v>       0.08731428       0.00000000       0.02248544 </v>
     <v>       0.00000000       0.32102763       0.00000000 </v>
     <v>       0.00040077       0.00000000       0.13881018 </v>
    </varray>
   </crystal>
   <varray name="positions" >
    <v>       0.05055614       0.50000000       0.10751884 </v>
    <v>       0.21596047       0.00000000       0.44856299 </v>
    <v>       0.28404766       0.00000000       0.05226228 </v>
    <v>       0.55055614       0.00000000       0.10751884 </v>
    <v>       0.71596047       0.50000000       0.44856299 </v>
    <v>       0.78404766       0.50000000       0.05226228 </v>
    <v>       0.38878825       0.50000000       0.78436993 </v>
    <v>       0.44789769       0.50000000       0.38276482 </v>
    <v>       0.11523724       0.50000000       0.72118997 </v>
    <v>       0.88878825       0.00000000       0.78436993 </v>
    <v>       0.94789769       0.00000000       0.38276482 </v>
    <v>       0.61523724       0.00000000       0.72118997 </v>
    <v>       0.26189972       0.50000000       0.91955695 </v>
    <v>       0.43001277       0.00000000       0.22322477 </v>
    <v>       0.09978289       0.00000000       0.56567738 </v>
    <v>       0.76189972       0.00000000       0.91955695 </v>
    <v>       0.93001277       0.50000000       0.22322477 </v>
    <v>       0.59978289       0.50000000       0.56567738 </v>
    <v>       0.15414388       0.00000000       0.18206033 </v>
    <v>       0.31112084       0.50000000       0.50272698 </v>
    <v>       0.49055244       0.00000000       0.86008477 </v>
    <v>       0.65414388       0.50000000       0.18206033 </v>
    <v>       0.81112084       0.00000000       0.50272698 </v>
    <v>       0.99055244       0.50000000       0.86008477 </v>
   </varray>
  </structure>
  <varray name="forces" >
   <v>       0.00819782       0.00000000      -0.00407573 </v>
   <v>       0.00348322       0.00000000      -0.01386253 </v>
   <v>       0.00638811       0.00000000      -0.00161403 </v>
   <v>       0.00819782       0.00000000      -0.00407573 </v>
   <v>       0.00348322       0.00000000      -0.01386253 </v>
   <v>       0.00638811       0.00000000      -0.00161403 </v>
   <v>       0.00104408       0.00000000      -0.01572183 </v>
   <v>      -0.01237912       0.00000000       0.00114510 </v>
   <v>      -0.01593997       0.00000000       0.01089261 </v>
   <v>       0.00104408       0.00000000      -0.01572183 </v>
   <v>      -0.01237912       0.00000000       0.00114510 </v>
   <v>      -0.01593997       0.00000000       0.01089261 </v>
   <v>       0.00725713       0.00000000      -0.00305689 </v>
   <v>       0.01557549       0.00000000      -0.00788789 </v>
   <v>       0.00212977       0.00000000       0.01559721 </v>
   <v>       0.00725713       0.00000000      -0.00305689 </v>
   <v>       0.01557549       0.00000000      -0.00788789 </v>
   <v>       0.00212977       0.00000000       0.01559721 </v>
   <v>       0.00071805       0.00000000      -0.00535964 </v>
   <v>      -0.01035017       0.00000000       0.01379102 </v>
   <v>      -0.00612442       0.00000000       0.01015259 </v>
   <v>       0.00071805       0.00000000      -0.00535964 </v>
   <v>      -0.01035017       0.00000000       0.01379102 </v>
   <v>      -0.00612442       0.00000000       0.01015259 </v>
  </varray>
  <varray name="stress" >
   <v>       0.25999676       0.00000000      -0.06162385 </v>
   <v>       0.00000000      -0.53313680       0.00000000 </v>
   <v>      -0.06162372       0.00000000      -0.01142433 </v>
  </varray>
  <energy>
   <i name="e_fr_energy">   -172.66865176 </i>
   <i name="e_wo_entrp">   -172.66865176 </i>
   <i name="e_0_energy">      0.00000000 </i>
  </energy>
  <time name="totalsc">   17.24   17.53</time>
  <eigenvalues>
   <array>
    <dimension dim="1">band</dimension>
    <dimension dim="2">kpoint</dimension>
    <dimension dim="3">spin</dimension>
    <field>eigene</field>
    <field>occ</field>
    <set>
     <set comment="spin 1">
      <set comment="kpoint 1">
       <r>   -9.6173    1.0000 </r>
       <r>   -9.4344    1.0000 </r>
       <r>   -8.5459    1.0000 </r>
       <r>   -8.2328    1.0000 </r>
       <r>   -7.8192    1.0000 </r>
       <r>   -7.5705    1.0000 </r>
       <r>   -5.2272    1.0000 </r>
       <r>   -4.6494    1.0000 </r>
       <r>   -4.0521    1.0000 </r>
       <r>   -3.5239    1.0000 </r>
       <r>   -3.3643    1.0000 </r>
       <r>   -2.9330    1.0000 </r>
       <r>   -0.5049    1.0000 </r>
       <r>    0.0341    1.0000 </r>
       <r>    0.1339    1.0000 </r>
       <r>    0.7786    1.0000 </r>
       <r>    1.2161    1.0000 </r>
       <r>    1.5522    1.0000 </r>
       <r>    1.9445    1.0000 </r>
       <r>    2.2272    1.0000 </r>
       <r>    2.5580    1.0000 </r>
       <r>    2.6571    1.0000 </r>
       <r>    3.1171    1.0000 </r>
       <r>    3.2150    1.0000 </r>
       <r>    3.2282    1.0000 </r>
       <r>    3.4083    1.0000 </r>
       <r>    3.8371    1.0000 </r>
       <r>    3.9097    1.0000 </r>
       <r>    4.1261    1.0000 </r>
       <r>    4.2471    1.0000 </r>
       <r>    4.4314    1.0000 </r>
       <r>    4.7066    1.0000 </r>
       <r>    4.8770    1.0000 </r>
       <r>    4.9940    1.0000 </r>
       <r>    5.0242    1.0000 </r>
       <r>    5.1317    1.0000 </r>
       <r>    5.5515    1.0000 </r>
       <r>    6.1070    1.0000 </r>
       <r>    6.1548    1.0000 </r>
       <r>    6.2686    1.0000 </r>
       <r>    6.7315    1.0000 </r>
       <r>    6.8620    1.0000 </r>
       <r>    7.0357    1.0000 </r>
       <r>    7.6640    1.0000 </r>
       <r>    7.8791    1.0000 </r>
       <r>    8.0780    1.0000 </r>
       <r>    8.2275    1.0000 </r>
       <r>    8.4006    1.0000 </r>
       <r>    9.5676    0.0000 </r>
       <r>   10.2489    0.0000 </r>
       <r>   10.2571    0.0000 </r>
       <r>   11.0578    0.0000 </r>
       <r>   11.6393    0.0000 </r>
       <r>   11.8987    0.0000 </r>
       <r>   12.0646    0.0000 </r>
       <r>   12.2678    0.0000 </r>
       <r>   12.7079    0.0000 </r>
       <r>   13.0057    0.0000 </r>
       <r>   13.4184    0.0000 </r>
       <r>   13.6522    0.0000 </r>
       <r>   13.9559    0.0000 </r>
       <r>   14.3684    0.0000 </r>
       <r>   14.4432    0.0000 </r>
       <r>   14.9836    0.0000 </r>
      </set>
      <set comment="kpoint 2">
       <r>   -9.5352    1.0000 </r>
       <r>   -9.5352    1.0000 </r>
       <r>   -8.3982    1.0000 </r>
       <r>   -8.3982    1.0000 </r>
       <r>   -7.6767    1.0000 </r>
       <r>   -7.6767    1.0000 </r>
       <r>   -4.9842    1.0000 </r>
       <r>   -4.9842    1.0000 </r>
       <r>   -3.8653    1.0000 </r>
       <r>   -3.8653    1.0000 </r>
       <r>   -3.0013    1.0000 </r>
       <r>   -3.0013    1.0000 </r>
       <r>   -0.2422    1.0000 </r>
       <r>   -0.2422    1.0000 </r>
       <r>    0.3741    1.0000 </r>
       <r>    0.3741    1.0000 </r>
       <r>    1.2980    1.0000 </r>
       <r>    1.2980    1.0000 </r>
       <r>    2.0270    1.0000 </r>
       <r>    2.0270    1.0000 </r>
       <r>    2.9513    1.0000 </r>
       <r>    2.9513    1.0000 </r>
       <r>    3.1688    1.0000 </r>
       <r>    3.1688    1.0000 </r>
       <r>    3.2141    1.0000 </r>
       <r>    3.2141    1.0000 </r>
       <r>    3.8771    1.0000 </r>
       <r>    3.8771    1.0000 </r>
       <r>    4.1771    1.0000 </r>
       <r>    4.1771    1.0000 </r>
       <r>    4.4710    1.0000 </r>
       <r>    4.4710    1.0000 </r>
       <r>    5.0099    1.0000 </r>
       <r>    5.0099    1.0000 </r>
       <r>    5.2718    1.0000 </r>
       <r>    5.2718    1.0000 </r>
       <r>    5.8212    1.0000 </r>
       <r>    5.8212    1.0000 </r>
       <r>    6.1850    1.0000 </r>
       <r>    6.1850    1.0000 </r>
       <r>    6.4034    1.0000 </r>
       <r>    6.4034    1.0000 </r>
       <r>    7.6867    1.0000 </r>
       <r>    7.6867    1.0000 </r>
       <r>    7.7522    1.0000 </r>
       <r>    7.7522    1.0000 </r>
       <r>    8.3361    1.0000 </r>
       <r>    8.3361    1.0000 </r>
       <r>   10.1532    0.0000 </r>
       <r>   10.1532    0.0000 </r>
       <r>   10.4024    0.0000 </r>
       <r>   10.4024    0.0000 </r>
       <r>   11.7676    0.0000 </r>
       <r>   11.7676    0.0000 </r>
       <r>   12.0202    0.0000 </r>
       <r>   12.0202    0.0000 </r>
       <r>   13.1995    0.0000 </r>
       <r>   13.1998    0.0000 </r>
       <r>   13.4617    0.0000 </r>
       <r>   13.4621    0.0000 </r>
       <r>   14.2563    0.0000 </r>
       <r>   14.2581    0.0000 </r>
       <r>   14.6686    0.0000 </r>
       <r>   14.7930    0.0000 </r>
      </set>
      <set comment="kpoint 3">
       <r>   -9.3613    1.0000 </r>
       <r>   -9.1936    1.0000 </r>
       <r>   -8.3236    1.0000 </r>
       <r>   -8.0323    1.0000 </r>
       <r>   -7.6872    1.0000 </r>
       <r>   -7.4590    1.0000 </r>
       <r>   -4.9169    1.0000 </r>
       <r>   -4.3726    1.0000 </r>
       <r>   -3.7829    1.0000 </r>
       <r>   -3.2804    1.0000 </r>
       <r>   -3.1658    1.0000 </r>
       <r>   -2.7981    1.0000 </r>
       <r>   -0.3975    1.0000 </r>
       <r>    0.1897    1.0000 </r>
       <r>    0.3578    1.0000 </r>
       <r>    0.8209    1.0000 </r>
       <r>    1.0634    1.0000 </r>
       <r>    1.4295    1.0000 </r>
       <r>    1.7315    1.0000 </r>
       <r>    1.7935    1.0000 </r>
       <r>    2.4720    1.0000 </r>
       <r>    2.4953    1.0000 </r>
       <r>    2.6067    1.0000 </r>
       <r>    2.7255    1.0000 </r>
       <r>    2.8955    1.0000 </r>
       <r>    2.9653    1.0000 </r>
       <r>    3.0826    1.0000 </r>
       <r>    3.6757    1.0000 </r>
       <r>    3.9185    1.0000 </r>
       <r>    4.1325    1.0000 </r>
       <r>    4.2827    1.0000 </r>
       <r>    4.3843    1.0000 </r>
       <r>    4.5038    1.0000 </r>
       <r>    4.5127    1.0000 </r>
       <r>    4.8258    1.0000 </r>
       <r>    4.9496    1.0000 </r>
       <r>    5.2794    1.0000 </r>
       <r>    5.3675    1.0000 </r>
       <r>    5.5692    1.0000 </r>
       <r>    5.9729    1.0000 </r>
       <r>    6.3809    1.0000 </r>
       <r>    6.5335    1.0000 </r>
       <r>    6.7226    1.0000 </r>
       <r>    6.9750    1.0000 </r>
       <r>    7.1666    1.0000 </r>
       <r>    7.2966    1.0000 </r>
       <r>    7.6215    1.0000 </r>
       <r>    7.8765    1.0000 </r>
       <r>   10.7493    0.0000 </r>
       <r>   11.0655    0.0000 </r>
       <r>   11.3933    0.0000 </r>
       <r>   11.7031    0.0000 </r>
       <r>   12.2019    0.0000 </r>
       <r>   12.2331    0.0000 </r>
       <r>   12.4117    0.0000 </r>
       <r>   12.6527    0.0000 </r>
       <r>   12.8153    0.0000 </r>
       <r>   13.3032    0.0000 </r>
       <r>   13.5195    0.0000 </r>
       <r>   13.5651    0.0000 </r>
       <r>   13.9214    0.0000 </r>
       <r>   14.0161    0.0000 </r>
       <r>   14.1443    0.0000 </r>
       <r>   14.5520    0.0000 </r>
      </set>
      <set comment="kpoint 4">
       <r>   -9.2855    1.0000 </r>
       <r>   -9.2855    1.0000 </r>
       <r>   -8.1887    1.0000 </r>
       <r>   -8.1887    1.0000 </r>
       <r>   -7.5543    1.0000 </r>
       <r>   -7.5543    1.0000 </r>
       <r>   -4.6845    1.0000 </r>
       <r>   -4.6845    1.0000 </r>
       <r>   -3.6082    1.0000 </r>
       <r>   -3.6082    1.0000 </r>
       <r>   -2.8546    1.0000 </r>
       <r>   -2.8546    1.0000 </r>
       <r>   -0.0500    1.0000 </r>
       <r>   -0.0500    1.0000 </r>
       <r>    0.5328    1.0000 </r>
       <r>    0.5328    1.0000 </r>
       <r>    1.1063    1.0000 </r>
       <r>    1.1063    1.0000 </r>
       <r>    1.7296    1.0000 </r>
       <r>    1.7296    1.0000 </r>
       <r>    2.4049    1.0000 </r>
       <r>    2.4049    1.0000 </r>
       <r>    2.8511    1.0000 </r>
       <r>    2.8511    1.0000 </r>
       <r>    2.9610    1.0000 </r>
       <r>    2.9610    1.0000 </r>
       <r>    3.5545    1.0000 </r>
       <r>    3.5545    1.0000 </r>
       <r>    3.7737    1.0000 </r>
       <r>    3.7737    1.0000 </r>
       <r>    4.3651    1.0000 </r>
       <r>    4.3651    1.0000 </r>
       <r>    4.6125    1.0000 </r>
       <r>    4.6125    1.0000 </r>
       <r>    4.9566    1.0000 </r>
       <r>    4.9566    1.0000 </r>
       <r>    5.3275    1.0000 </r>
       <r>    5.3275    1.0000 </r>
       <r>    5.8878    1.0000 </r>
       <r>    5.8878    1.0000 </r>
       <r>    6.3546    1.0000 </r>
       <r>    6.3546    1.0000 </r>
       <r>    6.7224    1.0000 </r>
       <r>    6.7224    1.0000 </r>
       <r>    7.0648    1.0000 </r>
       <r>    7.0648    1.0000 </r>
       <r>    7.8525    1.0000 </r>
       <r>    7.8525    1.0000 </r>
       <r>   11.0575    0.0000 </r>
       <r>   11.0575    0.0000 </r>
       <r>   11.3707    0.0000 </r>
       <r>   11.3707    0.0000 </r>
       <r>   12.2712    0.0000 </r>
       <r>   12.2714    0.0000 </r>
       <r>   12.6688    0.0000 </r>
       <r>   12.6691    0.0000 </r>
       <r>   13.1774    0.0000 </r>
       <r>   13.1808    0.0000 </r>
       <r>   13.4201    0.0000 </r>
       <r>   13.4238    0.0000 </r>
       <r>   13.8595    0.0000 </r>
       <r>   13.8937    0.0000 </r>
       <r>   14.3614    0.0000 </r>
       <r>   14.3973    0.0000 </r>
      </set>
      <set comment="kpoint 5">
       <r>   -8.6961    1.0000 </r>
       <r>   -8.5834    1.0000 </r>
       <r>   -7.7799    1.0000 </r>
       <r>   -7.5908    1.0000 </r>
       <r>   -7.4412    1.0000 </r>
       <r>   -7.3068    1.0000 </r>
       <r>   -4.0567    1.0000 </r>
       <r>   -3.6767    1.0000 </r>
       <r>   -3.1302    1.0000 </r>
       <r>   -2.8105    1.0000 </r>
       <r>   -2.7085    1.0000 </r>
       <r>   -2.6762    1.0000 </r>
       <r>   -0.7770    1.0000 </r>
       <r>   -0.1418    1.0000 </r>
       <r>   -0.0459    1.0000 </r>
       <r>    0.2048    1.0000 </r>
       <r>    0.7122    1.0000 </r>
       <r>    0.7993    1.0000 </r>
       <r>    1.3651    1.0000 </r>
       <r>    1.3681    1.0000 </r>
       <r>    1.6495    1.0000 </r>
       <r>    1.9188    1.0000 </r>
       <r>    2.1596    1.0000 </r>
       <r>    2.3222    1.0000 </r>
       <r>    2.4861    1.0000 </r>
       <r>    2.7672    1.0000 </r>
       <r>    2.8556    1.0000 </r>
       <r>    3.0956    1.0000 </r>
       <r>    3.1896    1.0000 </r>
       <r>    3.5571    1.0000 </r>
       <r>    3.8035    1.0000 </r>
       <r>    4.0710    1.0000 </r>
       <r>    4.2317    1.0000 </r>
       <r>    4.2838    1.0000 </r>
       <r>    4.4503    1.0000 </r>
       <r>    4.5032    1.0000 </r>
       <r>    5.0143    1.0000 </r>
       <r>    5.0296    1.0000 </r>
       <r>    5.3046    1.0000 </r>
       <r>    5.5031    1.0000 </r>
       <r>    5.6896    1.0000 </r>
       <r>    5.8549    1.0000 </r>
       <r>    6.0678    1.0000 </r>
       <r>    6.2699    1.0000 </r>
       <r>    6.6299    1.0000 </r>
       <r>    6.8785    1.0000 </r>
       <r>    7.0490    1.0000 </r>
       <r>    7.3110    1.0000 </r>
       <r>   10.5420    0.0000 </r>
       <r>   10.6717    0.0000 </r>
       <r>   11.0871    0.0000 </r>
       <r>   11.1897    0.0000 </r>
       <r>   11.4435    0.0000 </r>
       <r>   12.3375    0.0000 </r>
       <r>   12.4111    0.0000 </r>
       <r>   12.7085    0.0000 </r>
       <r>   12.7611    0.0000 </r>
       <r>   13.0877    0.0000 </r>
       <r>   13.2973    0.0000 </r>
       <r>   13.6479    0.0000 </r>
       <r>   13.8360    0.0000 </r>
       <r>   13.9422    0.0000 </r>
       <r>   14.2301    0.0000 </r>
       <r>   14.8317    0.0000 </r>
      </set>
      <set comment="kpoint 6">
       <r>   -8.6435    1.0000 </r>
       <r>   -8.6435    1.0000 </r>
       <r>   -7.6974    1.0000 </r>
       <r>   -7.6974    1.0000 </r>
       <r>   -7.3581    1.0000 </r>
       <r>   -7.3581    1.0000 </r>
       <r>   -3.8817    1.0000 </r>
       <r>   -3.8817    1.0000 </r>
       <r>   -3.0007    1.0000 </r>
       <r>   -3.0007    1.0000 </r>
       <r>   -2.6711    1.0000 </r>
       <r>   -2.6711    1.0000 </r>
       <r>   -0.4235    1.0000 </r>
       <r>   -0.4235    1.0000 </r>
       <r>    0.1009    1.0000 </r>
       <r>    0.1009    1.0000 </r>
       <r>    0.8353    1.0000 </r>
       <r>    0.8353    1.0000 </r>
       <r>    1.1911    1.0000 </r>
       <r>    1.1911    1.0000 </r>
       <r>    1.8183    1.0000 </r>
       <r>    1.8183    1.0000 </r>
       <r>    2.1180    1.0000 </r>
       <r>    2.1180    1.0000 </r>
       <r>    2.5216    1.0000 </r>
       <r>    2.5216    1.0000 </r>
       <r>    3.1695    1.0000 </r>
       <r>    3.1695    1.0000 </r>
       <r>    3.5230    1.0000 </r>
       <r>    3.5230    1.0000 </r>
       <r>    3.8368    1.0000 </r>
       <r>    3.8368    1.0000 </r>
       <r>    4.1869    1.0000 </r>
       <r>    4.1869    1.0000 </r>
       <r>    4.8245    1.0000 </r>
       <r>    4.8245    1.0000 </r>
       <r>    4.9218    1.0000 </r>
       <r>    4.9218    1.0000 </r>
       <r>    5.3058    1.0000 </r>
       <r>    5.3058    1.0000 </r>
       <r>    5.7441    1.0000 </r>
       <r>    5.7441    1.0000 </r>
       <r>    6.1635    1.0000 </r>
       <r>    6.1635    1.0000 </r>
       <r>    6.6161    1.0000 </r>
       <r>    6.6161    1.0000 </r>
       <r>    7.2170    1.0000 </r>
       <r>    7.2170    1.0000 </r>
       <r>   10.8619    0.0000 </r>
       <r>   10.8619    0.0000 </r>
       <r>   11.1829    0.0000 </r>
       <r>   11.1829    0.0000 </r>
       <r>   11.6223    0.0000 </r>
       <r>   11.6225    0.0000 </r>
       <r>   12.6032    0.0000 </r>
       <r>   12.6036    0.0000 </r>
       <r>   13.0428    0.0000 </r>
       <r>   13.0459    0.0000 </r>
       <r>   13.5293    0.0000 </r>
       <r>   13.5411    0.0000 </r>
       <r>   13.6906    0.0000 </r>
       <r>   13.7169    0.0000 </r>
       <r>   14.0474    0.0000 </r>
       <r>   14.8171    0.0000 </r>
      </set>
      <set comment="kpoint 7">
       <r>   -8.1454    1.0000 </r>
       <r>   -8.1454    1.0000 </r>
       <r>   -7.4217    1.0000 </r>
       <r>   -7.4217    1.0000 </r>
       <r>   -7.3578    1.0000 </r>
       <r>   -7.3578    1.0000 </r>
       <r>   -3.2462    1.0000 </r>
       <r>   -3.2462    1.0000 </r>
       <r>   -2.7707    1.0000 </r>
       <r>   -2.7707    1.0000 </r>
       <r>   -2.6095    1.0000 </r>
       <r>   -2.6095    1.0000 </r>
       <r>   -0.8420    1.0000 </r>
       <r>   -0.8420    1.0000 </r>
       <r>   -0.5887    1.0000 </r>
       <r>   -0.5887    1.0000 </r>
       <r>    0.5313    1.0000 </r>
       <r>    0.5313    1.0000 </r>
       <r>    1.1291    1.0000 </r>
       <r>    1.1291    1.0000 </r>
       <r>    1.6704    1.0000 </r>
       <r>    1.6704    1.0000 </r>
       <r>    1.9386    1.0000 </r>
       <r>    1.9386    1.0000 </r>
       <r>    2.3612    1.0000 </r>
       <r>    2.3612    1.0000 </r>
       <r>    2.9668    1.0000 </r>
       <r>    2.9668    1.0000 </r>
       <r>    3.3340    1.0000 </r>
       <r>    3.3340    1.0000 </r>
       <r>    3.5601    1.0000 </r>
       <r>    3.5601    1.0000 </r>
       <r>    4.2923    1.0000 </r>
       <r>    4.2923    1.0000 </r>
       <r>    4.4773    1.0000 </r>
       <r>    4.4773    1.0000 </r>
       <r>    5.0805    1.0000 </r>
       <r>    5.0805    1.0000 </r>
       <r>    5.2918    1.0000 </r>
       <r>    5.2918    1.0000 </r>
       <r>    5.6756    1.0000 </r>
       <r>    5.6756    1.0000 </r>
       <r>    5.9515    1.0000 </r>
       <r>    5.9515    1.0000 </r>
       <r>    6.4364    1.0000 </r>
       <r>    6.4364    1.0000 </r>
       <r>    6.8543    1.0000 </r>
       <r>    6.8543    1.0000 </r>
       <r>   10.5038    0.0000 </r>
       <r>   10.5038    0.0000 </r>
       <r>   10.5839    0.0000 </r>
       <r>   10.5839    0.0000 </r>
       <r>   11.2674    0.0000 </r>
       <r>   11.2674    0.0000 </r>
       <r>   12.1585    0.0000 </r>
       <r>   12.1591    0.0000 </r>
       <r>   12.4644    0.0000 </r>
       <r>   12.4646    0.0000 </r>
       <r>   13.7707    0.0000 </r>
       <r>   13.7852    0.0000 </r>
       <r>   13.8520    0.0000 </r>
       <r>   14.0452    0.0000 </r>
       <r>   14.1527    0.0000 </r>
       <r>   14.2663    0.0000 </r>
      </set>
      <set comment="kpoint 8">
       <r>   -8.1452    1.0000 </r>
       <r>   -8.1452    1.0000 </r>
       <r>   -7.4230    1.0000 </r>
       <r>   -7.4230    1.0000 </r>
       <r>   -7.3568    1.0000 </r>
       <r>   -7.3568    1.0000 </r>
       <r>   -3.2500    1.0000 </r>
       <r>   -3.2500    1.0000 </r>
       <r>   -2.7713    1.0000 </r>
       <r>   -2.7713    1.0000 </r>
       <r>   -2.5909    1.0000 </r>
       <r>   -2.5909    1.0000 </r>
       <r>   -0.9636    1.0000 </r>
       <r>   -0.9636    1.0000 </r>
       <r>   -0.4604    1.0000 </r>
       <r>   -0.4604    1.0000 </r>
       <r>    0.5159    1.0000 </r>
       <r>    0.5159    1.0000 </r>
       <r>    0.9981    1.0000 </r>
       <r>    0.9981    1.0000 </r>
       <r>    1.7739    1.0000 </r>
       <r>    1.7739    1.0000 </r>
       <r>    2.1074    1.0000 </r>
       <r>    2.1074    1.0000 </r>
       <r>    2.4873    1.0000 </r>
       <r>    2.4873    1.0000 </r>
       <r>    2.7098    1.0000 </r>
       <r>    2.7098    1.0000 </r>
       <r>    3.2012    1.0000 </r>
       <r>    3.2012    1.0000 </r>
       <r>    3.7928    1.0000 </r>
       <r>    3.7928    1.0000 </r>
       <r>    3.8803    1.0000 </r>
       <r>    3.8803    1.0000 </r>
       <r>    4.8651    1.0000 </r>
       <r>    4.8651    1.0000 </r>
       <r>    5.1117    1.0000 </r>
       <r>    5.1117    1.0000 </r>
       <r>    5.3057    1.0000 </r>
       <r>    5.3057    1.0000 </r>
       <r>    5.5960    1.0000 </r>
       <r>    5.5960    1.0000 </r>
       <r>    5.9557    1.0000 </r>
       <r>    5.9557    1.0000 </r>
       <r>    6.2662    1.0000 </r>
       <r>    6.2662    1.0000 </r>
       <r>    6.9149    1.0000 </r>
       <r>    6.9149    1.0000 </r>
       <r>   10.1833    0.0000 </r>
       <r>   10.1833    0.0000 </r>
       <r>   11.3420    0.0000 </r>
       <r>   11.3420    0.0000 </r>
       <r>   11.4321    0.0000 </r>
       <r>   11.4321    0.0000 </r>
       <r>   12.0808    0.0000 </r>
       <r>   12.0809    0.0000 </r>
       <r>   12.6372    0.0000 </r>
       <r>   12.6420    0.0000 </r>
       <r>   12.9827    0.0000 </r>
       <r>   12.9973    0.0000 </r>
       <r>   13.3323    0.0000 </r>
       <r>   13.3484    0.0000 </r>
       <r>   14.1893    0.0000 </r>
       <r>   14.2872    0.0000 </r>
      </set>
      <set comment="kpoint 9">
       <r>   -9.5474    1.0000 </r>
       <r>   -9.4664    1.0000 </r>
       <r>   -8.5365    1.0000 </r>
       <r>   -8.3564    1.0000 </r>
       <r>   -7.7724    1.0000 </r>
       <r>   -7.5598    1.0000 </r>
       <r>   -5.3930    1.0000 </r>
       <r>   -4.6791    1.0000 </r>
       <r>   -3.8531    1.0000 </r>
       <r>   -3.6013    1.0000 </r>
       <r>   -3.0139    1.0000 </r>
       <r>   -2.8320    1.0000 </r>
       <r>   -0.7157    1.0000 </r>
       <r>   -0.0292    1.0000 </r>
       <r>    0.0581    1.0000 </r>
       <r>    0.8477    1.0000 </r>
       <r>    1.0084    1.0000 </r>
       <r>    1.5916    1.0000 </r>
       <r>    1.6956    1.0000 </r>
       <r>    2.1264    1.0000 </r>
       <r>    2.4105    1.0000 </r>
       <r>    2.6082    1.0000 </r>
       <r>    3.0696    1.0000 </r>
       <r>    3.1623    1.0000 </r>
       <r>    3.2136    1.0000 </r>
       <r>    3.6815    1.0000 </r>
       <r>    3.8173    1.0000 </r>
       <r>    3.8416    1.0000 </r>
       <r>    3.8836    1.0000 </r>
       <r>    4.3930    1.0000 </r>
       <r>    4.7193    1.0000 </r>
       <r>    4.7825    1.0000 </r>
       <r>    4.9802    1.0000 </r>
       <r>    5.0450    1.0000 </r>
       <r>    5.1821    1.0000 </r>
       <r>    5.4334    1.0000 </r>
       <r>    5.5832    1.0000 </r>
       <r>    6.0732    1.0000 </r>
       <r>    6.2342    1.0000 </r>
       <r>    6.2667    1.0000 </r>
       <r>    6.3052    1.0000 </r>
       <r>    6.7479    1.0000 </r>
       <r>    7.4283    1.0000 </r>
       <r>    7.7813    1.0000 </r>
       <r>    7.7867    1.0000 </r>
       <r>    7.8897    1.0000 </r>
       <r>    8.3245    1.0000 </r>
       <r>    8.3596    1.0000 </r>
       <r>    9.9281    0.0000 </r>
       <r>   10.3053    0.0000 </r>
       <r>   10.4880    0.0000 </r>
       <r>   10.5941    0.0000 </r>
       <r>   11.6644    0.0000 </r>
       <r>   11.8436    0.0000 </r>
       <r>   12.1063    0.0000 </r>
       <r>   12.2223    0.0000 </r>
       <r>   13.1586    0.0000 </r>
       <r>   13.1851    0.0000 </r>
       <r>   13.4933    0.0000 </r>
       <r>   13.6535    0.0000 </r>
       <r>   13.8233    0.0000 </r>
       <r>   14.2045    0.0000 </r>
       <r>   14.3638    0.0000 </r>
       <r>   14.9238    0.0000 </r>
      </set>
      <set comment="kpoint 10">
       <r>   -9.5367    1.0000 </r>
       <r>   -9.4755    1.0000 </r>
       <r>   -8.5757    1.0000 </r>
       <r>   -8.3088    1.0000 </r>
       <r>   -7.7956    1.0000 </r>
       <r>   -7.5449    1.0000 </r>
       <r>   -5.1199    1.0000 </r>
       <r>   -5.1117    1.0000 </r>
       <r>   -3.7239    1.0000 </r>
       <r>   -3.3673    1.0000 </r>
       <r>   -3.2271    1.0000 </r>
       <r>   -2.8315    1.0000 </r>
       <r>   -0.4558    1.0000 </r>
       <r>   -0.1996    1.0000 </r>
       <r>    0.1161    1.0000 </r>
       <r>    0.4361    1.0000 </r>
       <r>    1.3011    1.0000 </r>
       <r>    1.4912    1.0000 </r>
       <r>    1.6121    1.0000 </r>
       <r>    2.2438    1.0000 </r>
       <r>    2.2945    1.0000 </r>
       <r>    2.6249    1.0000 </r>
       <r>    3.1704    1.0000 </r>
       <r>    3.2063    1.0000 </r>
       <r>    3.2501    1.0000 </r>
       <r>    3.6801    1.0000 </r>
       <r>    3.8093    1.0000 </r>
       <r>    3.8214    1.0000 </r>
       <r>    3.8885    1.0000 </r>
       <r>    4.5051    1.0000 </r>
       <r>    4.6767    1.0000 </r>
       <r>    4.6860    1.0000 </r>
       <r>    4.9864    1.0000 </r>
       <r>    5.0425    1.0000 </r>
       <r>    5.2587    1.0000 </r>
       <r>    5.5306    1.0000 </r>
       <r>    5.8335    1.0000 </r>
       <r>    6.1620    1.0000 </r>
       <r>    6.1630    1.0000 </r>
       <r>    6.1684    1.0000 </r>
       <r>    6.1709    1.0000 </r>
       <r>    6.6295    1.0000 </r>
       <r>    7.1112    1.0000 </r>
       <r>    7.7383    1.0000 </r>
       <r>    7.8530    1.0000 </r>
       <r>    8.0378    1.0000 </r>
       <r>    8.2723    1.0000 </r>
       <r>    8.3950    1.0000 </r>
       <r>    9.9764    0.0000 </r>
       <r>   10.0543    0.0000 </r>
       <r>   10.4867    0.0000 </r>
       <r>   10.9191    0.0000 </r>
       <r>   11.5622    0.0000 </r>
       <r>   11.6700    0.0000 </r>
       <r>   12.1671    0.0000 </r>
       <r>   12.4167    0.0000 </r>
       <r>   13.2384    0.0000 </r>
       <r>   13.3397    0.0000 </r>
       <r>   13.5350    0.0000 </r>
       <r>   13.5377    0.0000 </r>
       <r>   13.9772    0.0000 </r>
       <r>   14.1871    0.0000 </r>
       <r>   14.3964    0.0000 </r>
       <r>   14.7776    0.0000 </r>
      </set>
      <set comment="kpoint 11">
       <r>   -9.2978    1.0000 </r>
       <r>   -9.2224    1.0000 </r>
       <r>   -8.3141    1.0000 </r>
       <r>   -8.1477    1.0000 </r>
       <r>   -7.6392    1.0000 </r>
       <r>   -7.4521    1.0000 </r>
       <r>   -5.0738    1.0000 </r>
       <r>   -4.4003    1.0000 </r>
       <r>   -3.6184    1.0000 </r>
       <r>   -3.3746    1.0000 </r>
       <r>   -2.8818    1.0000 </r>
       <r>   -2.6426    1.0000 </r>
       <r>   -0.5485    1.0000 </r>
       <r>    0.1756    1.0000 </r>
       <r>    0.2120    1.0000 </r>
       <r>    0.8480    1.0000 </r>
       <r>    1.0920    1.0000 </r>
       <r>    1.5942    1.0000 </r>
       <r>    1.7062    1.0000 </r>
       <r>    1.8903    1.0000 </r>
       <r>    2.0924    1.0000 </r>
       <r>    2.2548    1.0000 </r>
       <r>    2.3317    1.0000 </r>
       <r>    2.5360    1.0000 </r>
       <r>    2.8972    1.0000 </r>
       <r>    3.0740    1.0000 </r>
       <r>    3.2770    1.0000 </r>
       <r>    3.5537    1.0000 </r>
       <r>    3.6131    1.0000 </r>
       <r>    4.0642    1.0000 </r>
       <r>    4.3123    1.0000 </r>
       <r>    4.5061    1.0000 </r>
       <r>    4.5456    1.0000 </r>
       <r>    4.8037    1.0000 </r>
       <r>    4.8632    1.0000 </r>
       <r>    5.2513    1.0000 </r>
       <r>    5.3964    1.0000 </r>
       <r>    5.5926    1.0000 </r>
       <r>    5.6050    1.0000 </r>
       <r>    6.0215    1.0000 </r>
       <r>    6.2505    1.0000 </r>
       <r>    6.5814    1.0000 </r>
       <r>    6.7298    1.0000 </r>
       <r>    7.0368    1.0000 </r>
       <r>    7.1155    1.0000 </r>
       <r>    7.1478    1.0000 </r>
       <r>    7.7785    1.0000 </r>
       <r>    7.8731    1.0000 </r>
       <r>   10.9413    0.0000 </r>
       <r>   11.3292    0.0000 </r>
       <r>   11.3782    0.0000 </r>
       <r>   11.6919    0.0000 </r>
       <r>   12.1215    0.0000 </r>
       <r>   12.3116    0.0000 </r>
       <r>   12.6520    0.0000 </r>
       <r>   12.7466    0.0000 </r>
       <r>   12.9145    0.0000 </r>
       <r>   12.9332    0.0000 </r>
       <r>   13.6235    0.0000 </r>
       <r>   13.6779    0.0000 </r>
       <r>   14.0634    0.0000 </r>
       <r>   14.0859    0.0000 </r>
       <r>   14.3334    0.0000 </r>
       <r>   14.4014    0.0000 </r>
      </set>
      <set comment="kpoint 12">
       <r>   -9.2870    1.0000 </r>
       <r>   -9.2319    1.0000 </r>
       <r>   -8.3499    1.0000 </r>
       <r>   -8.1024    1.0000 </r>
       <r>   -7.6630    1.0000 </r>
       <r>   -7.4380    1.0000 </r>
       <r>   -4.8147    1.0000 </r>
       <r>   -4.8033    1.0000 </r>
       <r>   -3.5063    1.0000 </r>
       <r>   -3.1754    1.0000 </r>
       <r>   -3.0329    1.0000 </r>
       <r>   -2.6729    1.0000 </r>
       <r>   -0.2207    1.0000 </r>
       <r>   -0.1367    1.0000 </r>
       <r>    0.3362    1.0000 </r>
       <r>    0.5929    1.0000 </r>
       <r>    1.3189    1.0000 </r>
       <r>    1.4737    1.0000 </r>
       <r>    1.7134    1.0000 </r>
       <r>    1.8289    1.0000 </r>
       <r>    2.0234    1.0000 </r>
       <r>    2.1570    1.0000 </r>
       <r>    2.4071    1.0000 </r>
       <r>    2.4248    1.0000 </r>
       <r>    2.7155    1.0000 </r>
       <r>    3.1858    1.0000 </r>
       <r>    3.4976    1.0000 </r>
       <r>    3.8218    1.0000 </r>
       <r>    3.9249    1.0000 </r>
       <r>    3.9586    1.0000 </r>
       <r>    4.3571    1.0000 </r>
       <r>    4.3715    1.0000 </r>
       <r>    4.4931    1.0000 </r>
       <r>    4.6301    1.0000 </r>
       <r>    4.8840    1.0000 </r>
       <r>    5.1805    1.0000 </r>
       <r>    5.4479    1.0000 </r>
       <r>    5.5765    1.0000 </r>
       <r>    5.9453    1.0000 </r>
       <r>    6.0119    1.0000 </r>
       <r>    6.1354    1.0000 </r>
       <r>    6.4270    1.0000 </r>
       <r>    6.7150    1.0000 </r>
       <r>    6.7389    1.0000 </r>
       <r>    7.1736    1.0000 </r>
       <r>    7.3041    1.0000 </r>
       <r>    7.7153    1.0000 </r>
       <r>    7.8456    1.0000 </r>
       <r>   11.0112    0.0000 </r>
       <r>   11.1433    0.0000 </r>
       <r>   11.5982    0.0000 </r>
       <r>   11.8346    0.0000 </r>
       <r>   11.9815    0.0000 </r>
       <r>   12.2742    0.0000 </r>
       <r>   12.8290    0.0000 </r>
       <r>   12.8549    0.0000 </r>
       <r>   12.9991    0.0000 </r>
       <r>   13.1099    0.0000 </r>
       <r>   13.5185    0.0000 </r>
       <r>   13.5849    0.0000 </r>
       <r>   13.8902    0.0000 </r>
       <r>   13.9529    0.0000 </r>
       <r>   14.4707    0.0000 </r>
       <r>   14.6432    0.0000 </r>
      </set>
      <set comment="kpoint 13">
       <r>   -8.6565    1.0000 </r>
       <r>   -8.5989    1.0000 </r>
       <r>   -7.7769    1.0000 </r>
       <r>   -7.6667    1.0000 </r>
       <r>   -7.4072    1.0000 </r>
       <r>   -7.2970    1.0000 </r>
       <r>   -4.1769    1.0000 </r>
       <r>   -3.6980    1.0000 </r>
       <r>   -3.0908    1.0000 </r>
       <r>   -2.9544    1.0000 </r>
       <r>   -2.7058    1.0000 </r>
       <r>   -2.3307    1.0000 </r>
       <r>   -0.7024    1.0000 </r>
       <r>   -0.1951    1.0000 </r>
       <r>    0.0517    1.0000 </r>
       <r>    0.2300    1.0000 </r>
       <r>    0.6670    1.0000 </r>
       <r>    1.0702    1.0000 </r>
       <r>    1.1996    1.0000 </r>
       <r>    1.4584    1.0000 </r>
       <r>    1.5118    1.0000 </r>
       <r>    1.8336    1.0000 </r>
       <r>    2.0976    1.0000 </r>
       <r>    2.2028    1.0000 </r>
       <r>    2.5258    1.0000 </r>
       <r>    2.8066    1.0000 </r>
       <r>    2.9422    1.0000 </r>
       <r>    3.0099    1.0000 </r>
       <r>    3.2767    1.0000 </r>
       <r>    3.3614    1.0000 </r>
       <r>    3.7468    1.0000 </r>
       <r>    3.7524    1.0000 </r>
       <r>    3.9556    1.0000 </r>
       <r>    4.1154    1.0000 </r>
       <r>    4.3723    1.0000 </r>
       <r>    4.5538    1.0000 </r>
       <r>    4.9601    1.0000 </r>
       <r>    5.3181    1.0000 </r>
       <r>    5.3865    1.0000 </r>
       <r>    5.6236    1.0000 </r>
       <r>    5.8477    1.0000 </r>
       <r>    5.9252    1.0000 </r>
       <r>    6.0883    1.0000 </r>
       <r>    6.4691    1.0000 </r>
       <r>    6.6413    1.0000 </r>
       <r>    6.8576    1.0000 </r>
       <r>    6.9248    1.0000 </r>
       <r>    7.3938    1.0000 </r>
       <r>   10.7122    0.0000 </r>
       <r>   10.9851    0.0000 </r>
       <r>   11.2616    0.0000 </r>
       <r>   11.2813    0.0000 </r>
       <r>   11.8006    0.0000 </r>
       <r>   12.0614    0.0000 </r>
       <r>   12.5494    0.0000 </r>
       <r>   12.6144    0.0000 </r>
       <r>   12.9520    0.0000 </r>
       <r>   13.1613    0.0000 </r>
       <r>   13.3755    0.0000 </r>
       <r>   13.4347    0.0000 </r>
       <r>   13.7618    0.0000 </r>
       <r>   13.9775    0.0000 </r>
       <r>   14.1223    0.0000 </r>
       <r>   14.2295    0.0000 </r>
      </set>
      <set comment="kpoint 14">
       <r>   -8.6437    1.0000 </r>
       <r>   -8.6117    1.0000 </r>
       <r>   -7.7970    1.0000 </r>
       <r>   -7.6382    1.0000 </r>
       <r>   -7.4211    1.0000 </r>
       <r>   -7.2917    1.0000 </r>
       <r>   -3.9814    1.0000 </r>
       <r>   -3.9634    1.0000 </r>
       <r>   -3.0639    1.0000 </r>
       <r>   -2.9364    1.0000 </r>
       <r>   -2.5902    1.0000 </r>
       <r>   -2.4617    1.0000 </r>
       <r>   -0.4986    1.0000 </r>
       <r>   -0.2292    1.0000 </r>
       <r>    0.0617    1.0000 </r>
       <r>    0.1656    1.0000 </r>
       <r>    0.7969    1.0000 </r>
       <r>    0.8750    1.0000 </r>
       <r>    1.0613    1.0000 </r>
       <r>    1.3923    1.0000 </r>
       <r>    1.5768    1.0000 </r>
       <r>    1.9584    1.0000 </r>
       <r>    2.0150    1.0000 </r>
       <r>    2.1803    1.0000 </r>
       <r>    2.5830    1.0000 </r>
       <r>    2.6335    1.0000 </r>
       <r>    2.8058    1.0000 </r>
       <r>    3.2672    1.0000 </r>
       <r>    3.2679    1.0000 </r>
       <r>    3.5584    1.0000 </r>
       <r>    3.5770    1.0000 </r>
       <r>    3.9287    1.0000 </r>
       <r>    4.0780    1.0000 </r>
       <r>    4.1391    1.0000 </r>
       <r>    4.3963    1.0000 </r>
       <r>    4.6951    1.0000 </r>
       <r>    4.8657    1.0000 </r>
       <r>    4.9479    1.0000 </r>
       <r>    5.4608    1.0000 </r>
       <r>    5.6302    1.0000 </r>
       <r>    5.7468    1.0000 </r>
       <r>    6.0096    1.0000 </r>
       <r>    6.2585    1.0000 </r>
       <r>    6.3316    1.0000 </r>
       <r>    6.3690    1.0000 </r>
       <r>    6.9502    1.0000 </r>
       <r>    7.0092    1.0000 </r>
       <r>    7.3836    1.0000 </r>
       <r>   10.7716    0.0000 </r>
       <r>   11.1427    0.0000 </r>
       <r>   11.2806    0.0000 </r>
       <r>   11.6275    0.0000 </r>
       <r>   11.7038    0.0000 </r>
       <r>   11.9396    0.0000 </r>
       <r>   12.5382    0.0000 </r>
       <r>   12.5645    0.0000 </r>
       <r>   12.9579    0.0000 </r>
       <r>   13.0060    0.0000 </r>
       <r>   13.1911    0.0000 </r>
       <r>   13.2709    0.0000 </r>
       <r>   13.6494    0.0000 </r>
       <r>   13.9309    0.0000 </r>
       <r>   14.2171    0.0000 </r>
       <r>   14.6392    0.0000 </r>
      </set>
      <set comment="kpoint 15">
       <r>   -8.1431    1.0000 </r>
       <r>   -8.1431    1.0000 </r>
       <r>   -7.4078    1.0000 </r>
       <r>   -7.4078    1.0000 </r>
       <r>   -7.3699    1.0000 </r>
       <r>   -7.3699    1.0000 </r>
       <r>   -3.2733    1.0000 </r>
       <r>   -3.2733    1.0000 </r>
       <r>   -2.8292    1.0000 </r>
       <r>   -2.8292    1.0000 </r>
       <r>   -2.6422    1.0000 </r>
       <r>   -2.6422    1.0000 </r>
       <r>   -0.7629    1.0000 </r>
       <r>   -0.7629    1.0000 </r>
       <r>   -0.4273    1.0000 </r>
       <r>   -0.4273    1.0000 </r>
       <r>    0.6554    1.0000 </r>
       <r>    0.6554    1.0000 </r>
       <r>    0.8974    1.0000 </r>
       <r>    0.8974    1.0000 </r>
       <r>    1.9341    1.0000 </r>
       <r>    1.9341    1.0000 </r>
       <r>    2.2196    1.0000 </r>
       <r>    2.2196    1.0000 </r>
       <r>    2.3940    1.0000 </r>
       <r>    2.3940    1.0000 </r>
       <r>    2.5503    1.0000 </r>
       <r>    2.5503    1.0000 </r>
       <r>    3.2864    1.0000 </r>
       <r>    3.2864    1.0000 </r>
       <r>    3.6236    1.0000 </r>
       <r>    3.6236    1.0000 </r>
       <r>    3.7091    1.0000 </r>
       <r>    3.7091    1.0000 </r>
       <r>    4.4404    1.0000 </r>
       <r>    4.4404    1.0000 </r>
       <r>    4.9195    1.0000 </r>
       <r>    4.9195    1.0000 </r>
       <r>    5.3749    1.0000 </r>
       <r>    5.3749    1.0000 </r>
       <r>    5.8056    1.0000 </r>
       <r>    5.8056    1.0000 </r>
       <r>    6.1130    1.0000 </r>
       <r>    6.1130    1.0000 </r>
       <r>    6.3843    1.0000 </r>
       <r>    6.3843    1.0000 </r>
       <r>    7.0123    1.0000 </r>
       <r>    7.0123    1.0000 </r>
       <r>   10.3187    0.0000 </r>
       <r>   10.3187    0.0000 </r>
       <r>   11.2099    0.0000 </r>
       <r>   11.2100    0.0000 </r>
       <r>   11.5926    0.0000 </r>
       <r>   11.5926    0.0000 </r>
       <r>   11.9267    0.0000 </r>
       <r>   11.9268    0.0000 </r>
       <r>   12.5609    0.0000 </r>
       <r>   12.5617    0.0000 </r>
       <r>   13.0248    0.0000 </r>
       <r>   13.0284    0.0000 </r>
       <r>   13.9151    0.0000 </r>
       <r>   14.0525    0.0000 </r>
       <r>   14.4508    0.0000 </r>
       <r>   14.6871    0.0000 </r>
      </set>
      <set comment="kpoint 16">
       <r>   -8.1430    1.0000 </r>
       <r>   -8.1430    1.0000 </r>
       <r>   -7.4086    1.0000 </r>
       <r>   -7.4086    1.0000 </r>
       <r>   -7.3693    1.0000 </r>
       <r>   -7.3693    1.0000 </r>
       <r>   -3.2776    1.0000 </r>
       <r>   -3.2776    1.0000 </r>
       <r>   -2.8334    1.0000 </r>
       <r>   -2.8334    1.0000 </r>
       <r>   -2.6224    1.0000 </r>
       <r>   -2.6224    1.0000 </r>
       <r>   -0.8430    1.0000 </r>
       <r>   -0.8430    1.0000 </r>
       <r>   -0.3641    1.0000 </r>
       <r>   -0.3641    1.0000 </r>
       <r>    0.6572    1.0000 </r>
       <r>    0.6572    1.0000 </r>
       <r>    0.9456    1.0000 </r>
       <r>    0.9456    1.0000 </r>
       <r>    1.8037    1.0000 </r>
       <r>    1.8037    1.0000 </r>
       <r>    2.2715    1.0000 </r>
       <r>    2.2715    1.0000 </r>
       <r>    2.4030    1.0000 </r>
       <r>    2.4030    1.0000 </r>
       <r>    2.7075    1.0000 </r>
       <r>    2.7075    1.0000 </r>
       <r>    2.9560    1.0000 </r>
       <r>    2.9560    1.0000 </r>
       <r>    3.6248    1.0000 </r>
       <r>    3.6248    1.0000 </r>
       <r>    4.1461    1.0000 </r>
       <r>    4.1461    1.0000 </r>
       <r>    4.4560    1.0000 </r>
       <r>    4.4560    1.0000 </r>
       <r>    4.7195    1.0000 </r>
       <r>    4.7195    1.0000 </r>
       <r>    5.1842    1.0000 </r>
       <r>    5.1842    1.0000 </r>
       <r>    5.7764    1.0000 </r>
       <r>    5.7764    1.0000 </r>
       <r>    6.2003    1.0000 </r>
       <r>    6.2003    1.0000 </r>
       <r>    6.4751    1.0000 </r>
       <r>    6.4751    1.0000 </r>
       <r>    6.9692    1.0000 </r>
       <r>    6.9692    1.0000 </r>
       <r>   10.5362    0.0000 </r>
       <r>   10.5362    0.0000 </r>
       <r>   10.9278    0.0000 </r>
       <r>   10.9278    0.0000 </r>
       <r>   11.7282    0.0000 </r>
       <r>   11.7284    0.0000 </r>
       <r>   12.0016    0.0000 </r>
       <r>   12.0016    0.0000 </r>
       <r>   12.7772    0.0000 </r>
       <r>   12.7783    0.0000 </r>
       <r>   13.0135    0.0000 </r>
       <r>   13.0159    0.0000 </r>
       <r>   13.6035    0.0000 </r>
       <r>   13.6380    0.0000 </r>
       <r>   14.2459    0.0000 </r>
       <r>   14.4647    0.0000 </r>
      </set>
     </set>
    </set>
   </array>
  </eigenvalues>
  <separator name="orbital magnetization" >
   <v name="MAGDIPOLOUT">      0.00000000      0.00000000      0.00000000</v>
  </separator>
  <dos>
   <i name="efermi">      8.90862734 </i>
   <total>
    <array>
     <dimension dim="1">gridpoints</dimension>
     <dimension dim="2">spin</dimension>
     <field>energy</field>
     <field>total</field>
     <field>integrated</field>
     <set>
      <set comment="spin 1">
       <r>   -10.8473     0.0000     0.0000 </r>
       <r>   -10.7571     0.0000     0.0000 </r>
       <r>   -10.6669     0.0000     0.0000 </r>
       <r>   -10.5767     0.0000     0.0000 </r>
       <r>   -10.4865     0.0000     0.0000 </r>
       <r>   -10.3963     0.0000     0.0000 </r>
       <r>   -10.3061     0.0000     0.0000 </r>
       <r>   -10.2159     0.0000     0.0000 </r>
       <r>   -10.1257     0.0000     0.0000 </r>
       <r>   -10.0355     0.0000     0.0000 </r>
       <r>    -9.9453     0.0000     0.0000 </r>
       <r>    -9.8551     0.0003     0.0000 </r>
       <r>    -9.7649     0.0139     0.0013 </r>
       <r>    -9.6747     0.2251     0.0216 </r>
       <r>    -9.5845     1.3014     0.1390 </r>
       <r>    -9.4943     2.8717     0.3980 </r>
       <r>    -9.4041     3.0125     0.6697 </r>
       <r>    -9.3139     4.1511     1.0442 </r>
       <r>    -9.2236     6.0885     1.5934 </r>
       <r>    -9.1334     3.7047     1.9276 </r>
       <r>    -9.0432     0.7572     1.9959 </r>
       <r>    -8.9530     0.0453     2.0000 </r>
       <r>    -8.8628     0.0217     2.0019 </r>
       <r>    -8.7726     0.4966     2.0467 </r>
       <r>    -8.6824     3.4130     2.3546 </r>
       <r>    -8.5922     7.3148     3.0144 </r>
       <r>    -8.5020     5.3899     3.5006 </r>
       <r>    -8.4118     2.8089     3.7540 </r>
       <r>    -8.3216     4.4237     4.1530 </r>
       <r>    -8.2314     5.2464     4.6262 </r>
       <r>    -8.1412     6.8810     5.2469 </r>
       <r>    -8.0510     6.0513     5.7928 </r>
       <r>    -7.9608     2.0762     5.9801 </r>
       <r>    -7.8706     1.3857     6.1051 </r>
       <r>    -7.7804     4.6804     6.5272 </r>
       <r>    -7.6902     8.2143     7.2682 </r>
       <r>    -7.6000     9.2750     8.1048 </r>
       <r>    -7.5098     8.2585     8.8498 </r>
       <r>    -7.4196    11.9353     9.9264 </r>
       <r>    -7.3294    13.8917    11.1795 </r>
       <r>    -7.2392     7.3236    11.8401 </r>
       <r>    -7.1490     1.6452    11.9885 </r>
       <r>    -7.0588     0.1251    11.9998 </r>
       <r>    -6.9686     0.0025    12.0000 </r>
       <r>    -6.8784     0.0000    12.0000 </r>
       <r>    -6.7882     0.0000    12.0000 </r>
       <r>    -6.6980     0.0000    12.0000 </r>
       <r>    -6.6078     0.0000    12.0000 </r>
       <r>    -6.5175     0.0000    12.0000 </r>
       <r>    -6.4273     0.0000    12.0000 </r>
       <r>    -6.3371     0.0000    12.0000 </r>
       <r>    -6.2469     0.0000    12.0000 </r>
       <r>    -6.1567     0.0000    12.0000 </r>
       <r>    -6.0665     0.0000    12.0000 </r>
       <r>    -5.9763     0.0000    12.0000 </r>
       <r>    -5.8861     0.0000    12.0000 </r>
       <r>    -5.7959     0.0000    12.0000 </r>
       <r>    -5.7057     0.0000    12.0000 </r>
       <r>    -5.6155     0.0010    12.0001 </r>
       <r>    -5.5253     0.0368    12.0034 </r>
       <r>    -5.4351     0.3030    12.0307 </r>
       <r>    -5.3449     0.6166    12.0864 </r>
       <r>    -5.2547     0.5325    12.1344 </r>
       <r>    -5.1645     1.1002    12.2336 </r>
       <r>    -5.0743     2.3911    12.4493 </r>
       <r>    -4.9841     2.3247    12.6590 </r>
       <r>    -4.8939     1.9096    12.8313 </r>
       <r>    -4.8037     2.7298    13.0775 </r>
       <r>    -4.7135     3.1171    13.3587 </r>
       <r>    -4.6233     2.4346    13.5783 </r>
       <r>    -4.5331     0.9737    13.6661 </r>
       <r>    -4.4429     0.8745    13.7450 </r>
       <r>    -4.3527     1.7464    13.9025 </r>
       <r>    -4.2625     1.2258    14.0131 </r>
       <r>    -4.1723     1.2497    14.1258 </r>
       <r>    -4.0821     1.8105    14.2891 </r>
       <r>    -3.9919     2.9106    14.5517 </r>
       <r>    -3.9017     4.0091    14.9133 </r>
       <r>    -3.8114     3.7074    15.2477 </r>
       <r>    -3.7212     3.4838    15.5620 </r>
       <r>    -3.6310     4.6547    15.9818 </r>
       <r>    -3.5408     4.4983    16.3876 </r>
       <r>    -3.4506     3.0060    16.6587 </r>
       <r>    -3.3604     3.3576    16.9616 </r>
       <r>    -3.2702     5.6194    17.4685 </r>
       <r>    -3.1800     6.4433    18.0497 </r>
       <r>    -3.0898     6.1904    18.6081 </r>
       <r>    -2.9996     7.4528    19.2804 </r>
       <r>    -2.9094     8.2820    20.0274 </r>
       <r>    -2.8192     9.3583    20.8716 </r>
       <r>    -2.7290     9.4227    21.7215 </r>
       <r>    -2.6388    10.2375    22.6450 </r>
       <r>    -2.5486     7.9906    23.3658 </r>
       <r>    -2.4584     3.2789    23.6615 </r>
       <r>    -2.3682     1.7895    23.8230 </r>
       <r>    -2.2780     1.3894    23.9483 </r>
       <r>    -2.1878     0.5199    23.9952 </r>
       <r>    -2.0976     0.0522    23.9999 </r>
       <r>    -2.0074     0.0012    24.0000 </r>
       <r>    -1.9172     0.0000    24.0000 </r>
       <r>    -1.8270     0.0000    24.0000 </r>
       <r>    -1.7368     0.0000    24.0000 </r>
       <r>    -1.6466     0.0000    24.0000 </r>
       <r>    -1.5564     0.0000    24.0000 </r>
       <r>    -1.4662     0.0000    24.0000 </r>
       <r>    -1.3760     0.0000    24.0000 </r>
       <r>    -1.2858     0.0000    24.0000 </r>
       <r>    -1.1956     0.0006    24.0001 </r>
       <r>    -1.1053     0.0275    24.0025 </r>
       <r>    -1.0151     0.2872    24.0284 </r>
       <r>    -0.9249     1.0619    24.1242 </r>
       <r>    -0.8347     2.5939    24.3582 </r>
       <r>    -0.7445     4.0915    24.7273 </r>
       <r>    -0.6543     3.6245    25.0542 </r>
       <r>    -0.5641     3.2046    25.3433 </r>
       <r>    -0.4739     5.2246    25.8146 </r>
       <r>    -0.3837     6.2324    26.3768 </r>
       <r>    -0.2935     4.6436    26.7956 </r>
       <r>    -0.2033     5.5104    27.2927 </r>
       <r>    -0.1131     6.0093    27.8347 </r>
       <r>    -0.0229     5.1059    28.2953 </r>
       <r>     0.0673     6.2999    28.8636 </r>
       <r>     0.1575     7.9625    29.5818 </r>
       <r>     0.2477     7.4060    30.2499 </r>
       <r>     0.3379     4.6472    30.6691 </r>
       <r>     0.4281     3.3133    30.9679 </r>
       <r>     0.5183     3.4917    31.2829 </r>
       <r>     0.6085     5.0516    31.7386 </r>
       <r>     0.6987     5.9517    32.2754 </r>
       <r>     0.7889     6.3097    32.8446 </r>
       <r>     0.8791     8.0524    33.5709 </r>
       <r>     0.9693     6.9290    34.1960 </r>
       <r>     1.0595     6.6980    34.8001 </r>
       <r>     1.1497     7.4075    35.4683 </r>
       <r>     1.2399     5.7017    35.9826 </r>
       <r>     1.3301     5.1391    36.4462 </r>
       <r>     1.4203     6.1760    37.0033 </r>
       <r>     1.5105     7.0309    37.6375 </r>
       <r>     1.6007     7.3075    38.2967 </r>
       <r>     1.6910     8.0637    39.0240 </r>
       <r>     1.7812     9.4998    39.8810 </r>
       <r>     1.8714     9.5666    40.7439 </r>
       <r>     1.9616     8.5770    41.5176 </r>
       <r>     2.0518     8.4823    42.2827 </r>
       <r>     2.1420     9.9409    43.1794 </r>
       <r>     2.2322    10.7283    44.1471 </r>
       <r>     2.3224     9.9246    45.0424 </r>
       <r>     2.4126    10.7712    46.0140 </r>
       <r>     2.5028    11.7383    47.0728 </r>
       <r>     2.5930    11.0513    48.0697 </r>
       <r>     2.6832     8.8789    48.8706 </r>
       <r>     2.7734     7.6755    49.5629 </r>
       <r>     2.8636     7.9801    50.2828 </r>
       <r>     2.9538     9.3080    51.1224 </r>
       <r>     3.0440     8.8442    51.9201 </r>
       <r>     3.1342     8.6585    52.7012 </r>
       <r>     3.2244    12.0796    53.7908 </r>
       <r>     3.3146    11.9519    54.8689 </r>
       <r>     3.4048     6.5069    55.4558 </r>
       <r>     3.4950     5.4994    55.9519 </r>
       <r>     3.5852    10.4249    56.8923 </r>
       <r>     3.6754    11.2616    57.9081 </r>
       <r>     3.7656    10.8418    58.8861 </r>
       <r>     3.8558    12.6836    60.0302 </r>
       <r>     3.9460    11.6215    61.0785 </r>
       <r>     4.0362     8.2138    61.8194 </r>
       <r>     4.1264     8.3009    62.5682 </r>
       <r>     4.2166     8.4122    63.3270 </r>
       <r>     4.3068     8.1878    64.0655 </r>
       <r>     4.3971    11.8602    65.1354 </r>
       <r>     4.4873    13.9267    66.3916 </r>
       <r>     4.5775    11.6479    67.4423 </r>
       <r>     4.6677     8.3198    68.1927 </r>
       <r>     4.7579     7.8589    68.9016 </r>
       <r>     4.8481     9.7285    69.7792 </r>
       <r>     4.9383    12.9237    70.9449 </r>
       <r>     5.0285    11.8924    72.0177 </r>
       <r>     5.1187     7.5563    72.6993 </r>
       <r>     5.2089     6.8769    73.3196 </r>
       <r>     5.2991    10.0268    74.2240 </r>
       <r>     5.3893    11.5256    75.2637 </r>
       <r>     5.4795     9.2939    76.1020 </r>
       <r>     5.5697     8.8676    76.9019 </r>
       <r>     5.6599     9.7866    77.7847 </r>
       <r>     5.7501     8.1985    78.5242 </r>
       <r>     5.8403     8.5373    79.2943 </r>
       <r>     5.9305     9.0744    80.1129 </r>
       <r>     6.0207     9.7149    80.9892 </r>
       <r>     6.1109    10.6436    81.9493 </r>
       <r>     6.2011    12.0817    83.0391 </r>
       <r>     6.2913    11.6623    84.0911 </r>
       <r>     6.3815    10.6391    85.0507 </r>
       <r>     6.4717     8.9943    85.8620 </r>
       <r>     6.5619     6.5094    86.4492 </r>
       <r>     6.6521     7.1874    87.0975 </r>
       <r>     6.7423     8.6861    87.8811 </r>
       <r>     6.8325     7.1935    88.5299 </r>
       <r>     6.9227     7.2967    89.1881 </r>
       <r>     7.0129     9.6034    90.0544 </r>
       <r>     7.1032     9.4966    90.9110 </r>
       <r>     7.1934     7.5113    91.5886 </r>
       <r>     7.2836     5.4790    92.0828 </r>
       <r>     7.3738     4.8745    92.5225 </r>
       <r>     7.4640     3.5483    92.8426 </r>
       <r>     7.5542     1.3588    92.9651 </r>
       <r>     7.6444     1.8458    93.1316 </r>
       <r>     7.7346     4.8071    93.5652 </r>
       <r>     7.8248     7.6920    94.2591 </r>
       <r>     7.9150     7.1703    94.9059 </r>
       <r>     8.0052     3.0867    95.1843 </r>
       <r>     8.0954     1.1684    95.2897 </r>
       <r>     8.1856     0.7898    95.3609 </r>
       <r>     8.2758     1.5663    95.5022 </r>
       <r>     8.3660     2.8251    95.7570 </r>
       <r>     8.4562     2.1171    95.9480 </r>
       <r>     8.5464     0.5364    95.9964 </r>
       <r>     8.6366     0.0392    95.9999 </r>
       <r>     8.7268     0.0007    96.0000 </r>
       <r>     8.8170     0.0000    96.0000 </r>
       <r>     8.9072     0.0000    96.0000 </r>
       <r>     8.9974     0.0000    96.0000 </r>
       <r>     9.0876     0.0000    96.0000 </r>
       <r>     9.1778     0.0000    96.0000 </r>
       <r>     9.2680     0.0000    96.0000 </r>
       <r>     9.3582     0.0009    96.0001 </r>
       <r>     9.4484     0.0273    96.0026 </r>
       <r>     9.5386     0.1816    96.0189 </r>
       <r>     9.6288     0.2869    96.0448 </r>
       <r>     9.7190     0.1112    96.0548 </r>
       <r>     9.8093     0.0763    96.0617 </r>
       <r>     9.8995     0.5421    96.1106 </r>
       <r>     9.9897     1.3314    96.2307 </r>
       <r>    10.0799     1.4874    96.3649 </r>
       <r>    10.1701     1.6836    96.5168 </r>
       <r>    10.2603     2.3154    96.7256 </r>
       <r>    10.3505     2.7971    96.9779 </r>
       <r>    10.4407     2.7996    97.2305 </r>
       <r>    10.5309     4.0937    97.5997 </r>
       <r>    10.6211     4.2924    97.9869 </r>
       <r>    10.7113     3.6178    98.3133 </r>
       <r>    10.8015     3.8320    98.6589 </r>
       <r>    10.8917     4.3440    99.0508 </r>
       <r>    10.9819     6.1471    99.6052 </r>
       <r>    11.0721     6.8902   100.2268 </r>
       <r>    11.1623     7.3975   100.8940 </r>
       <r>    11.2525     8.5015   101.6609 </r>
       <r>    11.3427     8.8256   102.4570 </r>
       <r>    11.4329     6.7577   103.0666 </r>
       <r>    11.5231     4.1418   103.4402 </r>
       <r>    11.6133     6.4661   104.0234 </r>
       <r>    11.7035     9.3382   104.8658 </r>
       <r>    11.7937     7.7483   105.5647 </r>
       <r>    11.8839     5.9142   106.0982 </r>
       <r>    11.9741     6.2850   106.6651 </r>
       <r>    12.0643     6.8980   107.2873 </r>
       <r>    12.1545     6.4900   107.8728 </r>
       <r>    12.2447     6.4308   108.4528 </r>
       <r>    12.3349     6.2727   109.0186 </r>
       <r>    12.4251     4.7387   109.4461 </r>
       <r>    12.5154     5.4504   109.9377 </r>
       <r>    12.6056     8.9045   110.7410 </r>
       <r>    12.6958     9.4261   111.5912 </r>
       <r>    12.7860     7.7022   112.2860 </r>
       <r>    12.8762     7.4184   112.9551 </r>
       <r>    12.9664     9.6756   113.8279 </r>
       <r>    13.0566    11.1371   114.8325 </r>
       <r>    13.1468     9.1939   115.6619 </r>
       <r>    13.2370     8.3392   116.4141 </r>
       <r>    13.3272     6.9272   117.0389 </r>
       <r>    13.4174     6.8319   117.6552 </r>
       <r>    13.5076     8.3470   118.4081 </r>
       <r>    13.5978    10.1989   119.3281 </r>
       <r>    13.6880    10.0033   120.2304 </r>
       <r>    13.7782     7.2336   120.8829 </r>
       <r>    13.8684     6.9992   121.5143 </r>
       <r>    13.9586     9.4838   122.3698 </r>
       <r>    14.0488     9.3399   123.2122 </r>
       <r>    14.1390     8.1721   123.9494 </r>
       <r>    14.2292     8.2052   124.6895 </r>
       <r>    14.3194     7.6851   125.3827 </r>
       <r>    14.4096     7.2048   126.0326 </r>
       <r>    14.4998     5.9105   126.5658 </r>
       <r>    14.5900     3.7308   126.9023 </r>
       <r>    14.6802     3.7880   127.2440 </r>
       <r>    14.7704     3.2289   127.5353 </r>
       <r>    14.8606     2.5393   127.7643 </r>
       <r>    14.9508     1.6526   127.9134 </r>
       <r>    15.0410     0.7687   127.9827 </r>
       <r>    15.1312     0.1780   127.9988 </r>
       <r>    15.2214     0.0132   128.0000 </r>
       <r>    15.3117     0.0003   128.0000 </r>
       <r>    15.4019     0.0000   128.0000 </r>
       <r>    15.4921     0.0000   128.0000 </r>
       <r>    15.5823     0.0000   128.0000 </r>
       <r>    15.6725     0.0000   128.0000 </r>
       <r>    15.7627     0.0000   128.0000 </r>
       <r>    15.8529     0.0000   128.0000 </r>
       <r>    15.9431     0.0000   128.0000 </r>
       <r>    16.0333     0.0000   128.0000 </r>
       <r>    16.1235     0.0000   128.0000 </r>
       <r>    16.2137     0.0000   128.0000 </r>
      </set>
     </set>
    </array>
   </total>
  </dos>
 </calculation>
 <structure name="finalpos" >
  <crystal>
   <varray name="basis" >
    <v>      11.46140262       0.00000000      -0.03309082 </v>
    <v>       0.00000000       3.11499666       0.00000000 </v>
    <v>      -1.85659813       0.00000000       7.20944292 </v>
   </varray>
   <i name="volume">    257.20182206 </i>
   <varray name="rec_basis" >
    <v>       0.08731428       0.00000000       0.02248544 </v>
    <v>       0.00000000       0.32102763       0.00000000 </v>
    <v>       0.00040077       0.00000000       0.13881018 </v>
   </varray>
  </crystal>
  <varray name="positions" >
   <v>       0.05055614       0.50000000       0.10751884 </v>
   <v>       0.21596047       0.00000000       0.44856299 </v>
   <v>       0.28404766       0.00000000       0.05226228 </v>
   <v>       0.55055614       0.00000000       0.10751884 </v>
   <v>       0.71596047       0.50000000       0.44856299 </v>
   <v>       0.78404766       0.50000000       0.05226228 </v>
   <v>       0.38878825       0.50000000       0.78436993 </v>
   <v>       0.44789769       0.50000000       0.38276482 </v>
   <v>       0.11523724       0.50000000       0.72118997 </v>
   <v>       0.88878825       0.00000000       0.78436993 </v>
   <v>       0.94789769       0.00000000       0.38276482 </v>
   <v>       0.61523724       0.00000000       0.72118997 </v>
   <v>       0.26189972       0.50000000       0.91955695 </v>
   <v>       0.43001277       0.00000000       0.22322477 </v>
   <v>       0.09978289       0.00000000       0.56567738 </v>
   <v>       0.76189972       0.00000000       0.91955695 </v>
   <v>       0.93001277       0.50000000       0.22322477 </v>
   <v>       0.59978289       0.50000000       0.56567738 </v>
   <v>       0.15414388       0.00000000       0.18206033 </v>
   <v>       0.31112084       0.50000000       0.50272698 </v>
   <v>       0.49055244       0.00000000       0.86008477 </v>
   <v>       0.65414388       0.50000000       0.18206033 </v>
   <v>       0.81112084       0.00000000       0.50272698 </v>
   <v>       0.99055244       0.50000000       0.86008477 </v>
  </varray>
 </structure>
</modeling>
