<?xml version="1.0" encoding="ISO-8859-1"?>
<modeling>
 <generator>
  <i name="program" type="string">vasp </i>
  <i name="version" type="string">5.3.5  </i>
  <i name="subversion" type="string">31Mar14 (build Jun 20 2014 13:15:13) complex                          parallel </i>
  <i name="platform" type="string">LinuxIFC </i>
  <i name="date" type="string">2025 11 27 </i>
  <i name="time" type="string">13:26:40 </i>
 </generator>
 <incar>
  <i type="string" name="PREC">accurate</i>
  <i type="int" name="IALGO">    68</i>
  <i type="logical" name="ADDGRID"> T  </i>
  <i type="int" name="NELM">   200</i>
  <i type="int" name="NELMIN">     4</i>
  <i type="int" name="IBRION">     2</i>
  <i name="EDIFF">      0.00000100</i>
  <i name="EDIFFG">     -0.02000000</i>
  <i type="int" name="NSW">    30</i>
  <i type="int" name="ISIF">     3</i>
  <i name="ENCUT">    500.00000000</i>
  <i type="logical" name="LREAL"> F  </i>
  <i type="int" name="ISMEAR">     1</i>
  <i name="SIGMA">      0.30000000</i>
  <i type="logical" name="LWAVE"> F  </i>
  <i type="logical" name="LCHARG"> F  </i>
  <i type="int" name="NELM">   200</i>
 </incar>
 <kpoints>
  <generation param="Auto">
   <i name="subdivisionlength">     70.00000000 </i>
   <v type="int" name="divisions">      26       13       12 </v>
   <v name="usershift">      0.00000000       0.00000000       0.00000000 </v>
   <v name="genvec1">      0.03846154       0.00000000       0.00000000 </v>
   <v name="genvec2">      0.00000000       0.07692308       0.00000000 </v>
   <v name="genvec3">      0.00000000       0.00000000       0.08333333 </v>
   <v name="shift">      0.00000000       0.00000000       0.00000000 </v>
  </generation>
  <varray name="kpointlist" >
   <v>       0.00000000       0.00000000       0.00000000 </v>
   <v>       0.03846154       0.00000000       0.00000000 </v>
   <v>       0.07692308       0.00000000       0.00000000 </v>
   <v>       0.11538462       0.00000000       0.00000000 </v>
   <v>       0.15384615       0.00000000       0.00000000 </v>
   <v>       0.19230769       0.00000000       0.00000000 </v>
   <v>       0.23076923       0.00000000       0.00000000 </v>
   <v>       0.26923077       0.00000000       0.00000000 </v>
   <v>       0.30769231       0.00000000       0.00000000 </v>
   <v>       0.34615385       0.00000000       0.00000000 </v>
   <v>       0.38461538       0.00000000       0.00000000 </v>
   <v>       0.42307692       0.00000000       0.00000000 </v>
   <v>       0.46153846       0.00000000       0.00000000 </v>
   <v>       0.50000000       0.00000000       0.00000000 </v>
   <v>       0.00000000       0.07692308       0.00000000 </v>
   <v>       0.03846154       0.07692308       0.00000000 </v>
   <v>       0.07692308       0.07692308       0.00000000 </v>
   <v>       0.11538462       0.07692308       0.00000000 </v>
   <v>       0.15384615       0.07692308       0.00000000 </v>
   <v>       0.19230769       0.07692308       0.00000000 </v>
   <v>       0.23076923       0.07692308       0.00000000 </v>
   <v>       0.26923077       0.07692308       0.00000000 </v>
   <v>       0.30769231       0.07692308       0.00000000 </v>
   <v>       0.34615385       0.07692308       0.00000000 </v>
   <v>       0.38461538       0.07692308       0.00000000 </v>
   <v>       0.42307692       0.07692308       0.00000000 </v>
   <v>       0.46153846       0.07692308       0.00000000 </v>
   <v>       0.50000000       0.07692308       0.00000000 </v>
   <v>      -0.46153846       0.07692308       0.00000000 </v>
   <v>      -0.42307692       0.07692308       0.00000000 </v>
   <v>      -0.38461538       0.07692308       0.00000000 </v>
   <v>      -0.34615385       0.07692308       0.00000000 </v>
   <v>      -0.30769231       0.07692308       0.00000000 </v>
   <v>      -0.26923077       0.07692308       0.00000000 </v>
   <v>      -0.23076923       0.07692308       0.00000000 </v>
   <v>      -0.19230769       0.07692308       0.00000000 </v>
   <v>      -0.15384615       0.07692308       0.00000000 </v>
   <v>      -0.11538462       0.07692308       0.00000000 </v>
   <v>      -0.07692308       0.07692308       0.00000000 </v>
   <v>      -0.03846154       0.07692308       0.00000000 </v>
   <v>       0.00000000       0.15384615       0.00000000 </v>
   <v>       0.03846154       0.15384615       0.00000000 </v>
   <v>       0.07692308       0.15384615       0.00000000 </v>
   <v>       0.11538462       0.15384615       0.00000000 </v>
   <v>       0.15384615       0.15384615       0.00000000 </v>
   <v>       0.19230769       0.15384615       0.00000000 </v>
   <v>       0.23076923       0.15384615       0.00000000 </v>
   <v>       0.26923077       0.15384615       0.00000000 </v>
   <v>       0.30769231       0.15384615       0.00000000 </v>
   <v>       0.34615385       0.15384615       0.00000000 </v>
   <v>       0.38461538       0.15384615       0.00000000 </v>
   <v>       0.42307692       0.15384615       0.00000000 </v>
   <v>       0.46153846       0.15384615       0.00000000 </v>
   <v>       0.50000000       0.15384615       0.00000000 </v>
   <v>      -0.46153846       0.15384615       0.00000000 </v>
   <v>      -0.42307692       0.15384615       0.00000000 </v>
   <v>      -0.38461538       0.15384615       0.00000000 </v>
   <v>      -0.34615385       0.15384615       0.00000000 </v>
   <v>      -0.30769231       0.15384615       0.00000000 </v>
   <v>      -0.26923077       0.15384615       0.00000000 </v>
   <v>      -0.23076923       0.15384615       0.00000000 </v>
   <v>      -0.19230769       0.15384615       0.00000000 </v>
   <v>      -0.15384615       0.15384615       0.00000000 </v>
   <v>      -0.11538462       0.15384615       0.00000000 </v>
   <v>      -0.07692308       0.15384615       0.00000000 </v>
   <v>      -0.03846154       0.15384615       0.00000000 </v>
   <v>       0.00000000       0.23076923       0.00000000 </v>
   <v>       0.03846154       0.23076923       0.00000000 </v>
   <v>       0.07692308       0.23076923       0.00000000 </v>
   <v>       0.11538462       0.23076923       0.00000000 </v>
   <v>       0.15384615       0.23076923       0.00000000 </v>
   <v>       0.19230769       0.23076923       0.00000000 </v>
   <v>       0.23076923       0.23076923       0.00000000 </v>
   <v>       0.26923077       0.23076923       0.00000000 </v>
   <v>       0.30769231       0.23076923       0.00000000 </v>
   <v>       0.34615385       0.23076923       0.00000000 </v>
   <v>       0.38461538       0.23076923       0.00000000 </v>
   <v>       0.42307692       0.23076923       0.00000000 </v>
   <v>       0.46153846       0.23076923       0.00000000 </v>
   <v>       0.50000000       0.23076923       0.00000000 </v>
   <v>      -0.46153846       0.23076923       0.00000000 </v>
   <v>      -0.42307692       0.23076923       0.00000000 </v>
   <v>      -0.38461538       0.23076923       0.00000000 </v>
   <v>      -0.34615385       0.23076923       0.00000000 </v>
   <v>      -0.30769231       0.23076923       0.00000000 </v>
   <v>      -0.26923077       0.23076923       0.00000000 </v>
   <v>      -0.23076923       0.23076923       0.00000000 </v>
   <v>      -0.19230769       0.23076923       0.00000000 </v>
   <v>      -0.15384615       0.23076923       0.00000000 </v>
   <v>      -0.11538462       0.23076923       0.00000000 </v>
   <v>      -0.07692308       0.23076923       0.00000000 </v>
   <v>      -0.03846154       0.23076923       0.00000000 </v>
   <v>       0.00000000       0.30769231       0.00000000 </v>
   <v>       0.03846154       0.30769231       0.00000000 </v>
   <v>       0.07692308       0.30769231       0.00000000 </v>
   <v>       0.11538462       0.30769231       0.00000000 </v>
   <v>       0.15384615       0.30769231       0.00000000 </v>
   <v>       0.19230769       0.30769231       0.00000000 </v>
   <v>       0.23076923       0.30769231       0.00000000 </v>
   <v>       0.26923077       0.30769231       0.00000000 </v>
   <v>       0.30769231       0.30769231       0.00000000 </v>
   <v>       0.34615385       0.30769231       0.00000000 </v>
   <v>       0.38461538       0.30769231       0.00000000 </v>
   <v>       0.42307692       0.30769231       0.00000000 </v>
   <v>       0.46153846       0.30769231       0.00000000 </v>
   <v>       0.50000000       0.30769231       0.00000000 </v>
   <v>      -0.46153846       0.30769231       0.00000000 </v>
   <v>      -0.42307692       0.30769231       0.00000000 </v>
   <v>      -0.38461538       0.30769231       0.00000000 </v>
   <v>      -0.34615385       0.30769231       0.00000000 </v>
   <v>      -0.30769231       0.30769231       0.00000000 </v>
   <v>      -0.26923077       0.30769231       0.00000000 </v>
   <v>      -0.23076923       0.30769231       0.00000000 </v>
   <v>      -0.19230769       0.30769231       0.00000000 </v>
   <v>      -0.15384615       0.30769231       0.00000000 </v>
   <v>      -0.11538462       0.30769231       0.00000000 </v>
   <v>      -0.07692308       0.30769231       0.00000000 </v>
   <v>      -0.03846154       0.30769231       0.00000000 </v>
   <v>       0.00000000       0.38461538       0.00000000 </v>
   <v>       0.03846154       0.38461538       0.00000000 </v>
   <v>       0.07692308       0.38461538       0.00000000 </v>
   <v>       0.11538462       0.38461538       0.00000000 </v>
   <v>       0.15384615       0.38461538       0.00000000 </v>
   <v>       0.19230769       0.38461538       0.00000000 </v>
   <v>       0.23076923       0.38461538       0.00000000 </v>
   <v>       0.26923077       0.38461538       0.00000000 </v>
   <v>       0.30769231       0.38461538       0.00000000 </v>
   <v>       0.34615385       0.38461538       0.00000000 </v>
   <v>       0.38461538       0.38461538       0.00000000 </v>
   <v>       0.42307692       0.38461538       0.00000000 </v>
   <v>       0.46153846       0.38461538       0.00000000 </v>
   <v>       0.50000000       0.38461538       0.00000000 </v>
   <v>      -0.46153846       0.38461538       0.00000000 </v>
   <v>      -0.42307692       0.38461538       0.00000000 </v>
   <v>      -0.38461538       0.38461538       0.00000000 </v>
   <v>      -0.34615385       0.38461538       0.00000000 </v>
   <v>      -0.30769231       0.38461538       0.00000000 </v>
   <v>      -0.26923077       0.38461538       0.00000000 </v>
   <v>      -0.23076923       0.38461538       0.00000000 </v>
   <v>      -0.19230769       0.38461538       0.00000000 </v>
   <v>      -0.15384615       0.38461538       0.00000000 </v>
   <v>      -0.11538462       0.38461538       0.00000000 </v>
   <v>      -0.07692308       0.38461538       0.00000000 </v>
   <v>      -0.03846154       0.38461538       0.00000000 </v>
   <v>       0.00000000       0.46153846       0.00000000 </v>
   <v>       0.03846154       0.46153846       0.00000000 </v>
   <v>       0.07692308       0.46153846       0.00000000 </v>
   <v>       0.11538462       0.46153846       0.00000000 </v>
   <v>       0.15384615       0.46153846       0.00000000 </v>
   <v>       0.19230769       0.46153846       0.00000000 </v>
   <v>       0.23076923       0.46153846       0.00000000 </v>
   <v>       0.26923077       0.46153846       0.00000000 </v>
   <v>       0.30769231       0.46153846       0.00000000 </v>
   <v>       0.34615385       0.46153846       0.00000000 </v>
   <v>       0.38461538       0.46153846       0.00000000 </v>
   <v>       0.42307692       0.46153846       0.00000000 </v>
   <v>       0.46153846       0.46153846       0.00000000 </v>
   <v>       0.50000000       0.46153846       0.00000000 </v>
   <v>      -0.46153846       0.46153846       0.00000000 </v>
   <v>      -0.42307692       0.46153846       0.00000000 </v>
   <v>      -0.38461538       0.46153846       0.00000000 </v>
   <v>      -0.34615385       0.46153846       0.00000000 </v>
   <v>      -0.30769231       0.46153846       0.00000000 </v>
   <v>      -0.26923077       0.46153846       0.00000000 </v>
   <v>      -0.23076923       0.46153846       0.00000000 </v>
   <v>      -0.19230769       0.46153846       0.00000000 </v>
   <v>      -0.15384615       0.46153846       0.00000000 </v>
   <v>      -0.11538462       0.46153846       0.00000000 </v>
   <v>      -0.07692308       0.46153846       0.00000000 </v>
   <v>      -0.03846154       0.46153846       0.00000000 </v>
   <v>       0.00000000       0.00000000       0.08333333 </v>
   <v>       0.03846154       0.00000000       0.08333333 </v>
   <v>       0.07692308       0.00000000       0.08333333 </v>
   <v>       0.11538462       0.00000000       0.08333333 </v>
   <v>       0.15384615       0.00000000       0.08333333 </v>
   <v>       0.19230769       0.00000000       0.08333333 </v>
   <v>       0.23076923       0.00000000       0.08333333 </v>
   <v>       0.26923077       0.00000000       0.08333333 </v>
   <v>       0.30769231       0.00000000       0.08333333 </v>
   <v>       0.34615385       0.00000000       0.08333333 </v>
   <v>       0.38461538       0.00000000       0.08333333 </v>
   <v>       0.42307692       0.00000000       0.08333333 </v>
   <v>       0.46153846       0.00000000       0.08333333 </v>
   <v>       0.50000000       0.00000000       0.08333333 </v>
   <v>      -0.46153846       0.00000000       0.08333333 </v>
   <v>      -0.42307692       0.00000000       0.08333333 </v>
   <v>      -0.38461538       0.00000000       0.08333333 </v>
   <v>      -0.34615385       0.00000000       0.08333333 </v>
   <v>      -0.30769231       0.00000000       0.08333333 </v>
   <v>      -0.26923077       0.00000000       0.08333333 </v>
   <v>      -0.23076923       0.00000000       0.08333333 </v>
   <v>      -0.19230769       0.00000000       0.08333333 </v>
   <v>      -0.15384615       0.00000000       0.08333333 </v>
   <v>      -0.11538462       0.00000000       0.08333333 </v>
   <v>      -0.07692308       0.00000000       0.08333333 </v>
   <v>      -0.03846154       0.00000000       0.08333333 </v>
   <v>       0.00000000       0.07692308       0.08333333 </v>
   <v>       0.03846154       0.07692308       0.08333333 </v>
   <v>       0.07692308       0.07692308       0.08333333 </v>
   <v>       0.11538462       0.07692308       0.08333333 </v>
   <v>       0.15384615       0.07692308       0.08333333 </v>
   <v>       0.19230769       0.07692308       0.08333333 </v>
   <v>       0.23076923       0.07692308       0.08333333 </v>
   <v>       0.26923077       0.07692308       0.08333333 </v>
   <v>       0.30769231       0.07692308       0.08333333 </v>
   <v>       0.34615385       0.07692308       0.08333333 </v>
   <v>       0.38461538       0.07692308       0.08333333 </v>
   <v>       0.42307692       0.07692308       0.08333333 </v>
   <v>       0.46153846       0.07692308       0.08333333 </v>
   <v>       0.50000000       0.07692308       0.08333333 </v>
   <v>      -0.46153846       0.07692308       0.08333333 </v>
   <v>      -0.42307692       0.07692308       0.08333333 </v>
   <v>      -0.38461538       0.07692308       0.08333333 </v>
   <v>      -0.34615385       0.07692308       0.08333333 </v>
   <v>      -0.30769231       0.07692308       0.08333333 </v>
   <v>      -0.26923077       0.07692308       0.08333333 </v>
   <v>      -0.23076923       0.07692308       0.08333333 </v>
   <v>      -0.19230769       0.07692308       0.08333333 </v>
   <v>      -0.15384615       0.07692308       0.08333333 </v>
   <v>      -0.11538462       0.07692308       0.08333333 </v>
   <v>      -0.07692308       0.07692308       0.08333333 </v>
   <v>      -0.03846154       0.07692308       0.08333333 </v>
   <v>       0.00000000       0.15384615       0.08333333 </v>
   <v>       0.03846154       0.15384615       0.08333333 </v>
   <v>       0.07692308       0.15384615       0.08333333 </v>
   <v>       0.11538462       0.15384615       0.08333333 </v>
   <v>       0.15384615       0.15384615       0.08333333 </v>
   <v>       0.19230769       0.15384615       0.08333333 </v>
   <v>       0.23076923       0.15384615       0.08333333 </v>
   <v>       0.26923077       0.15384615       0.08333333 </v>
   <v>       0.30769231       0.15384615       0.08333333 </v>
   <v>       0.34615385       0.15384615       0.08333333 </v>
   <v>       0.38461538       0.15384615       0.08333333 </v>
   <v>       0.42307692       0.15384615       0.08333333 </v>
   <v>       0.46153846       0.15384615       0.08333333 </v>
   <v>       0.50000000       0.15384615       0.08333333 </v>
   <v>      -0.46153846       0.15384615       0.08333333 </v>
   <v>      -0.42307692       0.15384615       0.08333333 </v>
   <v>      -0.38461538       0.15384615       0.08333333 </v>
   <v>      -0.34615385       0.15384615       0.08333333 </v>
   <v>      -0.30769231       0.15384615       0.08333333 </v>
   <v>      -0.26923077       0.15384615       0.08333333 </v>
   <v>      -0.23076923       0.15384615       0.08333333 </v>
   <v>      -0.19230769       0.15384615       0.08333333 </v>
   <v>      -0.15384615       0.15384615       0.08333333 </v>
   <v>      -0.11538462       0.15384615       0.08333333 </v>
   <v>      -0.07692308       0.15384615       0.08333333 </v>
   <v>      -0.03846154       0.15384615       0.08333333 </v>
   <v>       0.00000000       0.23076923       0.08333333 </v>
   <v>       0.03846154       0.23076923       0.08333333 </v>
   <v>       0.07692308       0.23076923       0.08333333 </v>
   <v>       0.11538462       0.23076923       0.08333333 </v>
   <v>       0.15384615       0.23076923       0.08333333 </v>
   <v>       0.19230769       0.23076923       0.08333333 </v>
   <v>       0.23076923       0.23076923       0.08333333 </v>
   <v>       0.26923077       0.23076923       0.08333333 </v>
   <v>       0.30769231       0.23076923       0.08333333 </v>
   <v>       0.34615385       0.23076923       0.08333333 </v>
   <v>       0.38461538       0.23076923       0.08333333 </v>
   <v>       0.42307692       0.23076923       0.08333333 </v>
   <v>       0.46153846       0.23076923       0.08333333 </v>
   <v>       0.50000000       0.23076923       0.08333333 </v>
   <v>      -0.46153846       0.23076923       0.08333333 </v>
   <v>      -0.42307692       0.23076923       0.08333333 </v>
   <v>      -0.38461538       0.23076923       0.08333333 </v>
   <v>      -0.34615385       0.23076923       0.08333333 </v>
   <v>      -0.30769231       0.23076923       0.08333333 </v>
   <v>      -0.26923077       0.23076923       0.08333333 </v>
   <v>      -0.23076923       0.23076923       0.08333333 </v>
   <v>      -0.19230769       0.23076923       0.08333333 </v>
   <v>      -0.15384615       0.23076923       0.08333333 </v>
   <v>      -0.11538462       0.23076923       0.08333333 </v>
   <v>      -0.07692308       0.23076923       0.08333333 </v>
   <v>      -0.03846154       0.23076923       0.08333333 </v>
   <v>       0.00000000       0.30769231       0.08333333 </v>
   <v>       0.03846154       0.30769231       0.08333333 </v>
   <v>       0.07692308       0.30769231       0.08333333 </v>
   <v>       0.11538462       0.30769231       0.08333333 </v>
   <v>       0.15384615       0.30769231       0.08333333 </v>
   <v>       0.19230769       0.30769231       0.08333333 </v>
   <v>       0.23076923       0.30769231       0.08333333 </v>
   <v>       0.26923077       0.30769231       0.08333333 </v>
   <v>       0.30769231       0.30769231       0.08333333 </v>
   <v>       0.34615385       0.30769231       0.08333333 </v>
   <v>       0.38461538       0.30769231       0.08333333 </v>
   <v>       0.42307692       0.30769231       0.08333333 </v>
   <v>       0.46153846       0.30769231       0.08333333 </v>
   <v>       0.50000000       0.30769231       0.08333333 </v>
   <v>      -0.46153846       0.30769231       0.08333333 </v>
   <v>      -0.42307692       0.30769231       0.08333333 </v>
   <v>      -0.38461538       0.30769231       0.08333333 </v>
   <v>      -0.34615385       0.30769231       0.08333333 </v>
   <v>      -0.30769231       0.30769231       0.08333333 </v>
   <v>      -0.26923077       0.30769231       0.08333333 </v>
   <v>      -0.23076923       0.30769231       0.08333333 </v>
   <v>      -0.19230769       0.30769231       0.08333333 </v>
   <v>      -0.15384615       0.30769231       0.08333333 </v>
   <v>      -0.11538462       0.30769231       0.08333333 </v>
   <v>      -0.07692308       0.30769231       0.08333333 </v>
   <v>      -0.03846154       0.30769231       0.08333333 </v>
   <v>       0.00000000       0.38461538       0.08333333 </v>
   <v>       0.03846154       0.38461538       0.08333333 </v>
   <v>       0.07692308       0.38461538       0.08333333 </v>
   <v>       0.11538462       0.38461538       0.08333333 </v>
   <v>       0.15384615       0.38461538       0.08333333 </v>
   <v>       0.19230769       0.38461538       0.08333333 </v>
   <v>       0.23076923       0.38461538       0.08333333 </v>
   <v>       0.26923077       0.38461538       0.08333333 </v>
   <v>       0.30769231       0.38461538       0.08333333 </v>
   <v>       0.34615385       0.38461538       0.08333333 </v>
   <v>       0.38461538       0.38461538       0.08333333 </v>
   <v>       0.42307692       0.38461538       0.08333333 </v>
   <v>       0.46153846       0.38461538       0.08333333 </v>
   <v>       0.50000000       0.38461538       0.08333333 </v>
   <v>      -0.46153846       0.38461538       0.08333333 </v>
   <v>      -0.42307692       0.38461538       0.08333333 </v>
   <v>      -0.38461538       0.38461538       0.08333333 </v>
   <v>      -0.34615385       0.38461538       0.08333333 </v>
   <v>      -0.30769231       0.38461538       0.08333333 </v>
   <v>      -0.26923077       0.38461538       0.08333333 </v>
   <v>      -0.23076923       0.38461538       0.08333333 </v>
   <v>      -0.19230769       0.38461538       0.08333333 </v>
   <v>      -0.15384615       0.38461538       0.08333333 </v>
   <v>      -0.11538462       0.38461538       0.08333333 </v>
   <v>      -0.07692308       0.38461538       0.08333333 </v>
   <v>      -0.03846154       0.38461538       0.08333333 </v>
   <v>       0.00000000       0.46153846       0.08333333 </v>
   <v>       0.03846154       0.46153846       0.08333333 </v>
   <v>       0.07692308       0.46153846       0.08333333 </v>
   <v>       0.11538462       0.46153846       0.08333333 </v>
   <v>       0.15384615       0.46153846       0.08333333 </v>
   <v>       0.19230769       0.46153846       0.08333333 </v>
   <v>       0.23076923       0.46153846       0.08333333 </v>
   <v>       0.26923077       0.46153846       0.08333333 </v>
   <v>       0.30769231       0.46153846       0.08333333 </v>
   <v>       0.34615385       0.46153846       0.08333333 </v>
   <v>       0.38461538       0.46153846       0.08333333 </v>
   <v>       0.42307692       0.46153846       0.08333333 </v>
   <v>       0.46153846       0.46153846       0.08333333 </v>
   <v>       0.50000000       0.46153846       0.08333333 </v>
   <v>      -0.46153846       0.46153846       0.08333333 </v>
   <v>      -0.42307692       0.46153846       0.08333333 </v>
   <v>      -0.38461538       0.46153846       0.08333333 </v>
   <v>      -0.34615385       0.46153846       0.08333333 </v>
   <v>      -0.30769231       0.46153846       0.08333333 </v>
   <v>      -0.26923077       0.46153846       0.08333333 </v>
   <v>      -0.23076923       0.46153846       0.08333333 </v>
   <v>      -0.19230769       0.46153846       0.08333333 </v>
   <v>      -0.15384615       0.46153846       0.08333333 </v>
   <v>      -0.11538462       0.46153846       0.08333333 </v>
   <v>      -0.07692308       0.46153846       0.08333333 </v>
   <v>      -0.03846154       0.46153846       0.08333333 </v>
   <v>       0.00000000      -0.46153846       0.08333333 </v>
   <v>       0.03846154      -0.46153846       0.08333333 </v>
   <v>       0.07692308      -0.46153846       0.08333333 </v>
   <v>       0.11538462      -0.46153846       0.08333333 </v>
   <v>       0.15384615      -0.46153846       0.08333333 </v>
   <v>       0.19230769      -0.46153846       0.08333333 </v>
   <v>       0.23076923      -0.46153846       0.08333333 </v>
   <v>       0.26923077      -0.46153846       0.08333333 </v>
   <v>       0.30769231      -0.46153846       0.08333333 </v>
   <v>       0.34615385      -0.46153846       0.08333333 </v>
   <v>       0.38461538      -0.46153846       0.08333333 </v>
   <v>       0.42307692      -0.46153846       0.08333333 </v>
   <v>       0.46153846      -0.46153846       0.08333333 </v>
   <v>       0.50000000      -0.46153846       0.08333333 </v>
   <v>      -0.46153846      -0.46153846       0.08333333 </v>
   <v>      -0.42307692      -0.46153846       0.08333333 </v>
   <v>      -0.38461538      -0.46153846       0.08333333 </v>
   <v>      -0.34615385      -0.46153846       0.08333333 </v>
   <v>      -0.30769231      -0.46153846       0.08333333 </v>
   <v>      -0.26923077      -0.46153846       0.08333333 </v>
   <v>      -0.23076923      -0.46153846       0.08333333 </v>
   <v>      -0.19230769      -0.46153846       0.08333333 </v>
   <v>      -0.15384615      -0.46153846       0.08333333 </v>
   <v>      -0.11538462      -0.46153846       0.08333333 </v>
   <v>      -0.07692308      -0.46153846       0.08333333 </v>
   <v>      -0.03846154      -0.46153846       0.08333333 </v>
   <v>       0.00000000      -0.38461538       0.08333333 </v>
   <v>       0.03846154      -0.38461538       0.08333333 </v>
   <v>       0.07692308      -0.38461538       0.08333333 </v>
   <v>       0.11538462      -0.38461538       0.08333333 </v>
   <v>       0.15384615      -0.38461538       0.08333333 </v>
   <v>       0.19230769      -0.38461538       0.08333333 </v>
   <v>       0.23076923      -0.38461538       0.08333333 </v>
   <v>       0.26923077      -0.38461538       0.08333333 </v>
   <v>       0.30769231      -0.38461538       0.08333333 </v>
   <v>       0.34615385      -0.38461538       0.08333333 </v>
   <v>       0.38461538      -0.38461538       0.08333333 </v>
   <v>       0.42307692      -0.38461538       0.08333333 </v>
   <v>       0.46153846      -0.38461538       0.08333333 </v>
   <v>       0.50000000      -0.38461538       0.08333333 </v>
   <v>      -0.46153846      -0.38461538       0.08333333 </v>
   <v>      -0.42307692      -0.38461538       0.08333333 </v>
   <v>      -0.38461538      -0.38461538       0.08333333 </v>
   <v>      -0.34615385      -0.38461538       0.08333333 </v>
   <v>      -0.30769231      -0.38461538       0.08333333 </v>
   <v>      -0.26923077      -0.38461538       0.08333333 </v>
   <v>      -0.23076923      -0.38461538       0.08333333 </v>
   <v>      -0.19230769      -0.38461538       0.08333333 </v>
   <v>      -0.15384615      -0.38461538       0.08333333 </v>
   <v>      -0.11538462      -0.38461538       0.08333333 </v>
   <v>      -0.07692308      -0.38461538       0.08333333 </v>
   <v>      -0.03846154      -0.38461538       0.08333333 </v>
   <v>       0.00000000      -0.30769231       0.08333333 </v>
   <v>       0.03846154      -0.30769231       0.08333333 </v>
   <v>       0.07692308      -0.30769231       0.08333333 </v>
   <v>       0.11538462      -0.30769231       0.08333333 </v>
   <v>       0.15384615      -0.30769231       0.08333333 </v>
   <v>       0.19230769      -0.30769231       0.08333333 </v>
   <v>       0.23076923      -0.30769231       0.08333333 </v>
   <v>       0.26923077      -0.30769231       0.08333333 </v>
   <v>       0.30769231      -0.30769231       0.08333333 </v>
   <v>       0.34615385      -0.30769231       0.08333333 </v>
   <v>       0.38461538      -0.30769231       0.08333333 </v>
   <v>       0.42307692      -0.30769231       0.08333333 </v>
   <v>       0.46153846      -0.30769231       0.08333333 </v>
   <v>       0.50000000      -0.30769231       0.08333333 </v>
   <v>      -0.46153846      -0.30769231       0.08333333 </v>
   <v>      -0.42307692      -0.30769231       0.08333333 </v>
   <v>      -0.38461538      -0.30769231       0.08333333 </v>
   <v>      -0.34615385      -0.30769231       0.08333333 </v>
   <v>      -0.30769231      -0.30769231       0.08333333 </v>
   <v>      -0.26923077      -0.30769231       0.08333333 </v>
   <v>      -0.23076923      -0.30769231       0.08333333 </v>
   <v>      -0.19230769      -0.30769231       0.08333333 </v>
   <v>      -0.15384615      -0.30769231       0.08333333 </v>
   <v>      -0.11538462      -0.30769231       0.08333333 </v>
   <v>      -0.07692308      -0.30769231       0.08333333 </v>
   <v>      -0.03846154      -0.30769231       0.08333333 </v>
   <v>       0.00000000      -0.23076923       0.08333333 </v>
   <v>       0.03846154      -0.23076923       0.08333333 </v>
   <v>       0.07692308      -0.23076923       0.08333333 </v>
   <v>       0.11538462      -0.23076923       0.08333333 </v>
   <v>       0.15384615      -0.23076923       0.08333333 </v>
   <v>       0.19230769      -0.23076923       0.08333333 </v>
   <v>       0.23076923      -0.23076923       0.08333333 </v>
   <v>       0.26923077      -0.23076923       0.08333333 </v>
   <v>       0.30769231      -0.23076923       0.08333333 </v>
   <v>       0.34615385      -0.23076923       0.08333333 </v>
   <v>       0.38461538      -0.23076923       0.08333333 </v>
   <v>       0.42307692      -0.23076923       0.08333333 </v>
   <v>       0.46153846      -0.23076923       0.08333333 </v>
   <v>       0.50000000      -0.23076923       0.08333333 </v>
   <v>      -0.46153846      -0.23076923       0.08333333 </v>
   <v>      -0.42307692      -0.23076923       0.08333333 </v>
   <v>      -0.38461538      -0.23076923       0.08333333 </v>
   <v>      -0.34615385      -0.23076923       0.08333333 </v>
   <v>      -0.30769231      -0.23076923       0.08333333 </v>
   <v>      -0.26923077      -0.23076923       0.08333333 </v>
   <v>      -0.23076923      -0.23076923       0.08333333 </v>
   <v>      -0.19230769      -0.23076923       0.08333333 </v>
   <v>      -0.15384615      -0.23076923       0.08333333 </v>
   <v>      -0.11538462      -0.23076923       0.08333333 </v>
   <v>      -0.07692308      -0.23076923       0.08333333 </v>
   <v>      -0.03846154      -0.23076923       0.08333333 </v>
   <v>       0.00000000      -0.15384615       0.08333333 </v>
   <v>       0.03846154      -0.15384615       0.08333333 </v>
   <v>       0.07692308      -0.15384615       0.08333333 </v>
   <v>       0.11538462      -0.15384615       0.08333333 </v>
   <v>       0.15384615      -0.15384615       0.08333333 </v>
   <v>       0.19230769      -0.15384615       0.08333333 </v>
   <v>       0.23076923      -0.15384615       0.08333333 </v>
   <v>       0.26923077      -0.15384615       0.08333333 </v>
   <v>       0.30769231      -0.15384615       0.08333333 </v>
   <v>       0.34615385      -0.15384615       0.08333333 </v>
   <v>       0.38461538      -0.15384615       0.08333333 </v>
   <v>       0.42307692      -0.15384615       0.08333333 </v>
   <v>       0.46153846      -0.15384615       0.08333333 </v>
   <v>       0.50000000      -0.15384615       0.08333333 </v>
   <v>      -0.46153846      -0.15384615       0.08333333 </v>
   <v>      -0.42307692      -0.15384615       0.08333333 </v>
   <v>      -0.38461538      -0.15384615       0.08333333 </v>
   <v>      -0.34615385      -0.15384615       0.08333333 </v>
   <v>      -0.30769231      -0.15384615       0.08333333 </v>
   <v>      -0.26923077      -0.15384615       0.08333333 </v>
   <v>      -0.23076923      -0.15384615       0.08333333 </v>
   <v>      -0.19230769      -0.15384615       0.08333333 </v>
   <v>      -0.15384615      -0.15384615       0.08333333 </v>
   <v>      -0.11538462      -0.15384615       0.08333333 </v>
   <v>      -0.07692308      -0.15384615       0.08333333 </v>
   <v>      -0.03846154      -0.15384615       0.08333333 </v>
   <v>       0.00000000      -0.07692308       0.08333333 </v>
   <v>       0.03846154      -0.07692308       0.08333333 </v>
   <v>       0.07692308      -0.07692308       0.08333333 </v>
   <v>       0.11538462      -0.07692308       0.08333333 </v>
   <v>       0.15384615      -0.07692308       0.08333333 </v>
   <v>       0.19230769      -0.07692308       0.08333333 </v>
   <v>       0.23076923      -0.07692308       0.08333333 </v>
   <v>       0.26923077      -0.07692308       0.08333333 </v>
   <v>       0.30769231      -0.07692308       0.08333333 </v>
   <v>       0.34615385      -0.07692308       0.08333333 </v>
   <v>       0.38461538      -0.07692308       0.08333333 </v>
   <v>       0.42307692      -0.07692308       0.08333333 </v>
   <v>       0.46153846      -0.07692308       0.08333333 </v>
   <v>       0.50000000      -0.07692308       0.08333333 </v>
   <v>      -0.46153846      -0.07692308       0.08333333 </v>
   <v>      -0.42307692      -0.07692308       0.08333333 </v>
   <v>      -0.38461538      -0.07692308       0.08333333 </v>
   <v>      -0.34615385      -0.07692308       0.08333333 </v>
   <v>      -0.30769231      -0.07692308       0.08333333 </v>
   <v>      -0.26923077      -0.07692308       0.08333333 </v>
   <v>      -0.23076923      -0.07692308       0.08333333 </v>
   <v>      -0.19230769      -0.07692308       0.08333333 </v>
   <v>      -0.15384615      -0.07692308       0.08333333 </v>
   <v>      -0.11538462      -0.07692308       0.08333333 </v>
   <v>      -0.07692308      -0.07692308       0.08333333 </v>
   <v>      -0.03846154      -0.07692308       0.08333333 </v>
   <v>       0.00000000       0.00000000       0.16666667 </v>
   <v>       0.03846154       0.00000000       0.16666667 </v>
   <v>       0.07692308       0.00000000       0.16666667 </v>
   <v>       0.11538462       0.00000000       0.16666667 </v>
   <v>       0.15384615       0.00000000       0.16666667 </v>
   <v>       0.19230769       0.00000000       0.16666667 </v>
   <v>       0.23076923       0.00000000       0.16666667 </v>
   <v>       0.26923077       0.00000000       0.16666667 </v>
   <v>       0.30769231       0.00000000       0.16666667 </v>
   <v>       0.34615385       0.00000000       0.16666667 </v>
   <v>       0.38461538       0.00000000       0.16666667 </v>
   <v>       0.42307692       0.00000000       0.16666667 </v>
   <v>       0.46153846       0.00000000       0.16666667 </v>
   <v>       0.50000000       0.00000000       0.16666667 </v>
   <v>      -0.46153846       0.00000000       0.16666667 </v>
   <v>      -0.42307692       0.00000000       0.16666667 </v>
   <v>      -0.38461538       0.00000000       0.16666667 </v>
   <v>      -0.34615385       0.00000000       0.16666667 </v>
   <v>      -0.30769231       0.00000000       0.16666667 </v>
   <v>      -0.26923077       0.00000000       0.16666667 </v>
   <v>      -0.23076923       0.00000000       0.16666667 </v>
   <v>      -0.19230769       0.00000000       0.16666667 </v>
   <v>      -0.15384615       0.00000000       0.16666667 </v>
   <v>      -0.11538462       0.00000000       0.16666667 </v>
   <v>      -0.07692308       0.00000000       0.16666667 </v>
   <v>      -0.03846154       0.00000000       0.16666667 </v>
   <v>       0.00000000       0.07692308       0.16666667 </v>
   <v>       0.03846154       0.07692308       0.16666667 </v>
   <v>       0.07692308       0.07692308       0.16666667 </v>
   <v>       0.11538462       0.07692308       0.16666667 </v>
   <v>       0.15384615       0.07692308       0.16666667 </v>
   <v>       0.19230769       0.07692308       0.16666667 </v>
   <v>       0.23076923       0.07692308       0.16666667 </v>
   <v>       0.26923077       0.07692308       0.16666667 </v>
   <v>       0.30769231       0.07692308       0.16666667 </v>
   <v>       0.34615385       0.07692308       0.16666667 </v>
   <v>       0.38461538       0.07692308       0.16666667 </v>
   <v>       0.42307692       0.07692308       0.16666667 </v>
   <v>       0.46153846       0.07692308       0.16666667 </v>
   <v>       0.50000000       0.07692308       0.16666667 </v>
   <v>      -0.46153846       0.07692308       0.16666667 </v>
   <v>      -0.42307692       0.07692308       0.16666667 </v>
   <v>      -0.38461538       0.07692308       0.16666667 </v>
   <v>      -0.34615385       0.07692308       0.16666667 </v>
   <v>      -0.30769231       0.07692308       0.16666667 </v>
   <v>      -0.26923077       0.07692308       0.16666667 </v>
   <v>      -0.23076923       0.07692308       0.16666667 </v>
   <v>      -0.19230769       0.07692308       0.16666667 </v>
   <v>      -0.15384615       0.07692308       0.16666667 </v>
   <v>      -0.11538462       0.07692308       0.16666667 </v>
   <v>      -0.07692308       0.07692308       0.16666667 </v>
   <v>      -0.03846154       0.07692308       0.16666667 </v>
   <v>       0.00000000       0.15384615       0.16666667 </v>
   <v>       0.03846154       0.15384615       0.16666667 </v>
   <v>       0.07692308       0.15384615       0.16666667 </v>
   <v>       0.11538462       0.15384615       0.16666667 </v>
   <v>       0.15384615       0.15384615       0.16666667 </v>
   <v>       0.19230769       0.15384615       0.16666667 </v>
   <v>       0.23076923       0.15384615       0.16666667 </v>
   <v>       0.26923077       0.15384615       0.16666667 </v>
   <v>       0.30769231       0.15384615       0.16666667 </v>
   <v>       0.34615385       0.15384615       0.16666667 </v>
   <v>       0.38461538       0.15384615       0.16666667 </v>
   <v>       0.42307692       0.15384615       0.16666667 </v>
   <v>       0.46153846       0.15384615       0.16666667 </v>
   <v>       0.50000000       0.15384615       0.16666667 </v>
   <v>      -0.46153846       0.15384615       0.16666667 </v>
   <v>      -0.42307692       0.15384615       0.16666667 </v>
   <v>      -0.38461538       0.15384615       0.16666667 </v>
   <v>      -0.34615385       0.15384615       0.16666667 </v>
   <v>      -0.30769231       0.15384615       0.16666667 </v>
   <v>      -0.26923077       0.15384615       0.16666667 </v>
   <v>      -0.23076923       0.15384615       0.16666667 </v>
   <v>      -0.19230769       0.15384615       0.16666667 </v>
   <v>      -0.15384615       0.15384615       0.16666667 </v>
   <v>      -0.11538462       0.15384615       0.16666667 </v>
   <v>      -0.07692308       0.15384615       0.16666667 </v>
   <v>      -0.03846154       0.15384615       0.16666667 </v>
   <v>       0.00000000       0.23076923       0.16666667 </v>
   <v>       0.03846154       0.23076923       0.16666667 </v>
   <v>       0.07692308       0.23076923       0.16666667 </v>
   <v>       0.11538462       0.23076923       0.16666667 </v>
   <v>       0.15384615       0.23076923       0.16666667 </v>
   <v>       0.19230769       0.23076923       0.16666667 </v>
   <v>       0.23076923       0.23076923       0.16666667 </v>
   <v>       0.26923077       0.23076923       0.16666667 </v>
   <v>       0.30769231       0.23076923       0.16666667 </v>
   <v>       0.34615385       0.23076923       0.16666667 </v>
   <v>       0.38461538       0.23076923       0.16666667 </v>
   <v>       0.42307692       0.23076923       0.16666667 </v>
   <v>       0.46153846       0.23076923       0.16666667 </v>
   <v>       0.50000000       0.23076923       0.16666667 </v>
   <v>      -0.46153846       0.23076923       0.16666667 </v>
   <v>      -0.42307692       0.23076923       0.16666667 </v>
   <v>      -0.38461538       0.23076923       0.16666667 </v>
   <v>      -0.34615385       0.23076923       0.16666667 </v>
   <v>      -0.30769231       0.23076923       0.16666667 </v>
   <v>      -0.26923077       0.23076923       0.16666667 </v>
   <v>      -0.23076923       0.23076923       0.16666667 </v>
   <v>      -0.19230769       0.23076923       0.16666667 </v>
   <v>      -0.15384615       0.23076923       0.16666667 </v>
   <v>      -0.11538462       0.23076923       0.16666667 </v>
   <v>      -0.07692308       0.23076923       0.16666667 </v>
   <v>      -0.03846154       0.23076923       0.16666667 </v>
   <v>       0.00000000       0.30769231       0.16666667 </v>
   <v>       0.03846154       0.30769231       0.16666667 </v>
   <v>       0.07692308       0.30769231       0.16666667 </v>
   <v>       0.11538462       0.30769231       0.16666667 </v>
   <v>       0.15384615       0.30769231       0.16666667 </v>
   <v>       0.19230769       0.30769231       0.16666667 </v>
   <v>       0.23076923       0.30769231       0.16666667 </v>
   <v>       0.26923077       0.30769231       0.16666667 </v>
   <v>       0.30769231       0.30769231       0.16666667 </v>
   <v>       0.34615385       0.30769231       0.16666667 </v>
   <v>       0.38461538       0.30769231       0.16666667 </v>
   <v>       0.42307692       0.30769231       0.16666667 </v>
   <v>       0.46153846       0.30769231       0.16666667 </v>
   <v>       0.50000000       0.30769231       0.16666667 </v>
   <v>      -0.46153846       0.30769231       0.16666667 </v>
   <v>      -0.42307692       0.30769231       0.16666667 </v>
   <v>      -0.38461538       0.30769231       0.16666667 </v>
   <v>      -0.34615385       0.30769231       0.16666667 </v>
   <v>      -0.30769231       0.30769231       0.16666667 </v>
   <v>      -0.26923077       0.30769231       0.16666667 </v>
   <v>      -0.23076923       0.30769231       0.16666667 </v>
   <v>      -0.19230769       0.30769231       0.16666667 </v>
   <v>      -0.15384615       0.30769231       0.16666667 </v>
   <v>      -0.11538462       0.30769231       0.16666667 </v>
   <v>      -0.07692308       0.30769231       0.16666667 </v>
   <v>      -0.03846154       0.30769231       0.16666667 </v>
   <v>       0.00000000       0.38461538       0.16666667 </v>
   <v>       0.03846154       0.38461538       0.16666667 </v>
   <v>       0.07692308       0.38461538       0.16666667 </v>
   <v>       0.11538462       0.38461538       0.16666667 </v>
   <v>       0.15384615       0.38461538       0.16666667 </v>
   <v>       0.19230769       0.38461538       0.16666667 </v>
   <v>       0.23076923       0.38461538       0.16666667 </v>
   <v>       0.26923077       0.38461538       0.16666667 </v>
   <v>       0.30769231       0.38461538       0.16666667 </v>
   <v>       0.34615385       0.38461538       0.16666667 </v>
   <v>       0.38461538       0.38461538       0.16666667 </v>
   <v>       0.42307692       0.38461538       0.16666667 </v>
   <v>       0.46153846       0.38461538       0.16666667 </v>
   <v>       0.50000000       0.38461538       0.16666667 </v>
   <v>      -0.46153846       0.38461538       0.16666667 </v>
   <v>      -0.42307692       0.38461538       0.16666667 </v>
   <v>      -0.38461538       0.38461538       0.16666667 </v>
   <v>      -0.34615385       0.38461538       0.16666667 </v>
   <v>      -0.30769231       0.38461538       0.16666667 </v>
   <v>      -0.26923077       0.38461538       0.16666667 </v>
   <v>      -0.23076923       0.38461538       0.16666667 </v>
   <v>      -0.19230769       0.38461538       0.16666667 </v>
   <v>      -0.15384615       0.38461538       0.16666667 </v>
   <v>      -0.11538462       0.38461538       0.16666667 </v>
   <v>      -0.07692308       0.38461538       0.16666667 </v>
   <v>      -0.03846154       0.38461538       0.16666667 </v>
   <v>       0.00000000       0.46153846       0.16666667 </v>
   <v>       0.03846154       0.46153846       0.16666667 </v>
   <v>       0.07692308       0.46153846       0.16666667 </v>
   <v>       0.11538462       0.46153846       0.16666667 </v>
   <v>       0.15384615       0.46153846       0.16666667 </v>
   <v>       0.19230769       0.46153846       0.16666667 </v>
   <v>       0.23076923       0.46153846       0.16666667 </v>
   <v>       0.26923077       0.46153846       0.16666667 </v>
   <v>       0.30769231       0.46153846       0.16666667 </v>
   <v>       0.34615385       0.46153846       0.16666667 </v>
   <v>       0.38461538       0.46153846       0.16666667 </v>
   <v>       0.42307692       0.46153846       0.16666667 </v>
   <v>       0.46153846       0.46153846       0.16666667 </v>
   <v>       0.50000000       0.46153846       0.16666667 </v>
   <v>      -0.46153846       0.46153846       0.16666667 </v>
   <v>      -0.42307692       0.46153846       0.16666667 </v>
   <v>      -0.38461538       0.46153846       0.16666667 </v>
   <v>      -0.34615385       0.46153846       0.16666667 </v>
   <v>      -0.30769231       0.46153846       0.16666667 </v>
   <v>      -0.26923077       0.46153846       0.16666667 </v>
   <v>      -0.23076923       0.46153846       0.16666667 </v>
   <v>      -0.19230769       0.46153846       0.16666667 </v>
   <v>      -0.15384615       0.46153846       0.16666667 </v>
   <v>      -0.11538462       0.46153846       0.16666667 </v>
   <v>      -0.07692308       0.46153846       0.16666667 </v>
   <v>      -0.03846154       0.46153846       0.16666667 </v>
   <v>       0.00000000      -0.46153846       0.16666667 </v>
   <v>       0.03846154      -0.46153846       0.16666667 </v>
   <v>       0.07692308      -0.46153846       0.16666667 </v>
   <v>       0.11538462      -0.46153846       0.16666667 </v>
   <v>       0.15384615      -0.46153846       0.16666667 </v>
   <v>       0.19230769      -0.46153846       0.16666667 </v>
   <v>       0.23076923      -0.46153846       0.16666667 </v>
   <v>       0.26923077      -0.46153846       0.16666667 </v>
   <v>       0.30769231      -0.46153846       0.16666667 </v>
   <v>       0.34615385      -0.46153846       0.16666667 </v>
   <v>       0.38461538      -0.46153846       0.16666667 </v>
   <v>       0.42307692      -0.46153846       0.16666667 </v>
   <v>       0.46153846      -0.46153846       0.16666667 </v>
   <v>       0.50000000      -0.46153846       0.16666667 </v>
   <v>      -0.46153846      -0.46153846       0.16666667 </v>
   <v>      -0.42307692      -0.46153846       0.16666667 </v>
   <v>      -0.38461538      -0.46153846       0.16666667 </v>
   <v>      -0.34615385      -0.46153846       0.16666667 </v>
   <v>      -0.30769231      -0.46153846       0.16666667 </v>
   <v>      -0.26923077      -0.46153846       0.16666667 </v>
   <v>      -0.23076923      -0.46153846       0.16666667 </v>
   <v>      -0.19230769      -0.46153846       0.16666667 </v>
   <v>      -0.15384615      -0.46153846       0.16666667 </v>
   <v>      -0.11538462      -0.46153846       0.16666667 </v>
   <v>      -0.07692308      -0.46153846       0.16666667 </v>
   <v>      -0.03846154      -0.46153846       0.16666667 </v>
   <v>       0.00000000      -0.38461538       0.16666667 </v>
   <v>       0.03846154      -0.38461538       0.16666667 </v>
   <v>       0.07692308      -0.38461538       0.16666667 </v>
   <v>       0.11538462      -0.38461538       0.16666667 </v>
   <v>       0.15384615      -0.38461538       0.16666667 </v>
   <v>       0.19230769      -0.38461538       0.16666667 </v>
   <v>       0.23076923      -0.38461538       0.16666667 </v>
   <v>       0.26923077      -0.38461538       0.16666667 </v>
   <v>       0.30769231      -0.38461538       0.16666667 </v>
   <v>       0.34615385      -0.38461538       0.16666667 </v>
   <v>       0.38461538      -0.38461538       0.16666667 </v>
   <v>       0.42307692      -0.38461538       0.16666667 </v>
   <v>       0.46153846      -0.38461538       0.16666667 </v>
   <v>       0.50000000      -0.38461538       0.16666667 </v>
   <v>      -0.46153846      -0.38461538       0.16666667 </v>
   <v>      -0.42307692      -0.38461538       0.16666667 </v>
   <v>      -0.38461538      -0.38461538       0.16666667 </v>
   <v>      -0.34615385      -0.38461538       0.16666667 </v>
   <v>      -0.30769231      -0.38461538       0.16666667 </v>
   <v>      -0.26923077      -0.38461538       0.16666667 </v>
   <v>      -0.23076923      -0.38461538       0.16666667 </v>
   <v>      -0.19230769      -0.38461538       0.16666667 </v>
   <v>      -0.15384615      -0.38461538       0.16666667 </v>
   <v>      -0.11538462      -0.38461538       0.16666667 </v>
   <v>      -0.07692308      -0.38461538       0.16666667 </v>
   <v>      -0.03846154      -0.38461538       0.16666667 </v>
   <v>       0.00000000      -0.30769231       0.16666667 </v>
   <v>       0.03846154      -0.30769231       0.16666667 </v>
   <v>       0.07692308      -0.30769231       0.16666667 </v>
   <v>       0.11538462      -0.30769231       0.16666667 </v>
   <v>       0.15384615      -0.30769231       0.16666667 </v>
   <v>       0.19230769      -0.30769231       0.16666667 </v>
   <v>       0.23076923      -0.30769231       0.16666667 </v>
   <v>       0.26923077      -0.30769231       0.16666667 </v>
   <v>       0.30769231      -0.30769231       0.16666667 </v>
   <v>       0.34615385      -0.30769231       0.16666667 </v>
   <v>       0.38461538      -0.30769231       0.16666667 </v>
   <v>       0.42307692      -0.30769231       0.16666667 </v>
   <v>       0.46153846      -0.30769231       0.16666667 </v>
   <v>       0.50000000      -0.30769231       0.16666667 </v>
   <v>      -0.46153846      -0.30769231       0.16666667 </v>
   <v>      -0.42307692      -0.30769231       0.16666667 </v>
   <v>      -0.38461538      -0.30769231       0.16666667 </v>
   <v>      -0.34615385      -0.30769231       0.16666667 </v>
   <v>      -0.30769231      -0.30769231       0.16666667 </v>
   <v>      -0.26923077      -0.30769231       0.16666667 </v>
   <v>      -0.23076923      -0.30769231       0.16666667 </v>
   <v>      -0.19230769      -0.30769231       0.16666667 </v>
   <v>      -0.15384615      -0.30769231       0.16666667 </v>
   <v>      -0.11538462      -0.30769231       0.16666667 </v>
   <v>      -0.07692308      -0.30769231       0.16666667 </v>
   <v>      -0.03846154      -0.30769231       0.16666667 </v>
   <v>       0.00000000      -0.23076923       0.16666667 </v>
   <v>       0.03846154      -0.23076923       0.16666667 </v>
   <v>       0.07692308      -0.23076923       0.16666667 </v>
   <v>       0.11538462      -0.23076923       0.16666667 </v>
   <v>       0.15384615      -0.23076923       0.16666667 </v>
   <v>       0.19230769      -0.23076923       0.16666667 </v>
   <v>       0.23076923      -0.23076923       0.16666667 </v>
   <v>       0.26923077      -0.23076923       0.16666667 </v>
   <v>       0.30769231      -0.23076923       0.16666667 </v>
   <v>       0.34615385      -0.23076923       0.16666667 </v>
   <v>       0.38461538      -0.23076923       0.16666667 </v>
   <v>       0.42307692      -0.23076923       0.16666667 </v>
   <v>       0.46153846      -0.23076923       0.16666667 </v>
   <v>       0.50000000      -0.23076923       0.16666667 </v>
   <v>      -0.46153846      -0.23076923       0.16666667 </v>
   <v>      -0.42307692      -0.23076923       0.16666667 </v>
   <v>      -0.38461538      -0.23076923       0.16666667 </v>
   <v>      -0.34615385      -0.23076923       0.16666667 </v>
   <v>      -0.30769231      -0.23076923       0.16666667 </v>
   <v>      -0.26923077      -0.23076923       0.16666667 </v>
   <v>      -0.23076923      -0.23076923       0.16666667 </v>
   <v>      -0.19230769      -0.23076923       0.16666667 </v>
   <v>      -0.15384615      -0.23076923       0.16666667 </v>
   <v>      -0.11538462      -0.23076923       0.16666667 </v>
   <v>      -0.07692308      -0.23076923       0.16666667 </v>
   <v>      -0.03846154      -0.23076923       0.16666667 </v>
   <v>       0.00000000      -0.15384615       0.16666667 </v>
   <v>       0.03846154      -0.15384615       0.16666667 </v>
   <v>       0.07692308      -0.15384615       0.16666667 </v>
   <v>       0.11538462      -0.15384615       0.16666667 </v>
   <v>       0.15384615      -0.15384615       0.16666667 </v>
   <v>       0.19230769      -0.15384615       0.16666667 </v>
   <v>       0.23076923      -0.15384615       0.16666667 </v>
   <v>       0.26923077      -0.15384615       0.16666667 </v>
   <v>       0.30769231      -0.15384615       0.16666667 </v>
   <v>       0.34615385      -0.15384615       0.16666667 </v>
   <v>       0.38461538      -0.15384615       0.16666667 </v>
   <v>       0.42307692      -0.15384615       0.16666667 </v>
   <v>       0.46153846      -0.15384615       0.16666667 </v>
   <v>       0.50000000      -0.15384615       0.16666667 </v>
   <v>      -0.46153846      -0.15384615       0.16666667 </v>
   <v>      -0.42307692      -0.15384615       0.16666667 </v>
   <v>      -0.38461538      -0.15384615       0.16666667 </v>
   <v>      -0.34615385      -0.15384615       0.16666667 </v>
   <v>      -0.30769231      -0.15384615       0.16666667 </v>
   <v>      -0.26923077      -0.15384615       0.16666667 </v>
   <v>      -0.23076923      -0.15384615       0.16666667 </v>
   <v>      -0.19230769      -0.15384615       0.16666667 </v>
   <v>      -0.15384615      -0.15384615       0.16666667 </v>
   <v>      -0.11538462      -0.15384615       0.16666667 </v>
   <v>      -0.07692308      -0.15384615       0.16666667 </v>
   <v>      -0.03846154      -0.15384615       0.16666667 </v>
   <v>       0.00000000      -0.07692308       0.16666667 </v>
   <v>       0.03846154      -0.07692308       0.16666667 </v>
   <v>       0.07692308      -0.07692308       0.16666667 </v>
   <v>       0.11538462      -0.07692308       0.16666667 </v>
   <v>       0.15384615      -0.07692308       0.16666667 </v>
   <v>       0.19230769      -0.07692308       0.16666667 </v>
   <v>       0.23076923      -0.07692308       0.16666667 </v>
   <v>       0.26923077      -0.07692308       0.16666667 </v>
   <v>       0.30769231      -0.07692308       0.16666667 </v>
   <v>       0.34615385      -0.07692308       0.16666667 </v>
   <v>       0.38461538      -0.07692308       0.16666667 </v>
   <v>       0.42307692      -0.07692308       0.16666667 </v>
   <v>       0.46153846      -0.07692308       0.16666667 </v>
   <v>       0.50000000      -0.07692308       0.16666667 </v>
   <v>      -0.46153846      -0.07692308       0.16666667 </v>
   <v>      -0.42307692      -0.07692308       0.16666667 </v>
   <v>      -0.38461538      -0.07692308       0.16666667 </v>
   <v>      -0.34615385      -0.07692308       0.16666667 </v>
   <v>      -0.30769231      -0.07692308       0.16666667 </v>
   <v>      -0.26923077      -0.07692308       0.16666667 </v>
   <v>      -0.23076923      -0.07692308       0.16666667 </v>
   <v>      -0.19230769      -0.07692308       0.16666667 </v>
   <v>      -0.15384615      -0.07692308       0.16666667 </v>
   <v>      -0.11538462      -0.07692308       0.16666667 </v>
   <v>      -0.07692308      -0.07692308       0.16666667 </v>
   <v>      -0.03846154      -0.07692308       0.16666667 </v>
   <v>       0.00000000       0.00000000       0.25000000 </v>
   <v>       0.03846154       0.00000000       0.25000000 </v>
   <v>       0.07692308       0.00000000       0.25000000 </v>
   <v>       0.11538462       0.00000000       0.25000000 </v>
   <v>       0.15384615       0.00000000       0.25000000 </v>
   <v>       0.19230769       0.00000000       0.25000000 </v>
   <v>       0.23076923       0.00000000       0.25000000 </v>
   <v>       0.26923077       0.00000000       0.25000000 </v>
   <v>       0.30769231       0.00000000       0.25000000 </v>
   <v>       0.34615385       0.00000000       0.25000000 </v>
   <v>       0.38461538       0.00000000       0.25000000 </v>
   <v>       0.42307692       0.00000000       0.25000000 </v>
   <v>       0.46153846       0.00000000       0.25000000 </v>
   <v>       0.50000000       0.00000000       0.25000000 </v>
   <v>      -0.46153846       0.00000000       0.25000000 </v>
   <v>      -0.42307692       0.00000000       0.25000000 </v>
   <v>      -0.38461538       0.00000000       0.25000000 </v>
   <v>      -0.34615385       0.00000000       0.25000000 </v>
   <v>      -0.30769231       0.00000000       0.25000000 </v>
   <v>      -0.26923077       0.00000000       0.25000000 </v>
   <v>      -0.23076923       0.00000000       0.25000000 </v>
   <v>      -0.19230769       0.00000000       0.25000000 </v>
   <v>      -0.15384615       0.00000000       0.25000000 </v>
   <v>      -0.11538462       0.00000000       0.25000000 </v>
   <v>      -0.07692308       0.00000000       0.25000000 </v>
   <v>      -0.03846154       0.00000000       0.25000000 </v>
   <v>       0.00000000       0.07692308       0.25000000 </v>
   <v>       0.03846154       0.07692308       0.25000000 </v>
   <v>       0.07692308       0.07692308       0.25000000 </v>
   <v>       0.11538462       0.07692308       0.25000000 </v>
   <v>       0.15384615       0.07692308       0.25000000 </v>
   <v>       0.19230769       0.07692308       0.25000000 </v>
   <v>       0.23076923       0.07692308       0.25000000 </v>
   <v>       0.26923077       0.07692308       0.25000000 </v>
   <v>       0.30769231       0.07692308       0.25000000 </v>
   <v>       0.34615385       0.07692308       0.25000000 </v>
   <v>       0.38461538       0.07692308       0.25000000 </v>
   <v>       0.42307692       0.07692308       0.25000000 </v>
   <v>       0.46153846       0.07692308       0.25000000 </v>
   <v>       0.50000000       0.07692308       0.25000000 </v>
   <v>      -0.46153846       0.07692308       0.25000000 </v>
   <v>      -0.42307692       0.07692308       0.25000000 </v>
   <v>      -0.38461538       0.07692308       0.25000000 </v>
   <v>      -0.34615385       0.07692308       0.25000000 </v>
   <v>      -0.30769231       0.07692308       0.25000000 </v>
   <v>      -0.26923077       0.07692308       0.25000000 </v>
   <v>      -0.23076923       0.07692308       0.25000000 </v>
   <v>      -0.19230769       0.07692308       0.25000000 </v>
   <v>      -0.15384615       0.07692308       0.25000000 </v>
   <v>      -0.11538462       0.07692308       0.25000000 </v>
   <v>      -0.07692308       0.07692308       0.25000000 </v>
   <v>      -0.03846154       0.07692308       0.25000000 </v>
   <v>       0.00000000       0.15384615       0.25000000 </v>
   <v>       0.03846154       0.15384615       0.25000000 </v>
   <v>       0.07692308       0.15384615       0.25000000 </v>
   <v>       0.11538462       0.15384615       0.25000000 </v>
   <v>       0.15384615       0.15384615       0.25000000 </v>
   <v>       0.19230769       0.15384615       0.25000000 </v>
   <v>       0.23076923       0.15384615       0.25000000 </v>
   <v>       0.26923077       0.15384615       0.25000000 </v>
   <v>       0.30769231       0.15384615       0.25000000 </v>
   <v>       0.34615385       0.15384615       0.25000000 </v>
   <v>       0.38461538       0.15384615       0.25000000 </v>
   <v>       0.42307692       0.15384615       0.25000000 </v>
   <v>       0.46153846       0.15384615       0.25000000 </v>
   <v>       0.50000000       0.15384615       0.25000000 </v>
   <v>      -0.46153846       0.15384615       0.25000000 </v>
   <v>      -0.42307692       0.15384615       0.25000000 </v>
   <v>      -0.38461538       0.15384615       0.25000000 </v>
   <v>      -0.34615385       0.15384615       0.25000000 </v>
   <v>      -0.30769231       0.15384615       0.25000000 </v>
   <v>      -0.26923077       0.15384615       0.25000000 </v>
   <v>      -0.23076923       0.15384615       0.25000000 </v>
   <v>      -0.19230769       0.15384615       0.25000000 </v>
   <v>      -0.15384615       0.15384615       0.25000000 </v>
   <v>      -0.11538462       0.15384615       0.25000000 </v>
   <v>      -0.07692308       0.15384615       0.25000000 </v>
   <v>      -0.03846154       0.15384615       0.25000000 </v>
   <v>       0.00000000       0.23076923       0.25000000 </v>
   <v>       0.03846154       0.23076923       0.25000000 </v>
   <v>       0.07692308       0.23076923       0.25000000 </v>
   <v>       0.11538462       0.23076923       0.25000000 </v>
   <v>       0.15384615       0.23076923       0.25000000 </v>
   <v>       0.19230769       0.23076923       0.25000000 </v>
   <v>       0.23076923       0.23076923       0.25000000 </v>
   <v>       0.26923077       0.23076923       0.25000000 </v>
   <v>       0.30769231       0.23076923       0.25000000 </v>
   <v>       0.34615385       0.23076923       0.25000000 </v>
   <v>       0.38461538       0.23076923       0.25000000 </v>
   <v>       0.42307692       0.23076923       0.25000000 </v>
   <v>       0.46153846       0.23076923       0.25000000 </v>
   <v>       0.50000000       0.23076923       0.25000000 </v>
   <v>      -0.46153846       0.23076923       0.25000000 </v>
   <v>      -0.42307692       0.23076923       0.25000000 </v>
   <v>      -0.38461538       0.23076923       0.25000000 </v>
   <v>      -0.34615385       0.23076923       0.25000000 </v>
   <v>      -0.30769231       0.23076923       0.25000000 </v>
   <v>      -0.26923077       0.23076923       0.25000000 </v>
   <v>      -0.23076923       0.23076923       0.25000000 </v>
   <v>      -0.19230769       0.23076923       0.25000000 </v>
   <v>      -0.15384615       0.23076923       0.25000000 </v>
   <v>      -0.11538462       0.23076923       0.25000000 </v>
   <v>      -0.07692308       0.23076923       0.25000000 </v>
   <v>      -0.03846154       0.23076923       0.25000000 </v>
   <v>       0.00000000       0.30769231       0.25000000 </v>
   <v>       0.03846154       0.30769231       0.25000000 </v>
   <v>       0.07692308       0.30769231       0.25000000 </v>
   <v>       0.11538462       0.30769231       0.25000000 </v>
   <v>       0.15384615       0.30769231       0.25000000 </v>
   <v>       0.19230769       0.30769231       0.25000000 </v>
   <v>       0.23076923       0.30769231       0.25000000 </v>
   <v>       0.26923077       0.30769231       0.25000000 </v>
   <v>       0.30769231       0.30769231       0.25000000 </v>
   <v>       0.34615385       0.30769231       0.25000000 </v>
   <v>       0.38461538       0.30769231       0.25000000 </v>
   <v>       0.42307692       0.30769231       0.25000000 </v>
   <v>       0.46153846       0.30769231       0.25000000 </v>
   <v>       0.50000000       0.30769231       0.25000000 </v>
   <v>      -0.46153846       0.30769231       0.25000000 </v>
   <v>      -0.42307692       0.30769231       0.25000000 </v>
   <v>      -0.38461538       0.30769231       0.25000000 </v>
   <v>      -0.34615385       0.30769231       0.25000000 </v>
   <v>      -0.30769231       0.30769231       0.25000000 </v>
   <v>      -0.26923077       0.30769231       0.25000000 </v>
   <v>      -0.23076923       0.30769231       0.25000000 </v>
   <v>      -0.19230769       0.30769231       0.25000000 </v>
   <v>      -0.15384615       0.30769231       0.25000000 </v>
   <v>      -0.11538462       0.30769231       0.25000000 </v>
   <v>      -0.07692308       0.30769231       0.25000000 </v>
   <v>      -0.03846154       0.30769231       0.25000000 </v>
   <v>       0.00000000       0.38461538       0.25000000 </v>
   <v>       0.03846154       0.38461538       0.25000000 </v>
   <v>       0.07692308       0.38461538       0.25000000 </v>
   <v>       0.11538462       0.38461538       0.25000000 </v>
   <v>       0.15384615       0.38461538       0.25000000 </v>
   <v>       0.19230769       0.38461538       0.25000000 </v>
   <v>       0.23076923       0.38461538       0.25000000 </v>
   <v>       0.26923077       0.38461538       0.25000000 </v>
   <v>       0.30769231       0.38461538       0.25000000 </v>
   <v>       0.34615385       0.38461538       0.25000000 </v>
   <v>       0.38461538       0.38461538       0.25000000 </v>
   <v>       0.42307692       0.38461538       0.25000000 </v>
   <v>       0.46153846       0.38461538       0.25000000 </v>
   <v>       0.50000000       0.38461538       0.25000000 </v>
   <v>      -0.46153846       0.38461538       0.25000000 </v>
   <v>      -0.42307692       0.38461538       0.25000000 </v>
   <v>      -0.38461538       0.38461538       0.25000000 </v>
   <v>      -0.34615385       0.38461538       0.25000000 </v>
   <v>      -0.30769231       0.38461538       0.25000000 </v>
   <v>      -0.26923077       0.38461538       0.25000000 </v>
   <v>      -0.23076923       0.38461538       0.25000000 </v>
   <v>      -0.19230769       0.38461538       0.25000000 </v>
   <v>      -0.15384615       0.38461538       0.25000000 </v>
   <v>      -0.11538462       0.38461538       0.25000000 </v>
   <v>      -0.07692308       0.38461538       0.25000000 </v>
   <v>      -0.03846154       0.38461538       0.25000000 </v>
   <v>       0.00000000       0.46153846       0.25000000 </v>
   <v>       0.03846154       0.46153846       0.25000000 </v>
   <v>       0.07692308       0.46153846       0.25000000 </v>
   <v>       0.11538462       0.46153846       0.25000000 </v>
   <v>       0.15384615       0.46153846       0.25000000 </v>
   <v>       0.19230769       0.46153846       0.25000000 </v>
   <v>       0.23076923       0.46153846       0.25000000 </v>
   <v>       0.26923077       0.46153846       0.25000000 </v>
   <v>       0.30769231       0.46153846       0.25000000 </v>
   <v>       0.34615385       0.46153846       0.25000000 </v>
   <v>       0.38461538       0.46153846       0.25000000 </v>
   <v>       0.42307692       0.46153846       0.25000000 </v>
   <v>       0.46153846       0.46153846       0.25000000 </v>
   <v>       0.50000000       0.46153846       0.25000000 </v>
   <v>      -0.46153846       0.46153846       0.25000000 </v>
   <v>      -0.42307692       0.46153846       0.25000000 </v>
   <v>      -0.38461538       0.46153846       0.25000000 </v>
   <v>      -0.34615385       0.46153846       0.25000000 </v>
   <v>      -0.30769231       0.46153846       0.25000000 </v>
   <v>      -0.26923077       0.46153846       0.25000000 </v>
   <v>      -0.23076923       0.46153846       0.25000000 </v>
   <v>      -0.19230769       0.46153846       0.25000000 </v>
   <v>      -0.15384615       0.46153846       0.25000000 </v>
   <v>      -0.11538462       0.46153846       0.25000000 </v>
   <v>      -0.07692308       0.46153846       0.25000000 </v>
   <v>      -0.03846154       0.46153846       0.25000000 </v>
   <v>       0.00000000      -0.46153846       0.25000000 </v>
   <v>       0.03846154      -0.46153846       0.25000000 </v>
   <v>       0.07692308      -0.46153846       0.25000000 </v>
   <v>       0.11538462      -0.46153846       0.25000000 </v>
   <v>       0.15384615      -0.46153846       0.25000000 </v>
   <v>       0.19230769      -0.46153846       0.25000000 </v>
   <v>       0.23076923      -0.46153846       0.25000000 </v>
   <v>       0.26923077      -0.46153846       0.25000000 </v>
   <v>       0.30769231      -0.46153846       0.25000000 </v>
   <v>       0.34615385      -0.46153846       0.25000000 </v>
   <v>       0.38461538      -0.46153846       0.25000000 </v>
   <v>       0.42307692      -0.46153846       0.25000000 </v>
   <v>       0.46153846      -0.46153846       0.25000000 </v>
   <v>      -0.46153846      -0.46153846       0.25000000 </v>
   <v>      -0.42307692      -0.46153846       0.25000000 </v>
   <v>      -0.38461538      -0.46153846       0.25000000 </v>
   <v>      -0.34615385      -0.46153846       0.25000000 </v>
   <v>      -0.30769231      -0.46153846       0.25000000 </v>
   <v>      -0.26923077      -0.46153846       0.25000000 </v>
   <v>      -0.23076923      -0.46153846       0.25000000 </v>
   <v>      -0.19230769      -0.46153846       0.25000000 </v>
   <v>      -0.15384615      -0.46153846       0.25000000 </v>
   <v>      -0.11538462      -0.46153846       0.25000000 </v>
   <v>      -0.07692308      -0.46153846       0.25000000 </v>
   <v>      -0.03846154      -0.46153846       0.25000000 </v>
   <v>       0.00000000      -0.38461538       0.25000000 </v>
   <v>       0.03846154      -0.38461538       0.25000000 </v>
   <v>       0.07692308      -0.38461538       0.25000000 </v>
   <v>       0.11538462      -0.38461538       0.25000000 </v>
   <v>       0.15384615      -0.38461538       0.25000000 </v>
   <v>       0.19230769      -0.38461538       0.25000000 </v>
   <v>       0.23076923      -0.38461538       0.25000000 </v>
   <v>       0.26923077      -0.38461538       0.25000000 </v>
   <v>       0.30769231      -0.38461538       0.25000000 </v>
   <v>       0.34615385      -0.38461538       0.25000000 </v>
   <v>       0.38461538      -0.38461538       0.25000000 </v>
   <v>       0.42307692      -0.38461538       0.25000000 </v>
   <v>       0.46153846      -0.38461538       0.25000000 </v>
   <v>      -0.46153846      -0.38461538       0.25000000 </v>
   <v>      -0.42307692      -0.38461538       0.25000000 </v>
   <v>      -0.38461538      -0.38461538       0.25000000 </v>
   <v>      -0.34615385      -0.38461538       0.25000000 </v>
   <v>      -0.30769231      -0.38461538       0.25000000 </v>
   <v>      -0.26923077      -0.38461538       0.25000000 </v>
   <v>      -0.23076923      -0.38461538       0.25000000 </v>
   <v>      -0.19230769      -0.38461538       0.25000000 </v>
   <v>      -0.15384615      -0.38461538       0.25000000 </v>
   <v>      -0.11538462      -0.38461538       0.25000000 </v>
   <v>      -0.07692308      -0.38461538       0.25000000 </v>
   <v>      -0.03846154      -0.38461538       0.25000000 </v>
   <v>       0.00000000      -0.30769231       0.25000000 </v>
   <v>       0.03846154      -0.30769231       0.25000000 </v>
   <v>       0.07692308      -0.30769231       0.25000000 </v>
   <v>       0.11538462      -0.30769231       0.25000000 </v>
   <v>       0.15384615      -0.30769231       0.25000000 </v>
   <v>       0.19230769      -0.30769231       0.25000000 </v>
   <v>       0.23076923      -0.30769231       0.25000000 </v>
   <v>       0.26923077      -0.30769231       0.25000000 </v>
   <v>       0.30769231      -0.30769231       0.25000000 </v>
   <v>       0.34615385      -0.30769231       0.25000000 </v>
   <v>       0.38461538      -0.30769231       0.25000000 </v>
   <v>       0.42307692      -0.30769231       0.25000000 </v>
   <v>       0.46153846      -0.30769231       0.25000000 </v>
   <v>      -0.46153846      -0.30769231       0.25000000 </v>
   <v>      -0.42307692      -0.30769231       0.25000000 </v>
   <v>      -0.38461538      -0.30769231       0.25000000 </v>
   <v>      -0.34615385      -0.30769231       0.25000000 </v>
   <v>      -0.30769231      -0.30769231       0.25000000 </v>
   <v>      -0.26923077      -0.30769231       0.25000000 </v>
   <v>      -0.23076923      -0.30769231       0.25000000 </v>
   <v>      -0.19230769      -0.30769231       0.25000000 </v>
   <v>      -0.15384615      -0.30769231       0.25000000 </v>
   <v>      -0.11538462      -0.30769231       0.25000000 </v>
   <v>      -0.07692308      -0.30769231       0.25000000 </v>
   <v>      -0.03846154      -0.30769231       0.25000000 </v>
   <v>       0.00000000      -0.23076923       0.25000000 </v>
   <v>       0.03846154      -0.23076923       0.25000000 </v>
   <v>       0.07692308      -0.23076923       0.25000000 </v>
   <v>       0.11538462      -0.23076923       0.25000000 </v>
   <v>       0.15384615      -0.23076923       0.25000000 </v>
   <v>       0.19230769      -0.23076923       0.25000000 </v>
   <v>       0.23076923      -0.23076923       0.25000000 </v>
   <v>       0.26923077      -0.23076923       0.25000000 </v>
   <v>       0.30769231      -0.23076923       0.25000000 </v>
   <v>       0.34615385      -0.23076923       0.25000000 </v>
   <v>       0.38461538      -0.23076923       0.25000000 </v>
   <v>       0.42307692      -0.23076923       0.25000000 </v>
   <v>       0.46153846      -0.23076923       0.25000000 </v>
   <v>      -0.46153846      -0.23076923       0.25000000 </v>
   <v>      -0.42307692      -0.23076923       0.25000000 </v>
   <v>      -0.38461538      -0.23076923       0.25000000 </v>
   <v>      -0.34615385      -0.23076923       0.25000000 </v>
   <v>      -0.30769231      -0.23076923       0.25000000 </v>
   <v>      -0.26923077      -0.23076923       0.25000000 </v>
   <v>      -0.23076923      -0.23076923       0.25000000 </v>
   <v>      -0.19230769      -0.23076923       0.25000000 </v>
   <v>      -0.15384615      -0.23076923       0.25000000 </v>
   <v>      -0.11538462      -0.23076923       0.25000000 </v>
   <v>      -0.07692308      -0.23076923       0.25000000 </v>
   <v>      -0.03846154      -0.23076923       0.25000000 </v>
   <v>       0.00000000      -0.15384615       0.25000000 </v>
   <v>       0.03846154      -0.15384615       0.25000000 </v>
   <v>       0.07692308      -0.15384615       0.25000000 </v>
   <v>       0.11538462      -0.15384615       0.25000000 </v>
   <v>       0.15384615      -0.15384615       0.25000000 </v>
   <v>       0.19230769      -0.15384615       0.25000000 </v>
   <v>       0.23076923      -0.15384615       0.25000000 </v>
   <v>       0.26923077      -0.15384615       0.25000000 </v>
   <v>       0.30769231      -0.15384615       0.25000000 </v>
   <v>       0.34615385      -0.15384615       0.25000000 </v>
   <v>       0.38461538      -0.15384615       0.25000000 </v>
   <v>       0.42307692      -0.15384615       0.25000000 </v>
   <v>       0.46153846      -0.15384615       0.25000000 </v>
   <v>      -0.46153846      -0.15384615       0.25000000 </v>
   <v>      -0.42307692      -0.15384615       0.25000000 </v>
   <v>      -0.38461538      -0.15384615       0.25000000 </v>
   <v>      -0.34615385      -0.15384615       0.25000000 </v>
   <v>      -0.30769231      -0.15384615       0.25000000 </v>
   <v>      -0.26923077      -0.15384615       0.25000000 </v>
   <v>      -0.23076923      -0.15384615       0.25000000 </v>
   <v>      -0.19230769      -0.15384615       0.25000000 </v>
   <v>      -0.15384615      -0.15384615       0.25000000 </v>
   <v>      -0.11538462      -0.15384615       0.25000000 </v>
   <v>      -0.07692308      -0.15384615       0.25000000 </v>
   <v>      -0.03846154      -0.15384615       0.25000000 </v>
   <v>       0.00000000      -0.07692308       0.25000000 </v>
   <v>       0.03846154      -0.07692308       0.25000000 </v>
   <v>       0.07692308      -0.07692308       0.25000000 </v>
   <v>       0.11538462      -0.07692308       0.25000000 </v>
   <v>       0.15384615      -0.07692308       0.25000000 </v>
   <v>       0.19230769      -0.07692308       0.25000000 </v>
   <v>       0.23076923      -0.07692308       0.25000000 </v>
   <v>       0.26923077      -0.07692308       0.25000000 </v>
   <v>       0.30769231      -0.07692308       0.25000000 </v>
   <v>       0.34615385      -0.07692308       0.25000000 </v>
   <v>       0.38461538      -0.07692308       0.25000000 </v>
   <v>       0.42307692      -0.07692308       0.25000000 </v>
   <v>       0.46153846      -0.07692308       0.25000000 </v>
   <v>      -0.46153846      -0.07692308       0.25000000 </v>
   <v>      -0.42307692      -0.07692308       0.25000000 </v>
   <v>      -0.38461538      -0.07692308       0.25000000 </v>
   <v>      -0.34615385      -0.07692308       0.25000000 </v>
   <v>      -0.30769231      -0.07692308       0.25000000 </v>
   <v>      -0.26923077      -0.07692308       0.25000000 </v>
   <v>      -0.23076923      -0.07692308       0.25000000 </v>
   <v>      -0.19230769      -0.07692308       0.25000000 </v>
   <v>      -0.15384615      -0.07692308       0.25000000 </v>
   <v>      -0.11538462      -0.07692308       0.25000000 </v>
   <v>      -0.07692308      -0.07692308       0.25000000 </v>
   <v>      -0.03846154      -0.07692308       0.25000000 </v>
   <v>       0.00000000       0.00000000       0.33333333 </v>
   <v>       0.03846154       0.00000000       0.33333333 </v>
   <v>       0.07692308       0.00000000       0.33333333 </v>
   <v>       0.11538462       0.00000000       0.33333333 </v>
   <v>       0.15384615       0.00000000       0.33333333 </v>
   <v>       0.19230769       0.00000000       0.33333333 </v>
   <v>       0.23076923       0.00000000       0.33333333 </v>
   <v>       0.26923077       0.00000000       0.33333333 </v>
   <v>       0.30769231       0.00000000       0.33333333 </v>
   <v>       0.34615385       0.00000000       0.33333333 </v>
   <v>       0.38461538       0.00000000       0.33333333 </v>
   <v>       0.42307692       0.00000000       0.33333333 </v>
   <v>       0.46153846       0.00000000       0.33333333 </v>
   <v>      -0.46153846       0.00000000       0.33333333 </v>
   <v>      -0.42307692       0.00000000       0.33333333 </v>
   <v>      -0.38461538       0.00000000       0.33333333 </v>
   <v>      -0.34615385       0.00000000       0.33333333 </v>
   <v>      -0.30769231       0.00000000       0.33333333 </v>
   <v>      -0.26923077       0.00000000       0.33333333 </v>
   <v>      -0.23076923       0.00000000       0.33333333 </v>
   <v>      -0.19230769       0.00000000       0.33333333 </v>
   <v>      -0.15384615       0.00000000       0.33333333 </v>
   <v>      -0.11538462       0.00000000       0.33333333 </v>
   <v>      -0.07692308       0.00000000       0.33333333 </v>
   <v>      -0.03846154       0.00000000       0.33333333 </v>
   <v>       0.00000000       0.07692308       0.33333333 </v>
   <v>       0.03846154       0.07692308       0.33333333 </v>
   <v>       0.07692308       0.07692308       0.33333333 </v>
   <v>       0.11538462       0.07692308       0.33333333 </v>
   <v>       0.15384615       0.07692308       0.33333333 </v>
   <v>       0.19230769       0.07692308       0.33333333 </v>
   <v>       0.23076923       0.07692308       0.33333333 </v>
   <v>       0.26923077       0.07692308       0.33333333 </v>
   <v>       0.30769231       0.07692308       0.33333333 </v>
   <v>       0.34615385       0.07692308       0.33333333 </v>
   <v>       0.38461538       0.07692308       0.33333333 </v>
   <v>       0.42307692       0.07692308       0.33333333 </v>
   <v>       0.46153846       0.07692308       0.33333333 </v>
   <v>      -0.46153846       0.07692308       0.33333333 </v>
   <v>      -0.42307692       0.07692308       0.33333333 </v>
   <v>      -0.38461538       0.07692308       0.33333333 </v>
   <v>      -0.34615385       0.07692308       0.33333333 </v>
   <v>      -0.30769231       0.07692308       0.33333333 </v>
   <v>      -0.26923077       0.07692308       0.33333333 </v>
   <v>      -0.23076923       0.07692308       0.33333333 </v>
   <v>      -0.19230769       0.07692308       0.33333333 </v>
   <v>      -0.15384615       0.07692308       0.33333333 </v>
   <v>      -0.11538462       0.07692308       0.33333333 </v>
   <v>      -0.07692308       0.07692308       0.33333333 </v>
   <v>      -0.03846154       0.07692308       0.33333333 </v>
   <v>       0.00000000       0.15384615       0.33333333 </v>
   <v>       0.03846154       0.15384615       0.33333333 </v>
   <v>       0.07692308       0.15384615       0.33333333 </v>
   <v>       0.11538462       0.15384615       0.33333333 </v>
   <v>       0.15384615       0.15384615       0.33333333 </v>
   <v>       0.19230769       0.15384615       0.33333333 </v>
   <v>       0.23076923       0.15384615       0.33333333 </v>
   <v>       0.26923077       0.15384615       0.33333333 </v>
   <v>       0.30769231       0.15384615       0.33333333 </v>
   <v>       0.34615385       0.15384615       0.33333333 </v>
   <v>       0.38461538       0.15384615       0.33333333 </v>
   <v>       0.42307692       0.15384615       0.33333333 </v>
   <v>       0.46153846       0.15384615       0.33333333 </v>
   <v>      -0.46153846       0.15384615       0.33333333 </v>
[...]
       <r>    5.3622    1.0000 </r>
       <r>    5.4474    1.0000 </r>
       <r>    5.5833    1.0000 </r>
       <r>    5.6147    1.0000 </r>
       <r>    5.6672    1.0000 </r>
       <r>    5.7814    1.0000 </r>
       <r>    5.9841    1.0000 </r>
       <r>    6.0903    1.0000 </r>
       <r>    6.1368    1.0000 </r>
       <r>    6.2890    1.0000 </r>
       <r>    6.3482    1.0000 </r>
       <r>    6.4128    1.0000 </r>
       <r>    6.7580    1.0000 </r>
       <r>   11.8311    0.0000 </r>
       <r>   12.4667    0.0000 </r>
       <r>   12.7870    0.0000 </r>
       <r>   13.6075    0.0000 </r>
       <r>   15.8741    0.0000 </r>
       <r>   16.2560    0.0000 </r>
      </set>
      <set comment="kpoint 1990">
       <r>    0.6386    1.0000 </r>
       <r>    0.9112    1.0000 </r>
       <r>    1.3427    1.0000 </r>
       <r>    1.9434    1.0000 </r>
       <r>    2.2896    1.0000 </r>
       <r>    2.5274    1.0000 </r>
       <r>    2.6649    1.0000 </r>
       <r>    2.9716    1.0000 </r>
       <r>    3.1832    1.0000 </r>
       <r>    3.4222    1.0000 </r>
       <r>    3.5629    1.0000 </r>
       <r>    3.8263    1.0000 </r>
       <r>    3.9271    1.0000 </r>
       <r>    4.0506    1.0000 </r>
       <r>    4.2311    1.0000 </r>
       <r>    4.4878    1.0000 </r>
       <r>    4.6629    1.0000 </r>
       <r>    4.7367    1.0000 </r>
       <r>    4.8892    1.0000 </r>
       <r>    4.9948    1.0000 </r>
       <r>    5.2791    1.0000 </r>
       <r>    5.3079    1.0000 </r>
       <r>    5.4366    1.0000 </r>
       <r>    5.5777    1.0000 </r>
       <r>    5.6348    1.0000 </r>
       <r>    5.6809    1.0000 </r>
       <r>    5.7820    1.0000 </r>
       <r>    5.9460    1.0000 </r>
       <r>    6.0418    1.0000 </r>
       <r>    6.1064    1.0000 </r>
       <r>    6.2268    1.0000 </r>
       <r>    6.3100    1.0000 </r>
       <r>    6.3777    1.0000 </r>
       <r>    6.5158    1.0000 </r>
       <r>   11.8570    0.0000 </r>
       <r>   12.2516    0.0000 </r>
       <r>   12.4404    0.0000 </r>
       <r>   13.4676    0.0000 </r>
       <r>   15.9480    0.0000 </r>
       <r>   16.2743    0.0000 </r>
      </set>
      <set comment="kpoint 1991">
       <r>    0.5268    1.0000 </r>
       <r>    0.8007    1.0000 </r>
       <r>    1.2775    1.0000 </r>
       <r>    1.8648    1.0000 </r>
       <r>    2.2364    1.0000 </r>
       <r>    2.5056    1.0000 </r>
       <r>    2.6287    1.0000 </r>
       <r>    2.9692    1.0000 </r>
       <r>    3.1828    1.0000 </r>
       <r>    3.5080    1.0000 </r>
       <r>    3.6494    1.0000 </r>
       <r>    3.8394    1.0000 </r>
       <r>    3.9435    1.0000 </r>
       <r>    4.1223    1.0000 </r>
       <r>    4.2166    1.0000 </r>
       <r>    4.5688    1.0000 </r>
       <r>    4.6869    1.0000 </r>
       <r>    4.7961    1.0000 </r>
       <r>    4.8763    1.0000 </r>
       <r>    5.0619    1.0000 </r>
       <r>    5.2013    1.0000 </r>
       <r>    5.2895    1.0000 </r>
       <r>    5.4360    1.0000 </r>
       <r>    5.5982    1.0000 </r>
       <r>    5.6642    1.0000 </r>
       <r>    5.6997    1.0000 </r>
       <r>    5.7746    1.0000 </r>
       <r>    5.8809    1.0000 </r>
       <r>    6.0173    1.0000 </r>
       <r>    6.1103    1.0000 </r>
       <r>    6.1843    1.0000 </r>
       <r>    6.2680    1.0000 </r>
       <r>    6.3226    1.0000 </r>
       <r>    6.3818    1.0000 </r>
       <r>   11.8869    0.0000 </r>
       <r>   12.0772    0.0000 </r>
       <r>   12.2502    0.0000 </r>
       <r>   13.3892    0.0000 </r>
       <r>   16.0235    0.0000 </r>
       <r>   16.1543    0.0000 </r>
      </set>
     </set>
    </set>
   </array>
  </eigenvalues>
  <separator name="orbital magnetization" >
   <v name="MAGDIPOLOUT">      0.00000000      0.00000000      0.00000000</v>
  </separator>
  <dos>
   <i name="efermi">      8.00473044 </i>
   <total>
    <array>
     <dimension dim="1">gridpoints</dimension>
     <dimension dim="2">spin</dimension>
     <field>energy</field>
     <field>total</field>
     <field>integrated</field>
     <set>
      <set comment="spin 1">
       <r>    -4.0532     0.0000     0.0000 </r>
       <r>    -3.9720     0.0000     0.0000 </r>
       <r>    -3.8908     0.0000     0.0000 </r>
       <r>    -3.8096     0.0000     0.0000 </r>
       <r>    -3.7284     0.0000     0.0000 </r>
       <r>    -3.6472     0.0000     0.0000 </r>
       <r>    -3.5660     0.0000     0.0000 </r>
       <r>    -3.4848     0.0000     0.0000 </r>
       <r>    -3.4037     0.0000     0.0000 </r>
       <r>    -3.3225     0.0000     0.0000 </r>
       <r>    -3.2413     0.0000     0.0000 </r>
       <r>    -3.1601     0.0000     0.0000 </r>
       <r>    -3.0789     0.0000     0.0000 </r>
       <r>    -2.9977     0.0000     0.0000 </r>
       <r>    -2.9165     0.0000     0.0000 </r>
       <r>    -2.8353     0.0000     0.0000 </r>
       <r>    -2.7541     0.0000     0.0000 </r>
       <r>    -2.6729     0.0000     0.0000 </r>
       <r>    -2.5917     0.0000     0.0000 </r>
       <r>    -2.5105     0.0000     0.0000 </r>
       <r>    -2.4293     0.0000     0.0000 </r>
       <r>    -2.3481     0.0000     0.0000 </r>
       <r>    -2.2669     0.0000     0.0000 </r>
       <r>    -2.1858     0.0000     0.0000 </r>
       <r>    -2.1046     0.0000     0.0000 </r>
       <r>    -2.0234     0.0000     0.0000 </r>
       <r>    -1.9422     0.0000     0.0000 </r>
       <r>    -1.8610     0.0000     0.0000 </r>
       <r>    -1.7798    -0.0001     0.0000 </r>
       <r>    -1.6986    -0.0004     0.0000 </r>
       <r>    -1.6174    -0.0010    -0.0001 </r>
       <r>    -1.5362    -0.0024    -0.0003 </r>
       <r>    -1.4550    -0.0047    -0.0007 </r>
       <r>    -1.3738    -0.0071    -0.0013 </r>
       <r>    -1.2926    -0.0074    -0.0019 </r>
       <r>    -1.2114    -0.0010    -0.0020 </r>
       <r>    -1.1302     0.0176    -0.0005 </r>
       <r>    -1.0490     0.0516     0.0037 </r>
       <r>    -0.9678     0.1002     0.0118 </r>
       <r>    -0.8867     0.1577     0.0246 </r>
       <r>    -0.8055     0.2164     0.0422 </r>
       <r>    -0.7243     0.2707     0.0641 </r>
       <r>    -0.6431     0.3184     0.0900 </r>
       <r>    -0.5619     0.3608     0.1193 </r>
       <r>    -0.4807     0.4009     0.1518 </r>
       <r>    -0.3995     0.4417     0.1877 </r>
       <r>    -0.3183     0.4851     0.2271 </r>
       <r>    -0.2371     0.5308     0.2702 </r>
       <r>    -0.1559     0.5758     0.3169 </r>
       <r>    -0.0747     0.6157     0.3669 </r>
       <r>     0.0065     0.6469     0.4195 </r>
       <r>     0.0877     0.6681     0.4737 </r>
       <r>     0.1689     0.6802     0.5289 </r>
       <r>     0.2501     0.6865     0.5847 </r>
       <r>     0.3312     0.6912     0.6408 </r>
       <r>     0.4124     0.6973     0.6974 </r>
       <r>     0.4936     0.7062     0.7547 </r>
       <r>     0.5748     0.7200     0.8132 </r>
       <r>     0.6560     0.7448     0.8737 </r>
       <r>     0.7372     0.7886     0.9377 </r>
       <r>     0.8184     0.8558     1.0072 </r>
       <r>     0.8996     0.9441     1.0839 </r>
       <r>     0.9808     1.0501     1.1691 </r>
       <r>     1.0620     1.1815     1.2650 </r>
       <r>     1.1432     1.3632     1.3757 </r>
       <r>     1.2244     1.6321     1.5082 </r>
       <r>     1.3056     2.0214     1.6724 </r>
       <r>     1.3868     2.5440     1.8789 </r>
       <r>     1.4680     3.1834     2.1374 </r>
       <r>     1.5492     3.9024     2.4543 </r>
       <r>     1.6303     4.6656     2.8331 </r>
       <r>     1.7115     5.4531     3.2758 </r>
       <r>     1.7927     6.2483     3.7831 </r>
       <r>     1.8739     7.0182     4.3530 </r>
       <r>     1.9551     7.7224     4.9800 </r>
       <r>     2.0363     8.3474     5.6577 </r>
       <r>     2.1175     8.9179     6.3818 </r>
       <r>     2.1987     9.4575     7.1497 </r>
       <r>     2.2799     9.9391     7.9567 </r>
       <r>     2.3611    10.2811     8.7915 </r>
       <r>     2.4423    10.3912     9.6352 </r>
       <r>     2.5235    10.2151    10.4646 </r>
       <r>     2.6047     9.7682    11.2577 </r>
       <r>     2.6859     9.1589    12.0013 </r>
       <r>     2.7671     8.5823    12.6981 </r>
       <r>     2.8483     8.2460    13.3677 </r>
       <r>     2.9294     8.2453    14.0371 </r>
       <r>     3.0106     8.4994    14.7272 </r>
       <r>     3.0918     8.8313    15.4443 </r>
       <r>     3.1730     9.1339    16.1859 </r>
       <r>     3.2542     9.4643    16.9543 </r>
       <r>     3.3354     9.9766    17.7644 </r>
       <r>     3.4166    10.7567    18.6377 </r>
       <r>     3.4978    11.6977    19.5875 </r>
       <r>     3.5790    12.5123    20.6034 </r>
       <r>     3.6602    12.8765    21.6489 </r>
       <r>     3.7414    12.6144    22.6731 </r>
       <r>     3.8226    11.8123    23.6322 </r>
       <r>     3.9038    10.7905    24.5083 </r>
       <r>     3.9850     9.9464    25.3159 </r>
       <r>     4.0662     9.5543    26.0917 </r>
       <r>     4.1473     9.6364    26.8741 </r>
       <r>     4.2285     9.9867    27.6849 </r>
       <r>     4.3097    10.3296    28.5236 </r>
       <r>     4.3909    10.5000    29.3762 </r>
       <r>     4.4721    10.5109    30.2296 </r>
       <r>     4.5533    10.4807    31.0805 </r>
       <r>     4.6345    10.5124    31.9341 </r>
       <r>     4.7157    10.6352    32.7976 </r>
       <r>     4.7969    10.8286    33.6768 </r>
       <r>     4.8781    11.0684    34.5755 </r>
       <r>     4.9593    11.3598    35.4978 </r>
       <r>     5.0405    11.7685    36.4534 </r>
       <r>     5.1217    12.4328    37.4628 </r>
       <r>     5.2029    13.4902    38.5581 </r>
       <r>     5.2841    14.9211    39.7696 </r>
       <r>     5.3653    16.4397    41.1044 </r>
       <r>     5.4464    17.5776    42.5316 </r>
       <r>     5.5276    17.9479    43.9889 </r>
       <r>     5.6088    17.5124    45.4108 </r>
       <r>     5.6900    16.6536    46.7629 </r>
       <r>     5.7712    15.9963    48.0617 </r>
       <r>     5.8524    16.1062    49.3694 </r>
       <r>     5.9336    17.2524    50.7702 </r>
       <r>     6.0148    19.3117    52.3382 </r>
       <r>     6.0960    21.7632    54.1053 </r>
       <r>     6.1772    23.7466    56.0333 </r>
       <r>     6.2584    24.2656    58.0035 </r>
       <r>     6.3396    22.5979    59.8383 </r>
       <r>     6.4208    18.7530    61.3610 </r>
       <r>     6.5020    13.6145    62.4664 </r>
       <r>     6.5832     8.5463    63.1603 </r>
       <r>     6.6643     4.6884    63.5409 </r>
       <r>     6.7455     2.4601    63.7407 </r>
       <r>     6.8267     1.5863    63.8695 </r>
       <r>     6.9079     1.4892    63.9904 </r>
       <r>     6.9891     1.6671    64.1257 </r>
       <r>     7.0703     1.8437    64.2754 </r>
       <r>     7.1515     1.9308    64.4322 </r>
       <r>     7.2327     1.9370    64.5895 </r>
       <r>     7.3139     1.9013    64.7439 </r>
       <r>     7.3951     1.8604    64.8949 </r>
       <r>     7.4763     1.8354    65.0439 </r>
       <r>     7.5575     1.8300    65.1925 </r>
       <r>     7.6387     1.8352    65.3415 </r>
       <r>     7.7199     1.8368    65.4906 </r>
       <r>     7.8011     1.8243    65.6388 </r>
       <r>     7.8823     1.7968    65.7847 </r>
       <r>     7.9634     1.7646    65.9279 </r>
       <r>     8.0446     1.7424    66.0694 </r>
       <r>     8.1258     1.7379    66.2105 </r>
       <r>     8.2070     1.7440    66.3521 </r>
       <r>     8.2882     1.7445    66.4937 </r>
       <r>     8.3694     1.7290    66.6341 </r>
       <r>     8.4506     1.7016    66.7723 </r>
       <r>     8.5318     1.6758    66.9084 </r>
       <r>     8.6130     1.6630    67.0434 </r>
       <r>     8.6942     1.6644    67.1785 </r>
       <r>     8.7754     1.6726    67.3143 </r>
       <r>     8.8566     1.6769    67.4505 </r>
       <r>     8.9378     1.6698    67.5861 </r>
       <r>     9.0190     1.6503    67.7200 </r>
       <r>     9.1002     1.6235    67.8519 </r>
       <r>     9.1813     1.5978    67.9816 </r>
       <r>     9.2625     1.5808    68.1099 </r>
       <r>     9.3437     1.5748    68.2378 </r>
       <r>     9.4249     1.5760    68.3658 </r>
       <r>     9.5061     1.5768    68.4938 </r>
       <r>     9.5873     1.5702    68.6213 </r>
       <r>     9.6685     1.5523    68.7473 </r>
       <r>     9.7497     1.5231    68.8710 </r>
       <r>     9.8309     1.4866    68.9917 </r>
       <r>     9.9121     1.4505    69.1095 </r>
       <r>     9.9933     1.4245    69.2251 </r>
       <r>    10.0745     1.4152    69.3400 </r>
       <r>    10.1557     1.4205    69.4554 </r>
       <r>    10.2369     1.4309    69.5715 </r>
       <r>    10.3181     1.4347    69.6880 </r>
       <r>    10.3993     1.4233    69.8036 </r>
       <r>    10.4804     1.3939    69.9168 </r>
       <r>    10.5616     1.3499    70.0264 </r>
       <r>    10.6428     1.3009    70.1320 </r>
       <r>    10.7240     1.2599    70.2343 </r>
       <r>    10.8052     1.2374    70.3348 </r>
       <r>    10.8864     1.2369    70.4352 </r>
       <r>    10.9676     1.2575    70.5373 </r>
       <r>    11.0488     1.2991    70.6428 </r>
       <r>    11.1300     1.3644    70.7535 </r>
       <r>    11.2112     1.4537    70.8716 </r>
       <r>    11.2924     1.5580    70.9981 </r>
       <r>    11.3736     1.6584    71.1327 </r>
       <r>    11.4548     1.7337    71.2735 </r>
       <r>    11.5360     1.7719    71.4173 </r>
       <r>    11.6172     1.7776    71.5617 </r>
       <r>    11.6983     1.7705    71.7054 </r>
       <r>    11.7795     1.7734    71.8494 </r>
       <r>    11.8607     1.7970    71.9953 </r>
       <r>    11.9419     1.8333    72.1442 </r>
       <r>    12.0231     1.8628    72.2954 </r>
       <r>    12.1043     1.8720    72.4474 </r>
       <r>    12.1855     1.8649    72.5988 </r>
       <r>    12.2667     1.8570    72.7496 </r>
       <r>    12.3479     1.8577    72.9004 </r>
       <r>    12.4291     1.8596    73.0514 </r>
       <r>    12.5103     1.8437    73.2011 </r>
       <r>    12.5915     1.7978    73.3471 </r>
       <r>    12.6727     1.7293    73.4875 </r>
       <r>    12.7539     1.6619    73.6225 </r>
       <r>    12.8351     1.6195    73.7539 </r>
       <r>    12.9163     1.6130    73.8849 </r>
       <r>    12.9974     1.6375    74.0179 </r>
       <r>    13.0786     1.6774    74.1541 </r>
       <r>    13.1598     1.7145    74.2933 </r>
       <r>    13.2410     1.7361    74.4342 </r>
       <r>    13.3222     1.7420    74.5757 </r>
       <r>    13.4034     1.7431    74.7172 </r>
       <r>    13.4846     1.7522    74.8595 </r>
       <r>    13.5658     1.7750    75.0036 </r>
       <r>    13.6470     1.8071    75.1503 </r>
       <r>    13.7282     1.8432    75.3000 </r>
       <r>    13.8094     1.8853    75.4530 </r>
       <r>    13.8906     1.9428    75.6108 </r>
       <r>    13.9718     2.0194    75.7747 </r>
       <r>    14.0530     2.1015    75.9454 </r>
       <r>    14.1342     2.1631    76.1210 </r>
       <r>    14.2153     2.1843    76.2983 </r>
       <r>    14.2965     2.1673    76.4743 </r>
       <r>    14.3777     2.1327    76.6475 </r>
       <r>    14.4589     2.1014    76.8181 </r>
       <r>    14.5401     2.0766    76.9867 </r>
       <r>    14.6213     2.0426    77.1525 </r>
       <r>    14.7025     1.9801    77.3133 </r>
       <r>    14.7837     1.8878    77.4666 </r>
       <r>    14.8649     1.7895    77.6119 </r>
       <r>    14.9461     1.7206    77.7516 </r>
       <r>    15.0273     1.7016    77.8898 </r>
       <r>    15.1085     1.7226    78.0296 </r>
       <r>    15.1897     1.7496    78.1717 </r>
       <r>    15.2709     1.7486    78.3136 </r>
       <r>    15.3521     1.7063    78.4522 </r>
       <r>    15.4333     1.6345    78.5849 </r>
       <r>    15.5144     1.5591    78.7115 </r>
       <r>    15.5956     1.5053    78.8337 </r>
       <r>    15.6768     1.4886    78.9546 </r>
       <r>    15.7580     1.5126    79.0774 </r>
       <r>    15.8392     1.5713    79.2050 </r>
       <r>    15.9204     1.6483    79.3388 </r>
       <r>    16.0016     1.7125    79.4778 </r>
       <r>    16.0828     1.7147    79.6171 </r>
       <r>    16.1640     1.6010    79.7471 </r>
       <r>    16.2452     1.3446    79.8562 </r>
       <r>    16.3264     0.9763    79.9355 </r>
       <r>    16.4076     0.5810    79.9827 </r>
       <r>    16.4888     0.2543    80.0033 </r>
       <r>    16.5700     0.0506    80.0074 </r>
       <r>    16.6512    -0.0351    80.0046 </r>
       <r>    16.7324    -0.0457    80.0009 </r>
       <r>    16.8135    -0.0269    79.9987 </r>
       <r>    16.8947    -0.0071    79.9981 </r>
       <r>    16.9759     0.0039    79.9984 </r>
       <r>    17.0571     0.0070    79.9990 </r>
       <r>    17.1383     0.0059    79.9995 </r>
       <r>    17.2195     0.0036    79.9998 </r>
       <r>    17.3007     0.0019    79.9999 </r>
       <r>    17.3819     0.0009    80.0000 </r>
       <r>    17.4631     0.0004    80.0000 </r>
       <r>    17.5443     0.0002    80.0000 </r>
       <r>    17.6255     0.0000    80.0000 </r>
       <r>    17.7067    -0.0001    80.0000 </r>
       <r>    17.7879    -0.0001    80.0000 </r>
       <r>    17.8691    -0.0001    80.0000 </r>
       <r>    17.9503     0.0000    80.0000 </r>
       <r>    18.0314     0.0000    80.0000 </r>
       <r>    18.1126     0.0000    80.0000 </r>
       <r>    18.1938     0.0000    80.0000 </r>
       <r>    18.2750     0.0000    80.0000 </r>
       <r>    18.3562     0.0000    80.0000 </r>
       <r>    18.4374     0.0000    80.0000 </r>
       <r>    18.5186     0.0000    80.0000 </r>
       <r>    18.5998     0.0000    80.0000 </r>
       <r>    18.6810     0.0000    80.0000 </r>
       <r>    18.7622     0.0000    80.0000 </r>
       <r>    18.8434     0.0000    80.0000 </r>
       <r>    18.9246     0.0000    80.0000 </r>
       <r>    19.0058     0.0000    80.0000 </r>
       <r>    19.0870     0.0000    80.0000 </r>
       <r>    19.1682     0.0000    80.0000 </r>
       <r>    19.2494     0.0000    80.0000 </r>
       <r>    19.3305     0.0000    80.0000 </r>
       <r>    19.4117     0.0000    80.0000 </r>
       <r>    19.4929     0.0000    80.0000 </r>
       <r>    19.5741     0.0000    80.0000 </r>
       <r>    19.6553     0.0000    80.0000 </r>
       <r>    19.7365     0.0000    80.0000 </r>
       <r>    19.8177     0.0000    80.0000 </r>
       <r>    19.8989     0.0000    80.0000 </r>
       <r>    19.9801     0.0000    80.0000 </r>
       <r>    20.0613     0.0000    80.0000 </r>
       <r>    20.1425     0.0000    80.0000 </r>
       <r>    20.2237     0.0000    80.0000 </r>
       <r>    20.3049     0.0000    80.0000 </r>
      </set>
     </set>
    </array>
   </total>
  </dos>
 </calculation>
 <structure name="finalpos" >
  <crystal>
   <varray name="basis" >
    <v>       0.00000000       1.99634737       1.99634737 </v>
    <v>      -0.01154050      -3.99616387       3.99616387 </v>
    <v>       5.65752194       0.01079148      -2.00713885 </v>
   </varray>
   <i name="volume">     90.22188840 </i>
   <varray name="rec_basis" >
    <v>       0.08842346       0.25032973       0.25058509 </v>
    <v>       0.04465092      -0.12518447       0.12518447 </v>
    <v>       0.17684691      -0.00025536       0.00025536 </v>
   </varray>
  </crystal>
  <varray name="positions" >
   <v>       0.32696539       0.64248755       0.65393078 </v>
   <v>       0.67308358       0.33085935       0.34616716 </v>
   <v>       0.32991869       0.18606644       0.65983738 </v>
   <v>       0.99953689       0.49850562       0.99907377 </v>
   <v>       0.98907539       0.99971835       0.97815079 </v>
   <v>       0.68142006       0.84236269       0.36284011 </v>
  </varray>
 </structure>
</modeling>
