<?xml version="1.0" encoding="ISO-8859-1"?>
<modeling>
 <generator>
  <i name="program" type="string">vasp </i>
  <i name="version" type="string">5.3.5  </i>
  <i name="subversion" type="string">31Mar14 (build Jun 20 2014 13:15:13) complex                          parallel </i>
  <i name="platform" type="string">LinuxIFC </i>
  <i name="date" type="string">2025 11 27 </i>
  <i name="time" type="string">21:28:57 </i>
 </generator>
 <incar>
  <i type="string" name="PREC">accurate</i>
  <i type="int" name="IALGO">    68</i>
  <i type="logical" name="ADDGRID"> T  </i>
  <i type="int" name="NELM">   200</i>
  <i type="int" name="NELMIN">     4</i>
  <i type="int" name="IBRION">     2</i>
  <i name="EDIFF">      0.00000100</i>
  <i name="EDIFFG">     -0.02000000</i>
  <i type="int" name="NSW">    30</i>
  <i type="int" name="ISIF">     3</i>
  <i name="ENCUT">    500.00000000</i>
  <i type="logical" name="LREAL"> F  </i>
  <i type="int" name="ISMEAR">     1</i>
  <i name="SIGMA">      0.30000000</i>
  <i type="logical" name="LWAVE"> F  </i>
  <i type="logical" name="LCHARG"> F  </i>
  <i type="int" name="NELM">   200</i>
 </incar>
 <kpoints>
  <generation param="Auto">
   <i name="subdivisionlength">     70.00000000 </i>
   <v type="int" name="divisions">      25       14       11 </v>
   <v name="usershift">      0.00000000       0.00000000       0.00000000 </v>
   <v name="genvec1">      0.04000000       0.00000000       0.00000000 </v>
   <v name="genvec2">      0.00000000       0.07142857       0.00000000 </v>
   <v name="genvec3">      0.00000000       0.00000000       0.09090909 </v>
   <v name="shift">      0.00000000       0.00000000       0.00000000 </v>
  </generation>
  <varray name="kpointlist" >
   <v>       0.00000000       0.00000000       0.00000000 </v>
   <v>       0.04000000       0.00000000       0.00000000 </v>
   <v>       0.08000000       0.00000000       0.00000000 </v>
   <v>       0.12000000       0.00000000       0.00000000 </v>
   <v>       0.16000000       0.00000000       0.00000000 </v>
   <v>       0.20000000       0.00000000       0.00000000 </v>
   <v>       0.24000000       0.00000000       0.00000000 </v>
   <v>       0.28000000       0.00000000       0.00000000 </v>
   <v>       0.32000000       0.00000000       0.00000000 </v>
   <v>       0.36000000       0.00000000       0.00000000 </v>
   <v>       0.40000000       0.00000000       0.00000000 </v>
   <v>       0.44000000       0.00000000       0.00000000 </v>
   <v>       0.48000000       0.00000000       0.00000000 </v>
   <v>       0.00000000       0.07142857       0.00000000 </v>
   <v>       0.04000000       0.07142857       0.00000000 </v>
   <v>       0.08000000       0.07142857       0.00000000 </v>
   <v>       0.12000000       0.07142857       0.00000000 </v>
   <v>       0.16000000       0.07142857       0.00000000 </v>
   <v>       0.20000000       0.07142857       0.00000000 </v>
   <v>       0.24000000       0.07142857       0.00000000 </v>
   <v>       0.28000000       0.07142857       0.00000000 </v>
   <v>       0.32000000       0.07142857       0.00000000 </v>
   <v>       0.36000000       0.07142857       0.00000000 </v>
   <v>       0.40000000       0.07142857       0.00000000 </v>
   <v>       0.44000000       0.07142857       0.00000000 </v>
   <v>       0.48000000       0.07142857       0.00000000 </v>
   <v>       0.00000000       0.14285714       0.00000000 </v>
   <v>       0.04000000       0.14285714       0.00000000 </v>
   <v>       0.08000000       0.14285714       0.00000000 </v>
   <v>       0.12000000       0.14285714       0.00000000 </v>
   <v>       0.16000000       0.14285714       0.00000000 </v>
   <v>       0.20000000       0.14285714       0.00000000 </v>
   <v>       0.24000000       0.14285714       0.00000000 </v>
   <v>       0.28000000       0.14285714       0.00000000 </v>
   <v>       0.32000000       0.14285714       0.00000000 </v>
   <v>       0.36000000       0.14285714       0.00000000 </v>
   <v>       0.40000000       0.14285714       0.00000000 </v>
   <v>       0.44000000       0.14285714       0.00000000 </v>
   <v>       0.48000000       0.14285714       0.00000000 </v>
   <v>       0.00000000       0.21428571       0.00000000 </v>
   <v>       0.04000000       0.21428571       0.00000000 </v>
   <v>       0.08000000       0.21428571       0.00000000 </v>
   <v>       0.12000000       0.21428571       0.00000000 </v>
   <v>       0.16000000       0.21428571       0.00000000 </v>
   <v>       0.20000000       0.21428571       0.00000000 </v>
   <v>       0.24000000       0.21428571       0.00000000 </v>
   <v>       0.28000000       0.21428571       0.00000000 </v>
   <v>       0.32000000       0.21428571       0.00000000 </v>
   <v>       0.36000000       0.21428571       0.00000000 </v>
   <v>       0.40000000       0.21428571       0.00000000 </v>
   <v>       0.44000000       0.21428571       0.00000000 </v>
   <v>       0.48000000       0.21428571       0.00000000 </v>
   <v>       0.00000000       0.28571429       0.00000000 </v>
   <v>       0.04000000       0.28571429       0.00000000 </v>
   <v>       0.08000000       0.28571429       0.00000000 </v>
   <v>       0.12000000       0.28571429       0.00000000 </v>
   <v>       0.16000000       0.28571429       0.00000000 </v>
   <v>       0.20000000       0.28571429       0.00000000 </v>
   <v>       0.24000000       0.28571429       0.00000000 </v>
   <v>       0.28000000       0.28571429       0.00000000 </v>
   <v>       0.32000000       0.28571429       0.00000000 </v>
   <v>       0.36000000       0.28571429       0.00000000 </v>
   <v>       0.40000000       0.28571429       0.00000000 </v>
   <v>       0.44000000       0.28571429       0.00000000 </v>
   <v>       0.48000000       0.28571429       0.00000000 </v>
   <v>       0.00000000       0.35714286       0.00000000 </v>
   <v>       0.04000000       0.35714286       0.00000000 </v>
   <v>       0.08000000       0.35714286       0.00000000 </v>
   <v>       0.12000000       0.35714286       0.00000000 </v>
   <v>       0.16000000       0.35714286       0.00000000 </v>
   <v>       0.20000000       0.35714286       0.00000000 </v>
   <v>       0.24000000       0.35714286       0.00000000 </v>
   <v>       0.28000000       0.35714286       0.00000000 </v>
   <v>       0.32000000       0.35714286       0.00000000 </v>
   <v>       0.36000000       0.35714286       0.00000000 </v>
   <v>       0.40000000       0.35714286       0.00000000 </v>
   <v>       0.44000000       0.35714286       0.00000000 </v>
   <v>       0.48000000       0.35714286       0.00000000 </v>
   <v>       0.00000000       0.42857143       0.00000000 </v>
   <v>       0.04000000       0.42857143       0.00000000 </v>
   <v>       0.08000000       0.42857143       0.00000000 </v>
   <v>       0.12000000       0.42857143       0.00000000 </v>
   <v>       0.16000000       0.42857143       0.00000000 </v>
   <v>       0.20000000       0.42857143       0.00000000 </v>
   <v>       0.24000000       0.42857143       0.00000000 </v>
   <v>       0.28000000       0.42857143       0.00000000 </v>
   <v>       0.32000000       0.42857143       0.00000000 </v>
   <v>       0.36000000       0.42857143       0.00000000 </v>
   <v>       0.40000000       0.42857143       0.00000000 </v>
   <v>       0.44000000       0.42857143       0.00000000 </v>
   <v>       0.48000000       0.42857143       0.00000000 </v>
   <v>       0.00000000       0.50000000       0.00000000 </v>
   <v>       0.04000000       0.50000000       0.00000000 </v>
   <v>       0.08000000       0.50000000       0.00000000 </v>
   <v>       0.12000000       0.50000000       0.00000000 </v>
   <v>       0.16000000       0.50000000       0.00000000 </v>
   <v>       0.20000000       0.50000000       0.00000000 </v>
   <v>       0.24000000       0.50000000       0.00000000 </v>
   <v>       0.28000000       0.50000000       0.00000000 </v>
   <v>       0.32000000       0.50000000       0.00000000 </v>
   <v>       0.36000000       0.50000000       0.00000000 </v>
   <v>       0.40000000       0.50000000       0.00000000 </v>
   <v>       0.44000000       0.50000000       0.00000000 </v>
   <v>       0.48000000       0.50000000       0.00000000 </v>
   <v>       0.00000000       0.00000000       0.09090909 </v>
   <v>       0.04000000       0.00000000       0.09090909 </v>
   <v>       0.08000000       0.00000000       0.09090909 </v>
   <v>       0.12000000       0.00000000       0.09090909 </v>
   <v>       0.16000000       0.00000000       0.09090909 </v>
   <v>       0.20000000       0.00000000       0.09090909 </v>
   <v>       0.24000000       0.00000000       0.09090909 </v>
   <v>       0.28000000       0.00000000       0.09090909 </v>
   <v>       0.32000000       0.00000000       0.09090909 </v>
   <v>       0.36000000       0.00000000       0.09090909 </v>
   <v>       0.40000000       0.00000000       0.09090909 </v>
   <v>       0.44000000       0.00000000       0.09090909 </v>
   <v>       0.48000000       0.00000000       0.09090909 </v>
   <v>       0.00000000       0.07142857       0.09090909 </v>
   <v>       0.04000000       0.07142857       0.09090909 </v>
   <v>       0.08000000       0.07142857       0.09090909 </v>
   <v>       0.12000000       0.07142857       0.09090909 </v>
   <v>       0.16000000       0.07142857       0.09090909 </v>
   <v>       0.20000000       0.07142857       0.09090909 </v>
   <v>       0.24000000       0.07142857       0.09090909 </v>
   <v>       0.28000000       0.07142857       0.09090909 </v>
   <v>       0.32000000       0.07142857       0.09090909 </v>
   <v>       0.36000000       0.07142857       0.09090909 </v>
   <v>       0.40000000       0.07142857       0.09090909 </v>
   <v>       0.44000000       0.07142857       0.09090909 </v>
   <v>       0.48000000       0.07142857       0.09090909 </v>
   <v>       0.00000000       0.14285714       0.09090909 </v>
   <v>       0.04000000       0.14285714       0.09090909 </v>
   <v>       0.08000000       0.14285714       0.09090909 </v>
   <v>       0.12000000       0.14285714       0.09090909 </v>
   <v>       0.16000000       0.14285714       0.09090909 </v>
   <v>       0.20000000       0.14285714       0.09090909 </v>
   <v>       0.24000000       0.14285714       0.09090909 </v>
   <v>       0.28000000       0.14285714       0.09090909 </v>
   <v>       0.32000000       0.14285714       0.09090909 </v>
   <v>       0.36000000       0.14285714       0.09090909 </v>
   <v>       0.40000000       0.14285714       0.09090909 </v>
   <v>       0.44000000       0.14285714       0.09090909 </v>
   <v>       0.48000000       0.14285714       0.09090909 </v>
   <v>       0.00000000       0.21428571       0.09090909 </v>
   <v>       0.04000000       0.21428571       0.09090909 </v>
   <v>       0.08000000       0.21428571       0.09090909 </v>
   <v>       0.12000000       0.21428571       0.09090909 </v>
   <v>       0.16000000       0.21428571       0.09090909 </v>
   <v>       0.20000000       0.21428571       0.09090909 </v>
   <v>       0.24000000       0.21428571       0.09090909 </v>
   <v>       0.28000000       0.21428571       0.09090909 </v>
   <v>       0.32000000       0.21428571       0.09090909 </v>
   <v>       0.36000000       0.21428571       0.09090909 </v>
   <v>       0.40000000       0.21428571       0.09090909 </v>
   <v>       0.44000000       0.21428571       0.09090909 </v>
   <v>       0.48000000       0.21428571       0.09090909 </v>
   <v>       0.00000000       0.28571429       0.09090909 </v>
   <v>       0.04000000       0.28571429       0.09090909 </v>
   <v>       0.08000000       0.28571429       0.09090909 </v>
   <v>       0.12000000       0.28571429       0.09090909 </v>
   <v>       0.16000000       0.28571429       0.09090909 </v>
   <v>       0.20000000       0.28571429       0.09090909 </v>
   <v>       0.24000000       0.28571429       0.09090909 </v>
   <v>       0.28000000       0.28571429       0.09090909 </v>
   <v>       0.32000000       0.28571429       0.09090909 </v>
   <v>       0.36000000       0.28571429       0.09090909 </v>
   <v>       0.40000000       0.28571429       0.09090909 </v>
   <v>       0.44000000       0.28571429       0.09090909 </v>
   <v>       0.48000000       0.28571429       0.09090909 </v>
   <v>       0.00000000       0.35714286       0.09090909 </v>
   <v>       0.04000000       0.35714286       0.09090909 </v>
   <v>       0.08000000       0.35714286       0.09090909 </v>
   <v>       0.12000000       0.35714286       0.09090909 </v>
   <v>       0.16000000       0.35714286       0.09090909 </v>
   <v>       0.20000000       0.35714286       0.09090909 </v>
   <v>       0.24000000       0.35714286       0.09090909 </v>
   <v>       0.28000000       0.35714286       0.09090909 </v>
   <v>       0.32000000       0.35714286       0.09090909 </v>
   <v>       0.36000000       0.35714286       0.09090909 </v>
   <v>       0.40000000       0.35714286       0.09090909 </v>
   <v>       0.44000000       0.35714286       0.09090909 </v>
   <v>       0.48000000       0.35714286       0.09090909 </v>
   <v>       0.00000000       0.42857143       0.09090909 </v>
   <v>       0.04000000       0.42857143       0.09090909 </v>
   <v>       0.08000000       0.42857143       0.09090909 </v>
   <v>       0.12000000       0.42857143       0.09090909 </v>
   <v>       0.16000000       0.42857143       0.09090909 </v>
   <v>       0.20000000       0.42857143       0.09090909 </v>
   <v>       0.24000000       0.42857143       0.09090909 </v>
   <v>       0.28000000       0.42857143       0.09090909 </v>
   <v>       0.32000000       0.42857143       0.09090909 </v>
   <v>       0.36000000       0.42857143       0.09090909 </v>
   <v>       0.40000000       0.42857143       0.09090909 </v>
   <v>       0.44000000       0.42857143       0.09090909 </v>
   <v>       0.48000000       0.42857143       0.09090909 </v>
   <v>       0.00000000       0.50000000       0.09090909 </v>
   <v>       0.04000000       0.50000000       0.09090909 </v>
   <v>       0.08000000       0.50000000       0.09090909 </v>
   <v>       0.12000000       0.50000000       0.09090909 </v>
   <v>       0.16000000       0.50000000       0.09090909 </v>
   <v>       0.20000000       0.50000000       0.09090909 </v>
   <v>       0.24000000       0.50000000       0.09090909 </v>
   <v>       0.28000000       0.50000000       0.09090909 </v>
   <v>       0.32000000       0.50000000       0.09090909 </v>
   <v>       0.36000000       0.50000000       0.09090909 </v>
   <v>       0.40000000       0.50000000       0.09090909 </v>
   <v>       0.44000000       0.50000000       0.09090909 </v>
   <v>       0.48000000       0.50000000       0.09090909 </v>
   <v>       0.00000000      -0.42857143       0.09090909 </v>
   <v>       0.04000000      -0.42857143       0.09090909 </v>
   <v>       0.08000000      -0.42857143       0.09090909 </v>
   <v>       0.12000000      -0.42857143       0.09090909 </v>
   <v>       0.16000000      -0.42857143       0.09090909 </v>
   <v>       0.20000000      -0.42857143       0.09090909 </v>
   <v>       0.24000000      -0.42857143       0.09090909 </v>
   <v>       0.28000000      -0.42857143       0.09090909 </v>
   <v>       0.32000000      -0.42857143       0.09090909 </v>
   <v>       0.36000000      -0.42857143       0.09090909 </v>
   <v>       0.40000000      -0.42857143       0.09090909 </v>
   <v>       0.44000000      -0.42857143       0.09090909 </v>
   <v>       0.48000000      -0.42857143       0.09090909 </v>
   <v>       0.00000000      -0.35714286       0.09090909 </v>
   <v>       0.04000000      -0.35714286       0.09090909 </v>
   <v>       0.08000000      -0.35714286       0.09090909 </v>
   <v>       0.12000000      -0.35714286       0.09090909 </v>
   <v>       0.16000000      -0.35714286       0.09090909 </v>
   <v>       0.20000000      -0.35714286       0.09090909 </v>
   <v>       0.24000000      -0.35714286       0.09090909 </v>
   <v>       0.28000000      -0.35714286       0.09090909 </v>
   <v>       0.32000000      -0.35714286       0.09090909 </v>
   <v>       0.36000000      -0.35714286       0.09090909 </v>
   <v>       0.40000000      -0.35714286       0.09090909 </v>
   <v>       0.44000000      -0.35714286       0.09090909 </v>
   <v>       0.48000000      -0.35714286       0.09090909 </v>
   <v>       0.00000000      -0.28571429       0.09090909 </v>
   <v>       0.04000000      -0.28571429       0.09090909 </v>
   <v>       0.08000000      -0.28571429       0.09090909 </v>
   <v>       0.12000000      -0.28571429       0.09090909 </v>
   <v>       0.16000000      -0.28571429       0.09090909 </v>
   <v>       0.20000000      -0.28571429       0.09090909 </v>
   <v>       0.24000000      -0.28571429       0.09090909 </v>
   <v>       0.28000000      -0.28571429       0.09090909 </v>
   <v>       0.32000000      -0.28571429       0.09090909 </v>
   <v>       0.36000000      -0.28571429       0.09090909 </v>
   <v>       0.40000000      -0.28571429       0.09090909 </v>
   <v>       0.44000000      -0.28571429       0.09090909 </v>
   <v>       0.48000000      -0.28571429       0.09090909 </v>
   <v>       0.00000000      -0.21428571       0.09090909 </v>
   <v>       0.04000000      -0.21428571       0.09090909 </v>
   <v>       0.08000000      -0.21428571       0.09090909 </v>
   <v>       0.12000000      -0.21428571       0.09090909 </v>
   <v>       0.16000000      -0.21428571       0.09090909 </v>
   <v>       0.20000000      -0.21428571       0.09090909 </v>
   <v>       0.24000000      -0.21428571       0.09090909 </v>
   <v>       0.28000000      -0.21428571       0.09090909 </v>
   <v>       0.32000000      -0.21428571       0.09090909 </v>
   <v>       0.36000000      -0.21428571       0.09090909 </v>
   <v>       0.40000000      -0.21428571       0.09090909 </v>
   <v>       0.44000000      -0.21428571       0.09090909 </v>
   <v>       0.48000000      -0.21428571       0.09090909 </v>
   <v>       0.00000000      -0.14285714       0.09090909 </v>
   <v>       0.04000000      -0.14285714       0.09090909 </v>
   <v>       0.08000000      -0.14285714       0.09090909 </v>
   <v>       0.12000000      -0.14285714       0.09090909 </v>
   <v>       0.16000000      -0.14285714       0.09090909 </v>
   <v>       0.20000000      -0.14285714       0.09090909 </v>
   <v>       0.24000000      -0.14285714       0.09090909 </v>
   <v>       0.28000000      -0.14285714       0.09090909 </v>
   <v>       0.32000000      -0.14285714       0.09090909 </v>
   <v>       0.36000000      -0.14285714       0.09090909 </v>
   <v>       0.40000000      -0.14285714       0.09090909 </v>
   <v>       0.44000000      -0.14285714       0.09090909 </v>
   <v>       0.48000000      -0.14285714       0.09090909 </v>
   <v>       0.00000000      -0.07142857       0.09090909 </v>
   <v>       0.04000000      -0.07142857       0.09090909 </v>
   <v>       0.08000000      -0.07142857       0.09090909 </v>
   <v>       0.12000000      -0.07142857       0.09090909 </v>
   <v>       0.16000000      -0.07142857       0.09090909 </v>
   <v>       0.20000000      -0.07142857       0.09090909 </v>
   <v>       0.24000000      -0.07142857       0.09090909 </v>
   <v>       0.28000000      -0.07142857       0.09090909 </v>
   <v>       0.32000000      -0.07142857       0.09090909 </v>
   <v>       0.36000000      -0.07142857       0.09090909 </v>
   <v>       0.40000000      -0.07142857       0.09090909 </v>
   <v>       0.44000000      -0.07142857       0.09090909 </v>
   <v>       0.48000000      -0.07142857       0.09090909 </v>
   <v>       0.00000000       0.00000000       0.18181818 </v>
   <v>       0.04000000       0.00000000       0.18181818 </v>
   <v>       0.08000000       0.00000000       0.18181818 </v>
   <v>       0.12000000       0.00000000       0.18181818 </v>
   <v>       0.16000000       0.00000000       0.18181818 </v>
   <v>       0.20000000       0.00000000       0.18181818 </v>
   <v>       0.24000000       0.00000000       0.18181818 </v>
   <v>       0.28000000       0.00000000       0.18181818 </v>
   <v>       0.32000000       0.00000000       0.18181818 </v>
   <v>       0.36000000       0.00000000       0.18181818 </v>
   <v>       0.40000000       0.00000000       0.18181818 </v>
   <v>       0.44000000       0.00000000       0.18181818 </v>
   <v>       0.48000000       0.00000000       0.18181818 </v>
   <v>       0.00000000       0.07142857       0.18181818 </v>
   <v>       0.04000000       0.07142857       0.18181818 </v>
   <v>       0.08000000       0.07142857       0.18181818 </v>
   <v>       0.12000000       0.07142857       0.18181818 </v>
   <v>       0.16000000       0.07142857       0.18181818 </v>
   <v>       0.20000000       0.07142857       0.18181818 </v>
   <v>       0.24000000       0.07142857       0.18181818 </v>
   <v>       0.28000000       0.07142857       0.18181818 </v>
   <v>       0.32000000       0.07142857       0.18181818 </v>
   <v>       0.36000000       0.07142857       0.18181818 </v>
   <v>       0.40000000       0.07142857       0.18181818 </v>
   <v>       0.44000000       0.07142857       0.18181818 </v>
   <v>       0.48000000       0.07142857       0.18181818 </v>
   <v>       0.00000000       0.14285714       0.18181818 </v>
   <v>       0.04000000       0.14285714       0.18181818 </v>
   <v>       0.08000000       0.14285714       0.18181818 </v>
   <v>       0.12000000       0.14285714       0.18181818 </v>
   <v>       0.16000000       0.14285714       0.18181818 </v>
   <v>       0.20000000       0.14285714       0.18181818 </v>
   <v>       0.24000000       0.14285714       0.18181818 </v>
   <v>       0.28000000       0.14285714       0.18181818 </v>
   <v>       0.32000000       0.14285714       0.18181818 </v>
   <v>       0.36000000       0.14285714       0.18181818 </v>
   <v>       0.40000000       0.14285714       0.18181818 </v>
   <v>       0.44000000       0.14285714       0.18181818 </v>
   <v>       0.48000000       0.14285714       0.18181818 </v>
   <v>       0.00000000       0.21428571       0.18181818 </v>
   <v>       0.04000000       0.21428571       0.18181818 </v>
   <v>       0.08000000       0.21428571       0.18181818 </v>
   <v>       0.12000000       0.21428571       0.18181818 </v>
   <v>       0.16000000       0.21428571       0.18181818 </v>
   <v>       0.20000000       0.21428571       0.18181818 </v>
   <v>       0.24000000       0.21428571       0.18181818 </v>
   <v>       0.28000000       0.21428571       0.18181818 </v>
   <v>       0.32000000       0.21428571       0.18181818 </v>
   <v>       0.36000000       0.21428571       0.18181818 </v>
   <v>       0.40000000       0.21428571       0.18181818 </v>
   <v>       0.44000000       0.21428571       0.18181818 </v>
   <v>       0.48000000       0.21428571       0.18181818 </v>
   <v>       0.00000000       0.28571429       0.18181818 </v>
   <v>       0.04000000       0.28571429       0.18181818 </v>
   <v>       0.08000000       0.28571429       0.18181818 </v>
   <v>       0.12000000       0.28571429       0.18181818 </v>
   <v>       0.16000000       0.28571429       0.18181818 </v>
   <v>       0.20000000       0.28571429       0.18181818 </v>
   <v>       0.24000000       0.28571429       0.18181818 </v>
   <v>       0.28000000       0.28571429       0.18181818 </v>
   <v>       0.32000000       0.28571429       0.18181818 </v>
   <v>       0.36000000       0.28571429       0.18181818 </v>
   <v>       0.40000000       0.28571429       0.18181818 </v>
   <v>       0.44000000       0.28571429       0.18181818 </v>
   <v>       0.48000000       0.28571429       0.18181818 </v>
   <v>       0.00000000       0.35714286       0.18181818 </v>
   <v>       0.04000000       0.35714286       0.18181818 </v>
   <v>       0.08000000       0.35714286       0.18181818 </v>
   <v>       0.12000000       0.35714286       0.18181818 </v>
   <v>       0.16000000       0.35714286       0.18181818 </v>
   <v>       0.20000000       0.35714286       0.18181818 </v>
   <v>       0.24000000       0.35714286       0.18181818 </v>
   <v>       0.28000000       0.35714286       0.18181818 </v>
   <v>       0.32000000       0.35714286       0.18181818 </v>
   <v>       0.36000000       0.35714286       0.18181818 </v>
   <v>       0.40000000       0.35714286       0.18181818 </v>
   <v>       0.44000000       0.35714286       0.18181818 </v>
   <v>       0.48000000       0.35714286       0.18181818 </v>
   <v>       0.00000000       0.42857143       0.18181818 </v>
   <v>       0.04000000       0.42857143       0.18181818 </v>
   <v>       0.08000000       0.42857143       0.18181818 </v>
   <v>       0.12000000       0.42857143       0.18181818 </v>
   <v>       0.16000000       0.42857143       0.18181818 </v>
   <v>       0.20000000       0.42857143       0.18181818 </v>
   <v>       0.24000000       0.42857143       0.18181818 </v>
   <v>       0.28000000       0.42857143       0.18181818 </v>
   <v>       0.32000000       0.42857143       0.18181818 </v>
   <v>       0.36000000       0.42857143       0.18181818 </v>
   <v>       0.40000000       0.42857143       0.18181818 </v>
   <v>       0.44000000       0.42857143       0.18181818 </v>
   <v>       0.48000000       0.42857143       0.18181818 </v>
   <v>       0.00000000       0.50000000       0.18181818 </v>
   <v>       0.04000000       0.50000000       0.18181818 </v>
   <v>       0.08000000       0.50000000       0.18181818 </v>
   <v>       0.12000000       0.50000000       0.18181818 </v>
   <v>       0.16000000       0.50000000       0.18181818 </v>
   <v>       0.20000000       0.50000000       0.18181818 </v>
   <v>       0.24000000       0.50000000       0.18181818 </v>
   <v>       0.28000000       0.50000000       0.18181818 </v>
   <v>       0.32000000       0.50000000       0.18181818 </v>
   <v>       0.36000000       0.50000000       0.18181818 </v>
   <v>       0.40000000       0.50000000       0.18181818 </v>
   <v>       0.44000000       0.50000000       0.18181818 </v>
   <v>       0.48000000       0.50000000       0.18181818 </v>
   <v>       0.00000000      -0.42857143       0.18181818 </v>
   <v>       0.04000000      -0.42857143       0.18181818 </v>
   <v>       0.08000000      -0.42857143       0.18181818 </v>
   <v>       0.12000000      -0.42857143       0.18181818 </v>
   <v>       0.16000000      -0.42857143       0.18181818 </v>
   <v>       0.20000000      -0.42857143       0.18181818 </v>
   <v>       0.24000000      -0.42857143       0.18181818 </v>
   <v>       0.28000000      -0.42857143       0.18181818 </v>
   <v>       0.32000000      -0.42857143       0.18181818 </v>
   <v>       0.36000000      -0.42857143       0.18181818 </v>
   <v>       0.40000000      -0.42857143       0.18181818 </v>
   <v>       0.44000000      -0.42857143       0.18181818 </v>
   <v>       0.48000000      -0.42857143       0.18181818 </v>
   <v>       0.00000000      -0.35714286       0.18181818 </v>
   <v>       0.04000000      -0.35714286       0.18181818 </v>
   <v>       0.08000000      -0.35714286       0.18181818 </v>
   <v>       0.12000000      -0.35714286       0.18181818 </v>
   <v>       0.16000000      -0.35714286       0.18181818 </v>
   <v>       0.20000000      -0.35714286       0.18181818 </v>
   <v>       0.24000000      -0.35714286       0.18181818 </v>
   <v>       0.28000000      -0.35714286       0.18181818 </v>
   <v>       0.32000000      -0.35714286       0.18181818 </v>
   <v>       0.36000000      -0.35714286       0.18181818 </v>
   <v>       0.40000000      -0.35714286       0.18181818 </v>
   <v>       0.44000000      -0.35714286       0.18181818 </v>
   <v>       0.48000000      -0.35714286       0.18181818 </v>
   <v>       0.00000000      -0.28571429       0.18181818 </v>
   <v>       0.04000000      -0.28571429       0.18181818 </v>
   <v>       0.08000000      -0.28571429       0.18181818 </v>
   <v>       0.12000000      -0.28571429       0.18181818 </v>
   <v>       0.16000000      -0.28571429       0.18181818 </v>
   <v>       0.20000000      -0.28571429       0.18181818 </v>
   <v>       0.24000000      -0.28571429       0.18181818 </v>
   <v>       0.28000000      -0.28571429       0.18181818 </v>
   <v>       0.32000000      -0.28571429       0.18181818 </v>
   <v>       0.36000000      -0.28571429       0.18181818 </v>
   <v>       0.40000000      -0.28571429       0.18181818 </v>
   <v>       0.44000000      -0.28571429       0.18181818 </v>
   <v>       0.48000000      -0.28571429       0.18181818 </v>
   <v>       0.00000000      -0.21428571       0.18181818 </v>
   <v>       0.04000000      -0.21428571       0.18181818 </v>
   <v>       0.08000000      -0.21428571       0.18181818 </v>
   <v>       0.12000000      -0.21428571       0.18181818 </v>
   <v>       0.16000000      -0.21428571       0.18181818 </v>
   <v>       0.20000000      -0.21428571       0.18181818 </v>
   <v>       0.24000000      -0.21428571       0.18181818 </v>
   <v>       0.28000000      -0.21428571       0.18181818 </v>
   <v>       0.32000000      -0.21428571       0.18181818 </v>
   <v>       0.36000000      -0.21428571       0.18181818 </v>
   <v>       0.40000000      -0.21428571       0.18181818 </v>
   <v>       0.44000000      -0.21428571       0.18181818 </v>
   <v>       0.48000000      -0.21428571       0.18181818 </v>
   <v>       0.00000000      -0.14285714       0.18181818 </v>
   <v>       0.04000000      -0.14285714       0.18181818 </v>
   <v>       0.08000000      -0.14285714       0.18181818 </v>
   <v>       0.12000000      -0.14285714       0.18181818 </v>
   <v>       0.16000000      -0.14285714       0.18181818 </v>
   <v>       0.20000000      -0.14285714       0.18181818 </v>
   <v>       0.24000000      -0.14285714       0.18181818 </v>
   <v>       0.28000000      -0.14285714       0.18181818 </v>
   <v>       0.32000000      -0.14285714       0.18181818 </v>
   <v>       0.36000000      -0.14285714       0.18181818 </v>
   <v>       0.40000000      -0.14285714       0.18181818 </v>
   <v>       0.44000000      -0.14285714       0.18181818 </v>
   <v>       0.48000000      -0.14285714       0.18181818 </v>
   <v>       0.00000000      -0.07142857       0.18181818 </v>
   <v>       0.04000000      -0.07142857       0.18181818 </v>
   <v>       0.08000000      -0.07142857       0.18181818 </v>
   <v>       0.12000000      -0.07142857       0.18181818 </v>
   <v>       0.16000000      -0.07142857       0.18181818 </v>
   <v>       0.20000000      -0.07142857       0.18181818 </v>
   <v>       0.24000000      -0.07142857       0.18181818 </v>
   <v>       0.28000000      -0.07142857       0.18181818 </v>
   <v>       0.32000000      -0.07142857       0.18181818 </v>
   <v>       0.36000000      -0.07142857       0.18181818 </v>
   <v>       0.40000000      -0.07142857       0.18181818 </v>
   <v>       0.44000000      -0.07142857       0.18181818 </v>
   <v>       0.48000000      -0.07142857       0.18181818 </v>
   <v>       0.00000000       0.00000000       0.27272727 </v>
   <v>       0.04000000       0.00000000       0.27272727 </v>
   <v>       0.08000000       0.00000000       0.27272727 </v>
   <v>       0.12000000       0.00000000       0.27272727 </v>
   <v>       0.16000000       0.00000000       0.27272727 </v>
   <v>       0.20000000       0.00000000       0.27272727 </v>
   <v>       0.24000000       0.00000000       0.27272727 </v>
   <v>       0.28000000       0.00000000       0.27272727 </v>
   <v>       0.32000000       0.00000000       0.27272727 </v>
   <v>       0.36000000       0.00000000       0.27272727 </v>
   <v>       0.40000000       0.00000000       0.27272727 </v>
   <v>       0.44000000       0.00000000       0.27272727 </v>
   <v>       0.48000000       0.00000000       0.27272727 </v>
   <v>       0.00000000       0.07142857       0.27272727 </v>
   <v>       0.04000000       0.07142857       0.27272727 </v>
   <v>       0.08000000       0.07142857       0.27272727 </v>
   <v>       0.12000000       0.07142857       0.27272727 </v>
   <v>       0.16000000       0.07142857       0.27272727 </v>
   <v>       0.20000000       0.07142857       0.27272727 </v>
   <v>       0.24000000       0.07142857       0.27272727 </v>
   <v>       0.28000000       0.07142857       0.27272727 </v>
   <v>       0.32000000       0.07142857       0.27272727 </v>
   <v>       0.36000000       0.07142857       0.27272727 </v>
   <v>       0.40000000       0.07142857       0.27272727 </v>
   <v>       0.44000000       0.07142857       0.27272727 </v>
   <v>       0.48000000       0.07142857       0.27272727 </v>
   <v>       0.00000000       0.14285714       0.27272727 </v>
   <v>       0.04000000       0.14285714       0.27272727 </v>
   <v>       0.08000000       0.14285714       0.27272727 </v>
   <v>       0.12000000       0.14285714       0.27272727 </v>
   <v>       0.16000000       0.14285714       0.27272727 </v>
   <v>       0.20000000       0.14285714       0.27272727 </v>
   <v>       0.24000000       0.14285714       0.27272727 </v>
   <v>       0.28000000       0.14285714       0.27272727 </v>
   <v>       0.32000000       0.14285714       0.27272727 </v>
   <v>       0.36000000       0.14285714       0.27272727 </v>
   <v>       0.40000000       0.14285714       0.27272727 </v>
   <v>       0.44000000       0.14285714       0.27272727 </v>
   <v>       0.48000000       0.14285714       0.27272727 </v>
   <v>       0.00000000       0.21428571       0.27272727 </v>
   <v>       0.04000000       0.21428571       0.27272727 </v>
   <v>       0.08000000       0.21428571       0.27272727 </v>
   <v>       0.12000000       0.21428571       0.27272727 </v>
   <v>       0.16000000       0.21428571       0.27272727 </v>
   <v>       0.20000000       0.21428571       0.27272727 </v>
   <v>       0.24000000       0.21428571       0.27272727 </v>
   <v>       0.28000000       0.21428571       0.27272727 </v>
   <v>       0.32000000       0.21428571       0.27272727 </v>
   <v>       0.36000000       0.21428571       0.27272727 </v>
   <v>       0.40000000       0.21428571       0.27272727 </v>
   <v>       0.44000000       0.21428571       0.27272727 </v>
   <v>       0.48000000       0.21428571       0.27272727 </v>
   <v>       0.00000000       0.28571429       0.27272727 </v>
   <v>       0.04000000       0.28571429       0.27272727 </v>
   <v>       0.08000000       0.28571429       0.27272727 </v>
   <v>       0.12000000       0.28571429       0.27272727 </v>
   <v>       0.16000000       0.28571429       0.27272727 </v>
   <v>       0.20000000       0.28571429       0.27272727 </v>
   <v>       0.24000000       0.28571429       0.27272727 </v>
   <v>       0.28000000       0.28571429       0.27272727 </v>
   <v>       0.32000000       0.28571429       0.27272727 </v>
   <v>       0.36000000       0.28571429       0.27272727 </v>
   <v>       0.40000000       0.28571429       0.27272727 </v>
   <v>       0.44000000       0.28571429       0.27272727 </v>
   <v>       0.48000000       0.28571429       0.27272727 </v>
   <v>       0.00000000       0.35714286       0.27272727 </v>
   <v>       0.04000000       0.35714286       0.27272727 </v>
   <v>       0.08000000       0.35714286       0.27272727 </v>
   <v>       0.12000000       0.35714286       0.27272727 </v>
   <v>       0.16000000       0.35714286       0.27272727 </v>
   <v>       0.20000000       0.35714286       0.27272727 </v>
   <v>       0.24000000       0.35714286       0.27272727 </v>
   <v>       0.28000000       0.35714286       0.27272727 </v>
   <v>       0.32000000       0.35714286       0.27272727 </v>
   <v>       0.36000000       0.35714286       0.27272727 </v>
   <v>       0.40000000       0.35714286       0.27272727 </v>
   <v>       0.44000000       0.35714286       0.27272727 </v>
   <v>       0.48000000       0.35714286       0.27272727 </v>
   <v>       0.00000000       0.42857143       0.27272727 </v>
   <v>       0.04000000       0.42857143       0.27272727 </v>
   <v>       0.08000000       0.42857143       0.27272727 </v>
   <v>       0.12000000       0.42857143       0.27272727 </v>
   <v>       0.16000000       0.42857143       0.27272727 </v>
   <v>       0.20000000       0.42857143       0.27272727 </v>
   <v>       0.24000000       0.42857143       0.27272727 </v>
   <v>       0.28000000       0.42857143       0.27272727 </v>
   <v>       0.32000000       0.42857143       0.27272727 </v>
   <v>       0.36000000       0.42857143       0.27272727 </v>
   <v>       0.40000000       0.42857143       0.27272727 </v>
   <v>       0.44000000       0.42857143       0.27272727 </v>
   <v>       0.48000000       0.42857143       0.27272727 </v>
   <v>       0.00000000       0.50000000       0.27272727 </v>
   <v>       0.04000000       0.50000000       0.27272727 </v>
   <v>       0.08000000       0.50000000       0.27272727 </v>
   <v>       0.12000000       0.50000000       0.27272727 </v>
   <v>       0.16000000       0.50000000       0.27272727 </v>
   <v>       0.20000000       0.50000000       0.27272727 </v>
   <v>       0.24000000       0.50000000       0.27272727 </v>
   <v>       0.28000000       0.50000000       0.27272727 </v>
   <v>       0.32000000       0.50000000       0.27272727 </v>
   <v>       0.36000000       0.50000000       0.27272727 </v>
   <v>       0.40000000       0.50000000       0.27272727 </v>
   <v>       0.44000000       0.50000000       0.27272727 </v>
   <v>       0.48000000       0.50000000       0.27272727 </v>
   <v>       0.00000000      -0.42857143       0.27272727 </v>
   <v>       0.04000000      -0.42857143       0.27272727 </v>
   <v>       0.08000000      -0.42857143       0.27272727 </v>
   <v>       0.12000000      -0.42857143       0.27272727 </v>
   <v>       0.16000000      -0.42857143       0.27272727 </v>
   <v>       0.20000000      -0.42857143       0.27272727 </v>
   <v>       0.24000000      -0.42857143       0.27272727 </v>
   <v>       0.28000000      -0.42857143       0.27272727 </v>
   <v>       0.32000000      -0.42857143       0.27272727 </v>
   <v>       0.36000000      -0.42857143       0.27272727 </v>
   <v>       0.40000000      -0.42857143       0.27272727 </v>
   <v>       0.44000000      -0.42857143       0.27272727 </v>
   <v>       0.48000000      -0.42857143       0.27272727 </v>
   <v>       0.00000000      -0.35714286       0.27272727 </v>
   <v>       0.04000000      -0.35714286       0.27272727 </v>
   <v>       0.08000000      -0.35714286       0.27272727 </v>
   <v>       0.12000000      -0.35714286       0.27272727 </v>
   <v>       0.16000000      -0.35714286       0.27272727 </v>
   <v>       0.20000000      -0.35714286       0.27272727 </v>
   <v>       0.24000000      -0.35714286       0.27272727 </v>
   <v>       0.28000000      -0.35714286       0.27272727 </v>
   <v>       0.32000000      -0.35714286       0.27272727 </v>
   <v>       0.36000000      -0.35714286       0.27272727 </v>
   <v>       0.40000000      -0.35714286       0.27272727 </v>
   <v>       0.44000000      -0.35714286       0.27272727 </v>
   <v>       0.48000000      -0.35714286       0.27272727 </v>
   <v>       0.00000000      -0.28571429       0.27272727 </v>
   <v>       0.04000000      -0.28571429       0.27272727 </v>
   <v>       0.08000000      -0.28571429       0.27272727 </v>
   <v>       0.12000000      -0.28571429       0.27272727 </v>
   <v>       0.16000000      -0.28571429       0.27272727 </v>
   <v>       0.20000000      -0.28571429       0.27272727 </v>
   <v>       0.24000000      -0.28571429       0.27272727 </v>
   <v>       0.28000000      -0.28571429       0.27272727 </v>
   <v>       0.32000000      -0.28571429       0.27272727 </v>
   <v>       0.36000000      -0.28571429       0.27272727 </v>
   <v>       0.40000000      -0.28571429       0.27272727 </v>
   <v>       0.44000000      -0.28571429       0.27272727 </v>
   <v>       0.48000000      -0.28571429       0.27272727 </v>
   <v>       0.00000000      -0.21428571       0.27272727 </v>
   <v>       0.04000000      -0.21428571       0.27272727 </v>
   <v>       0.08000000      -0.21428571       0.27272727 </v>
   <v>       0.12000000      -0.21428571       0.27272727 </v>
   <v>       0.16000000      -0.21428571       0.27272727 </v>
   <v>       0.20000000      -0.21428571       0.27272727 </v>
   <v>       0.24000000      -0.21428571       0.27272727 </v>
   <v>       0.28000000      -0.21428571       0.27272727 </v>
   <v>       0.32000000      -0.21428571       0.27272727 </v>
   <v>       0.36000000      -0.21428571       0.27272727 </v>
   <v>       0.40000000      -0.21428571       0.27272727 </v>
   <v>       0.44000000      -0.21428571       0.27272727 </v>
   <v>       0.48000000      -0.21428571       0.27272727 </v>
   <v>       0.00000000      -0.14285714       0.27272727 </v>
   <v>       0.04000000      -0.14285714       0.27272727 </v>
   <v>       0.08000000      -0.14285714       0.27272727 </v>
   <v>       0.12000000      -0.14285714       0.27272727 </v>
   <v>       0.16000000      -0.14285714       0.27272727 </v>
   <v>       0.20000000      -0.14285714       0.27272727 </v>
   <v>       0.24000000      -0.14285714       0.27272727 </v>
   <v>       0.28000000      -0.14285714       0.27272727 </v>
   <v>       0.32000000      -0.14285714       0.27272727 </v>
   <v>       0.36000000      -0.14285714       0.27272727 </v>
   <v>       0.40000000      -0.14285714       0.27272727 </v>
   <v>       0.44000000      -0.14285714       0.27272727 </v>
   <v>       0.48000000      -0.14285714       0.27272727 </v>
   <v>       0.00000000      -0.07142857       0.27272727 </v>
   <v>       0.04000000      -0.07142857       0.27272727 </v>
   <v>       0.08000000      -0.07142857       0.27272727 </v>
   <v>       0.12000000      -0.07142857       0.27272727 </v>
   <v>       0.16000000      -0.07142857       0.27272727 </v>
   <v>       0.20000000      -0.07142857       0.27272727 </v>
   <v>       0.24000000      -0.07142857       0.27272727 </v>
   <v>       0.28000000      -0.07142857       0.27272727 </v>
   <v>       0.32000000      -0.07142857       0.27272727 </v>
   <v>       0.36000000      -0.07142857       0.27272727 </v>
   <v>       0.40000000      -0.07142857       0.27272727 </v>
   <v>       0.44000000      -0.07142857       0.27272727 </v>
   <v>       0.48000000      -0.07142857       0.27272727 </v>
   <v>       0.00000000       0.00000000       0.36363636 </v>
   <v>       0.04000000       0.00000000       0.36363636 </v>
   <v>       0.08000000       0.00000000       0.36363636 </v>
   <v>       0.12000000       0.00000000       0.36363636 </v>
   <v>       0.16000000       0.00000000       0.36363636 </v>
   <v>       0.20000000       0.00000000       0.36363636 </v>
   <v>       0.24000000       0.00000000       0.36363636 </v>
   <v>       0.28000000       0.00000000       0.36363636 </v>
   <v>       0.32000000       0.00000000       0.36363636 </v>
   <v>       0.36000000       0.00000000       0.36363636 </v>
   <v>       0.40000000       0.00000000       0.36363636 </v>
   <v>       0.44000000       0.00000000       0.36363636 </v>
   <v>       0.48000000       0.00000000       0.36363636 </v>
   <v>       0.00000000       0.07142857       0.36363636 </v>
   <v>       0.04000000       0.07142857       0.36363636 </v>
   <v>       0.08000000       0.07142857       0.36363636 </v>
   <v>       0.12000000       0.07142857       0.36363636 </v>
   <v>       0.16000000       0.07142857       0.36363636 </v>
   <v>       0.20000000       0.07142857       0.36363636 </v>
   <v>       0.24000000       0.07142857       0.36363636 </v>
   <v>       0.28000000       0.07142857       0.36363636 </v>
   <v>       0.32000000       0.07142857       0.36363636 </v>
   <v>       0.36000000       0.07142857       0.36363636 </v>
   <v>       0.40000000       0.07142857       0.36363636 </v>
   <v>       0.44000000       0.07142857       0.36363636 </v>
   <v>       0.48000000       0.07142857       0.36363636 </v>
   <v>       0.00000000       0.14285714       0.36363636 </v>
   <v>       0.04000000       0.14285714       0.36363636 </v>
   <v>       0.08000000       0.14285714       0.36363636 </v>
   <v>       0.12000000       0.14285714       0.36363636 </v>
   <v>       0.16000000       0.14285714       0.36363636 </v>
   <v>       0.20000000       0.14285714       0.36363636 </v>
   <v>       0.24000000       0.14285714       0.36363636 </v>
   <v>       0.28000000       0.14285714       0.36363636 </v>
   <v>       0.32000000       0.14285714       0.36363636 </v>
   <v>       0.36000000       0.14285714       0.36363636 </v>
   <v>       0.40000000       0.14285714       0.36363636 </v>
   <v>       0.44000000       0.14285714       0.36363636 </v>
   <v>       0.48000000       0.14285714       0.36363636 </v>
   <v>       0.00000000       0.21428571       0.36363636 </v>
   <v>       0.04000000       0.21428571       0.36363636 </v>
   <v>       0.08000000       0.21428571       0.36363636 </v>
   <v>       0.12000000       0.21428571       0.36363636 </v>
   <v>       0.16000000       0.21428571       0.36363636 </v>
   <v>       0.20000000       0.21428571       0.36363636 </v>
   <v>       0.24000000       0.21428571       0.36363636 </v>
   <v>       0.28000000       0.21428571       0.36363636 </v>
   <v>       0.32000000       0.21428571       0.36363636 </v>
   <v>       0.36000000       0.21428571       0.36363636 </v>
   <v>       0.40000000       0.21428571       0.36363636 </v>
   <v>       0.44000000       0.21428571       0.36363636 </v>
   <v>       0.48000000       0.21428571       0.36363636 </v>
   <v>       0.00000000       0.28571429       0.36363636 </v>
   <v>       0.04000000       0.28571429       0.36363636 </v>
   <v>       0.08000000       0.28571429       0.36363636 </v>
   <v>       0.12000000       0.28571429       0.36363636 </v>
   <v>       0.16000000       0.28571429       0.36363636 </v>
   <v>       0.20000000       0.28571429       0.36363636 </v>
   <v>       0.24000000       0.28571429       0.36363636 </v>
   <v>       0.28000000       0.28571429       0.36363636 </v>
   <v>       0.32000000       0.28571429       0.36363636 </v>
   <v>       0.36000000       0.28571429       0.36363636 </v>
   <v>       0.40000000       0.28571429       0.36363636 </v>
   <v>       0.44000000       0.28571429       0.36363636 </v>
   <v>       0.48000000       0.28571429       0.36363636 </v>
   <v>       0.00000000       0.35714286       0.36363636 </v>
   <v>       0.04000000       0.35714286       0.36363636 </v>
   <v>       0.08000000       0.35714286       0.36363636 </v>
   <v>       0.12000000       0.35714286       0.36363636 </v>
   <v>       0.16000000       0.35714286       0.36363636 </v>
   <v>       0.20000000       0.35714286       0.36363636 </v>
   <v>       0.24000000       0.35714286       0.36363636 </v>
   <v>       0.28000000       0.35714286       0.36363636 </v>
   <v>       0.32000000       0.35714286       0.36363636 </v>
   <v>       0.36000000       0.35714286       0.36363636 </v>
   <v>       0.40000000       0.35714286       0.36363636 </v>
   <v>       0.44000000       0.35714286       0.36363636 </v>
   <v>       0.48000000       0.35714286       0.36363636 </v>
   <v>       0.00000000       0.42857143       0.36363636 </v>
   <v>       0.04000000       0.42857143       0.36363636 </v>
   <v>       0.08000000       0.42857143       0.36363636 </v>
   <v>       0.12000000       0.42857143       0.36363636 </v>
   <v>       0.16000000       0.42857143       0.36363636 </v>
   <v>       0.20000000       0.42857143       0.36363636 </v>
   <v>       0.24000000       0.42857143       0.36363636 </v>
   <v>       0.28000000       0.42857143       0.36363636 </v>
   <v>       0.32000000       0.42857143       0.36363636 </v>
   <v>       0.36000000       0.42857143       0.36363636 </v>
   <v>       0.40000000       0.42857143       0.36363636 </v>
   <v>       0.44000000       0.42857143       0.36363636 </v>
   <v>       0.48000000       0.42857143       0.36363636 </v>
   <v>       0.00000000       0.50000000       0.36363636 </v>
   <v>       0.04000000       0.50000000       0.36363636 </v>
   <v>       0.08000000       0.50000000       0.36363636 </v>
   <v>       0.12000000       0.50000000       0.36363636 </v>
   <v>       0.16000000       0.50000000       0.36363636 </v>
   <v>       0.20000000       0.50000000       0.36363636 </v>
   <v>       0.24000000       0.50000000       0.36363636 </v>
   <v>       0.28000000       0.50000000       0.36363636 </v>
   <v>       0.32000000       0.50000000       0.36363636 </v>
   <v>       0.36000000       0.50000000       0.36363636 </v>
   <v>       0.40000000       0.50000000       0.36363636 </v>
   <v>       0.44000000       0.50000000       0.36363636 </v>
   <v>       0.48000000       0.50000000       0.36363636 </v>
   <v>       0.00000000      -0.42857143       0.36363636 </v>
   <v>       0.04000000      -0.42857143       0.36363636 </v>
   <v>       0.08000000      -0.42857143       0.36363636 </v>
   <v>       0.12000000      -0.42857143       0.36363636 </v>
   <v>       0.16000000      -0.42857143       0.36363636 </v>
   <v>       0.20000000      -0.42857143       0.36363636 </v>
   <v>       0.24000000      -0.42857143       0.36363636 </v>
   <v>       0.28000000      -0.42857143       0.36363636 </v>
   <v>       0.32000000      -0.42857143       0.36363636 </v>
   <v>       0.36000000      -0.42857143       0.36363636 </v>
   <v>       0.40000000      -0.42857143       0.36363636 </v>
   <v>       0.44000000      -0.42857143       0.36363636 </v>
   <v>       0.48000000      -0.42857143       0.36363636 </v>
   <v>       0.00000000      -0.35714286       0.36363636 </v>
   <v>       0.04000000      -0.35714286       0.36363636 </v>
   <v>       0.08000000      -0.35714286       0.36363636 </v>
   <v>       0.12000000      -0.35714286       0.36363636 </v>
   <v>       0.16000000      -0.35714286       0.36363636 </v>
   <v>       0.20000000      -0.35714286       0.36363636 </v>
   <v>       0.24000000      -0.35714286       0.36363636 </v>
   <v>       0.28000000      -0.35714286       0.36363636 </v>
   <v>       0.32000000      -0.35714286       0.36363636 </v>
   <v>       0.36000000      -0.35714286       0.36363636 </v>
   <v>       0.40000000      -0.35714286       0.36363636 </v>
   <v>       0.44000000      -0.35714286       0.36363636 </v>
   <v>       0.48000000      -0.35714286       0.36363636 </v>
   <v>       0.00000000      -0.28571429       0.36363636 </v>
   <v>       0.04000000      -0.28571429       0.36363636 </v>
   <v>       0.08000000      -0.28571429       0.36363636 </v>
   <v>       0.12000000      -0.28571429       0.36363636 </v>
   <v>       0.16000000      -0.28571429       0.36363636 </v>
   <v>       0.20000000      -0.28571429       0.36363636 </v>
   <v>       0.24000000      -0.28571429       0.36363636 </v>
   <v>       0.28000000      -0.28571429       0.36363636 </v>
   <v>       0.32000000      -0.28571429       0.36363636 </v>
   <v>       0.36000000      -0.28571429       0.36363636 </v>
   <v>       0.40000000      -0.28571429       0.36363636 </v>
   <v>       0.44000000      -0.28571429       0.36363636 </v>
   <v>       0.48000000      -0.28571429       0.36363636 </v>
   <v>       0.00000000      -0.21428571       0.36363636 </v>
   <v>       0.04000000      -0.21428571       0.36363636 </v>
   <v>       0.08000000      -0.21428571       0.36363636 </v>
   <v>       0.12000000      -0.21428571       0.36363636 </v>
   <v>       0.16000000      -0.21428571       0.36363636 </v>
   <v>       0.20000000      -0.21428571       0.36363636 </v>
   <v>       0.24000000      -0.21428571       0.36363636 </v>
   <v>       0.28000000      -0.21428571       0.36363636 </v>
   <v>       0.32000000      -0.21428571       0.36363636 </v>
   <v>       0.36000000      -0.21428571       0.36363636 </v>
   <v>       0.40000000      -0.21428571       0.36363636 </v>
   <v>       0.44000000      -0.21428571       0.36363636 </v>
   <v>       0.48000000      -0.21428571       0.36363636 </v>
   <v>       0.00000000      -0.14285714       0.36363636 </v>
   <v>       0.04000000      -0.14285714       0.36363636 </v>
   <v>       0.08000000      -0.14285714       0.36363636 </v>
   <v>       0.12000000      -0.14285714       0.36363636 </v>
   <v>       0.16000000      -0.14285714       0.36363636 </v>
   <v>       0.20000000      -0.14285714       0.36363636 </v>
   <v>       0.24000000      -0.14285714       0.36363636 </v>
   <v>       0.28000000      -0.14285714       0.36363636 </v>
   <v>       0.32000000      -0.14285714       0.36363636 </v>
   <v>       0.36000000      -0.14285714       0.36363636 </v>
   <v>       0.40000000      -0.14285714       0.36363636 </v>
   <v>       0.44000000      -0.14285714       0.36363636 </v>
   <v>       0.48000000      -0.14285714       0.36363636 </v>
   <v>       0.00000000      -0.07142857       0.36363636 </v>
   <v>       0.04000000      -0.07142857       0.36363636 </v>
   <v>       0.08000000      -0.07142857       0.36363636 </v>
   <v>       0.12000000      -0.07142857       0.36363636 </v>
   <v>       0.16000000      -0.07142857       0.36363636 </v>
   <v>       0.20000000      -0.07142857       0.36363636 </v>
   <v>       0.24000000      -0.07142857       0.36363636 </v>
   <v>       0.28000000      -0.07142857       0.36363636 </v>
   <v>       0.32000000      -0.07142857       0.36363636 </v>
   <v>       0.36000000      -0.07142857       0.36363636 </v>
   <v>       0.40000000      -0.07142857       0.36363636 </v>
   <v>       0.44000000      -0.07142857       0.36363636 </v>
   <v>       0.48000000      -0.07142857       0.36363636 </v>
   <v>       0.00000000       0.00000000       0.45454545 </v>
   <v>       0.04000000       0.00000000       0.45454545 </v>
   <v>       0.08000000       0.00000000       0.45454545 </v>
   <v>       0.12000000       0.00000000       0.45454545 </v>
   <v>       0.16000000       0.00000000       0.45454545 </v>
   <v>       0.20000000       0.00000000       0.45454545 </v>
   <v>       0.24000000       0.00000000       0.45454545 </v>
   <v>       0.28000000       0.00000000       0.45454545 </v>
   <v>       0.32000000       0.00000000       0.45454545 </v>
   <v>       0.36000000       0.00000000       0.45454545 </v>
   <v>       0.40000000       0.00000000       0.45454545 </v>
   <v>       0.44000000       0.00000000       0.45454545 </v>
   <v>       0.48000000       0.00000000       0.45454545 </v>
   <v>       0.00000000       0.07142857       0.45454545 </v>
   <v>       0.04000000       0.07142857       0.45454545 </v>
   <v>       0.08000000       0.07142857       0.45454545 </v>
   <v>       0.12000000       0.07142857       0.45454545 </v>
   <v>       0.16000000       0.07142857       0.45454545 </v>
   <v>       0.20000000       0.07142857       0.45454545 </v>
   <v>       0.24000000       0.07142857       0.45454545 </v>
   <v>       0.28000000       0.07142857       0.45454545 </v>
   <v>       0.32000000       0.07142857       0.45454545 </v>
   <v>       0.36000000       0.07142857       0.45454545 </v>
   <v>       0.40000000       0.07142857       0.45454545 </v>
   <v>       0.44000000       0.07142857       0.45454545 </v>
   <v>       0.48000000       0.07142857       0.45454545 </v>
   <v>       0.00000000       0.14285714       0.45454545 </v>
   <v>       0.04000000       0.14285714       0.45454545 </v>
   <v>       0.08000000       0.14285714       0.45454545 </v>
   <v>       0.12000000       0.14285714       0.45454545 </v>
   <v>       0.16000000       0.14285714       0.45454545 </v>
   <v>       0.20000000       0.14285714       0.45454545 </v>
   <v>       0.24000000       0.14285714       0.45454545 </v>
   <v>       0.28000000       0.14285714       0.45454545 </v>
   <v>       0.32000000       0.14285714       0.45454545 </v>
   <v>       0.36000000       0.14285714       0.45454545 </v>
   <v>       0.40000000       0.14285714       0.45454545 </v>
   <v>       0.44000000       0.14285714       0.45454545 </v>
   <v>       0.48000000       0.14285714       0.45454545 </v>
   <v>       0.00000000       0.21428571       0.45454545 </v>
   <v>       0.04000000       0.21428571       0.45454545 </v>
   <v>       0.08000000       0.21428571       0.45454545 </v>
   <v>       0.12000000       0.21428571       0.45454545 </v>
   <v>       0.16000000       0.21428571       0.45454545 </v>
   <v>       0.20000000       0.21428571       0.45454545 </v>
   <v>       0.24000000       0.21428571       0.45454545 </v>
   <v>       0.28000000       0.21428571       0.45454545 </v>
   <v>       0.32000000       0.21428571       0.45454545 </v>
   <v>       0.36000000       0.21428571       0.45454545 </v>
   <v>       0.40000000       0.21428571       0.45454545 </v>
   <v>       0.44000000       0.21428571       0.45454545 </v>
   <v>       0.48000000       0.21428571       0.45454545 </v>
   <v>       0.00000000       0.28571429       0.45454545 </v>
   <v>       0.04000000       0.28571429       0.45454545 </v>
   <v>       0.08000000       0.28571429       0.45454545 </v>
   <v>       0.12000000       0.28571429       0.45454545 </v>
   <v>       0.16000000       0.28571429       0.45454545 </v>
   <v>       0.20000000       0.28571429       0.45454545 </v>
   <v>       0.24000000       0.28571429       0.45454545 </v>
   <v>       0.28000000       0.28571429       0.45454545 </v>
   <v>       0.32000000       0.28571429       0.45454545 </v>
   <v>       0.36000000       0.28571429       0.45454545 </v>
   <v>       0.40000000       0.28571429       0.45454545 </v>
   <v>       0.44000000       0.28571429       0.45454545 </v>
   <v>       0.48000000       0.28571429       0.45454545 </v>
   <v>       0.00000000       0.35714286       0.45454545 </v>
   <v>       0.04000000       0.35714286       0.45454545 </v>
   <v>       0.08000000       0.35714286       0.45454545 </v>
   <v>       0.12000000       0.35714286       0.45454545 </v>
   <v>       0.16000000       0.35714286       0.45454545 </v>
   <v>       0.20000000       0.35714286       0.45454545 </v>
   <v>       0.24000000       0.35714286       0.45454545 </v>
   <v>       0.28000000       0.35714286       0.45454545 </v>
   <v>       0.32000000       0.35714286       0.45454545 </v>
   <v>       0.36000000       0.35714286       0.45454545 </v>
   <v>       0.40000000       0.35714286       0.45454545 </v>
   <v>       0.44000000       0.35714286       0.45454545 </v>
   <v>       0.48000000       0.35714286       0.45454545 </v>
   <v>       0.00000000       0.42857143       0.45454545 </v>
   <v>       0.04000000       0.42857143       0.45454545 </v>
   <v>       0.08000000       0.42857143       0.45454545 </v>
   <v>       0.12000000       0.42857143       0.45454545 </v>
   <v>       0.16000000       0.42857143       0.45454545 </v>
   <v>       0.20000000       0.42857143       0.45454545 </v>
   <v>       0.24000000       0.42857143       0.45454545 </v>
   <v>       0.28000000       0.42857143       0.45454545 </v>
   <v>       0.32000000       0.42857143       0.45454545 </v>
   <v>       0.36000000       0.42857143       0.45454545 </v>
   <v>       0.40000000       0.42857143       0.45454545 </v>
   <v>       0.44000000       0.42857143       0.45454545 </v>
   <v>       0.48000000       0.42857143       0.45454545 </v>
   <v>       0.00000000       0.50000000       0.45454545 </v>
   <v>       0.04000000       0.50000000       0.45454545 </v>
   <v>       0.08000000       0.50000000       0.45454545 </v>
   <v>       0.12000000       0.50000000       0.45454545 </v>
   <v>       0.16000000       0.50000000       0.45454545 </v>
   <v>       0.20000000       0.50000000       0.45454545 </v>
   <v>       0.24000000       0.50000000       0.45454545 </v>
   <v>       0.28000000       0.50000000       0.45454545 </v>
   <v>       0.32000000       0.50000000       0.45454545 </v>
   <v>       0.36000000       0.50000000       0.45454545 </v>
   <v>       0.40000000       0.50000000       0.45454545 </v>
   <v>       0.44000000       0.50000000       0.45454545 </v>
   <v>       0.48000000       0.50000000       0.45454545 </v>
   <v>       0.00000000      -0.42857143       0.45454545 </v>
   <v>       0.04000000      -0.42857143       0.45454545 </v>
   <v>       0.08000000      -0.42857143       0.45454545 </v>
   <v>       0.12000000      -0.42857143       0.45454545 </v>
   <v>       0.16000000      -0.42857143       0.45454545 </v>
   <v>       0.20000000      -0.42857143       0.45454545 </v>
   <v>       0.24000000      -0.42857143       0.45454545 </v>
   <v>       0.28000000      -0.42857143       0.45454545 </v>
   <v>       0.32000000      -0.42857143       0.45454545 </v>
   <v>       0.36000000      -0.42857143       0.45454545 </v>
   <v>       0.40000000      -0.42857143       0.45454545 </v>
   <v>       0.44000000      -0.42857143       0.45454545 </v>
   <v>       0.48000000      -0.42857143       0.45454545 </v>
   <v>       0.00000000      -0.35714286       0.45454545 </v>
   <v>       0.04000000      -0.35714286       0.45454545 </v>
   <v>       0.08000000      -0.35714286       0.45454545 </v>
   <v>       0.12000000      -0.35714286       0.45454545 </v>
   <v>       0.16000000      -0.35714286       0.45454545 </v>
   <v>       0.20000000      -0.35714286       0.45454545 </v>
   <v>       0.24000000      -0.35714286       0.45454545 </v>
   <v>       0.28000000      -0.35714286       0.45454545 </v>
   <v>       0.32000000      -0.35714286       0.45454545 </v>
   <v>       0.36000000      -0.35714286       0.45454545 </v>
   <v>       0.40000000      -0.35714286       0.45454545 </v>
   <v>       0.44000000      -0.35714286       0.45454545 </v>
   <v>       0.48000000      -0.35714286       0.45454545 </v>
   <v>       0.00000000      -0.28571429       0.45454545 </v>
   <v>       0.04000000      -0.28571429       0.45454545 </v>
   <v>       0.08000000      -0.28571429       0.45454545 </v>
   <v>       0.12000000      -0.28571429       0.45454545 </v>
   <v>       0.16000000      -0.28571429       0.45454545 </v>
   <v>       0.20000000      -0.28571429       0.45454545 </v>
   <v>       0.24000000      -0.28571429       0.45454545 </v>
   <v>       0.28000000      -0.28571429       0.45454545 </v>
   <v>       0.32000000      -0.28571429       0.45454545 </v>
   <v>       0.36000000      -0.28571429       0.45454545 </v>
   <v>       0.40000000      -0.28571429       0.45454545 </v>
   <v>       0.44000000      -0.28571429       0.45454545 </v>
   <v>       0.48000000      -0.28571429       0.45454545 </v>
   <v>       0.00000000      -0.21428571       0.45454545 </v>
   <v>       0.04000000      -0.21428571       0.45454545 </v>
   <v>       0.08000000      -0.21428571       0.45454545 </v>
   <v>       0.12000000      -0.21428571       0.45454545 </v>
   <v>       0.16000000      -0.21428571       0.45454545 </v>
   <v>       0.20000000      -0.21428571       0.45454545 </v>
   <v>       0.24000000      -0.21428571       0.45454545 </v>
   <v>       0.28000000      -0.21428571       0.45454545 </v>
   <v>       0.32000000      -0.21428571       0.45454545 </v>
   <v>       0.36000000      -0.21428571       0.45454545 </v>
   <v>       0.40000000      -0.21428571       0.45454545 </v>
   <v>       0.44000000      -0.21428571       0.45454545 </v>
   <v>       0.48000000      -0.21428571       0.45454545 </v>
   <v>       0.00000000      -0.14285714       0.45454545 </v>
   <v>       0.04000000      -0.14285714       0.45454545 </v>
   <v>       0.08000000      -0.14285714       0.45454545 </v>
   <v>       0.12000000      -0.14285714       0.45454545 </v>
   <v>       0.16000000      -0.14285714       0.45454545 </v>
   <v>       0.20000000      -0.14285714       0.45454545 </v>
   <v>       0.24000000      -0.14285714       0.45454545 </v>
   <v>       0.28000000      -0.14285714       0.45454545 </v>
   <v>       0.32000000      -0.14285714       0.45454545 </v>
   <v>       0.36000000      -0.14285714       0.45454545 </v>
   <v>       0.40000000      -0.14285714       0.45454545 </v>
   <v>       0.44000000      -0.14285714       0.45454545 </v>
   <v>       0.48000000      -0.14285714       0.45454545 </v>
   <v>       0.00000000      -0.07142857       0.45454545 </v>
   <v>       0.04000000      -0.07142857       0.45454545 </v>
   <v>       0.08000000      -0.07142857       0.45454545 </v>
   <v>       0.12000000      -0.07142857       0.45454545 </v>
   <v>       0.16000000      -0.07142857       0.45454545 </v>
   <v>       0.20000000      -0.07142857       0.45454545 </v>
   <v>       0.24000000      -0.07142857       0.45454545 </v>
   <v>       0.28000000      -0.07142857       0.45454545 </v>
   <v>       0.32000000      -0.07142857       0.45454545 </v>
   <v>       0.36000000      -0.07142857       0.45454545 </v>
   <v>       0.40000000      -0.07142857       0.45454545 </v>
   <v>       0.44000000      -0.07142857       0.45454545 </v>
   <v>       0.48000000      -0.07142857       0.45454545 </v>
  </varray>
  <varray name="weights" >
   <v>       0.00025974 </v>
   <v>       0.00051948 </v>
   <v>       0.00051948 </v>
   <v>       0.00051948 </v>
   <v>       0.00051948 </v>
   <v>       0.00051948 </v>
   <v>       0.00051948 </v>
   <v>       0.00051948 </v>
   <v>       0.00051948 </v>
   <v>       0.00051948 </v>
   <v>       0.00051948 </v>
   <v>       0.00051948 </v>
   <v>       0.00051948 </v>
   <v>       0.00051948 </v>
   <v>       0.00103896 </v>
   <v>       0.00103896 </v>
   <v>       0.00103896 </v>
   <v>       0.00103896 </v>
   <v>       0.00103896 </v>
   <v>       0.00103896 </v>
   <v>       0.00103896 </v>
   <v>       0.00103896 </v>
   <v>       0.00103896 </v>
   <v>       0.00103896 </v>
   <v>       0.00103896 </v>
   <v>       0.00103896 </v>
   <v>       0.00051948 </v>
   <v>       0.00103896 </v>
   <v>       0.00103896 </v>
   <v>       0.00103896 </v>
   <v>       0.00103896 </v>
   <v>       0.00103896 </v>
   <v>       0.00103896 </v>
   <v>       0.00103896 </v>
   <v>       0.00103896 </v>
   <v>       0.00103896 </v>
   <v>       0.00103896 </v>
   <v>       0.00103896 </v>
   <v>       0.00103896 </v>
   <v>       0.00051948 </v>
   <v>       0.00103896 </v>
   <v>       0.00103896 </v>
   <v>       0.00103896 </v>
   <v>       0.00103896 </v>
   <v>       0.00103896 </v>
   <v>       0.00103896 </v>
   <v>       0.00103896 </v>
   <v>       0.00103896 </v>
   <v>       0.00103896 </v>
   <v>       0.00103896 </v>
   <v>       0.00103896 </v>
   <v>       0.00103896 </v>
   <v>       0.00051948 </v>
   <v>       0.00103896 </v>
   <v>       0.00103896 </v>
   <v>       0.00103896 </v>
   <v>       0.00103896 </v>
   <v>       0.00103896 </v>
   <v>       0.00103896 </v>
   <v>       0.00103896 </v>
   <v>       0.00103896 </v>
   <v>       0.00103896 </v>
   <v>       0.00103896 </v>
   <v>       0.00103896 </v>
   <v>       0.00103896 </v>
   <v>       0.00051948 </v>
   <v>       0.00103896 </v>
   <v>       0.00103896 </v>
   <v>       0.00103896 </v>
   <v>       0.00103896 </v>
   <v>       0.00103896 </v>
   <v>       0.00103896 </v>
   <v>       0.00103896 </v>
   <v>       0.00103896 </v>
   <v>       0.00103896 </v>
   <v>       0.00103896 </v>
   <v>       0.00103896 </v>
   <v>       0.00103896 </v>
   <v>       0.00051948 </v>
   <v>       0.00103896 </v>
   <v>       0.00103896 </v>
   <v>       0.00103896 </v>
   <v>       0.00103896 </v>
   <v>       0.00103896 </v>
   <v>       0.00103896 </v>
   <v>       0.00103896 </v>
   <v>       0.00103896 </v>
   <v>       0.00103896 </v>
   <v>       0.00103896 </v>
   <v>       0.00103896 </v>
   <v>       0.00103896 </v>
   <v>       0.00025974 </v>
   <v>       0.00051948 </v>
   <v>       0.00051948 </v>
   <v>       0.00051948 </v>
   <v>       0.00051948 </v>
   <v>       0.00051948 </v>
   <v>       0.00051948 </v>
   <v>       0.00051948 </v>
   <v>       0.00051948 </v>
   <v>       0.00051948 </v>
   <v>       0.00051948 </v>
   <v>       0.00051948 </v>
   <v>       0.00051948 </v>
   <v>       0.00051948 </v>
   <v>       0.00103896 </v>
   <v>       0.00103896 </v>
   <v>       0.00103896 </v>
   <v>       0.00103896 </v>
   <v>       0.00103896 </v>
   <v>       0.00103896 </v>
   <v>       0.00103896 </v>
   <v>       0.00103896 </v>
   <v>       0.00103896 </v>
   <v>       0.00103896 </v>
   <v>       0.00103896 </v>
   <v>       0.00103896 </v>
   <v>       0.00051948 </v>
   <v>       0.00103896 </v>
   <v>       0.00103896 </v>
   <v>       0.00103896 </v>
   <v>       0.00103896 </v>
   <v>       0.00103896 </v>
   <v>       0.00103896 </v>
   <v>       0.00103896 </v>
   <v>       0.00103896 </v>
   <v>       0.00103896 </v>
   <v>       0.00103896 </v>
   <v>       0.00103896 </v>
   <v>       0.00103896 </v>
   <v>       0.00051948 </v>
   <v>       0.00103896 </v>
   <v>       0.00103896 </v>
   <v>       0.00103896 </v>
   <v>       0.00103896 </v>
   <v>       0.00103896 </v>
   <v>       0.00103896 </v>
   <v>       0.00103896 </v>
   <v>       0.00103896 </v>
   <v>       0.00103896 </v>
   <v>       0.00103896 </v>
   <v>       0.00103896 </v>
   <v>       0.00103896 </v>
   <v>       0.00051948 </v>
   <v>       0.00103896 </v>
   <v>       0.00103896 </v>
   <v>       0.00103896 </v>
   <v>       0.00103896 </v>
   <v>       0.00103896 </v>
   <v>       0.00103896 </v>
   <v>       0.00103896 </v>
   <v>       0.00103896 </v>
   <v>       0.00103896 </v>
   <v>       0.00103896 </v>
   <v>       0.00103896 </v>
   <v>       0.00103896 </v>
   <v>       0.00051948 </v>
   <v>       0.00103896 </v>
   <v>       0.00103896 </v>
   <v>       0.00103896 </v>
   <v>       0.00103896 </v>
   <v>       0.00103896 </v>
   <v>       0.00103896 </v>
   <v>       0.00103896 </v>
   <v>       0.00103896 </v>
   <v>       0.00103896 </v>
   <v>       0.00103896 </v>
   <v>       0.00103896 </v>
   <v>       0.00103896 </v>
   <v>       0.00051948 </v>
   <v>       0.00103896 </v>
   <v>       0.00103896 </v>
   <v>       0.00103896 </v>
   <v>       0.00103896 </v>
   <v>       0.00103896 </v>
   <v>       0.00103896 </v>
   <v>       0.00103896 </v>
   <v>       0.00103896 </v>
   <v>       0.00103896 </v>
   <v>       0.00103896 </v>
   <v>       0.00103896 </v>
   <v>       0.00103896 </v>
   <v>       0.00051948 </v>
   <v>       0.00103896 </v>
   <v>       0.00103896 </v>
   <v>       0.00103896 </v>
   <v>       0.00103896 </v>
   <v>       0.00103896 </v>
   <v>       0.00103896 </v>
   <v>       0.00103896 </v>
   <v>       0.00103896 </v>
   <v>       0.00103896 </v>
   <v>       0.00103896 </v>
   <v>       0.00103896 </v>
   <v>       0.00103896 </v>
   <v>       0.00051948 </v>
   <v>       0.00103896 </v>
   <v>       0.00103896 </v>
   <v>       0.00103896 </v>
   <v>       0.00103896 </v>
   <v>       0.00103896 </v>
   <v>       0.00103896 </v>
   <v>       0.00103896 </v>
   <v>       0.00103896 </v>
   <v>       0.00103896 </v>
   <v>       0.00103896 </v>
   <v>       0.00103896 </v>
   <v>       0.00103896 </v>
   <v>       0.00051948 </v>
   <v>       0.00103896 </v>
   <v>       0.00103896 </v>
   <v>       0.00103896 </v>
   <v>       0.00103896 </v>
   <v>       0.00103896 </v>
   <v>       0.00103896 </v>
   <v>       0.00103896 </v>
   <v>       0.00103896 </v>
   <v>       0.00103896 </v>
   <v>       0.00103896 </v>
   <v>       0.00103896 </v>
   <v>       0.00103896 </v>
   <v>       0.00051948 </v>
   <v>       0.00103896 </v>
   <v>       0.00103896 </v>
   <v>       0.00103896 </v>
   <v>       0.00103896 </v>
   <v>       0.00103896 </v>
   <v>       0.00103896 </v>
   <v>       0.00103896 </v>
   <v>       0.00103896 </v>
   <v>       0.00103896 </v>
   <v>       0.00103896 </v>
   <v>       0.00103896 </v>
   <v>       0.00103896 </v>
   <v>       0.00051948 </v>
   <v>       0.00103896 </v>
   <v>       0.00103896 </v>
   <v>       0.00103896 </v>
   <v>       0.00103896 </v>
   <v>       0.00103896 </v>
   <v>       0.00103896 </v>
   <v>       0.00103896 </v>
   <v>       0.00103896 </v>
   <v>       0.00103896 </v>
   <v>       0.00103896 </v>
   <v>       0.00103896 </v>
   <v>       0.00103896 </v>
   <v>       0.00051948 </v>
   <v>       0.00103896 </v>
   <v>       0.00103896 </v>
   <v>       0.00103896 </v>
   <v>       0.00103896 </v>
   <v>       0.00103896 </v>
   <v>       0.00103896 </v>
   <v>       0.00103896 </v>
   <v>       0.00103896 </v>
   <v>       0.00103896 </v>
   <v>       0.00103896 </v>
   <v>       0.00103896 </v>
   <v>       0.00103896 </v>
   <v>       0.00051948 </v>
   <v>       0.00103896 </v>
   <v>       0.00103896 </v>
   <v>       0.00103896 </v>
   <v>       0.00103896 </v>
   <v>       0.00103896 </v>
   <v>       0.00103896 </v>
   <v>       0.00103896 </v>
   <v>       0.00103896 </v>
   <v>       0.00103896 </v>
   <v>       0.00103896 </v>
   <v>       0.00103896 </v>
   <v>       0.00103896 </v>
   <v>       0.00051948 </v>
   <v>       0.00103896 </v>
   <v>       0.00103896 </v>
   <v>       0.00103896 </v>
   <v>       0.00103896 </v>
   <v>       0.00103896 </v>
   <v>       0.00103896 </v>
   <v>       0.00103896 </v>
   <v>       0.00103896 </v>
   <v>       0.00103896 </v>
   <v>       0.00103896 </v>
   <v>       0.00103896 </v>
   <v>       0.00103896 </v>
   <v>       0.00051948 </v>
   <v>       0.00103896 </v>
   <v>       0.00103896 </v>
   <v>       0.00103896 </v>
   <v>       0.00103896 </v>
   <v>       0.00103896 </v>
   <v>       0.00103896 </v>
   <v>       0.00103896 </v>
   <v>       0.00103896 </v>
   <v>       0.00103896 </v>
   <v>       0.00103896 </v>
   <v>       0.00103896 </v>
   <v>       0.00103896 </v>
   <v>       0.00051948 </v>
   <v>       0.00103896 </v>
   <v>       0.00103896 </v>
   <v>       0.00103896 </v>
   <v>       0.00103896 </v>
   <v>       0.00103896 </v>
   <v>       0.00103896 </v>
   <v>       0.00103896 </v>
   <v>       0.00103896 </v>
   <v>       0.00103896 </v>
   <v>       0.00103896 </v>
   <v>       0.00103896 </v>
   <v>       0.00103896 </v>
   <v>       0.00051948 </v>
   <v>       0.00103896 </v>
   <v>       0.00103896 </v>
   <v>       0.00103896 </v>
   <v>       0.00103896 </v>
   <v>       0.00103896 </v>
   <v>       0.00103896 </v>
   <v>       0.00103896 </v>
   <v>       0.00103896 </v>
   <v>       0.00103896 </v>
   <v>       0.00103896 </v>
   <v>       0.00103896 </v>
   <v>       0.00103896 </v>
   <v>       0.00051948 </v>
   <v>       0.00103896 </v>
   <v>       0.00103896 </v>
   <v>       0.00103896 </v>
   <v>       0.00103896 </v>
   <v>       0.00103896 </v>
   <v>       0.00103896 </v>
   <v>       0.00103896 </v>
   <v>       0.00103896 </v>
   <v>       0.00103896 </v>
   <v>       0.00103896 </v>
   <v>       0.00103896 </v>
   <v>       0.00103896 </v>
   <v>       0.00051948 </v>
   <v>       0.00103896 </v>
   <v>       0.00103896 </v>
   <v>       0.00103896 </v>
   <v>       0.00103896 </v>
   <v>       0.00103896 </v>
   <v>       0.00103896 </v>
   <v>       0.00103896 </v>
   <v>       0.00103896 </v>
   <v>       0.00103896 </v>
   <v>       0.00103896 </v>
   <v>       0.00103896 </v>
   <v>       0.00103896 </v>
   <v>       0.00051948 </v>
   <v>       0.00103896 </v>
   <v>       0.00103896 </v>
   <v>       0.00103896 </v>
   <v>       0.00103896 </v>
   <v>       0.00103896 </v>
   <v>       0.00103896 </v>
   <v>       0.00103896 </v>
   <v>       0.00103896 </v>
   <v>       0.00103896 </v>
   <v>       0.00103896 </v>
   <v>       0.00103896 </v>
   <v>       0.00103896 </v>
   <v>       0.00051948 </v>
   <v>       0.00103896 </v>
   <v>       0.00103896 </v>
   <v>       0.00103896 </v>
   <v>       0.00103896 </v>
   <v>       0.00103896 </v>
   <v>       0.00103896 </v>
   <v>       0.00103896 </v>
   <v>       0.00103896 </v>
   <v>       0.00103896 </v>
   <v>       0.00103896 </v>
   <v>       0.00103896 </v>
   <v>       0.00103896 </v>
   <v>       0.00051948 </v>
   <v>       0.00103896 </v>
   <v>       0.00103896 </v>
   <v>       0.00103896 </v>
   <v>       0.00103896 </v>
   <v>       0.00103896 </v>
   <v>       0.00103896 </v>
   <v>       0.00103896 </v>
   <v>       0.00103896 </v>
   <v>       0.00103896 </v>
   <v>       0.00103896 </v>
   <v>       0.00103896 </v>
   <v>       0.00103896 </v>
   <v>       0.00051948 </v>
   <v>       0.00103896 </v>
   <v>       0.00103896 </v>
   <v>       0.00103896 </v>
   <v>       0.00103896 </v>
   <v>       0.00103896 </v>
   <v>       0.00103896 </v>
   <v>       0.00103896 </v>
   <v>       0.00103896 </v>
   <v>       0.00103896 </v>
   <v>       0.00103896 </v>
   <v>       0.00103896 </v>
   <v>       0.00103896 </v>
   <v>       0.00051948 </v>
   <v>       0.00103896 </v>
   <v>       0.00103896 </v>
   <v>       0.00103896 </v>
   <v>       0.00103896 </v>
   <v>       0.00103896 </v>
   <v>       0.00103896 </v>
   <v>       0.00103896 </v>
   <v>       0.00103896 </v>
   <v>       0.00103896 </v>
   <v>       0.00103896 </v>
   <v>       0.00103896 </v>
   <v>       0.00103896 </v>
   <v>       0.00051948 </v>
   <v>       0.00103896 </v>
   <v>       0.00103896 </v>
   <v>       0.00103896 </v>
   <v>       0.00103896 </v>
   <v>       0.00103896 </v>
   <v>       0.00103896 </v>
   <v>       0.00103896 </v>
   <v>       0.00103896 </v>
   <v>       0.00103896 </v>
   <v>       0.00103896 </v>
   <v>       0.00103896 </v>
   <v>       0.00103896 </v>
   <v>       0.00051948 </v>
   <v>       0.00103896 </v>
   <v>       0.00103896 </v>
   <v>       0.00103896 </v>
   <v>       0.00103896 </v>
   <v>       0.00103896 </v>
   <v>       0.00103896 </v>
   <v>       0.00103896 </v>
   <v>       0.00103896 </v>
   <v>       0.00103896 </v>
   <v>       0.00103896 </v>
   <v>       0.00103896 </v>
   <v>       0.00103896 </v>
   <v>       0.00051948 </v>
   <v>       0.00103896 </v>
   <v>       0.00103896 </v>
   <v>       0.00103896 </v>
   <v>       0.00103896 </v>
   <v>       0.00103896 </v>
   <v>       0.00103896 </v>
   <v>       0.00103896 </v>
   <v>       0.00103896 </v>
   <v>       0.00103896 </v>
   <v>       0.00103896 </v>
   <v>       0.00103896 </v>
   <v>       0.00103896 </v>
   <v>       0.00051948 </v>
   <v>       0.00103896 </v>
   <v>       0.00103896 </v>
   <v>       0.00103896 </v>
   <v>       0.00103896 </v>
   <v>       0.00103896 </v>
   <v>       0.00103896 </v>
   <v>       0.00103896 </v>
   <v>       0.00103896 </v>
   <v>       0.00103896 </v>
   <v>       0.00103896 </v>
   <v>       0.00103896 </v>
   <v>       0.00103896 </v>
   <v>       0.00051948 </v>
   <v>       0.00103896 </v>
   <v>       0.00103896 </v>
   <v>       0.00103896 </v>
   <v>       0.00103896 </v>
   <v>       0.00103896 </v>
   <v>       0.00103896 </v>
   <v>       0.00103896 </v>
   <v>       0.00103896 </v>
   <v>       0.00103896 </v>
   <v>       0.00103896 </v>
   <v>       0.00103896 </v>
   <v>       0.00103896 </v>
   <v>       0.00051948 </v>
   <v>       0.00103896 </v>
   <v>       0.00103896 </v>
   <v>       0.00103896 </v>
   <v>       0.00103896 </v>
   <v>       0.00103896 </v>
   <v>       0.00103896 </v>
   <v>       0.00103896 </v>
   <v>       0.00103896 </v>
   <v>       0.00103896 </v>
   <v>       0.00103896 </v>
   <v>       0.00103896 </v>
   <v>       0.00103896 </v>
[...]
       <r>    5.6505    1.0000 </r>
       <r>    5.8500    1.0000 </r>
       <r>    5.9723    1.0000 </r>
       <r>    6.2143    1.0000 </r>
       <r>    6.2332    1.0000 </r>
       <r>    6.3420    1.0000 </r>
       <r>    6.3851    1.0000 </r>
       <r>    6.3999    1.0000 </r>
       <r>    6.4193    1.0000 </r>
       <r>    6.5100    1.0000 </r>
       <r>    6.6009    1.0000 </r>
       <r>    9.5438    0.0000 </r>
       <r>   10.1473    0.0000 </r>
       <r>   11.2673    0.0000 </r>
       <r>   11.8195    0.0000 </r>
       <r>   12.6702    0.0000 </r>
       <r>   13.0138    0.0000 </r>
       <r>   13.6824    0.0000 </r>
       <r>   13.8442    0.0000 </r>
      </set>
      <set comment="kpoint 1013">
       <r>    1.7894    1.0000 </r>
       <r>    1.9178    1.0000 </r>
       <r>    2.1454    1.0000 </r>
       <r>    2.3634    1.0000 </r>
       <r>    2.4721    1.0000 </r>
       <r>    2.7328    1.0000 </r>
       <r>    2.8211    1.0000 </r>
       <r>    3.0566    1.0000 </r>
       <r>    3.2790    1.0000 </r>
       <r>    3.4958    1.0000 </r>
       <r>    3.6624    1.0000 </r>
       <r>    3.7831    1.0000 </r>
       <r>    3.9189    1.0000 </r>
       <r>    4.0190    1.0000 </r>
       <r>    4.3449    1.0000 </r>
       <r>    4.7317    1.0000 </r>
       <r>    4.9663    1.0000 </r>
       <r>    5.0919    1.0000 </r>
       <r>    5.2067    1.0000 </r>
       <r>    5.4002    1.0000 </r>
       <r>    5.6027    1.0000 </r>
       <r>    5.6641    1.0000 </r>
       <r>    5.8968    1.0000 </r>
       <r>    5.9823    1.0000 </r>
       <r>    6.2443    1.0000 </r>
       <r>    6.2691    1.0000 </r>
       <r>    6.3573    1.0000 </r>
       <r>    6.3889    1.0000 </r>
       <r>    6.4604    1.0000 </r>
       <r>    6.4882    1.0000 </r>
       <r>    6.8958    1.0000 </r>
       <r>    7.0933    1.0000 </r>
       <r>    8.7863   -0.0010 </r>
       <r>    9.3162    0.0000 </r>
       <r>   11.7902    0.0000 </r>
       <r>   12.4012    0.0000 </r>
       <r>   13.0991    0.0000 </r>
       <r>   13.3778    0.0000 </r>
       <r>   14.1262    0.0000 </r>
       <r>   14.3506    0.0000 </r>
      </set>
      <set comment="kpoint 1014">
       <r>    1.8665    1.0000 </r>
       <r>    1.9124    1.0000 </r>
       <r>    2.1037    1.0000 </r>
       <r>    2.3677    1.0000 </r>
       <r>    2.4072    1.0000 </r>
       <r>    2.7760    1.0000 </r>
       <r>    2.8172    1.0000 </r>
       <r>    3.1025    1.0000 </r>
       <r>    3.3693    1.0000 </r>
       <r>    3.5217    1.0000 </r>
       <r>    3.6788    1.0000 </r>
       <r>    3.7629    1.0000 </r>
       <r>    3.9063    1.0000 </r>
       <r>    3.9949    1.0000 </r>
       <r>    4.3489    1.0000 </r>
       <r>    4.7466    1.0000 </r>
       <r>    4.9553    1.0000 </r>
       <r>    5.1405    1.0000 </r>
       <r>    5.2041    1.0000 </r>
       <r>    5.4017    1.0000 </r>
       <r>    5.6037    1.0000 </r>
       <r>    5.6828    1.0000 </r>
       <r>    5.9255    1.0000 </r>
       <r>    5.9757    1.0000 </r>
       <r>    6.2505    1.0000 </r>
       <r>    6.2858    1.0000 </r>
       <r>    6.3646    1.0000 </r>
       <r>    6.3898    1.0000 </r>
       <r>    6.4986    1.0000 </r>
       <r>    6.5084    1.0000 </r>
       <r>    7.4072    1.0064 </r>
       <r>    7.7171    1.0282 </r>
       <r>    8.1188    0.2536 </r>
       <r>    8.5249   -0.0203 </r>
       <r>   12.3601    0.0000 </r>
       <r>   12.8159    0.0000 </r>
       <r>   13.2532    0.0000 </r>
       <r>   13.6542    0.0000 </r>
       <r>   14.2149    0.0000 </r>
       <r>   14.3299    0.0000 </r>
      </set>
     </set>
    </set>
   </array>
  </eigenvalues>
  <separator name="orbital magnetization" >
   <v name="MAGDIPOLOUT">      0.00000000      0.00000000      0.00000000</v>
  </separator>
  <dos>
   <i name="efermi">      8.02683415 </i>
   <total>
    <array>
     <dimension dim="1">gridpoints</dimension>
     <dimension dim="2">spin</dimension>
     <field>energy</field>
     <field>total</field>
     <field>integrated</field>
     <set>
      <set comment="spin 1">
       <r>    -4.3690     0.0000     0.0000 </r>
       <r>    -4.2895     0.0000     0.0000 </r>
       <r>    -4.2099     0.0000     0.0000 </r>
       <r>    -4.1304     0.0000     0.0000 </r>
       <r>    -4.0509     0.0000     0.0000 </r>
       <r>    -3.9714     0.0000     0.0000 </r>
       <r>    -3.8919     0.0000     0.0000 </r>
       <r>    -3.8124     0.0000     0.0000 </r>
       <r>    -3.7329     0.0000     0.0000 </r>
       <r>    -3.6534     0.0000     0.0000 </r>
       <r>    -3.5739     0.0000     0.0000 </r>
       <r>    -3.4944     0.0000     0.0000 </r>
       <r>    -3.4148     0.0000     0.0000 </r>
       <r>    -3.3353     0.0000     0.0000 </r>
       <r>    -3.2558     0.0000     0.0000 </r>
       <r>    -3.1763     0.0000     0.0000 </r>
       <r>    -3.0968     0.0000     0.0000 </r>
       <r>    -3.0173     0.0000     0.0000 </r>
       <r>    -2.9378     0.0000     0.0000 </r>
       <r>    -2.8583     0.0000     0.0000 </r>
       <r>    -2.7788     0.0000     0.0000 </r>
       <r>    -2.6993     0.0000     0.0000 </r>
       <r>    -2.6197     0.0000     0.0000 </r>
       <r>    -2.5402     0.0000     0.0000 </r>
       <r>    -2.4607     0.0000     0.0000 </r>
       <r>    -2.3812     0.0000     0.0000 </r>
       <r>    -2.3017     0.0000     0.0000 </r>
       <r>    -2.2222     0.0000     0.0000 </r>
       <r>    -2.1427     0.0000     0.0000 </r>
       <r>    -2.0632    -0.0002     0.0000 </r>
       <r>    -1.9837    -0.0005    -0.0001 </r>
       <r>    -1.9041    -0.0014    -0.0002 </r>
       <r>    -1.8246    -0.0031    -0.0004 </r>
       <r>    -1.7451    -0.0055    -0.0009 </r>
       <r>    -1.6656    -0.0077    -0.0015 </r>
       <r>    -1.5861    -0.0067    -0.0020 </r>
       <r>    -1.5066     0.0021    -0.0018 </r>
       <r>    -1.4271     0.0237     0.0000 </r>
       <r>    -1.3476     0.0605     0.0049 </r>
       <r>    -1.2681     0.1110     0.0137 </r>
       <r>    -1.1886     0.1700     0.0272 </r>
       <r>    -1.1090     0.2313     0.0456 </r>
       <r>    -1.0295     0.2903     0.0687 </r>
       <r>    -0.9500     0.3446     0.0961 </r>
       <r>    -0.8705     0.3927     0.1273 </r>
       <r>    -0.7910     0.4326     0.1617 </r>
       <r>    -0.7115     0.4627     0.1985 </r>
       <r>    -0.6320     0.4825     0.2368 </r>
       <r>    -0.5525     0.4943     0.2761 </r>
       <r>    -0.4730     0.5012     0.3160 </r>
       <r>    -0.3935     0.5059     0.3562 </r>
       <r>    -0.3139     0.5099     0.3967 </r>
       <r>    -0.2344     0.5150     0.4377 </r>
       <r>    -0.1549     0.5251     0.4794 </r>
       <r>    -0.0754     0.5443     0.5227 </r>
       <r>     0.0041     0.5747     0.5684 </r>
       <r>     0.0836     0.6153     0.6173 </r>
       <r>     0.1631     0.6634     0.6701 </r>
       <r>     0.2426     0.7157     0.7270 </r>
       <r>     0.3221     0.7697     0.7882 </r>
       <r>     0.4017     0.8246     0.8538 </r>
       <r>     0.4812     0.8824     0.9239 </r>
       <r>     0.5607     0.9483     0.9993 </r>
       <r>     0.6402     1.0296     1.0812 </r>
       <r>     0.7197     1.1384     1.1717 </r>
       <r>     0.7992     1.3020     1.2752 </r>
       <r>     0.8787     1.5675     1.3999 </r>
       <r>     0.9582     1.9780     1.5571 </r>
       <r>     1.0377     2.5190     1.7574 </r>
       <r>     1.1172     3.0824     2.0025 </r>
       <r>     1.1968     3.5004     2.2808 </r>
       <r>     1.2763     3.6488     2.5709 </r>
       <r>     1.3558     3.5419     2.8526 </r>
       <r>     1.4353     3.3420     3.1183 </r>
       <r>     1.5148     3.2795     3.3790 </r>
       <r>     1.5943     3.5415     3.6606 </r>
       <r>     1.6738     4.1944     3.9941 </r>
       <r>     1.7533     5.1643     4.4047 </r>
       <r>     1.8328     6.2712     4.9034 </r>
       <r>     1.9124     7.3006     5.4838 </r>
       <r>     1.9919     8.0811     6.1264 </r>
       <r>     2.0714     8.5337     6.8049 </r>
       <r>     2.1509     8.6733     7.4945 </r>
       <r>     2.2304     8.5753     8.1763 </r>
       <r>     2.3099     8.3378     8.8393 </r>
       <r>     2.3894     8.0594     9.4801 </r>
       <r>     2.4689     7.8272    10.1024 </r>
       <r>     2.5484     7.7052    10.7150 </r>
       <r>     2.6279     7.7191    11.3288 </r>
       <r>     2.7075     7.8476    11.9528 </r>
       <r>     2.7870     8.0364    12.5917 </r>
       <r>     2.8665     8.2389    13.2468 </r>
       <r>     2.9460     8.4523    13.9189 </r>
       <r>     3.0255     8.7066    14.6111 </r>
       <r>     3.1050     9.0031    15.3270 </r>
       <r>     3.1845     9.2724    16.0642 </r>
       <r>     3.2640     9.4186    16.8131 </r>
       <r>     3.3435     9.4199    17.5621 </r>
       <r>     3.4230     9.3754    18.3075 </r>
       <r>     3.5026     9.4333    19.0576 </r>
       <r>     3.5821     9.6689    19.8263 </r>
       <r>     3.6616    10.0294    20.6238 </r>
       <r>     3.7411    10.3907    21.4500 </r>
       <r>     3.8206    10.6521    22.2969 </r>
       <r>     3.9001    10.7785    23.1539 </r>
       <r>     3.9796    10.7710    24.0103 </r>
       <r>     4.0591    10.6272    24.8553 </r>
       <r>     4.1386    10.3463    25.6779 </r>
       <r>     4.2182     9.9692    26.4706 </r>
       <r>     4.2977     9.6045    27.2342 </r>
       <r>     4.3772     9.4097    27.9824 </r>
       <r>     4.4567     9.5278    28.7400 </r>
       <r>     4.5362     9.9950    29.5347 </r>
       <r>     4.6157    10.6662    30.3827 </r>
       <r>     4.6952    11.2401    31.2764 </r>
       <r>     4.7747    11.4279    32.1851 </r>
       <r>     4.8542    11.1723    33.0734 </r>
       <r>     4.9337    10.7292    33.9265 </r>
       <r>     5.0133    10.5149    34.7625 </r>
       <r>     5.0928    10.8335    35.6239 </r>
       <r>     5.1723    11.7147    36.5553 </r>
       <r>     5.2518    12.9728    37.5868 </r>
       <r>     5.3313    14.3766    38.7299 </r>
       <r>     5.4108    15.7430    39.9816 </r>
       <r>     5.4903    16.9019    41.3255 </r>
       <r>     5.5698    17.6558    42.7293 </r>
       <r>     5.6493    17.8547    44.1490 </r>
       <r>     5.7288    17.5473    45.5441 </r>
       <r>     5.8084    17.0457    46.8995 </r>
       <r>     5.8879    16.8152    48.2364 </r>
       <r>     5.9674    17.2640    49.6091 </r>
       <r>     6.0469    18.5741    51.0859 </r>
       <r>     6.1264    20.6118    52.7248 </r>
       <r>     6.2059    22.8767    54.5437 </r>
       <r>     6.2854    24.5209    56.4934 </r>
       <r>     6.3649    24.5733    58.4472 </r>
       <r>     6.4444    22.4053    60.2287 </r>
       <r>     6.5240    18.1815    61.6743 </r>
       <r>     6.6035    12.9040    62.7003 </r>
       <r>     6.6830     7.9301    63.3308 </r>
       <r>     6.7625     4.2855    63.6716 </r>
       <r>     6.8420     2.2628    63.8515 </r>
       <r>     6.9215     1.5188    63.9722 </r>
       <r>     7.0010     1.4718    64.0893 </r>
       <r>     7.0805     1.6540    64.2208 </r>
       <r>     7.1600     1.8321    64.3664 </r>
       <r>     7.2395     1.9432    64.5209 </r>
       <r>     7.3191     1.9907    64.6792 </r>
       <r>     7.3986     1.9865    64.8372 </r>
       <r>     7.4781     1.9446    64.9918 </r>
       <r>     7.5576     1.8874    65.1419 </r>
       <r>     7.6371     1.8415    65.2883 </r>
       <r>     7.7166     1.8231    65.4332 </r>
       <r>     7.7961     1.8286    65.5786 </r>
       <r>     7.8756     1.8385    65.7248 </r>
       <r>     7.9551     1.8327    65.8705 </r>
       <r>     8.0346     1.8041    66.0140 </r>
       <r>     8.1142     1.7622    66.1541 </r>
       <r>     8.1937     1.7244    66.2912 </r>
       <r>     8.2732     1.7045    66.4267 </r>
       <r>     8.3527     1.7067    66.5624 </r>
       <r>     8.4322     1.7247    66.6995 </r>
       <r>     8.5117     1.7461    66.8384 </r>
       <r>     8.5912     1.7568    66.9780 </r>
       <r>     8.6707     1.7466    67.1169 </r>
       <r>     8.7502     1.7128    67.2531 </r>
       <r>     8.8298     1.6630    67.3853 </r>
       <r>     8.9093     1.6127    67.5136 </r>
       <r>     8.9888     1.5789    67.6391 </r>
       <r>     9.0683     1.5708    67.7640 </r>
       <r>     9.1478     1.5857    67.8901 </r>
       <r>     9.2273     1.6123    68.0183 </r>
       <r>     9.3068     1.6368    68.1484 </r>
       <r>     9.3863     1.6475    68.2794 </r>
       <r>     9.4658     1.6392    68.4097 </r>
       <r>     9.5453     1.6156    68.5382 </r>
       <r>     9.6249     1.5897    68.6646 </r>
       <r>     9.7044     1.5761    68.7899 </r>
       <r>     9.7839     1.5799    68.9155 </r>
       <r>     9.8634     1.5918    69.0421 </r>
       <r>     9.9429     1.5947    69.1689 </r>
       <r>    10.0224     1.5775    69.2943 </r>
       <r>    10.1019     1.5436    69.4170 </r>
       <r>    10.1814     1.5058    69.5368 </r>
       <r>    10.2609     1.4737    69.6539 </r>
       <r>    10.3404     1.4463    69.7689 </r>
       <r>    10.4200     1.4156    69.8815 </r>
       <r>    10.4995     1.3777    69.9910 </r>
       <r>    10.5790     1.3399    70.0976 </r>
       <r>    10.6585     1.3188    70.2024 </r>
       <r>    10.7380     1.3313    70.3083 </r>
       <r>    10.8175     1.3856    70.4185 </r>
       <r>    10.8970     1.4765    70.5358 </r>
       <r>    10.9765     1.5861    70.6620 </r>
       <r>    11.0560     1.6925    70.7965 </r>
       <r>    11.1356     1.7790    70.9380 </r>
       <r>    11.2151     1.8392    71.0842 </r>
       <r>    11.2946     1.8729    71.2331 </r>
       <r>    11.3741     1.8792    71.3825 </r>
       <r>    11.4536     1.8584    71.5303 </r>
       <r>    11.5331     1.8185    71.6749 </r>
       <r>    11.6126     1.7780    71.8163 </r>
       <r>    11.6921     1.7567    71.9559 </r>
       <r>    11.7716     1.7626    72.0961 </r>
       <r>    11.8511     1.7881    72.2383 </r>
       <r>    11.9307     1.8180    72.3828 </r>
       <r>    12.0102     1.8414    72.5292 </r>
       <r>    12.0897     1.8574    72.6769 </r>
       <r>    12.1692     1.8699    72.8256 </r>
       <r>    12.2487     1.8792    72.9750 </r>
       <r>    12.3282     1.8770    73.1242 </r>
       <r>    12.4077     1.8508    73.2714 </r>
       <r>    12.4872     1.7942    73.4141 </r>
       <r>    12.5667     1.7154    73.5504 </r>
       <r>    12.6462     1.6371    73.6806 </r>
       <r>    12.7258     1.5849    73.8066 </r>
       <r>    12.8053     1.5729    73.9317 </r>
       <r>    12.8848     1.5969    74.0587 </r>
       <r>    12.9643     1.6393    74.1890 </r>
       <r>    13.0438     1.6812    74.3227 </r>
       <r>    13.1233     1.7124    74.4588 </r>
       <r>    13.2028     1.7319    74.5965 </r>
       <r>    13.2823     1.7410    74.7350 </r>
       <r>    13.3618     1.7367    74.8731 </r>
       <r>    13.4414     1.7147    75.0094 </r>
       <r>    13.5209     1.6771    75.1427 </r>
       <r>    13.6004     1.6384    75.2730 </r>
       <r>    13.6799     1.6229    75.4020 </r>
       <r>    13.7594     1.6531    75.5335 </r>
       <r>    13.8389     1.7372    75.6716 </r>
       <r>    13.9184     1.8635    75.8198 </r>
       <r>    13.9979     2.0053    75.9792 </r>
       <r>    14.0774     2.1343    76.1489 </r>
       <r>    14.1569     2.2319    76.3264 </r>
       <r>    14.2365     2.2921    76.5086 </r>
       <r>    14.3160     2.3157    76.6927 </r>
       <r>    14.3955     2.3051    76.8760 </r>
       <r>    14.4750     2.2634    77.0560 </r>
       <r>    14.5545     2.1966    77.2306 </r>
       <r>    14.6340     2.1140    77.3987 </r>
       <r>    14.7135     2.0265    77.5598 </r>
       <r>    14.7930     1.9437    77.7144 </r>
       <r>    14.8725     1.8695    77.8630 </r>
       <r>    14.9520     1.7983    78.0060 </r>
       <r>    15.0316     1.7198    78.1428 </r>
       <r>    15.1111     1.6291    78.2723 </r>
       <r>    15.1906     1.5334    78.3942 </r>
       <r>    15.2701     1.4463    78.5092 </r>
       <r>    15.3496     1.3766    78.6187 </r>
       <r>    15.4291     1.3213    78.7237 </r>
       <r>    15.5086     1.2728    78.8249 </r>
       <r>    15.5881     1.2285    78.9226 </r>
       <r>    15.6676     1.1949    79.0176 </r>
       <r>    15.7472     1.1812    79.1115 </r>
       <r>    15.8267     1.1935    79.2064 </r>
       <r>    15.9062     1.2343    79.3046 </r>
       <r>    15.9857     1.3028    79.4082 </r>
       <r>    16.0652     1.3859    79.5184 </r>
       <r>    16.1447     1.4462    79.6333 </r>
       <r>    16.2242     1.4253    79.7467 </r>
       <r>    16.3037     1.2751    79.8480 </r>
       <r>    16.3832     0.9964    79.9273 </r>
       <r>    16.4627     0.6510    79.9790 </r>
       <r>    16.5423     0.3297    80.0052 </r>
       <r>    16.6218     0.1012    80.0133 </r>
       <r>    16.7013    -0.0175    80.0119 </r>
       <r>    16.7808    -0.0531    80.0077 </r>
       <r>    16.8603    -0.0463    80.0040 </r>
       <r>    16.9398    -0.0283    80.0017 </r>
       <r>    17.0193    -0.0137    80.0006 </r>
       <r>    17.0988    -0.0055    80.0002 </r>
       <r>    17.1783    -0.0019    80.0001 </r>
       <r>    17.2579    -0.0006    80.0000 </r>
       <r>    17.3374    -0.0001    80.0000 </r>
       <r>    17.4169     0.0000    80.0000 </r>
       <r>    17.4964     0.0000    80.0000 </r>
       <r>    17.5759     0.0000    80.0000 </r>
       <r>    17.6554     0.0000    80.0000 </r>
       <r>    17.7349     0.0000    80.0000 </r>
       <r>    17.8144     0.0000    80.0000 </r>
       <r>    17.8939     0.0000    80.0000 </r>
       <r>    17.9734     0.0000    80.0000 </r>
       <r>    18.0530     0.0000    80.0000 </r>
       <r>    18.1325     0.0000    80.0000 </r>
       <r>    18.2120     0.0000    80.0000 </r>
       <r>    18.2915     0.0000    80.0000 </r>
       <r>    18.3710     0.0000    80.0000 </r>
       <r>    18.4505     0.0000    80.0000 </r>
       <r>    18.5300     0.0000    80.0000 </r>
       <r>    18.6095     0.0000    80.0000 </r>
       <r>    18.6890     0.0000    80.0000 </r>
       <r>    18.7685     0.0000    80.0000 </r>
       <r>    18.8481     0.0000    80.0000 </r>
       <r>    18.9276     0.0000    80.0000 </r>
       <r>    19.0071     0.0000    80.0000 </r>
       <r>    19.0866     0.0000    80.0000 </r>
       <r>    19.1661     0.0000    80.0000 </r>
       <r>    19.2456     0.0000    80.0000 </r>
       <r>    19.3251     0.0000    80.0000 </r>
       <r>    19.4046     0.0000    80.0000 </r>
       <r>    19.4841     0.0000    80.0000 </r>
      </set>
     </set>
    </array>
   </total>
  </dos>
 </calculation>
 <structure name="finalpos" >
  <crystal>
   <varray name="basis" >
    <v>       0.00000000      -2.01454689      -2.01454689 </v>
    <v>      -3.94647463       2.00124425      -2.00124425 </v>
    <v>       3.78691393       3.84129479      -3.84129479 </v>
   </varray>
   <i name="volume">     91.61398594 </i>
   <varray name="rec_basis" >
    <v>       0.00000000      -0.24819477      -0.24819477 </v>
    <v>      -0.16893640       0.08327239      -0.08327239 </v>
    <v>       0.08801277       0.08678105      -0.08678105 </v>
   </varray>
  </crystal>
  <varray name="positions" >
   <v>       0.00000000       0.64542463       0.66508161 </v>
   <v>       0.00000000       0.33265086       0.34510613 </v>
   <v>       0.50000000       0.18775110       0.65502712 </v>
   <v>       0.00000000       0.00055926       0.97799372 </v>
   <v>       0.50000000       0.83657351       0.35665567 </v>
   <v>       0.50000000       0.49704064       0.00013575 </v>
  </varray>
 </structure>
</modeling>
