<?xml version="1.0" encoding="ISO-8859-1"?>
<modeling>
 <generator>
  <i name="program" type="string">vasp </i>
  <i name="version" type="string">5.3.5  </i>
  <i name="subversion" type="string">31Mar14 (build Jun 20 2014 13:15:13) complex                          parallel </i>
  <i name="platform" type="string">LinuxIFC </i>
  <i name="date" type="string">2025 12 16 </i>
  <i name="time" type="string">17:51:54 </i>
 </generator>
 <incar>
  <i type="string" name="PREC">accurate</i>
  <i type="int" name="IALGO">    68</i>
  <i type="logical" name="ADDGRID"> T  </i>
  <i type="int" name="NELM">   100</i>
  <i type="int" name="NELMIN">     4</i>
  <i type="int" name="IBRION">     2</i>
  <i name="EDIFF">      0.00000100</i>
  <i name="EDIFFG">     -0.02000000</i>
  <i type="int" name="NSW">    30</i>
  <i type="int" name="ISIF">     3</i>
  <i name="ENCUT">    600.00000000</i>
  <i type="logical" name="LREAL"> F  </i>
  <i type="int" name="ISMEAR">     0</i>
  <i name="SIGMA">      0.10000000</i>
  <i type="logical" name="LWAVE"> F  </i>
  <i type="logical" name="LCHARG"> F  </i>
  <i type="int" name="NELM">   100</i>
 </incar>
 <kpoints>
  <generation param="Auto">
   <i name="subdivisionlength">     20.00000000 </i>
   <v type="int" name="divisions">       4        4        4 </v>
   <v name="usershift">      0.00000000       0.00000000       0.00000000 </v>
   <v name="genvec1">      0.25000000       0.00000000       0.00000000 </v>
   <v name="genvec2">      0.00000000       0.25000000       0.00000000 </v>
   <v name="genvec3">      0.00000000       0.00000000       0.25000000 </v>
   <v name="shift">      0.00000000       0.00000000       0.00000000 </v>
  </generation>
  <varray name="kpointlist" >
   <v>       0.00000000       0.00000000       0.00000000 </v>
   <v>       0.25000000       0.00000000       0.00000000 </v>
   <v>       0.50000000       0.00000000       0.00000000 </v>
   <v>       0.00000000       0.25000000       0.00000000 </v>
   <v>       0.25000000       0.25000000       0.00000000 </v>
   <v>       0.50000000       0.25000000       0.00000000 </v>
   <v>      -0.25000000       0.25000000       0.00000000 </v>
   <v>       0.00000000       0.50000000       0.00000000 </v>
   <v>       0.25000000       0.50000000       0.00000000 </v>
   <v>       0.50000000       0.50000000       0.00000000 </v>
   <v>       0.00000000       0.00000000       0.25000000 </v>
   <v>       0.25000000       0.00000000       0.25000000 </v>
   <v>       0.50000000       0.00000000       0.25000000 </v>
   <v>      -0.25000000       0.00000000       0.25000000 </v>
   <v>       0.00000000       0.25000000       0.25000000 </v>
   <v>       0.25000000       0.25000000       0.25000000 </v>
   <v>       0.50000000       0.25000000       0.25000000 </v>
   <v>      -0.25000000       0.25000000       0.25000000 </v>
   <v>       0.00000000       0.50000000       0.25000000 </v>
   <v>       0.25000000       0.50000000       0.25000000 </v>
   <v>       0.50000000       0.50000000       0.25000000 </v>
   <v>      -0.25000000       0.50000000       0.25000000 </v>
   <v>       0.00000000      -0.25000000       0.25000000 </v>
   <v>       0.25000000      -0.25000000       0.25000000 </v>
   <v>       0.50000000      -0.25000000       0.25000000 </v>
   <v>      -0.25000000      -0.25000000       0.25000000 </v>
   <v>       0.00000000       0.00000000       0.50000000 </v>
   <v>       0.25000000       0.00000000       0.50000000 </v>
   <v>       0.50000000       0.00000000       0.50000000 </v>
   <v>       0.00000000       0.25000000       0.50000000 </v>
   <v>       0.25000000       0.25000000       0.50000000 </v>
   <v>       0.50000000       0.25000000       0.50000000 </v>
   <v>      -0.25000000       0.25000000       0.50000000 </v>
   <v>       0.00000000       0.50000000       0.50000000 </v>
   <v>       0.25000000       0.50000000       0.50000000 </v>
   <v>       0.50000000       0.50000000       0.50000000 </v>
  </varray>
  <varray name="weights" >
   <v>       0.01562500 </v>
   <v>       0.03125000 </v>
   <v>       0.01562500 </v>
   <v>       0.03125000 </v>
   <v>       0.03125000 </v>
   <v>       0.03125000 </v>
   <v>       0.03125000 </v>
   <v>       0.01562500 </v>
   <v>       0.03125000 </v>
   <v>       0.01562500 </v>
   <v>       0.03125000 </v>
   <v>       0.03125000 </v>
   <v>       0.03125000 </v>
   <v>       0.03125000 </v>
   <v>       0.03125000 </v>
   <v>       0.03125000 </v>
   <v>       0.03125000 </v>
   <v>       0.03125000 </v>
   <v>       0.03125000 </v>
   <v>       0.03125000 </v>
   <v>       0.03125000 </v>
   <v>       0.03125000 </v>
   <v>       0.03125000 </v>
   <v>       0.03125000 </v>
   <v>       0.03125000 </v>
   <v>       0.03125000 </v>
   <v>       0.01562500 </v>
   <v>       0.03125000 </v>
   <v>       0.01562500 </v>
   <v>       0.03125000 </v>
   <v>       0.03125000 </v>
   <v>       0.03125000 </v>
   <v>       0.03125000 </v>
   <v>       0.01562500 </v>
   <v>       0.03125000 </v>
   <v>       0.01562500 </v>
  </varray>
 </kpoints>
 <parameters>
  <separator name="general" >
   <i type="string" name="SYSTEM">unknown system</i>
   <i type="logical" name="LCOMPAT"> F  </i>
  </separator>
  <separator name="electronic" >
   <i type="string" name="PREC">accura</i>
   <i name="ENMAX">    600.00000000</i>
   <i name="ENAUG">    644.87300000</i>
   <i name="EDIFF">      0.00000100</i>
   <i type="int" name="IALGO">    68</i>
   <i type="int" name="IWAVPR">    11</i>
   <i type="int" name="NBANDS">    44</i>
   <i name="NELECT">     64.00000000</i>
   <i type="int" name="TURBO">     0</i>
   <i type="int" name="IRESTART">     0</i>
   <i type="int" name="NREBOOT">     0</i>
   <i type="int" name="NMIN">     0</i>
   <i name="EREF">      0.00000000</i>
   <separator name="electronic smearing" >
    <i type="int" name="ISMEAR">     0</i>
    <i name="SIGMA">      0.10000000</i>
    <i name="KSPACING">      0.50000000</i>
    <i type="logical" name="KGAMMA"> T  </i>
   </separator>
   <separator name="electronic projectors" >
    <i type="logical" name="LREAL"> F  </i>
    <v name="ROPT">      0.00000000      0.00000000      0.00000000      0.00000000</v>
    <i type="int" name="LMAXPAW">  -100</i>
    <i type="int" name="LMAXMIX">     2</i>
    <i type="logical" name="NLSPLINE"> F  </i>
   </separator>
   <separator name="electronic startup" >
    <i type="int" name="ISTART">     0</i>
    <i type="int" name="ICHARG">     2</i>
    <i type="int" name="INIWAV">     1</i>
   </separator>
   <separator name="electronic spin" >
    <i type="int" name="ISPIN">     1</i>
    <i type="logical" name="LNONCOLLINEAR"> F  </i>
    <v name="MAGMOM">      1.00000000      1.00000000      1.00000000      1.00000000      1.00000000      1.00000000      1.00000000      1.00000000      1.00000000      1.00000000      1.00000000      1.00000000      1.00000000      1.00000000      1.00000000      1.00000000</v>
    <i name="NUPDOWN">     -1.00000000</i>
    <i type="logical" name="LSORBIT"> F  </i>
    <v name="SAXIS">      0.00000000      0.00000000      1.00000000</v>
    <i type="logical" name="LSPIRAL"> F  </i>
    <v name="QSPIRAL">      0.00000000      0.00000000      0.00000000</v>
    <i type="logical" name="LZEROZ"> F  </i>
   </separator>
   <separator name="electronic exchange-correlation" >
    <i type="logical" name="LASPH"> F  </i>
    <i type="logical" name="LMETAGGA"> F  </i>
   </separator>
   <separator name="electronic convergence" >
    <i type="int" name="NELM">   100</i>
    <i type="int" name="NELMDL">     0</i>
    <i type="int" name="NELMIN">     4</i>
    <i name="ENINI">    600.00000000</i>
    <separator name="electronic convergence detail" >
     <i type="logical" name="LDIAG"> T  </i>
     <i type="logical" name="LSUBROT"> F  </i>
     <i name="WEIMIN">      0.00100000</i>
     <i name="EBREAK">      0.00000001</i>
     <i name="DEPER">      0.30000000</i>
     <i type="int" name="NRMM">     4</i>
     <i name="TIME">      0.40000000</i>
    </separator>
   </separator>
   <separator name="electronic mixer" >
    <i name="AMIX">      0.40000000</i>
    <i name="BMIX">      1.00000000</i>
    <i name="AMIN">      0.10000000</i>
    <i name="AMIX_MAG">      1.60000000</i>
    <i name="BMIX_MAG">      1.00000000</i>
    <separator name="electronic mixer details" >
     <i type="int" name="IMIX">     4</i>
     <i type="int" name="MAXMIX">   -45</i>
     <i name="WC">    100.00000000</i>
     <i type="int" name="INIMIX">     1</i>
     <i type="int" name="MIXPRE">     1</i>
     <i type="int" name="MREMOVE">     5</i>
    </separator>
   </separator>
   <separator name="electronic dipolcorrection" >
    <i type="logical" name="LDIPOL"> F  </i>
    <i type="logical" name="LMONO"> F  </i>
    <i type="int" name="IDIPOL">     0</i>
    <i name="EPSILON">      1.00000000</i>
    <v name="DIPOL">   -100.00000000   -100.00000000   -100.00000000</v>
    <i name="EFIELD">      0.00000000</i>
   </separator>
  </separator>
  <separator name="grids" >
   <i type="int" name="NGX">    48</i>
   <i type="int" name="NGY">    48</i>
   <i type="int" name="NGZ">    48</i>
   <i type="int" name="NGXF">    96</i>
   <i type="int" name="NGYF">    96</i>
   <i type="int" name="NGZF">    96</i>
   <i type="logical" name="ADDGRID"> T  </i>
  </separator>
  <separator name="ionic" >
   <i type="int" name="NSW">    30</i>
   <i type="int" name="IBRION">     2</i>
   <i type="int" name="ISIF">     3</i>
   <i name="PSTRESS">      0.00000000</i>
   <i name="EDIFFG">     -0.02000000</i>
   <i type="int" name="NFREE">     1</i>
   <i name="POTIM">      0.50000000</i>
   <i name="SMASS">     -3.00000000</i>
   <i name="SCALEE">      1.00000000</i>
  </separator>
  <separator name="ionic md" >
   <i name="TEBEG">      0.00010000</i>
   <i name="TEEND">      0.00010000</i>
   <i type="int" name="NBLOCK">     1</i>
   <i type="int" name="KBLOCK">    30</i>
   <i type="int" name="NPACO">   256</i>
   <i name="APACO">     16.00000000</i>
  </separator>
  <separator name="symmetry" >
   <i type="int" name="ISYM">     2</i>
   <i name="SYMPREC">      0.00001000</i>
  </separator>
  <separator name="dos" >
   <i type="logical" name="LORBIT"> F  </i>
   <v name="RWIGS">     -1.00000000     -1.00000000     -1.00000000     -1.00000000</v>
   <i type="int" name="NEDOS">   301</i>
   <i name="EMIN">     10.00000000</i>
   <i name="EMAX">    -10.00000000</i>
   <i name="EFERMI">      0.00000000</i>
  </separator>
  <separator name="writing" >
   <i type="int" name="NWRITE">     2</i>
   <i type="logical" name="LWAVE"> F  </i>
   <i type="logical" name="LCHARG"> F  </i>
   <i type="logical" name="LPARD"> F  </i>
   <i type="logical" name="LVTOT"> F  </i>
   <i type="logical" name="LVHAR"> F  </i>
   <i type="logical" name="LELF"> F  </i>
   <i type="logical" name="LOPTICS"> F  </i>
   <v name="STM">      0.00000000      0.00000000      0.00000000      0.00000000      0.00000000      0.00000000      0.00000000</v>
  </separator>
  <separator name="performance" >
   <i type="int" name="NPAR">     4</i>
   <i type="int" name="NSIM">     4</i>
   <i type="int" name="NBLK">    -1</i>
   <i type="logical" name="LPLANE"> T  </i>
   <i type="logical" name="LSCALAPACK"> T  </i>
   <i type="logical" name="LSCAAWARE"> F  </i>
   <i type="logical" name="LSCALU"> F  </i>
   <i type="logical" name="LASYNC"> F  </i>
   <i type="logical" name="LORBITALREAL"> F  </i>
  </separator>
  <separator name="miscellaneous" >
   <i type="int" name="IDIOT">     3</i>
   <i type="logical" name="LMUSIC"> F  </i>
   <v name="POMASS">     28.08500000     26.98100000     12.01100000     14.00100000</v>
   <v name="DARWINR">      0.00000000      0.00000000      0.00000000      0.00000000</v>
   <v name="DARWINV">      1.00000000      1.00000000      1.00000000      1.00000000</v>
   <i type="logical" name="LCORR"> T  </i>
  </separator>
  <i type="logical" name="GGA_COMPAT"> T  </i>
  <i type="logical" name="LBERRY"> F  </i>
  <i type="int" name="ICORELEVEL">     0</i>
  <i type="logical" name="LDAU"> F  </i>
  <i type="int" name="I_CONSTRAINED_M">     0</i>
  <separator name="electronic exchange-correlation" >
   <i type="string" name="GGA">--</i>
   <i type="int" name="VOSKOWN">     0</i>
   <i type="logical" name="LHFCALC"> F  </i>
   <i type="string" name="PRECFOCK"></i>
   <i type="logical" name="LSYMGRAD"> F  </i>
   <i type="logical" name="LHFONE"> F  </i>
   <i type="logical" name="LRHFCALC"> F  </i>
   <i type="logical" name="LTHOMAS"> F  </i>
   <i type="logical" name="LMODELHF"> F  </i>
   <i name="ENCUT4O">     -1.00000000</i>
   <i type="int" name="EXXOEP">     0</i>
   <i type="int" name="FOURORBIT">     0</i>
   <i name="AEXX">      0.00000000</i>
   <i name="HFALPHA">      0.00000000</i>
   <i name="MCALPHA">      0.00000000</i>
   <i name="ALDAX">      1.00000000</i>
   <i name="AGGAX">      1.00000000</i>
   <i name="ALDAC">      1.00000000</i>
   <i name="AGGAC">      1.00000000</i>
   <i type="int" name="NKREDX">     1</i>
   <i type="int" name="NKREDY">     1</i>
   <i type="int" name="NKREDZ">     1</i>
   <i type="logical" name="SHIFTRED"> F  </i>
   <i type="logical" name="ODDONLY"> F  </i>
   <i type="logical" name="EVENONLY"> F  </i>
   <i type="int" name="LMAXFOCK">     0</i>
   <i type="int" name="NMAXFOCKAE">     0</i>
   <i type="logical" name="LFOCKAEDFT"> F  </i>
   <i name="HFSCREEN">      0.00000000</i>
   <i name="HFSCREENC">      0.00000000</i>
   <i type="int" name="NBANDSGWLOW">     0</i>
  </separator>
  <separator name="vdW DFT" >
   <i type="logical" name="LUSE_VDW"> F  </i>
   <i name="Zab_VDW">     -0.84910000</i>
   <i name="PARAM1">      0.12340000</i>
   <i name="PARAM2">      1.00000000</i>
   <i name="PARAM3">      0.00000000</i>
  </separator>
  <separator name="model GW" >
   <i type="int" name="MODEL_GW">     0</i>
   <i name="MODEL_EPS0">      6.40209253</i>
   <i name="MODEL_ALPHA">      1.00000000</i>
  </separator>
  <separator name="linear response parameters" >
   <i type="logical" name="LEPSILON"> F  </i>
   <i type="logical" name="LRPA"> F  </i>
   <i type="logical" name="LNABLA"> F  </i>
   <i type="logical" name="LVEL"> F  </i>
   <i type="int" name="KINTER">     0</i>
   <i name="CSHIFT">      0.10000000</i>
   <i name="OMEGAMAX">     -1.00000000</i>
   <i name="DEG_THRESHOLD">      0.00200000</i>
  </separator>
  <separator name="orbital magnetization" >
   <i type="logical" name="NUCIND"> F  </i>
   <v name="MAGPOS">      0.00000000      0.00000000      0.00000000</v>
   <i type="logical" name="LNICSALL"> T  </i>
   <i type="logical" name="ORBITALMAG"> F  </i>
   <i type="logical" name="LMAGBLOCH"> F  </i>
   <i type="logical" name="LCHIMAG"> F  </i>
   <i type="logical" name="LGAUGE"> T  </i>
   <i type="int" name="MAGATOM">     0</i>
   <v name="MAGDIPOL">      0.00000000      0.00000000      0.00000000</v>
   <v name="AVECCONST">      0.00000000      0.00000000      0.00000000</v>
  </separator>
  <separator name="response functions" >
   <i type="logical" name="LADDER"> F  </i>
   <i type="logical" name="LFXC"> F  </i>
   <i type="logical" name="LHARTREE"> T  </i>
   <i type="int" name="IBSE">     0</i>
   <i type="logical" name="LTCTE"> F  </i>
   <i type="logical" name="LTETE"> F  </i>
   <i type="logical" name="LTRIPLET"> F  </i>
   <i type="logical" name="LFXCEPS"> F  </i>
   <i type="logical" name="LFXHEG"> F  </i>
   <i type="logical" name="L2ORDER"> F  </i>
   <i type="logical" name="LUSEW"> F  </i>
   <i name="ENCUTGW">     -2.00000000</i>
   <i name="ENCUTGWSOFT">     -2.00000000</i>
   <i name="ENCUTLF">     -1.00000000</i>
   <i type="int" name="LMAXMP2">    -1</i>
   <i name="SCISSOR">      0.00000000</i>
   <i type="int" name="NOMEGA">     0</i>
   <i type="int" name="NOMEGAR">     0</i>
   <i type="int" name="NBANDSGW">    -1</i>
   <i type="int" name="NBANDSO">    -1</i>
   <i type="int" name="NBANDSV">    -1</i>
   <i type="int" name="NELM">   100</i>
   <i type="int" name="DIM">     3</i>
   <i type="int" name="ANTIRES">     0</i>
   <i name="OMEGAMAX">    -30.00000000</i>
   <i name="OMEGAMIN">    -30.00000000</i>
   <i name="OMEGATL">   -200.00000000</i>
   <i type="int" name="OMEGAGRID">     0</i>
   <i name="CSHIFT">     -0.10000000</i>
   <i type="logical" name="SELFENERGY"> F  </i>
   <i type="logical" name="LSPECTRAL"> F  </i>
   <i type="logical" name="ODDONLYGW"> F  </i>
   <i type="logical" name="EVENONLYGW"> F  </i>
   <i type="int" name="NKREDLFX">     1</i>
   <i type="int" name="NKREDLFY">     1</i>
   <i type="int" name="NKREDLFZ">     1</i>
   <i type="int" name="MAXMEM">  1800</i>
   <i type="int" name="TELESCOPE">     0</i>
   <i type="int" name="TAUPAR">     1</i>
  </separator>
  <separator name="External order field" >
   <i name="OFIELD_KAPPA">      0.00000000</i>
   <v name="OFIELD_K">      0.00000000      0.00000000      0.00000000</v>
   <i name="OFIELD_Q6_NEAR">      0.00000000</i>
   <i name="OFIELD_Q6_FAR">      0.00000000</i>
   <i name="OFIELD_A">      0.00000000</i>
  </separator>
 </parameters>
 <atominfo>
  <atoms>      16 </atoms>
  <types>       4 </types>
  <array name="atoms" >
   <dimension dim="1">ion</dimension>
   <field type="string">element</field>
   <field type="int">atomtype</field>
   <set>
    <rc><c>Si</c><c>   1</c></rc>
    <rc><c>Si</c><c>   1</c></rc>
    <rc><c>Si</c><c>   1</c></rc>
    <rc><c>Al</c><c>   2</c></rc>
    <rc><c>Al</c><c>   2</c></rc>
    <rc><c>Al</c><c>   2</c></rc>
    <rc><c>Al</c><c>   2</c></rc>
    <rc><c>Al</c><c>   2</c></rc>
    <rc><c>C </c><c>   3</c></rc>
    <rc><c>C </c><c>   3</c></rc>
    <rc><c>C </c><c>   3</c></rc>
    <rc><c>N </c><c>   4</c></rc>
    <rc><c>N </c><c>   4</c></rc>
    <rc><c>N </c><c>   4</c></rc>
    <rc><c>N </c><c>   4</c></rc>
    <rc><c>N </c><c>   4</c></rc>
   </set>
  </array>
  <array name="atomtypes" >
   <dimension dim="1">type</dimension>
   <field type="int">atomspertype</field>
   <field type="string">element</field>
   <field>mass</field>
   <field>valence</field>
   <field type="string">pseudopotential</field>
   <set>
    <rc><c>   3</c><c>Si</c><c>     28.08500000</c><c>      4.00000000</c><c>  PAW_PBE Si 05Jan2001                  </c></rc>
    <rc><c>   5</c><c>Al</c><c>     26.98100000</c><c>      3.00000000</c><c>  PAW_PBE Al 04Jan2001                  </c></rc>
    <rc><c>   3</c><c>C </c><c>     12.01100000</c><c>      4.00000000</c><c>  PAW_PBE C 08Apr2002                   </c></rc>
    <rc><c>   5</c><c>N </c><c>     14.00100000</c><c>      5.00000000</c><c>  PAW_PBE N_s 07Sep2000                 </c></rc>
   </set>
  </array>
 </atominfo>
 <structure name="initialpos" >
  <crystal>
   <varray name="basis" >
    <v>       5.41251120       0.01464186       0.00295697 </v>
    <v>       0.01611027       5.90580059      -0.03465648 </v>
    <v>      -0.00425233      -2.61915543       5.35629414 </v>
   </varray>
   <i name="volume">    170.72246750 </i>
   <varray name="rec_basis" >
    <v>       0.18475854      -0.00050458      -0.00010006 </v>
    <v>      -0.00050474       0.16981370       0.08303621 </v>
    <v>      -0.00010526       0.00109901       0.18723356 </v>
   </varray>
  </crystal>
  <varray name="positions" >
   <v>       0.83710429       0.74771951       0.73751034 </v>
   <v>       0.17777412       0.49328773       0.00395243 </v>
   <v>       0.66937041       0.24720859       0.74496602 </v>
   <v>       0.32870376       0.00395965       0.98815465 </v>
   <v>       0.83402519       0.26124204       0.25563596 </v>
   <v>       0.33079094       0.50017190       0.50361895 </v>
   <v>       0.65944677       0.75204016       0.25265586 </v>
   <v>       0.16430187       0.99738206       0.49734870 </v>
   <v>       0.34591163       0.31007141       0.70850935 </v>
   <v>       0.16646703       0.31874132       0.18595398 </v>
   <v>       0.66764423       0.57776984       0.45645060 </v>
   <v>       0.32141845       0.80138290       0.17298298 </v>
   <v>       0.82338894       0.07022619       0.45105534 </v>
   <v>       0.84538641       0.55793555       0.92546713 </v>
   <v>       0.14621916       0.80878247       0.69269679 </v>
   <v>       0.68204682       0.05207868       0.92304091 </v>
  </varray>
 </structure>
 <calculation>
  <scstep>
   <time name="dav">    1.19    1.19</time>
   <time name="total">    1.29    1.30</time>
   <energy>
    <i name="alphaZ">     57.92928028 </i>
    <i name="ewald">  -2282.14862845 </i>
    <i name="hartreedc">   -397.94584753 </i>
    <i name="XCdc">    -15.98222890 </i>
    <i name="pawpsdc">   1945.63031815 </i>
    <i name="pawaedc">  -1740.71259224 </i>
    <i name="eentropy">     -0.01416780 </i>
    <i name="bandstr">    454.57033504 </i>
    <i name="atom">   2341.07853652 </i>
    <i name="e_fr_energy">    362.40500507 </i>
    <i name="e_wo_entrp">    362.41917287 </i>
    <i name="e_0_energy">    362.41208897 </i>
   </energy>
  </scstep>
  <scstep>
   <time name="dav">    1.60    1.60</time>
   <time name="total">    1.60    1.62</time>
   <energy>
    <i name="e_fr_energy">    -99.86855312 </i>
    <i name="e_wo_entrp">    -99.86855312 </i>
    <i name="e_0_energy">    -99.86855312 </i>
   </energy>
  </scstep>
  <scstep>
   <time name="dav">    1.43    1.43</time>
   <time name="total">    1.43    1.44</time>
   <energy>
    <i name="e_fr_energy">   -134.53448348 </i>
    <i name="e_wo_entrp">   -134.53448348 </i>
    <i name="e_0_energy">   -134.53448348 </i>
   </energy>
  </scstep>
  <scstep>
   <time name="dav">    1.41    1.41</time>
   <time name="total">    1.41    1.42</time>
   <energy>
    <i name="e_fr_energy">   -135.39330487 </i>
    <i name="e_wo_entrp">   -135.39330487 </i>
    <i name="e_0_energy">   -135.39330487 </i>
   </energy>
  </scstep>
  <scstep>
   <time name="dav">    1.61    1.61</time>
   <time name="total">    1.76    1.77</time>
   <energy>
    <i name="e_fr_energy">   -135.41852133 </i>
    <i name="e_wo_entrp">   -135.41852133 </i>
    <i name="e_0_energy">   -135.41852133 </i>
   </energy>
  </scstep>
  <scstep>
   <time name="diag">    0.27    0.27</time>
   <time name="diis">    0.89    0.89</time>
   <time name="orth">    0.04    0.04</time>
   <time name="total">    1.44    1.46</time>
   <energy>
    <i name="e_fr_energy">   -116.84776231 </i>
    <i name="e_wo_entrp">   -116.84776231 </i>
    <i name="e_0_energy">   -116.84776231 </i>
   </energy>
  </scstep>
  <scstep>
   <time name="diag">    0.27    0.27</time>
   <time name="diis">    0.95    0.95</time>
   <time name="orth">    0.04    0.04</time>
   <time name="total">    1.50    1.51</time>
   <energy>
    <i name="e_fr_energy">   -116.79641396 </i>
    <i name="e_wo_entrp">   -116.79641396 </i>
    <i name="e_0_energy">   -116.79641396 </i>
   </energy>
  </scstep>
  <scstep>
   <time name="diag">    0.27    0.27</time>
   <time name="diis">    0.89    0.89</time>
   <time name="orth">    0.04    0.04</time>
   <time name="total">    1.44    1.46</time>
   <energy>
    <i name="e_fr_energy">   -117.19974375 </i>
    <i name="e_wo_entrp">   -117.19974375 </i>
    <i name="e_0_energy">   -117.19974375 </i>
   </energy>
  </scstep>
  <scstep>
   <time name="diag">    0.54    0.54</time>
   <time name="diis">    0.89    0.89</time>
   <time name="orth">    0.04    0.04</time>
   <time name="total">    1.71    1.73</time>
   <energy>
    <i name="e_fr_energy">   -116.67268085 </i>
    <i name="e_wo_entrp">   -116.67268085 </i>
    <i name="e_0_energy">   -116.67268085 </i>
   </energy>
  </scstep>
  <scstep>
   <time name="diag">    0.27    0.27</time>
   <time name="diis">    0.90    0.90</time>
   <time name="orth">    0.04    0.04</time>
   <time name="total">    1.45    1.47</time>
   <energy>
    <i name="e_fr_energy">   -116.67859366 </i>
    <i name="e_wo_entrp">   -116.67859366 </i>
    <i name="e_0_energy">   -116.67859366 </i>
   </energy>
  </scstep>
  <scstep>
   <time name="diag">    0.27    0.27</time>
   <time name="diis">    0.89    0.89</time>
   <time name="orth">    0.04    0.04</time>
   <time name="total">    1.44    1.45</time>
   <energy>
    <i name="e_fr_energy">   -116.67776042 </i>
    <i name="e_wo_entrp">   -116.67776042 </i>
    <i name="e_0_energy">   -116.67776042 </i>
   </energy>
  </scstep>
  <scstep>
   <time name="diag">    0.27    0.27</time>
   <time name="diis">    0.88    0.88</time>
   <time name="orth">    0.04    0.04</time>
   <time name="total">    1.64    1.65</time>
   <energy>
    <i name="e_fr_energy">   -116.67716510 </i>
    <i name="e_wo_entrp">   -116.67716510 </i>
    <i name="e_0_energy">   -116.67716510 </i>
   </energy>
  </scstep>
  <scstep>
   <time name="diag">    0.27    0.27</time>
   <time name="diis">    0.89    0.89</time>
   <time name="orth">    0.04    0.04</time>
   <time name="total">    1.44    1.45</time>
   <energy>
    <i name="e_fr_energy">   -116.67714568 </i>
    <i name="e_wo_entrp">   -116.67714568 </i>
    <i name="e_0_energy">   -116.67714568 </i>
   </energy>
  </scstep>
  <scstep>
   <time name="diag">    0.27    0.27</time>
   <time name="diis">    0.91    0.91</time>
   <time name="orth">    0.04    0.04</time>
   <time name="total">    1.47    1.48</time>
   <energy>
    <i name="e_fr_energy">   -116.67712458 </i>
    <i name="e_wo_entrp">   -116.67712458 </i>
    <i name="e_0_energy">   -116.67712458 </i>
   </energy>
  </scstep>
  <scstep>
   <time name="diag">    0.27    0.27</time>
   <time name="diis">    0.76    0.76</time>
   <time name="orth">    0.04    0.04</time>
   <time name="total">    1.31    1.33</time>
   <energy>
    <i name="e_fr_energy">   -116.67712609 </i>
    <i name="e_wo_entrp">   -116.67712609 </i>
    <i name="e_0_energy">   -116.67712609 </i>
   </energy>
  </scstep>
  <scstep>
   <time name="diag">    0.28    0.28</time>
   <time name="diis">    0.60    0.60</time>
   <time name="orth">    0.04    0.04</time>
   <time name="total">    1.01    1.02</time>
   <energy>
    <i name="alphaZ">     57.92928028 </i>
    <i name="ewald">  -2282.14862845 </i>
    <i name="hartreedc">   -512.30114826 </i>
    <i name="XCdc">     -6.00181883 </i>
    <i name="pawpsdc">  10653.18469248 </i>
    <i name="pawaedc"> -10453.18920093 </i>
    <i name="eentropy">      0.00000000 </i>
    <i name="bandstr">     84.77116092 </i>
    <i name="atom">   2341.07853652 </i>
    <i name="e_fr_energy">   -116.67712627 </i>
    <i name="e_wo_entrp">   -116.67712627 </i>
    <i name="e_0_energy">   -116.67712627 </i>
   </energy>
  </scstep>
  <structure>
   <crystal>
    <varray name="basis" >
     <v>       5.41251120       0.01464186       0.00295697 </v>
     <v>       0.01611027       5.90580059      -0.03465648 </v>
     <v>      -0.00425233      -2.61915543       5.35629414 </v>
    </varray>
    <i name="volume">    170.72246750 </i>
    <varray name="rec_basis" >
     <v>       0.18475854      -0.00050458      -0.00010006 </v>
     <v>      -0.00050474       0.16981370       0.08303621 </v>
     <v>      -0.00010526       0.00109901       0.18723356 </v>
    </varray>
   </crystal>
   <varray name="positions" >
    <v>       0.83710429       0.74771951       0.73751034 </v>
    <v>       0.17777412       0.49328773       0.00395243 </v>
    <v>       0.66937041       0.24720859       0.74496602 </v>
    <v>       0.32870376       0.00395965       0.98815465 </v>
    <v>       0.83402519       0.26124204       0.25563596 </v>
    <v>       0.33079094       0.50017190       0.50361895 </v>
    <v>       0.65944677       0.75204016       0.25265586 </v>
    <v>       0.16430187       0.99738206       0.49734870 </v>
    <v>       0.34591163       0.31007141       0.70850935 </v>
    <v>       0.16646703       0.31874132       0.18595398 </v>
    <v>       0.66764423       0.57776984       0.45645060 </v>
    <v>       0.32141845       0.80138290       0.17298298 </v>
    <v>       0.82338894       0.07022619       0.45105534 </v>
    <v>       0.84538641       0.55793555       0.92546713 </v>
    <v>       0.14621916       0.80878247       0.69269679 </v>
    <v>       0.68204682       0.05207868       0.92304091 </v>
   </varray>
  </structure>
  <varray name="forces" >
   <v>      -0.01507304      -0.00122127       0.00834193 </v>
   <v>       0.00510584      -0.00849887       0.00519569 </v>
   <v>      -0.00595572       0.00176044       0.00539864 </v>
   <v>      -0.00598146       0.00327351       0.00286546 </v>
   <v>      -0.00225409      -0.00336184       0.00603593 </v>
   <v>      -0.00054159       0.00213287      -0.00236953 </v>
   <v>       0.00379324      -0.01056504       0.00415748 </v>
   <v>       0.00559447      -0.00488343      -0.01363290 </v>
   <v>      -0.00025153      -0.00646677      -0.01193375 </v>
   <v>      -0.00355807       0.01205822      -0.00796988 </v>
   <v>      -0.00171858       0.00838186      -0.00073505 </v>
   <v>      -0.00006504      -0.00149475      -0.00784857 </v>
   <v>      -0.00020931      -0.00454255       0.00177428 </v>
   <v>       0.00610145       0.00063371       0.00133059 </v>
   <v>       0.01119938       0.00924511       0.00326226 </v>
   <v>       0.00381404       0.00354880       0.00612743 </v>
  </varray>
  <varray name="stress" >
   <v>       0.03660390       0.16752141      -0.09000350 </v>
   <v>       0.16752141      -0.55935499       0.10914237 </v>
   <v>      -0.09000336       0.10914227       0.30177970 </v>
  </varray>
  <energy>
   <i name="e_fr_energy">   -116.67712627 </i>
   <i name="e_wo_entrp">   -116.67712627 </i>
   <i name="e_0_energy">      0.00000000 </i>
  </energy>
  <time name="totalsc">   26.35   26.61</time>
  <eigenvalues>
   <array>
    <dimension dim="1">band</dimension>
    <dimension dim="2">kpoint</dimension>
    <dimension dim="3">spin</dimension>
    <field>eigene</field>
    <field>occ</field>
    <set>
     <set comment="spin 1">
      <set comment="kpoint 1">
       <r>   -9.3135    1.0000 </r>
       <r>   -7.5536    1.0000 </r>
       <r>   -7.3323    1.0000 </r>
       <r>   -7.2894    1.0000 </r>
       <r>   -6.9133    1.0000 </r>
       <r>   -3.8690    1.0000 </r>
       <r>   -2.9238    1.0000 </r>
       <r>   -2.5473    1.0000 </r>
       <r>   -0.6183    1.0000 </r>
       <r>   -0.0182    1.0000 </r>
       <r>    0.4618    1.0000 </r>
       <r>    1.0053    1.0000 </r>
       <r>    1.2442    1.0000 </r>
       <r>    1.7337    1.0000 </r>
       <r>    2.0429    1.0000 </r>
       <r>    2.3989    1.0000 </r>
       <r>    2.8144    1.0000 </r>
       <r>    3.0235    1.0000 </r>
       <r>    3.1188    1.0000 </r>
       <r>    3.7775    1.0000 </r>
       <r>    4.1230    1.0000 </r>
       <r>    4.4510    1.0000 </r>
       <r>    4.6656    1.0000 </r>
       <r>    5.1974    1.0000 </r>
       <r>    5.4559    1.0000 </r>
       <r>    5.7181    1.0000 </r>
       <r>    5.9701    1.0000 </r>
       <r>    6.3027    1.0000 </r>
       <r>    6.5572    1.0000 </r>
       <r>    7.1564    1.0000 </r>
       <r>    7.3628    1.0000 </r>
       <r>    7.7116    1.0000 </r>
       <r>   10.4547    0.0000 </r>
       <r>   11.3370    0.0000 </r>
       <r>   11.8601    0.0000 </r>
       <r>   11.9967    0.0000 </r>
       <r>   12.4053    0.0000 </r>
       <r>   12.6836    0.0000 </r>
       <r>   13.2088    0.0000 </r>
       <r>   13.4363    0.0000 </r>
       <r>   14.3326    0.0000 </r>
       <r>   14.5930    0.0000 </r>
       <r>   14.7475    0.0000 </r>
       <r>   15.1146    0.0000 </r>
      </set>
      <set comment="kpoint 2">
       <r>   -9.1848    1.0000 </r>
       <r>   -7.7052    1.0000 </r>
       <r>   -7.4046    1.0000 </r>
       <r>   -7.2524    1.0000 </r>
       <r>   -6.9043    1.0000 </r>
       <r>   -3.9687    1.0000 </r>
       <r>   -2.9206    1.0000 </r>
       <r>   -2.4245    1.0000 </r>
       <r>   -0.6799    1.0000 </r>
       <r>    0.0211    1.0000 </r>
       <r>    0.2255    1.0000 </r>
       <r>    0.7124    1.0000 </r>
       <r>    1.3016    1.0000 </r>
       <r>    1.5198    1.0000 </r>
       <r>    2.0571    1.0000 </r>
       <r>    2.3223    1.0000 </r>
       <r>    3.2645    1.0000 </r>
       <r>    3.4583    1.0000 </r>
       <r>    3.6701    1.0000 </r>
       <r>    4.1285    1.0000 </r>
       <r>    4.2962    1.0000 </r>
       <r>    4.4944    1.0000 </r>
       <r>    4.8426    1.0000 </r>
       <r>    5.0112    1.0000 </r>
       <r>    5.1914    1.0000 </r>
       <r>    5.6035    1.0000 </r>
       <r>    6.0081    1.0000 </r>
       <r>    6.3268    1.0000 </r>
       <r>    6.5173    1.0000 </r>
       <r>    6.7010    1.0000 </r>
       <r>    7.3170    1.0000 </r>
       <r>    7.6270    1.0000 </r>
       <r>   10.9009    0.0000 </r>
       <r>   11.2088    0.0000 </r>
       <r>   11.4659    0.0000 </r>
       <r>   11.8932    0.0000 </r>
       <r>   12.2062    0.0000 </r>
       <r>   12.6801    0.0000 </r>
       <r>   12.7938    0.0000 </r>
       <r>   13.3927    0.0000 </r>
       <r>   14.1173    0.0000 </r>
       <r>   14.5048    0.0000 </r>
       <r>   14.7333    0.0000 </r>
       <r>   15.1350    0.0000 </r>
      </set>
      <set comment="kpoint 3">
       <r>   -9.0087    1.0000 </r>
       <r>   -7.9737    1.0000 </r>
       <r>   -7.3785    1.0000 </r>
       <r>   -7.1985    1.0000 </r>
       <r>   -6.9400    1.0000 </r>
       <r>   -4.0266    1.0000 </r>
       <r>   -2.9200    1.0000 </r>
       <r>   -2.3591    1.0000 </r>
       <r>   -0.7530    1.0000 </r>
       <r>   -0.0779    1.0000 </r>
       <r>   -0.0365    1.0000 </r>
       <r>    0.8668    1.0000 </r>
       <r>    1.0500    1.0000 </r>
       <r>    1.4230    1.0000 </r>
       <r>    2.3307    1.0000 </r>
       <r>    2.8985    1.0000 </r>
       <r>    3.3216    1.0000 </r>
       <r>    3.8090    1.0000 </r>
       <r>    3.9013    1.0000 </r>
       <r>    3.9346    1.0000 </r>
       <r>    4.3273    1.0000 </r>
       <r>    4.5350    1.0000 </r>
       <r>    4.7742    1.0000 </r>
       <r>    5.0056    1.0000 </r>
       <r>    5.1868    1.0000 </r>
       <r>    5.7413    1.0000 </r>
       <r>    6.0876    1.0000 </r>
       <r>    6.1686    1.0000 </r>
       <r>    6.4936    1.0000 </r>
       <r>    6.8364    1.0000 </r>
       <r>    7.2074    1.0000 </r>
       <r>    7.5574    1.0000 </r>
       <r>   10.6203    0.0000 </r>
       <r>   10.8819    0.0000 </r>
       <r>   11.1892    0.0000 </r>
       <r>   11.4503    0.0000 </r>
       <r>   12.2020    0.0000 </r>
       <r>   12.8750    0.0000 </r>
       <r>   13.3686    0.0000 </r>
       <r>   13.5785    0.0000 </r>
       <r>   13.9372    0.0000 </r>
       <r>   14.1725    0.0000 </r>
       <r>   14.2787    0.0000 </r>
       <r>   14.6243    0.0000 </r>
      </set>
      <set comment="kpoint 4">
       <r>   -9.1327    1.0000 </r>
       <r>   -7.9647    1.0000 </r>
       <r>   -7.3704    1.0000 </r>
       <r>   -7.1294    1.0000 </r>
       <r>   -6.8873    1.0000 </r>
       <r>   -3.9617    1.0000 </r>
       <r>   -3.0108    1.0000 </r>
       <r>   -2.5246    1.0000 </r>
       <r>   -0.4605    1.0000 </r>
       <r>    0.3311    1.0000 </r>
       <r>    0.5544    1.0000 </r>
       <r>    1.3183    1.0000 </r>
       <r>    1.3823    1.0000 </r>
       <r>    1.6072    1.0000 </r>
       <r>    2.0975    1.0000 </r>
       <r>    2.4365    1.0000 </r>
       <r>    2.8793    1.0000 </r>
       <r>    3.0965    1.0000 </r>
       <r>    3.3534    1.0000 </r>
       <r>    3.6890    1.0000 </r>
       <r>    3.9584    1.0000 </r>
       <r>    4.4650    1.0000 </r>
       <r>    4.7088    1.0000 </r>
       <r>    4.8303    1.0000 </r>
       <r>    5.3445    1.0000 </r>
       <r>    5.5741    1.0000 </r>
       <r>    5.7902    1.0000 </r>
       <r>    5.8870    1.0000 </r>
       <r>    6.0838    1.0000 </r>
       <r>    6.6819    1.0000 </r>
       <r>    7.0926    1.0000 </r>
       <r>    7.6312    1.0000 </r>
       <r>   11.1613    0.0000 </r>
       <r>   11.7915    0.0000 </r>
       <r>   12.0764    0.0000 </r>
       <r>   12.5830    0.0000 </r>
       <r>   12.7075    0.0000 </r>
       <r>   12.9034    0.0000 </r>
       <r>   13.2637    0.0000 </r>
       <r>   13.7822    0.0000 </r>
       <r>   13.9941    0.0000 </r>
       <r>   14.4375    0.0000 </r>
       <r>   14.7328    0.0000 </r>
       <r>   14.9479    0.0000 </r>
      </set>
      <set comment="kpoint 5">
       <r>   -9.0038    1.0000 </r>
       <r>   -8.0000    1.0000 </r>
       <r>   -7.4009    1.0000 </r>
       <r>   -7.2231    1.0000 </r>
       <r>   -6.8754    1.0000 </r>
       <r>   -4.2027    1.0000 </r>
       <r>   -3.0358    1.0000 </r>
       <r>   -2.3826    1.0000 </r>
       <r>   -0.4437    1.0000 </r>
       <r>    0.2563    1.0000 </r>
       <r>    0.6341    1.0000 </r>
       <r>    1.1494    1.0000 </r>
       <r>    1.4063    1.0000 </r>
       <r>    1.8285    1.0000 </r>
       <r>    2.0549    1.0000 </r>
       <r>    2.5954    1.0000 </r>
       <r>    2.7735    1.0000 </r>
       <r>    3.3813    1.0000 </r>
       <r>    3.5102    1.0000 </r>
       <r>    3.7685    1.0000 </r>
       <r>    4.0800    1.0000 </r>
       <r>    4.3708    1.0000 </r>
       <r>    4.6928    1.0000 </r>
       <r>    4.8642    1.0000 </r>
       <r>    5.2395    1.0000 </r>
       <r>    5.4940    1.0000 </r>
       <r>    5.7890    1.0000 </r>
       <r>    5.9461    1.0000 </r>
       <r>    6.3396    1.0000 </r>
       <r>    6.6575    1.0000 </r>
       <r>    6.9877    1.0000 </r>
       <r>    7.5019    1.0000 </r>
       <r>   11.2147    0.0000 </r>
       <r>   11.3846    0.0000 </r>
       <r>   11.9623    0.0000 </r>
       <r>   12.4175    0.0000 </r>
       <r>   12.6272    0.0000 </r>
       <r>   12.7757    0.0000 </r>
       <r>   13.2719    0.0000 </r>
       <r>   13.5860    0.0000 </r>
       <r>   14.2304    0.0000 </r>
       <r>   14.4650    0.0000 </r>
       <r>   14.6973    0.0000 </r>
       <r>   15.0905    0.0000 </r>
      </set>
      <set comment="kpoint 6">
       <r>   -8.8437    1.0000 </r>
       <r>   -8.0072    1.0000 </r>
       <r>   -7.5859    1.0000 </r>
       <r>   -7.1609    1.0000 </r>
       <r>   -6.9604    1.0000 </r>
       <r>   -4.2742    1.0000 </r>
       <r>   -3.0720    1.0000 </r>
       <r>   -2.4124    1.0000 </r>
       <r>   -0.3591    1.0000 </r>
       <r>    0.1219    1.0000 </r>
       <r>    0.5077    1.0000 </r>
       <r>    1.2992    1.0000 </r>
       <r>    1.5091    1.0000 </r>
       <r>    1.6860    1.0000 </r>
       <r>    2.4924    1.0000 </r>
       <r>    2.6321    1.0000 </r>
       <r>    2.9577    1.0000 </r>
       <r>    3.3469    1.0000 </r>
       <r>    3.5964    1.0000 </r>
       <r>    3.7623    1.0000 </r>
       <r>    4.1677    1.0000 </r>
       <r>    4.3496    1.0000 </r>
       <r>    4.6227    1.0000 </r>
       <r>    4.9710    1.0000 </r>
       <r>    5.1872    1.0000 </r>
       <r>    5.4355    1.0000 </r>
       <r>    5.7805    1.0000 </r>
       <r>    5.9495    1.0000 </r>
       <r>    6.3648    1.0000 </r>
       <r>    6.7933    1.0000 </r>
       <r>    6.8989    1.0000 </r>
       <r>    7.4659    1.0000 </r>
       <r>   10.9323    0.0000 </r>
       <r>   11.0266    0.0000 </r>
       <r>   11.8680    0.0000 </r>
       <r>   12.0650    0.0000 </r>
       <r>   12.7172    0.0000 </r>
       <r>   13.2909    0.0000 </r>
       <r>   13.5457    0.0000 </r>
       <r>   13.5998    0.0000 </r>
       <r>   13.9390    0.0000 </r>
       <r>   14.2368    0.0000 </r>
       <r>   14.3501    0.0000 </r>
       <r>   14.7961    0.0000 </r>
      </set>
      <set comment="kpoint 7">
       <r>   -9.0161    1.0000 </r>
       <r>   -7.8958    1.0000 </r>
       <r>   -7.4975    1.0000 </r>
       <r>   -7.2307    1.0000 </r>
       <r>   -6.8998    1.0000 </r>
       <r>   -4.0580    1.0000 </r>
       <r>   -3.0944    1.0000 </r>
       <r>   -2.4600    1.0000 </r>
       <r>   -0.4124    1.0000 </r>
       <r>    0.3042    1.0000 </r>
       <r>    0.5709    1.0000 </r>
       <r>    1.0878    1.0000 </r>
       <r>    1.3389    1.0000 </r>
       <r>    1.8930    1.0000 </r>
       <r>    2.0622    1.0000 </r>
       <r>    2.5940    1.0000 </r>
       <r>    2.8487    1.0000 </r>
       <r>    3.3267    1.0000 </r>
       <r>    3.5423    1.0000 </r>
       <r>    3.8938    1.0000 </r>
       <r>    4.2108    1.0000 </r>
       <r>    4.3812    1.0000 </r>
       <r>    4.6533    1.0000 </r>
       <r>    4.9107    1.0000 </r>
       <r>    5.0923    1.0000 </r>
       <r>    5.3680    1.0000 </r>
       <r>    5.7213    1.0000 </r>
       <r>    6.0070    1.0000 </r>
       <r>    6.1402    1.0000 </r>
       <r>    6.7442    1.0000 </r>
       <r>    7.0649    1.0000 </r>
       <r>    7.5728    1.0000 </r>
       <r>   11.2614    0.0000 </r>
       <r>   11.4860    0.0000 </r>
       <r>   11.9500    0.0000 </r>
       <r>   12.1331    0.0000 </r>
       <r>   12.5606    0.0000 </r>
       <r>   12.8745    0.0000 </r>
       <r>   13.2264    0.0000 </r>
       <r>   13.7343    0.0000 </r>
       <r>   13.9304    0.0000 </r>
       <r>   14.4800    0.0000 </r>
       <r>   14.9216    0.0000 </r>
       <r>   15.0086    0.0000 </r>
      </set>
      <set comment="kpoint 8">
       <r>   -8.7307    1.0000 </r>
       <r>   -8.5095    1.0000 </r>
       <r>   -7.4030    1.0000 </r>
       <r>   -7.0479    1.0000 </r>
       <r>   -6.8668    1.0000 </r>
       <r>   -4.0672    1.0000 </r>
       <r>   -3.0692    1.0000 </r>
       <r>   -2.5275    1.0000 </r>
       <r>   -0.0772    1.0000 </r>
       <r>    0.2962    1.0000 </r>
       <r>    1.0064    1.0000 </r>
       <r>    1.1638    1.0000 </r>
       <r>    1.6074    1.0000 </r>
       <r>    1.8144    1.0000 </r>
       <r>    2.1163    1.0000 </r>
       <r>    2.4729    1.0000 </r>
       <r>    2.9784    1.0000 </r>
       <r>    3.1586    1.0000 </r>
       <r>    3.4064    1.0000 </r>
       <r>    3.5470    1.0000 </r>
       <r>    4.1549    1.0000 </r>
       <r>    4.4596    1.0000 </r>
       <r>    4.5518    1.0000 </r>
       <r>    4.7733    1.0000 </r>
       <r>    4.9517    1.0000 </r>
       <r>    5.2744    1.0000 </r>
       <r>    5.5482    1.0000 </r>
       <r>    5.6195    1.0000 </r>
       <r>    5.8156    1.0000 </r>
       <r>    6.0836    1.0000 </r>
       <r>    6.9621    1.0000 </r>
       <r>    7.5859    1.0000 </r>
       <r>   11.6188    0.0000 </r>
       <r>   11.9129    0.0000 </r>
       <r>   12.3417    0.0000 </r>
       <r>   12.7179    0.0000 </r>
       <r>   13.3201    0.0000 </r>
       <r>   13.6729    0.0000 </r>
       <r>   13.9466    0.0000 </r>
       <r>   14.0110    0.0000 </r>
       <r>   14.2568    0.0000 </r>
       <r>   14.3336    0.0000 </r>
       <r>   14.4331    0.0000 </r>
       <r>   14.6071    0.0000 </r>
      </set>
      <set comment="kpoint 9">
       <r>   -8.6077    1.0000 </r>
       <r>   -8.4520    1.0000 </r>
       <r>   -7.4284    1.0000 </r>
       <r>   -7.2111    1.0000 </r>
       <r>   -6.8843    1.0000 </r>
       <r>   -4.2952    1.0000 </r>
       <r>   -3.1833    1.0000 </r>
       <r>   -2.4329    1.0000 </r>
       <r>    0.0857    1.0000 </r>
       <r>    0.4715    1.0000 </r>
       <r>    1.0348    1.0000 </r>
       <r>    1.3665    1.0000 </r>
       <r>    1.4878    1.0000 </r>
       <r>    1.8254    1.0000 </r>
       <r>    2.4253    1.0000 </r>
       <r>    2.5989    1.0000 </r>
       <r>    2.9142    1.0000 </r>
       <r>    3.0934    1.0000 </r>
       <r>    3.2468    1.0000 </r>
       <r>    3.6750    1.0000 </r>
       <r>    4.1349    1.0000 </r>
       <r>    4.2323    1.0000 </r>
       <r>    4.3898    1.0000 </r>
       <r>    4.7076    1.0000 </r>
       <r>    4.8504    1.0000 </r>
       <r>    5.1880    1.0000 </r>
       <r>    5.5214    1.0000 </r>
       <r>    5.6158    1.0000 </r>
       <r>    6.1196    1.0000 </r>
       <r>    6.4958    1.0000 </r>
       <r>    7.0011    1.0000 </r>
       <r>    7.5110    1.0000 </r>
       <r>   11.6611    0.0000 </r>
       <r>   11.9450    0.0000 </r>
       <r>   12.2125    0.0000 </r>
       <r>   12.2952    0.0000 </r>
       <r>   13.0273    0.0000 </r>
       <r>   13.0821    0.0000 </r>
       <r>   13.4855    0.0000 </r>
       <r>   13.7836    0.0000 </r>
       <r>   13.9607    0.0000 </r>
       <r>   14.3358    0.0000 </r>
       <r>   14.7432    0.0000 </r>
       <r>   14.9389    0.0000 </r>
      </set>
      <set comment="kpoint 10">
       <r>   -8.4207    1.0000 </r>
       <r>   -8.4027    1.0000 </r>
       <r>   -7.6368    1.0000 </r>
       <r>   -7.1586    1.0000 </r>
       <r>   -6.9898    1.0000 </r>
       <r>   -4.4999    1.0000 </r>
       <r>   -3.2036    1.0000 </r>
       <r>   -2.4711    1.0000 </r>
       <r>    0.2893    1.0000 </r>
       <r>    0.5617    1.0000 </r>
       <r>    1.0849    1.0000 </r>
       <r>    1.4967    1.0000 </r>
       <r>    1.7514    1.0000 </r>
       <r>    1.8857    1.0000 </r>
       <r>    2.4458    1.0000 </r>
       <r>    2.5497    1.0000 </r>
       <r>    2.7048    1.0000 </r>
       <r>    2.9842    1.0000 </r>
       <r>    3.3772    1.0000 </r>
       <r>    3.8808    1.0000 </r>
       <r>    3.9813    1.0000 </r>
       <r>    4.2253    1.0000 </r>
       <r>    4.2800    1.0000 </r>
       <r>    4.6188    1.0000 </r>
       <r>    4.9157    1.0000 </r>
       <r>    5.2176    1.0000 </r>
       <r>    5.4525    1.0000 </r>
       <r>    5.7007    1.0000 </r>
       <r>    6.2553    1.0000 </r>
       <r>    6.6315    1.0000 </r>
       <r>    6.8091    1.0000 </r>
       <r>    7.4310    1.0000 </r>
       <r>   11.6491    0.0000 </r>
       <r>   12.0233    0.0000 </r>
       <r>   12.1240    0.0000 </r>
       <r>   12.4777    0.0000 </r>
       <r>   12.8236    0.0000 </r>
       <r>   13.2584    0.0000 </r>
       <r>   13.3060    0.0000 </r>
       <r>   13.5551    0.0000 </r>
       <r>   13.7866    0.0000 </r>
       <r>   14.1801    0.0000 </r>
       <r>   14.6094    0.0000 </r>
       <r>   14.6528    0.0000 </r>
      </set>
      <set comment="kpoint 11">
       <r>   -9.1825    1.0000 </r>
       <r>   -7.7513    1.0000 </r>
       <r>   -7.4258    1.0000 </r>
       <r>   -7.2228    1.0000 </r>
       <r>   -6.9168    1.0000 </r>
       <r>   -3.8555    1.0000 </r>
       <r>   -3.2633    1.0000 </r>
       <r>   -2.2995    1.0000 </r>
       <r>   -0.4461    1.0000 </r>
       <r>    0.1052    1.0000 </r>
       <r>    0.6031    1.0000 </r>
       <r>    1.2298    1.0000 </r>
       <r>    1.4689    1.0000 </r>
       <r>    1.7934    1.0000 </r>
       <r>    1.9439    1.0000 </r>
       <r>    2.5227    1.0000 </r>
       <r>    2.7455    1.0000 </r>
       <r>    3.1834    1.0000 </r>
       <r>    3.4277    1.0000 </r>
       <r>    3.7711    1.0000 </r>
       <r>    3.9343    1.0000 </r>
       <r>    4.3137    1.0000 </r>
       <r>    4.7945    1.0000 </r>
       <r>    4.8727    1.0000 </r>
       <r>    5.0415    1.0000 </r>
       <r>    5.5602    1.0000 </r>
       <r>    5.7039    1.0000 </r>
       <r>    6.0063    1.0000 </r>
       <r>    6.2949    1.0000 </r>
       <r>    6.8144    1.0000 </r>
       <r>    7.1772    1.0000 </r>
       <r>    7.4882    1.0000 </r>
       <r>   11.0708    0.0000 </r>
       <r>   11.7028    0.0000 </r>
       <r>   12.1714    0.0000 </r>
       <r>   12.4342    0.0000 </r>
       <r>   12.7307    0.0000 </r>
       <r>   12.9570    0.0000 </r>
       <r>   13.1821    0.0000 </r>
       <r>   13.8075    0.0000 </r>
       <r>   14.0415    0.0000 </r>
       <r>   14.3101    0.0000 </r>
       <r>   14.6772    0.0000 </r>
       <r>   15.2884    0.0000 </r>
      </set>
      <set comment="kpoint 12">
       <r>   -9.0635    1.0000 </r>
       <r>   -7.7757    1.0000 </r>
       <r>   -7.4328    1.0000 </r>
       <r>   -7.2578    1.0000 </r>
       <r>   -7.0199    1.0000 </r>
       <r>   -4.0074    1.0000 </r>
       <r>   -3.1334    1.0000 </r>
       <r>   -2.4509    1.0000 </r>
       <r>   -0.5079    1.0000 </r>
       <r>    0.1383    1.0000 </r>
       <r>    0.7907    1.0000 </r>
       <r>    1.1026    1.0000 </r>
       <r>    1.4622    1.0000 </r>
       <r>    1.8309    1.0000 </r>
       <r>    2.1621    1.0000 </r>
       <r>    2.4658    1.0000 </r>
       <r>    2.8045    1.0000 </r>
       <r>    3.3948    1.0000 </r>
       <r>    3.6183    1.0000 </r>
       <r>    3.8014    1.0000 </r>
       <r>    4.0775    1.0000 </r>
       <r>    4.3174    1.0000 </r>
       <r>    4.7398    1.0000 </r>
       <r>    5.0319    1.0000 </r>
       <r>    5.1711    1.0000 </r>
       <r>    5.3548    1.0000 </r>
       <r>    5.4460    1.0000 </r>
       <r>    6.0499    1.0000 </r>
       <r>    6.3506    1.0000 </r>
       <r>    6.6957    1.0000 </r>
       <r>    7.1205    1.0000 </r>
       <r>    7.5367    1.0000 </r>
       <r>   11.0639    0.0000 </r>
       <r>   11.5251    0.0000 </r>
       <r>   11.9149    0.0000 </r>
       <r>   12.3026    0.0000 </r>
       <r>   12.5047    0.0000 </r>
       <r>   12.8303    0.0000 </r>
       <r>   13.1745    0.0000 </r>
       <r>   13.5760    0.0000 </r>
       <r>   14.3846    0.0000 </r>
       <r>   14.5365    0.0000 </r>
       <r>   14.7986    0.0000 </r>
       <r>   15.3312    0.0000 </r>
      </set>
      <set comment="kpoint 13">
       <r>   -8.9063    1.0000 </r>
       <r>   -7.8730    1.0000 </r>
       <r>   -7.4727    1.0000 </r>
       <r>   -7.2809    1.0000 </r>
       <r>   -7.0620    1.0000 </r>
       <r>   -4.0659    1.0000 </r>
       <r>   -3.1217    1.0000 </r>
       <r>   -2.6086    1.0000 </r>
       <r>   -0.5552    1.0000 </r>
       <r>    0.3502    1.0000 </r>
       <r>    0.5929    1.0000 </r>
       <r>    1.1887    1.0000 </r>
       <r>    1.4116    1.0000 </r>
       <r>    1.8371    1.0000 </r>
       <r>    2.5098    1.0000 </r>
       <r>    2.7342    1.0000 </r>
       <r>    3.0622    1.0000 </r>
       <r>    3.3629    1.0000 </r>
       <r>    3.6815    1.0000 </r>
       <r>    3.7777    1.0000 </r>
       <r>    4.1602    1.0000 </r>
       <r>    4.2400    1.0000 </r>
       <r>    4.5670    1.0000 </r>
       <r>    4.7705    1.0000 </r>
       <r>    4.9616    1.0000 </r>
       <r>    5.2656    1.0000 </r>
       <r>    5.9172    1.0000 </r>
       <r>    6.1130    1.0000 </r>
       <r>    6.4965    1.0000 </r>
       <r>    6.8568    1.0000 </r>
       <r>    6.9863    1.0000 </r>
       <r>    7.3756    1.0000 </r>
       <r>   10.7542    0.0000 </r>
       <r>   11.1673    0.0000 </r>
       <r>   11.7506    0.0000 </r>
       <r>   12.0426    0.0000 </r>
       <r>   12.6831    0.0000 </r>
       <r>   13.2379    0.0000 </r>
       <r>   13.5183    0.0000 </r>
       <r>   13.7627    0.0000 </r>
       <r>   13.8623    0.0000 </r>
       <r>   14.2504    0.0000 </r>
       <r>   14.4253    0.0000 </r>
       <r>   15.1777    0.0000 </r>
      </set>
      <set comment="kpoint 14">
       <r>   -9.0639    1.0000 </r>
       <r>   -7.6930    1.0000 </r>
       <r>   -7.5250    1.0000 </r>
       <r>   -7.3427    1.0000 </r>
       <r>   -6.9206    1.0000 </r>
       <r>   -3.9604    1.0000 </r>
       <r>   -3.2391    1.0000 </r>
       <r>   -2.4073    1.0000 </r>
       <r>   -0.5184    1.0000 </r>
       <r>    0.3777    1.0000 </r>
       <r>    0.5080    1.0000 </r>
       <r>    1.0449    1.0000 </r>
       <r>    1.4774    1.0000 </r>
       <r>    1.9928    1.0000 </r>
       <r>    2.0937    1.0000 </r>
       <r>    2.4783    1.0000 </r>
       <r>    3.0322    1.0000 </r>
       <r>    3.4315    1.0000 </r>
       <r>    3.5492    1.0000 </r>
       <r>    3.7884    1.0000 </r>
       <r>    4.0332    1.0000 </r>
       <r>    4.4179    1.0000 </r>
       <r>    4.4435    1.0000 </r>
       <r>    4.6904    1.0000 </r>
       <r>    4.9841    1.0000 </r>
       <r>    5.3815    1.0000 </r>
       <r>    5.8438    1.0000 </r>
       <r>    6.1896    1.0000 </r>
       <r>    6.4876    1.0000 </r>
       <r>    6.8420    1.0000 </r>
       <r>    7.1194    1.0000 </r>
       <r>    7.2946    1.0000 </r>
       <r>   11.0819    0.0000 </r>
       <r>   11.5751    0.0000 </r>
       <r>   11.7876    0.0000 </r>
       <r>   12.3347    0.0000 </r>
       <r>   12.6165    0.0000 </r>
       <r>   12.7683    0.0000 </r>
       <r>   13.1739    0.0000 </r>
       <r>   13.5492    0.0000 </r>
       <r>   14.2126    0.0000 </r>
       <r>   14.4730    0.0000 </r>
       <r>   14.8962    0.0000 </r>
       <r>   15.2166    0.0000 </r>
      </set>
      <set comment="kpoint 15">
       <r>   -8.9274    1.0000 </r>
       <r>   -8.1657    1.0000 </r>
       <r>   -7.5312    1.0000 </r>
       <r>   -7.0459    1.0000 </r>
       <r>   -6.9112    1.0000 </r>
       <r>   -3.9857    1.0000 </r>
       <r>   -3.2123    1.0000 </r>
       <r>   -2.3462    1.0000 </r>
       <r>   -0.2879    1.0000 </r>
       <r>    0.2318    1.0000 </r>
       <r>    0.7368    1.0000 </r>
       <r>    1.2760    1.0000 </r>
       <r>    1.6644    1.0000 </r>
       <r>    2.1897    1.0000 </r>
       <r>    2.4296    1.0000 </r>
       <r>    2.6577    1.0000 </r>
       <r>    2.9317    1.0000 </r>
       <r>    2.9584    1.0000 </r>
       <r>    3.3081    1.0000 </r>
       <r>    3.6874    1.0000 </r>
       <r>    3.8236    1.0000 </r>
       <r>    3.9851    1.0000 </r>
       <r>    4.4317    1.0000 </r>
       <r>    4.7124    1.0000 </r>
       <r>    4.9993    1.0000 </r>
       <r>    5.3958    1.0000 </r>
       <r>    5.5150    1.0000 </r>
       <r>    5.7674    1.0000 </r>
       <r>    5.9379    1.0000 </r>
       <r>    6.4960    1.0000 </r>
       <r>    7.0523    1.0000 </r>
       <r>    7.4630    1.0000 </r>
       <r>   10.9933    0.0000 </r>
       <r>   12.0248    0.0000 </r>
       <r>   12.5827    0.0000 </r>
       <r>   12.7915    0.0000 </r>
       <r>   13.2469    0.0000 </r>
       <r>   13.5138    0.0000 </r>
       <r>   13.7079    0.0000 </r>
       <r>   13.8063    0.0000 </r>
       <r>   14.1689    0.0000 </r>
       <r>   14.3060    0.0000 </r>
       <r>   14.5733    0.0000 </r>
       <r>   14.7653    0.0000 </r>
      </set>
      <set comment="kpoint 16">
       <r>   -8.8168    1.0000 </r>
       <r>   -8.1332    1.0000 </r>
       <r>   -7.4388    1.0000 </r>
       <r>   -7.2458    1.0000 </r>
       <r>   -6.9750    1.0000 </r>
       <r>   -4.2564    1.0000 </r>
       <r>   -3.0860    1.0000 </r>
       <r>   -2.5155    1.0000 </r>
       <r>   -0.1373    1.0000 </r>
       <r>    0.4310    1.0000 </r>
       <r>    0.9915    1.0000 </r>
       <r>    1.3855    1.0000 </r>
       <r>    1.8809    1.0000 </r>
       <r>    2.0676    1.0000 </r>
       <r>    2.3988    1.0000 </r>
       <r>    2.4678    1.0000 </r>
       <r>    2.7027    1.0000 </r>
       <r>    3.0378    1.0000 </r>
       <r>    3.2788    1.0000 </r>
       <r>    3.5467    1.0000 </r>
       <r>    4.0324    1.0000 </r>
       <r>    4.1544    1.0000 </r>
       <r>    4.6028    1.0000 </r>
       <r>    4.8162    1.0000 </r>
       <r>    4.9634    1.0000 </r>
       <r>    5.1785    1.0000 </r>
       <r>    5.4492    1.0000 </r>
       <r>    5.6655    1.0000 </r>
       <r>    6.1191    1.0000 </r>
       <r>    6.5875    1.0000 </r>
       <r>    6.9452    1.0000 </r>
       <r>    7.4514    1.0000 </r>
       <r>   11.4029    0.0000 </r>
       <r>   11.8755    0.0000 </r>
       <r>   12.1502    0.0000 </r>
       <r>   12.4496    0.0000 </r>
       <r>   12.7617    0.0000 </r>
       <r>   13.1439    0.0000 </r>
       <r>   13.4868    0.0000 </r>
       <r>   14.0024    0.0000 </r>
       <r>   14.0913    0.0000 </r>
       <r>   14.3841    0.0000 </r>
       <r>   14.9222    0.0000 </r>
       <r>   15.3610    0.0000 </r>
      </set>
      <set comment="kpoint 17">
       <r>   -8.6906    1.0000 </r>
       <r>   -8.0108    1.0000 </r>
       <r>   -7.6069    1.0000 </r>
       <r>   -7.2287    1.0000 </r>
       <r>   -7.1168    1.0000 </r>
       <r>   -4.3301    1.0000 </r>
       <r>   -3.2349    1.0000 </r>
       <r>   -2.6037    1.0000 </r>
       <r>   -0.0152    1.0000 </r>
       <r>    0.9022    1.0000 </r>
       <r>    1.0863    1.0000 </r>
       <r>    1.5782    1.0000 </r>
       <r>    1.8903    1.0000 </r>
       <r>    2.0086    1.0000 </r>
       <r>    2.0744    1.0000 </r>
       <r>    2.3469    1.0000 </r>
       <r>    2.7292    1.0000 </r>
       <r>    3.1439    1.0000 </r>
       <r>    3.5244    1.0000 </r>
       <r>    3.8415    1.0000 </r>
       <r>    3.8907    1.0000 </r>
       <r>    4.1000    1.0000 </r>
       <r>    4.3829    1.0000 </r>
       <r>    4.8277    1.0000 </r>
       <r>    4.8756    1.0000 </r>
       <r>    5.1095    1.0000 </r>
       <r>    5.6188    1.0000 </r>
       <r>    5.8576    1.0000 </r>
       <r>    6.2039    1.0000 </r>
       <r>    6.5337    1.0000 </r>
       <r>    6.7917    1.0000 </r>
       <r>    7.1761    1.0000 </r>
       <r>   11.7294    0.0000 </r>
       <r>   11.9949    0.0000 </r>
       <r>   12.2182    0.0000 </r>
       <r>   12.5348    0.0000 </r>
       <r>   12.7882    0.0000 </r>
       <r>   12.9605    0.0000 </r>
       <r>   13.2299    0.0000 </r>
       <r>   13.4150    0.0000 </r>
       <r>   13.7874    0.0000 </r>
       <r>   14.4703    0.0000 </r>
       <r>   14.7704    0.0000 </r>
       <r>   15.0398    0.0000 </r>
      </set>
      <set comment="kpoint 18">
       <r>   -8.8289    1.0000 </r>
       <r>   -8.0509    1.0000 </r>
       <r>   -7.5794    1.0000 </r>
       <r>   -7.2115    1.0000 </r>
       <r>   -6.9559    1.0000 </r>
       <r>   -4.0643    1.0000 </r>
       <r>   -3.3782    1.0000 </r>
       <r>   -2.4263    1.0000 </r>
       <r>   -0.2064    1.0000 </r>
       <r>    0.6053    1.0000 </r>
       <r>    1.0074    1.0000 </r>
       <r>    1.3897    1.0000 </r>
       <r>    1.6735    1.0000 </r>
       <r>    2.0997    1.0000 </r>
       <r>    2.4335    1.0000 </r>
       <r>    2.6443    1.0000 </r>
       <r>    2.7428    1.0000 </r>
       <r>    2.9781    1.0000 </r>
       <r>    3.2951    1.0000 </r>
       <r>    3.6146    1.0000 </r>
       <r>    3.9886    1.0000 </r>
       <r>    4.0886    1.0000 </r>
       <r>    4.4296    1.0000 </r>
       <r>    4.7139    1.0000 </r>
       <r>    4.9039    1.0000 </r>
       <r>    5.0524    1.0000 </r>
       <r>    5.5696    1.0000 </r>
       <r>    5.8372    1.0000 </r>
       <r>    6.2458    1.0000 </r>
       <r>    6.5382    1.0000 </r>
       <r>    7.1295    1.0000 </r>
       <r>    7.2732    1.0000 </r>
       <r>   11.4295    0.0000 </r>
       <r>   11.8837    0.0000 </r>
       <r>   12.2800    0.0000 </r>
       <r>   12.4530    0.0000 </r>
       <r>   12.6870    0.0000 </r>
       <r>   12.9129    0.0000 </r>
       <r>   13.6276    0.0000 </r>
       <r>   13.8981    0.0000 </r>
       <r>   14.2492    0.0000 </r>
       <r>   14.3669    0.0000 </r>
       <r>   14.8260    0.0000 </r>
       <r>   15.2133    0.0000 </r>
      </set>
      <set comment="kpoint 19">
       <r>   -8.7476    1.0000 </r>
       <r>   -8.4244    1.0000 </r>
       <r>   -7.4784    1.0000 </r>
       <r>   -7.0425    1.0000 </r>
       <r>   -6.9131    1.0000 </r>
       <r>   -3.9354    1.0000 </r>
       <r>   -3.1806    1.0000 </r>
       <r>   -2.4306    1.0000 </r>
       <r>   -0.3300    1.0000 </r>
       <r>    0.1987    1.0000 </r>
       <r>    1.0200    1.0000 </r>
       <r>    1.2950    1.0000 </r>
       <r>    1.4635    1.0000 </r>
       <r>    2.0012    1.0000 </r>
       <r>    2.1520    1.0000 </r>
       <r>    2.3970    1.0000 </r>
       <r>    2.8959    1.0000 </r>
       <r>    3.3361    1.0000 </r>
       <r>    3.6295    1.0000 </r>
       <r>    3.6757    1.0000 </r>
       <r>    3.9522    1.0000 </r>
       <r>    4.0669    1.0000 </r>
       <r>    4.4868    1.0000 </r>
       <r>    4.7972    1.0000 </r>
       <r>    5.2695    1.0000 </r>
       <r>    5.2882    1.0000 </r>
       <r>    5.6569    1.0000 </r>
       <r>    5.7700    1.0000 </r>
       <r>    5.9682    1.0000 </r>
       <r>    6.3578    1.0000 </r>
       <r>    7.0403    1.0000 </r>
       <r>    7.3956    1.0000 </r>
       <r>   11.0628    0.0000 </r>
       <r>   11.3082    0.0000 </r>
       <r>   12.1682    0.0000 </r>
       <r>   12.6552    0.0000 </r>
       <r>   12.9238    0.0000 </r>
       <r>   13.3846    0.0000 </r>
       <r>   13.6784    0.0000 </r>
       <r>   14.0610    0.0000 </r>
       <r>   14.1955    0.0000 </r>
       <r>   14.5698    0.0000 </r>
       <r>   14.7823    0.0000 </r>
       <r>   15.0412    0.0000 </r>
      </set>
      <set comment="kpoint 20">
       <r>   -8.6489    1.0000 </r>
       <r>   -8.3386    1.0000 </r>
       <r>   -7.4071    1.0000 </r>
       <r>   -7.2846    1.0000 </r>
       <r>   -6.9705    1.0000 </r>
       <r>   -4.1690    1.0000 </r>
       <r>   -3.0436    1.0000 </r>
       <r>   -2.6356    1.0000 </r>
       <r>    0.0311    1.0000 </r>
       <r>    0.3241    1.0000 </r>
       <r>    0.8741    1.0000 </r>
       <r>    1.2247    1.0000 </r>
       <r>    1.5959    1.0000 </r>
       <r>    1.9801    1.0000 </r>
       <r>    2.2949    1.0000 </r>
       <r>    2.6582    1.0000 </r>
       <r>    2.8262    1.0000 </r>
       <r>    3.3495    1.0000 </r>
       <r>    3.5897    1.0000 </r>
       <r>    3.7200    1.0000 </r>
       <r>    3.9922    1.0000 </r>
       <r>    4.2306    1.0000 </r>
       <r>    4.4879    1.0000 </r>
       <r>    4.8818    1.0000 </r>
       <r>    4.9938    1.0000 </r>
       <r>    5.2163    1.0000 </r>
       <r>    5.5474    1.0000 </r>
       <r>    5.7750    1.0000 </r>
       <r>    6.0702    1.0000 </r>
       <r>    6.4066    1.0000 </r>
       <r>    6.9506    1.0000 </r>
       <r>    7.3315    1.0000 </r>
       <r>   11.2940    0.0000 </r>
       <r>   11.5699    0.0000 </r>
       <r>   11.8966    0.0000 </r>
       <r>   12.3076    0.0000 </r>
       <r>   12.7076    0.0000 </r>
       <r>   13.0361    0.0000 </r>
       <r>   13.3490    0.0000 </r>
       <r>   13.8612    0.0000 </r>
       <r>   13.9993    0.0000 </r>
       <r>   14.4292    0.0000 </r>
       <r>   14.6754    0.0000 </r>
       <r>   14.9893    0.0000 </r>
      </set>
      <set comment="kpoint 21">
       <r>   -8.4877    1.0000 </r>
       <r>   -8.2634    1.0000 </r>
       <r>   -7.6313    1.0000 </r>
       <r>   -7.2176    1.0000 </r>
       <r>   -7.0726    1.0000 </r>
       <r>   -4.3251    1.0000 </r>
       <r>   -3.1984    1.0000 </r>
       <r>   -2.6304    1.0000 </r>
       <r>    0.1550    1.0000 </r>
       <r>    0.4865    1.0000 </r>
       <r>    0.9245    1.0000 </r>
       <r>    1.4341    1.0000 </r>
       <r>    1.8615    1.0000 </r>
       <r>    1.9742    1.0000 </r>
       <r>    2.3711    1.0000 </r>
       <r>    2.7656    1.0000 </r>
       <r>    2.8533    1.0000 </r>
       <r>    3.0499    1.0000 </r>
       <r>    3.3870    1.0000 </r>
       <r>    3.8450    1.0000 </r>
       <r>    3.9769    1.0000 </r>
       <r>    4.3396    1.0000 </r>
       <r>    4.4419    1.0000 </r>
       <r>    4.6580    1.0000 </r>
       <r>    4.9905    1.0000 </r>
       <r>    5.3454    1.0000 </r>
       <r>    5.5310    1.0000 </r>
       <r>    5.9214    1.0000 </r>
       <r>    5.9945    1.0000 </r>
       <r>    6.5771    1.0000 </r>
       <r>    6.8161    1.0000 </r>
       <r>    7.2638    1.0000 </r>
       <r>   11.2325    0.0000 </r>
       <r>   11.4435    0.0000 </r>
       <r>   11.9141    0.0000 </r>
       <r>   12.2630    0.0000 </r>
       <r>   12.6629    0.0000 </r>
       <r>   12.9228    0.0000 </r>
       <r>   13.1021    0.0000 </r>
       <r>   13.2820    0.0000 </r>
       <r>   14.0897    0.0000 </r>
       <r>   14.4930    0.0000 </r>
       <r>   14.6826    0.0000 </r>
       <r>   15.0965    0.0000 </r>
      </set>
      <set comment="kpoint 22">
       <r>   -8.6193    1.0000 </r>
       <r>   -8.3692    1.0000 </r>
       <r>   -7.5446    1.0000 </r>
       <r>   -7.1473    1.0000 </r>
       <r>   -6.9478    1.0000 </r>
       <r>   -4.1198    1.0000 </r>
       <r>   -3.3234    1.0000 </r>
       <r>   -2.4472    1.0000 </r>
       <r>   -0.0310    1.0000 </r>
       <r>    0.4911    1.0000 </r>
       <r>    0.9258    1.0000 </r>
       <r>    1.2828    1.0000 </r>
       <r>    1.6611    1.0000 </r>
       <r>    1.9302    1.0000 </r>
       <r>    2.0845    1.0000 </r>
       <r>    2.6402    1.0000 </r>
       <r>    2.8628    1.0000 </r>
       <r>    3.1566    1.0000 </r>
       <r>    3.5366    1.0000 </r>
       <r>    3.8593    1.0000 </r>
       <r>    4.0233    1.0000 </r>
       <r>    4.2306    1.0000 </r>
       <r>    4.5559    1.0000 </r>
       <r>    4.7115    1.0000 </r>
       <r>    4.9575    1.0000 </r>
       <r>    5.4574    1.0000 </r>
       <r>    5.5641    1.0000 </r>
       <r>    5.7725    1.0000 </r>
       <r>    5.9078    1.0000 </r>
       <r>    6.5433    1.0000 </r>
       <r>    7.0216    1.0000 </r>
       <r>    7.2315    1.0000 </r>
       <r>   11.2083    0.0000 </r>
       <r>   11.6067    0.0000 </r>
       <r>   11.8942    0.0000 </r>
       <r>   12.5209    0.0000 </r>
       <r>   12.7425    0.0000 </r>
       <r>   12.9604    0.0000 </r>
       <r>   13.4411    0.0000 </r>
       <r>   13.6852    0.0000 </r>
       <r>   13.9724    0.0000 </r>
       <r>   14.3599    0.0000 </r>
       <r>   14.5038    0.0000 </r>
       <r>   15.1310    0.0000 </r>
      </set>
      <set comment="kpoint 23">
       <r>   -9.1190    1.0000 </r>
       <r>   -7.9144    1.0000 </r>
       <r>   -7.3556    1.0000 </r>
       <r>   -7.2315    1.0000 </r>
       <r>   -6.9071    1.0000 </r>
       <r>   -3.7875    1.0000 </r>
       <r>   -3.2309    1.0000 </r>
       <r>   -2.3952    1.0000 </r>
       <r>   -0.5349    1.0000 </r>
       <r>    0.2322    1.0000 </r>
       <r>    0.6064    1.0000 </r>
       <r>    1.2414    1.0000 </r>
       <r>    1.3844    1.0000 </r>
       <r>    1.4575    1.0000 </r>
       <r>    2.1087    1.0000 </r>
       <r>    2.4995    1.0000 </r>
       <r>    2.8735    1.0000 </r>
       <r>    3.1415    1.0000 </r>
       <r>    3.5818    1.0000 </r>
       <r>    3.7733    1.0000 </r>
       <r>    3.9352    1.0000 </r>
       <r>    4.3018    1.0000 </r>
       <r>    4.7184    1.0000 </r>
       <r>    5.0132    1.0000 </r>
       <r>    5.1983    1.0000 </r>
       <r>    5.6397    1.0000 </r>
       <r>    5.8259    1.0000 </r>
       <r>    6.1291    1.0000 </r>
       <r>    6.3866    1.0000 </r>
       <r>    6.6989    1.0000 </r>
       <r>    7.2340    1.0000 </r>
       <r>    7.4778    1.0000 </r>
       <r>   10.7412    0.0000 </r>
       <r>   11.4175    0.0000 </r>
       <r>   11.7596    0.0000 </r>
       <r>   12.0350    0.0000 </r>
       <r>   12.3730    0.0000 </r>
       <r>   12.7413    0.0000 </r>
       <r>   13.3323    0.0000 </r>
       <r>   13.7948    0.0000 </r>
       <r>   14.2588    0.0000 </r>
       <r>   14.6746    0.0000 </r>
       <r>   15.1690    0.0000 </r>
       <r>   15.5027    0.0000 </r>
      </set>
      <set comment="kpoint 24">
       <r>   -9.0022    1.0000 </r>
       <r>   -7.8516    1.0000 </r>
       <r>   -7.4642    1.0000 </r>
       <r>   -7.2750    1.0000 </r>
       <r>   -6.9997    1.0000 </r>
       <r>   -3.8889    1.0000 </r>
       <r>   -3.1024    1.0000 </r>
       <r>   -2.5815    1.0000 </r>
       <r>   -0.5159    1.0000 </r>
       <r>    0.1219    1.0000 </r>
       <r>    0.6971    1.0000 </r>
       <r>    1.1563    1.0000 </r>
       <r>    1.3545    1.0000 </r>
       <r>    1.7773    1.0000 </r>
       <r>    1.8792    1.0000 </r>
       <r>    2.7466    1.0000 </r>
       <r>    3.2038    1.0000 </r>
       <r>    3.2567    1.0000 </r>
       <r>    3.4868    1.0000 </r>
       <r>    3.8951    1.0000 </r>
       <r>    4.3356    1.0000 </r>
       <r>    4.4285    1.0000 </r>
       <r>    4.6541    1.0000 </r>
       <r>    5.0571    1.0000 </r>
       <r>    5.1959    1.0000 </r>
       <r>    5.3578    1.0000 </r>
       <r>    5.6780    1.0000 </r>
       <r>    6.1336    1.0000 </r>
       <r>    6.3193    1.0000 </r>
       <r>    6.6374    1.0000 </r>
       <r>    7.0809    1.0000 </r>
       <r>    7.4670    1.0000 </r>
       <r>   10.9611    0.0000 </r>
       <r>   11.1740    0.0000 </r>
       <r>   11.4183    0.0000 </r>
       <r>   11.9964    0.0000 </r>
       <r>   12.5210    0.0000 </r>
       <r>   12.7929    0.0000 </r>
       <r>   12.9463    0.0000 </r>
       <r>   13.7355    0.0000 </r>
       <r>   14.1383    0.0000 </r>
       <r>   14.3527    0.0000 </r>
       <r>   14.9562    0.0000 </r>
       <r>   15.1385    0.0000 </r>
      </set>
      <set comment="kpoint 25">
       <r>   -8.8332    1.0000 </r>
       <r>   -7.9131    1.0000 </r>
       <r>   -7.6304    1.0000 </r>
       <r>   -7.2248    1.0000 </r>
       <r>   -7.0144    1.0000 </r>
       <r>   -4.0593    1.0000 </r>
       <r>   -3.0569    1.0000 </r>
       <r>   -2.6525    1.0000 </r>
       <r>   -0.4821    1.0000 </r>
       <r>   -0.0230    1.0000 </r>
       <r>    0.5627    1.0000 </r>
       <r>    1.3240    1.0000 </r>
       <r>    1.4835    1.0000 </r>
       <r>    1.8298    1.0000 </r>
       <r>    2.4939    1.0000 </r>
       <r>    2.8181    1.0000 </r>
       <r>    3.1697    1.0000 </r>
       <r>    3.3226    1.0000 </r>
       <r>    3.6073    1.0000 </r>
       <r>    3.7446    1.0000 </r>
       <r>    4.1361    1.0000 </r>
       <r>    4.3269    1.0000 </r>
       <r>    4.7203    1.0000 </r>
       <r>    4.8144    1.0000 </r>
       <r>    5.1237    1.0000 </r>
       <r>    5.4898    1.0000 </r>
       <r>    5.9232    1.0000 </r>
       <r>    6.1296    1.0000 </r>
       <r>    6.4304    1.0000 </r>
       <r>    6.8418    1.0000 </r>
       <r>    7.0088    1.0000 </r>
       <r>    7.4352    1.0000 </r>
       <r>   10.5858    0.0000 </r>
       <r>   10.7777    0.0000 </r>
       <r>   11.4217    0.0000 </r>
       <r>   11.7014    0.0000 </r>
       <r>   12.1229    0.0000 </r>
       <r>   12.6594    0.0000 </r>
       <r>   13.2338    0.0000 </r>
       <r>   13.6766    0.0000 </r>
       <r>   14.0577    0.0000 </r>
       <r>   14.4921    0.0000 </r>
       <r>   14.7315    0.0000 </r>
       <r>   14.9894    0.0000 </r>
      </set>
      <set comment="kpoint 26">
       <r>   -8.9921    1.0000 </r>
       <r>   -7.8919    1.0000 </r>
       <r>   -7.5458    1.0000 </r>
       <r>   -7.2221    1.0000 </r>
       <r>   -6.8978    1.0000 </r>
       <r>   -4.0094    1.0000 </r>
       <r>   -3.1815    1.0000 </r>
       <r>   -2.4271    1.0000 </r>
       <r>   -0.4126    1.0000 </r>
       <r>    0.1656    1.0000 </r>
       <r>    0.5823    1.0000 </r>
       <r>    1.0737    1.0000 </r>
       <r>    1.4007    1.0000 </r>
       <r>    1.7270    1.0000 </r>
       <r>    1.9954    1.0000 </r>
       <r>    2.7379    1.0000 </r>
       <r>    3.0117    1.0000 </r>
       <r>    3.3462    1.0000 </r>
       <r>    3.6286    1.0000 </r>
       <r>    3.9376    1.0000 </r>
       <r>    4.1830    1.0000 </r>
       <r>    4.4005    1.0000 </r>
       <r>    4.5153    1.0000 </r>
       <r>    4.8528    1.0000 </r>
       <r>    5.2113    1.0000 </r>
       <r>    5.5189    1.0000 </r>
       <r>    6.0138    1.0000 </r>
       <r>    6.1015    1.0000 </r>
       <r>    6.2945    1.0000 </r>
       <r>    6.8217    1.0000 </r>
       <r>    6.9352    1.0000 </r>
       <r>    7.3757    1.0000 </r>
       <r>   10.8640    0.0000 </r>
       <r>   11.2573    0.0000 </r>
       <r>   11.6049    0.0000 </r>
       <r>   11.9464    0.0000 </r>
       <r>   12.4018    0.0000 </r>
       <r>   12.5520    0.0000 </r>
       <r>   13.1667    0.0000 </r>
       <r>   13.5291    0.0000 </r>
       <r>   14.3145    0.0000 </r>
       <r>   14.5261    0.0000 </r>
       <r>   14.8649    0.0000 </r>
       <r>   15.2345    0.0000 </r>
      </set>
      <set comment="kpoint 27">
       <r>   -9.0006    1.0000 </r>
       <r>   -8.0248    1.0000 </r>
       <r>   -7.4741    1.0000 </r>
       <r>   -7.1123    1.0000 </r>
       <r>   -6.9801    1.0000 </r>
       <r>   -3.8592    1.0000 </r>
       <r>   -3.4279    1.0000 </r>
       <r>   -2.2447    1.0000 </r>
       <r>   -0.2649    1.0000 </r>
       <r>    0.3703    1.0000 </r>
       <r>    0.7746    1.0000 </r>
       <r>    1.1891    1.0000 </r>
       <r>    1.7039    1.0000 </r>
       <r>    1.8210    1.0000 </r>
       <r>    2.1341    1.0000 </r>
       <r>    2.6868    1.0000 </r>
       <r>    3.0049    1.0000 </r>
       <r>    3.0929    1.0000 </r>
       <r>    3.4754    1.0000 </r>
       <r>    3.7382    1.0000 </r>
       <r>    4.0035    1.0000 </r>
       <r>    4.1496    1.0000 </r>
       <r>    4.3993    1.0000 </r>
       <r>    4.6368    1.0000 </r>
       <r>    4.9139    1.0000 </r>
       <r>    5.1863    1.0000 </r>
       <r>    5.5346    1.0000 </r>
       <r>    5.8050    1.0000 </r>
       <r>    6.1445    1.0000 </r>
       <r>    6.4479    1.0000 </r>
       <r>    6.9739    1.0000 </r>
       <r>    7.4053    1.0000 </r>
       <r>   11.5990    0.0000 </r>
       <r>   11.7490    0.0000 </r>
       <r>   11.8907    0.0000 </r>
       <r>   13.0509    0.0000 </r>
       <r>   13.3137    0.0000 </r>
       <r>   13.4371    0.0000 </r>
       <r>   13.9838    0.0000 </r>
       <r>   14.0931    0.0000 </r>
       <r>   14.2662    0.0000 </r>
       <r>   14.3571    0.0000 </r>
       <r>   14.5955    0.0000 </r>
       <r>   14.7510    0.0000 </r>
      </set>
      <set comment="kpoint 28">
       <r>   -8.9009    1.0000 </r>
       <r>   -7.9186    1.0000 </r>
       <r>   -7.4837    1.0000 </r>
       <r>   -7.2588    1.0000 </r>
       <r>   -7.0778    1.0000 </r>
       <r>   -4.0116    1.0000 </r>
       <r>   -3.3472    1.0000 </r>
       <r>   -2.5248    1.0000 </r>
       <r>   -0.2559    1.0000 </r>
       <r>    0.5810    1.0000 </r>
       <r>    1.0569    1.0000 </r>
       <r>    1.4553    1.0000 </r>
       <r>    1.7325    1.0000 </r>
       <r>    1.9829    1.0000 </r>
       <r>    2.3490    1.0000 </r>
       <r>    2.6010    1.0000 </r>
       <r>    2.8951    1.0000 </r>
       <r>    3.3098    1.0000 </r>
       <r>    3.4317    1.0000 </r>
       <r>    3.5174    1.0000 </r>
       <r>    3.8229    1.0000 </r>
       <r>    4.0241    1.0000 </r>
       <r>    4.2686    1.0000 </r>
       <r>    4.6324    1.0000 </r>
       <r>    4.8830    1.0000 </r>
       <r>    5.0750    1.0000 </r>
       <r>    5.3413    1.0000 </r>
       <r>    6.0142    1.0000 </r>
       <r>    6.3973    1.0000 </r>
       <r>    6.5903    1.0000 </r>
       <r>    7.0542    1.0000 </r>
       <r>    7.3819    1.0000 </r>
       <r>   11.3432    0.0000 </r>
       <r>   11.9349    0.0000 </r>
       <r>   12.1427    0.0000 </r>
       <r>   12.4334    0.0000 </r>
       <r>   12.8539    0.0000 </r>
       <r>   12.9717    0.0000 </r>
       <r>   13.5628    0.0000 </r>
       <r>   13.9593    0.0000 </r>
       <r>   14.1564    0.0000 </r>
       <r>   14.3602    0.0000 </r>
       <r>   14.8501    0.0000 </r>
       <r>   15.2013    0.0000 </r>
      </set>
      <set comment="kpoint 29">
       <r>   -8.7771    1.0000 </r>
       <r>   -7.7578    1.0000 </r>
       <r>   -7.6033    1.0000 </r>
       <r>   -7.3135    1.0000 </r>
       <r>   -7.2360    1.0000 </r>
       <r>   -4.1066    1.0000 </r>
       <r>   -3.2709    1.0000 </r>
       <r>   -2.8287    1.0000 </r>
       <r>   -0.2249    1.0000 </r>
       <r>    0.8335    1.0000 </r>
       <r>    1.3466    1.0000 </r>
       <r>    1.5543    1.0000 </r>
       <r>    1.8564    1.0000 </r>
       <r>    2.1672    1.0000 </r>
       <r>    2.4909    1.0000 </r>
       <r>    2.6042    1.0000 </r>
       <r>    2.8259    1.0000 </r>
       <r>    3.0213    1.0000 </r>
       <r>    3.3076    1.0000 </r>
       <r>    3.7401    1.0000 </r>
       <r>    3.8457    1.0000 </r>
       <r>    4.1227    1.0000 </r>
       <r>    4.2620    1.0000 </r>
       <r>    4.4281    1.0000 </r>
       <r>    4.4710    1.0000 </r>
       <r>    5.1417    1.0000 </r>
       <r>    5.4959    1.0000 </r>
       <r>    6.0170    1.0000 </r>
       <r>    6.5352    1.0000 </r>
       <r>    6.6568    1.0000 </r>
       <r>    6.9269    1.0000 </r>
       <r>    7.2951    1.0000 </r>
       <r>   11.2640    0.0000 </r>
       <r>   12.0412    0.0000 </r>
       <r>   12.2524    0.0000 </r>
       <r>   12.5801    0.0000 </r>
       <r>   12.8501    0.0000 </r>
       <r>   13.0042    0.0000 </r>
       <r>   13.2985    0.0000 </r>
       <r>   13.5921    0.0000 </r>
       <r>   13.6524    0.0000 </r>
       <r>   14.1266    0.0000 </r>
       <r>   14.6759    0.0000 </r>
       <r>   14.9787    0.0000 </r>
      </set>
      <set comment="kpoint 30">
       <r>   -8.9066    1.0000 </r>
       <r>   -8.1426    1.0000 </r>
       <r>   -7.5352    1.0000 </r>
       <r>   -7.0948    1.0000 </r>
       <r>   -6.9446    1.0000 </r>
       <r>   -3.8041    1.0000 </r>
       <r>   -3.3726    1.0000 </r>
       <r>   -2.3042    1.0000 </r>
       <r>   -0.4352    1.0000 </r>
       <r>    0.2495    1.0000 </r>
       <r>    0.8706    1.0000 </r>
       <r>    1.2963    1.0000 </r>
       <r>    1.5419    1.0000 </r>
       <r>    2.0850    1.0000 </r>
       <r>    2.2088    1.0000 </r>
       <r>    2.5446    1.0000 </r>
       <r>    2.9037    1.0000 </r>
       <r>    3.0943    1.0000 </r>
       <r>    3.4787    1.0000 </r>
       <r>    3.6371    1.0000 </r>
       <r>    3.9094    1.0000 </r>
       <r>    4.2305    1.0000 </r>
       <r>    4.4191    1.0000 </r>
       <r>    4.9824    1.0000 </r>
       <r>    5.0997    1.0000 </r>
       <r>    5.3668    1.0000 </r>
       <r>    5.6561    1.0000 </r>
       <r>    5.7647    1.0000 </r>
       <r>    5.9724    1.0000 </r>
       <r>    6.6135    1.0000 </r>
       <r>    6.9824    1.0000 </r>
       <r>    7.3429    1.0000 </r>
       <r>   10.9142    0.0000 </r>
       <r>   11.4131    0.0000 </r>
       <r>   12.1294    0.0000 </r>
       <r>   12.5120    0.0000 </r>
       <r>   12.8863    0.0000 </r>
       <r>   13.3066    0.0000 </r>
       <r>   13.7983    0.0000 </r>
       <r>   14.1246    0.0000 </r>
       <r>   14.2924    0.0000 </r>
       <r>   14.4186    0.0000 </r>
       <r>   14.8352    0.0000 </r>
       <r>   14.9829    0.0000 </r>
      </set>
      <set comment="kpoint 31">
       <r>   -8.8013    1.0000 </r>
       <r>   -8.0631    1.0000 </r>
       <r>   -7.5248    1.0000 </r>
       <r>   -7.2702    1.0000 </r>
       <r>   -6.9963    1.0000 </r>
       <r>   -4.0768    1.0000 </r>
       <r>   -3.1759    1.0000 </r>
       <r>   -2.6127    1.0000 </r>
       <r>   -0.1437    1.0000 </r>
       <r>    0.4547    1.0000 </r>
       <r>    0.9555    1.0000 </r>
       <r>    1.2785    1.0000 </r>
       <r>    1.5772    1.0000 </r>
       <r>    2.0432    1.0000 </r>
       <r>    2.3574    1.0000 </r>
       <r>    2.6209    1.0000 </r>
       <r>    2.8461    1.0000 </r>
       <r>    3.1242    1.0000 </r>
       <r>    3.4722    1.0000 </r>
       <r>    3.8609    1.0000 </r>
       <r>    3.9788    1.0000 </r>
       <r>    4.3066    1.0000 </r>
       <r>    4.4573    1.0000 </r>
       <r>    4.6446    1.0000 </r>
       <r>    5.0621    1.0000 </r>
       <r>    5.3457    1.0000 </r>
       <r>    5.5718    1.0000 </r>
       <r>    5.7550    1.0000 </r>
       <r>    5.9914    1.0000 </r>
       <r>    6.6536    1.0000 </r>
       <r>    6.9710    1.0000 </r>
[...]
       <r>   -3.9453    1.0000 </r>
       <r>   -3.3108    1.0000 </r>
       <r>   -2.5933    1.0000 </r>
       <r>   -0.0479    1.0000 </r>
       <r>    0.2434    1.0000 </r>
       <r>    0.9174    1.0000 </r>
       <r>    1.2082    1.0000 </r>
       <r>    1.8038    1.0000 </r>
       <r>    1.9732    1.0000 </r>
       <r>    2.2343    1.0000 </r>
       <r>    2.4628    1.0000 </r>
       <r>    3.0236    1.0000 </r>
       <r>    3.1540    1.0000 </r>
       <r>    3.5318    1.0000 </r>
       <r>    3.7691    1.0000 </r>
       <r>    4.1053    1.0000 </r>
       <r>    4.4601    1.0000 </r>
       <r>    4.5178    1.0000 </r>
       <r>    4.8074    1.0000 </r>
       <r>    5.1596    1.0000 </r>
       <r>    5.3527    1.0000 </r>
       <r>    5.5533    1.0000 </r>
       <r>    5.9489    1.0000 </r>
       <r>    6.1866    1.0000 </r>
       <r>    6.3220    1.0000 </r>
       <r>    6.9601    1.0000 </r>
       <r>    7.2247    1.0000 </r>
       <r>   11.0837    0.0000 </r>
       <r>   11.3252    0.0000 </r>
       <r>   11.9103    0.0000 </r>
       <r>   12.0280    0.0000 </r>
       <r>   12.2261    0.0000 </r>
       <r>   12.6803    0.0000 </r>
       <r>   13.1381    0.0000 </r>
       <r>   13.6971    0.0000 </r>
       <r>   14.1707    0.0000 </r>
       <r>   14.3150    0.0000 </r>
       <r>   14.8096    0.0000 </r>
       <r>   15.2233    0.0000 </r>
      </set>
      <set comment="kpoint 36">
       <r>   -8.4766    1.0000 </r>
       <r>   -8.2154    1.0000 </r>
       <r>   -7.5632    1.0000 </r>
       <r>   -7.3740    1.0000 </r>
       <r>   -7.1004    1.0000 </r>
       <r>   -4.0963    1.0000 </r>
       <r>   -3.1702    1.0000 </r>
       <r>   -2.9120    1.0000 </r>
       <r>    0.0660    1.0000 </r>
       <r>    0.3170    1.0000 </r>
       <r>    0.9704    1.0000 </r>
       <r>    1.6439    1.0000 </r>
       <r>    1.8558    1.0000 </r>
       <r>    2.1505    1.0000 </r>
       <r>    2.1989    1.0000 </r>
       <r>    2.7080    1.0000 </r>
       <r>    2.7834    1.0000 </r>
       <r>    3.1803    1.0000 </r>
       <r>    3.4436    1.0000 </r>
       <r>    4.0210    1.0000 </r>
       <r>    4.1169    1.0000 </r>
       <r>    4.3689    1.0000 </r>
       <r>    4.5004    1.0000 </r>
       <r>    4.5572    1.0000 </r>
       <r>    5.0790    1.0000 </r>
       <r>    5.3725    1.0000 </r>
       <r>    5.4381    1.0000 </r>
       <r>    5.9448    1.0000 </r>
       <r>    6.2110    1.0000 </r>
       <r>    6.4115    1.0000 </r>
       <r>    6.9193    1.0000 </r>
       <r>    7.3205    1.0000 </r>
       <r>   10.9356    0.0000 </r>
       <r>   11.2609    0.0000 </r>
       <r>   11.5664    0.0000 </r>
       <r>   12.0092    0.0000 </r>
       <r>   12.4621    0.0000 </r>
       <r>   12.5790    0.0000 </r>
       <r>   12.8049    0.0000 </r>
       <r>   12.9658    0.0000 </r>
       <r>   13.8117    0.0000 </r>
       <r>   14.5385    0.0000 </r>
       <r>   14.7487    0.0000 </r>
       <r>   15.2422    0.0000 </r>
      </set>
     </set>
    </set>
   </array>
  </eigenvalues>
  <separator name="orbital magnetization" >
   <v name="MAGDIPOLOUT">      0.00000000      0.00000000      0.00000000</v>
  </separator>
  <dos>
   <i name="efermi">      8.19161137 </i>
   <total>
    <array>
     <dimension dim="1">gridpoints</dimension>
     <dimension dim="2">spin</dimension>
     <field>energy</field>
     <field>total</field>
     <field>integrated</field>
     <set>
      <set comment="spin 1">
       <r>   -10.5543     0.0000     0.0000 </r>
       <r>   -10.4633     0.0000     0.0000 </r>
       <r>   -10.3723     0.0000     0.0000 </r>
       <r>   -10.2813     0.0000     0.0000 </r>
       <r>   -10.1903     0.0000     0.0000 </r>
       <r>   -10.0993     0.0000     0.0000 </r>
       <r>   -10.0083     0.0000     0.0000 </r>
       <r>    -9.9173     0.0000     0.0000 </r>
       <r>    -9.8263     0.0000     0.0000 </r>
       <r>    -9.7354     0.0000     0.0000 </r>
       <r>    -9.6444     0.0000     0.0000 </r>
       <r>    -9.5534     0.0001     0.0000 </r>
       <r>    -9.4624     0.0060     0.0006 </r>
       <r>    -9.3714     0.0706     0.0070 </r>
       <r>    -9.2804     0.2965     0.0340 </r>
       <r>    -9.1894     0.9212     0.1178 </r>
       <r>    -9.0984     1.9141     0.2920 </r>
       <r>    -9.0074     2.7964     0.5464 </r>
       <r>    -8.9164     3.1793     0.8357 </r>
       <r>    -8.8254     3.3664     1.1420 </r>
       <r>    -8.7344     3.1575     1.4293 </r>
       <r>    -8.6434     2.6372     1.6693 </r>
       <r>    -8.5525     2.1098     1.8613 </r>
       <r>    -8.4615     1.9372     2.0375 </r>
       <r>    -8.3705     2.2699     2.2441 </r>
       <r>    -8.2795     1.8023     2.4081 </r>
       <r>    -8.1885     1.4140     2.5367 </r>
       <r>    -8.0975     1.9496     2.7141 </r>
       <r>    -8.0065     3.0707     2.9935 </r>
       <r>    -7.9155     3.8712     3.3458 </r>
       <r>    -7.8245     3.2175     3.6386 </r>
       <r>    -7.7335     2.2424     3.8426 </r>
       <r>    -7.6425     2.9811     4.1139 </r>
       <r>    -7.5515     5.3069     4.5967 </r>
       <r>    -7.4605     7.0206     5.2356 </r>
       <r>    -7.3695     7.0519     5.8772 </r>
       <r>    -7.2786     7.3725     6.5481 </r>
       <r>    -7.1876     8.7179     7.3413 </r>
       <r>    -7.0966     7.4694     8.0210 </r>
       <r>    -7.0056     7.1939     8.6756 </r>
       <r>    -6.9146     7.8813     9.3927 </r>
       <r>    -6.8236     5.2919     9.8743 </r>
       <r>    -6.7326     1.2920     9.9918 </r>
       <r>    -6.6416     0.0883     9.9999 </r>
       <r>    -6.5506     0.0015    10.0000 </r>
       <r>    -6.4596     0.0000    10.0000 </r>
       <r>    -6.3686     0.0000    10.0000 </r>
       <r>    -6.2776     0.0000    10.0000 </r>
       <r>    -6.1866     0.0000    10.0000 </r>
       <r>    -6.0957     0.0000    10.0000 </r>
       <r>    -6.0047     0.0000    10.0000 </r>
       <r>    -5.9137     0.0000    10.0000 </r>
       <r>    -5.8227     0.0000    10.0000 </r>
       <r>    -5.7317     0.0000    10.0000 </r>
       <r>    -5.6407     0.0000    10.0000 </r>
       <r>    -5.5497     0.0000    10.0000 </r>
       <r>    -5.4587     0.0000    10.0000 </r>
       <r>    -5.3677     0.0000    10.0000 </r>
       <r>    -5.2767     0.0000    10.0000 </r>
       <r>    -5.1857     0.0000    10.0000 </r>
       <r>    -5.0947     0.0000    10.0000 </r>
       <r>    -5.0037     0.0000    10.0000 </r>
       <r>    -4.9127     0.0000    10.0000 </r>
       <r>    -4.8218     0.0000    10.0000 </r>
       <r>    -4.7308     0.0002    10.0000 </r>
       <r>    -4.6398     0.0080    10.0007 </r>
       <r>    -4.5488     0.0771    10.0078 </r>
       <r>    -4.4578     0.2207    10.0278 </r>
       <r>    -4.3668     0.6472    10.0867 </r>
       <r>    -4.2758     1.6467    10.2366 </r>
       <r>    -4.1848     2.1473    10.4320 </r>
       <r>    -4.0938     3.2350    10.7263 </r>
       <r>    -4.0028     4.7055    11.1545 </r>
       <r>    -3.9118     4.3536    11.5506 </r>
       <r>    -3.8208     2.9388    11.8180 </r>
       <r>    -3.7298     1.5034    11.9548 </r>
       <r>    -3.6389     0.4403    11.9949 </r>
       <r>    -3.5479     0.1184    12.0057 </r>
       <r>    -3.4569     0.6142    12.0616 </r>
       <r>    -3.3659     1.9579    12.2397 </r>
       <r>    -3.2749     3.3321    12.5429 </r>
       <r>    -3.1839     4.8665    12.9857 </r>
       <r>    -3.0929     5.0314    13.4435 </r>
       <r>    -3.0019     3.6475    13.7754 </r>
       <r>    -2.9109     2.0329    13.9604 </r>
       <r>    -2.8199     1.2383    14.0731 </r>
       <r>    -2.7289     0.8400    14.1495 </r>
       <r>    -2.6379     2.0571    14.3367 </r>
       <r>    -2.5469     4.0566    14.7058 </r>
       <r>    -2.4559     5.0266    15.1632 </r>
       <r>    -2.3650     5.0870    15.6261 </r>
       <r>    -2.2740     2.9700    15.8964 </r>
       <r>    -2.1830     0.9801    15.9855 </r>
       <r>    -2.0920     0.1509    15.9993 </r>
       <r>    -2.0010     0.0079    16.0000 </r>
       <r>    -1.9100     0.0001    16.0000 </r>
       <r>    -1.8190     0.0000    16.0000 </r>
       <r>    -1.7280     0.0000    16.0000 </r>
       <r>    -1.6370     0.0000    16.0000 </r>
       <r>    -1.5460     0.0000    16.0000 </r>
       <r>    -1.4550     0.0000    16.0000 </r>
       <r>    -1.3640     0.0000    16.0000 </r>
       <r>    -1.2730     0.0000    16.0000 </r>
       <r>    -1.1820     0.0000    16.0000 </r>
       <r>    -1.0911     0.0000    16.0000 </r>
       <r>    -1.0001     0.0001    16.0000 </r>
       <r>    -0.9091     0.0050    16.0005 </r>
       <r>    -0.8181     0.0746    16.0073 </r>
       <r>    -0.7271     0.3471    16.0388 </r>
       <r>    -0.6361     0.8115    16.1127 </r>
       <r>    -0.5451     1.9750    16.2924 </r>
       <r>    -0.4541     3.5231    16.6130 </r>
       <r>    -0.3631     3.2813    16.9115 </r>
       <r>    -0.2721     2.5179    17.1407 </r>
       <r>    -0.1811     2.4046    17.3594 </r>
       <r>    -0.0901     2.4736    17.5845 </r>
       <r>     0.0009     3.1332    17.8696 </r>
       <r>     0.0918     3.5161    18.1896 </r>
       <r>     0.1828     3.8717    18.5419 </r>
       <r>     0.2738     4.2553    18.9291 </r>
       <r>     0.3648     3.8657    19.2808 </r>
       <r>     0.4558     3.6473    19.6127 </r>
       <r>     0.5468     4.7087    20.0411 </r>
       <r>     0.6378     4.8221    20.4799 </r>
       <r>     0.7288     3.1272    20.7645 </r>
       <r>     0.8198     2.2331    20.9677 </r>
       <r>     0.9108     3.0348    21.2438 </r>
       <r>     1.0018     4.4882    21.6522 </r>
       <r>     1.0928     5.3795    22.1417 </r>
       <r>     1.1838     4.8701    22.5848 </r>
       <r>     1.2748     5.4775    23.0833 </r>
       <r>     1.3657     6.9896    23.7193 </r>
       <r>     1.4567     7.4986    24.4016 </r>
       <r>     1.5477     6.3242    24.9770 </r>
       <r>     1.6387     5.0187    25.4337 </r>
       <r>     1.7297     4.8283    25.8730 </r>
       <r>     1.8207     5.6989    26.3916 </r>
       <r>     1.9117     6.7929    27.0097 </r>
       <r>     2.0027     6.8844    27.6361 </r>
       <r>     2.0937     7.0649    28.2790 </r>
       <r>     2.1847     5.7921    28.8060 </r>
       <r>     2.2757     4.0423    29.1738 </r>
       <r>     2.3667     4.4839    29.5818 </r>
       <r>     2.4577     6.3182    30.1567 </r>
       <r>     2.5486     6.5497    30.7527 </r>
       <r>     2.6396     6.1360    31.3110 </r>
       <r>     2.7306     6.5444    31.9065 </r>
       <r>     2.8216     7.0383    32.5470 </r>
       <r>     2.9126     6.9192    33.1766 </r>
       <r>     3.0036     6.1392    33.7352 </r>
       <r>     3.0946     6.1413    34.2940 </r>
       <r>     3.1856     6.1484    34.8535 </r>
       <r>     3.2766     5.9154    35.3917 </r>
       <r>     3.3676     7.2018    36.0470 </r>
       <r>     3.4586     7.4540    36.7253 </r>
       <r>     3.5496     7.1562    37.3764 </r>
       <r>     3.6406     7.0934    38.0219 </r>
       <r>     3.7316     7.1413    38.6717 </r>
       <r>     3.8225     7.7123    39.3735 </r>
       <r>     3.9135     8.0257    40.1037 </r>
       <r>     4.0045     7.8228    40.8156 </r>
       <r>     4.0955     7.6522    41.5119 </r>
       <r>     4.1865     7.5851    42.2020 </r>
       <r>     4.2775     7.4545    42.8803 </r>
       <r>     4.3685     8.4124    43.6458 </r>
       <r>     4.4595     9.2537    44.4878 </r>
       <r>     4.5505     7.5302    45.1730 </r>
       <r>     4.6415     6.2573    45.7424 </r>
       <r>     4.7325     6.9872    46.3782 </r>
       <r>     4.8235     7.3592    47.0478 </r>
       <r>     4.9145     7.9812    47.7740 </r>
       <r>     5.0054     8.4221    48.5404 </r>
       <r>     5.0964     7.7073    49.2417 </r>
       <r>     5.1874     7.1624    49.8934 </r>
       <r>     5.2784     6.9087    50.5221 </r>
       <r>     5.3694     6.3232    51.0974 </r>
       <r>     5.4604     6.4886    51.6879 </r>
       <r>     5.5514     7.1631    52.3397 </r>
       <r>     5.6424     7.2105    52.9958 </r>
       <r>     5.7334     6.5810    53.5946 </r>
       <r>     5.8244     6.9816    54.2299 </r>
       <r>     5.9154     6.7179    54.8411 </r>
       <r>     6.0064     7.1644    55.4931 </r>
       <r>     6.0974     6.9762    56.1278 </r>
       <r>     6.1884     5.9602    56.6702 </r>
       <r>     6.2793     4.9521    57.1208 </r>
       <r>     6.3703     5.3539    57.6080 </r>
       <r>     6.4613     5.2258    58.0835 </r>
       <r>     6.5523     5.6643    58.5989 </r>
       <r>     6.6433     5.4051    59.0907 </r>
       <r>     6.7343     4.3837    59.4896 </r>
       <r>     6.8253     4.4323    59.8929 </r>
       <r>     6.9163     5.3992    60.3842 </r>
       <r>     7.0073     6.1297    60.9419 </r>
       <r>     7.0983     5.5356    61.4456 </r>
       <r>     7.1893     4.7296    61.8760 </r>
       <r>     7.2803     5.2186    62.3508 </r>
       <r>     7.3713     5.3386    62.8366 </r>
       <r>     7.4622     5.0727    63.2982 </r>
       <r>     7.5532     4.1623    63.6769 </r>
       <r>     7.6442     2.3683    63.8924 </r>
       <r>     7.7352     0.9452    63.9784 </r>
       <r>     7.8262     0.2150    63.9980 </r>
       <r>     7.9172     0.0213    63.9999 </r>
       <r>     8.0082     0.0007    64.0000 </r>
       <r>     8.0992     0.0000    64.0000 </r>
       <r>     8.1902     0.0000    64.0000 </r>
       <r>     8.2812     0.0000    64.0000 </r>
       <r>     8.3722     0.0000    64.0000 </r>
       <r>     8.4632     0.0000    64.0000 </r>
       <r>     8.5542     0.0000    64.0000 </r>
       <r>     8.6452     0.0000    64.0000 </r>
       <r>     8.7361     0.0000    64.0000 </r>
       <r>     8.8271     0.0000    64.0000 </r>
       <r>     8.9181     0.0000    64.0000 </r>
       <r>     9.0091     0.0000    64.0000 </r>
       <r>     9.1001     0.0000    64.0000 </r>
       <r>     9.1911     0.0000    64.0000 </r>
       <r>     9.2821     0.0000    64.0000 </r>
       <r>     9.3731     0.0000    64.0000 </r>
       <r>     9.4641     0.0000    64.0000 </r>
       <r>     9.5551     0.0000    64.0000 </r>
       <r>     9.6461     0.0000    64.0000 </r>
       <r>     9.7371     0.0000    64.0000 </r>
       <r>     9.8281     0.0000    64.0000 </r>
       <r>     9.9190     0.0000    64.0000 </r>
       <r>    10.0100     0.0000    64.0000 </r>
       <r>    10.1010     0.0000    64.0000 </r>
       <r>    10.1920     0.0000    64.0000 </r>
       <r>    10.2830     0.0026    64.0002 </r>
       <r>    10.3740     0.0420    64.0041 </r>
       <r>    10.4650     0.1820    64.0206 </r>
       <r>    10.5560     0.3898    64.0561 </r>
       <r>    10.6470     0.6344    64.1138 </r>
       <r>    10.7380     0.9870    64.2036 </r>
       <r>    10.8290     1.6127    64.3504 </r>
       <r>    10.9200     2.2956    64.5593 </r>
       <r>    11.0110     2.9387    64.8267 </r>
       <r>    11.1020     3.6657    65.1602 </r>
       <r>    11.1929     4.5232    65.5718 </r>
       <r>    11.2839     4.7485    66.0039 </r>
       <r>    11.3749     4.4401    66.4079 </r>
       <r>    11.4659     4.6390    66.8300 </r>
       <r>    11.5569     3.8101    67.1767 </r>
       <r>    11.6479     3.7336    67.5164 </r>
       <r>    11.7389     4.2451    67.9027 </r>
       <r>    11.8299     4.9585    68.3539 </r>
       <r>    11.9209     6.2831    68.9256 </r>
       <r>    12.0119     6.5435    69.5210 </r>
       <r>    12.1029     5.5299    70.0242 </r>
       <r>    12.1939     5.2979    70.5063 </r>
       <r>    12.2849     5.0689    70.9675 </r>
       <r>    12.3759     4.7389    71.3987 </r>
       <r>    12.4668     4.7635    71.8321 </r>
       <r>    12.5578     5.2486    72.3097 </r>
       <r>    12.6488     6.2789    72.8811 </r>
       <r>    12.7398     7.4067    73.5550 </r>
       <r>    12.8308     6.9268    74.1853 </r>
       <r>    12.9218     5.8868    74.7210 </r>
       <r>    13.0128     5.1512    75.1897 </r>
       <r>    13.1038     4.1652    75.5687 </r>
       <r>    13.1948     5.0616    76.0292 </r>
       <r>    13.2858     6.1495    76.5888 </r>
       <r>    13.3768     5.6163    77.0998 </r>
       <r>    13.4678     4.8749    77.5434 </r>
       <r>    13.5588     5.1042    78.0079 </r>
       <r>    13.6497     5.2198    78.4828 </r>
       <r>    13.7407     5.4058    78.9747 </r>
       <r>    13.8317     5.6382    79.4877 </r>
       <r>    13.9227     4.8242    79.9267 </r>
       <r>    14.0137     5.1752    80.3976 </r>
       <r>    14.1047     5.7380    80.9197 </r>
       <r>    14.1957     6.0899    81.4739 </r>
       <r>    14.2867     6.7447    82.0876 </r>
       <r>    14.3777     7.6600    82.7846 </r>
       <r>    14.4687     7.4855    83.4657 </r>
       <r>    14.5597     6.3066    84.0396 </r>
       <r>    14.6507     5.3292    84.5245 </r>
       <r>    14.7417     6.0872    85.0784 </r>
       <r>    14.8327     6.2507    85.6471 </r>
       <r>    14.9236     5.1635    86.1170 </r>
       <r>    15.0146     4.8485    86.5582 </r>
       <r>    15.1056     4.4760    86.9654 </r>
       <r>    15.1966     4.4489    87.3703 </r>
       <r>    15.2876     3.6598    87.7033 </r>
       <r>    15.3786     1.9555    87.8812 </r>
       <r>    15.4696     0.7699    87.9513 </r>
       <r>    15.5606     0.3917    87.9869 </r>
       <r>    15.6516     0.1318    87.9989 </r>
       <r>    15.7426     0.0119    88.0000 </r>
       <r>    15.8336     0.0002    88.0000 </r>
       <r>    15.9246     0.0000    88.0000 </r>
       <r>    16.0156     0.0000    88.0000 </r>
       <r>    16.1065     0.0000    88.0000 </r>
       <r>    16.1975     0.0000    88.0000 </r>
       <r>    16.2885     0.0000    88.0000 </r>
       <r>    16.3795     0.0000    88.0000 </r>
       <r>    16.4705     0.0000    88.0000 </r>
       <r>    16.5615     0.0000    88.0000 </r>
       <r>    16.6525     0.0000    88.0000 </r>
       <r>    16.7435     0.0000    88.0000 </r>
      </set>
     </set>
    </array>
   </total>
  </dos>
 </calculation>
 <structure name="finalpos" >
  <crystal>
   <varray name="basis" >
    <v>       5.41251120       0.01464186       0.00295697 </v>
    <v>       0.01611027       5.90580059      -0.03465648 </v>
    <v>      -0.00425233      -2.61915543       5.35629414 </v>
   </varray>
   <i name="volume">    170.72246750 </i>
   <varray name="rec_basis" >
    <v>       0.18475854      -0.00050458      -0.00010006 </v>
    <v>      -0.00050474       0.16981370       0.08303621 </v>
    <v>      -0.00010526       0.00109901       0.18723356 </v>
   </varray>
  </crystal>
  <varray name="positions" >
   <v>       0.83710429       0.74771951       0.73751034 </v>
   <v>       0.17777412       0.49328773       0.00395243 </v>
   <v>       0.66937041       0.24720859       0.74496602 </v>
   <v>       0.32870376       0.00395965       0.98815465 </v>
   <v>       0.83402519       0.26124204       0.25563596 </v>
   <v>       0.33079094       0.50017190       0.50361895 </v>
   <v>       0.65944677       0.75204016       0.25265586 </v>
   <v>       0.16430187       0.99738206       0.49734870 </v>
   <v>       0.34591163       0.31007141       0.70850935 </v>
   <v>       0.16646703       0.31874132       0.18595398 </v>
   <v>       0.66764423       0.57776984       0.45645060 </v>
   <v>       0.32141845       0.80138290       0.17298298 </v>
   <v>       0.82338894       0.07022619       0.45105534 </v>
   <v>       0.84538641       0.55793555       0.92546713 </v>
   <v>       0.14621916       0.80878247       0.69269679 </v>
   <v>       0.68204682       0.05207868       0.92304091 </v>
  </varray>
 </structure>
</modeling>
