<?xml version="1.0" encoding="ISO-8859-1"?>
<modeling>
 <generator>
  <i name="program" type="string">vasp </i>
  <i name="version" type="string">5.3.5  </i>
  <i name="subversion" type="string">31Mar14 (build Jun 20 2014 13:15:13) complex                          parallel </i>
  <i name="platform" type="string">LinuxIFC </i>
  <i name="date" type="string">2025 12 12 </i>
  <i name="time" type="string">11:25:31 </i>
 </generator>
 <incar>
  <i type="string" name="PREC">accurate</i>
  <i type="int" name="IALGO">    38</i>
  <i type="logical" name="ADDGRID"> T  </i>
  <i type="int" name="ISPIN">     2</i>
  <i type="int" name="NELM">   100</i>
  <i type="int" name="NELMIN">     4</i>
  <i name="EDIFF">      0.00000100</i>
  <i name="ENCUT">    500.00000000</i>
  <i type="logical" name="LREAL"> F  </i>
  <i type="int" name="ISMEAR">     0</i>
  <i name="SIGMA">      0.05000000</i>
  <i type="logical" name="LWAVE"> F  </i>
  <i type="logical" name="LCHARG"> F  </i>
  <i type="int" name="NELM">   100</i>
  <i type="logical" name="LDAU"> T  </i>
  <v name="LDAUU">      0.00000000      4.00000000      0.00000000</v>
  <v name="LDAUJ">      0.00000000      0.00000000      0.00000000</v>
 </incar>
 <kpoints>
  <generation param="Auto">
   <i name="subdivisionlength">     20.00000000 </i>
   <v type="int" name="divisions">       5        5        3 </v>
   <v name="usershift">      0.00000000       0.00000000       0.00000000 </v>
   <v name="genvec1">      0.20000000       0.00000000       0.00000000 </v>
   <v name="genvec2">      0.00000000       0.20000000       0.00000000 </v>
   <v name="genvec3">      0.00000000       0.00000000       0.33333333 </v>
   <v name="shift">      0.00000000       0.00000000       0.00000000 </v>
  </generation>
  <varray name="kpointlist" >
   <v>       0.00000000       0.00000000       0.00000000 </v>
   <v>       0.20000000       0.00000000       0.00000000 </v>
   <v>       0.40000000       0.00000000       0.00000000 </v>
   <v>       0.00000000       0.20000000       0.00000000 </v>
   <v>       0.20000000       0.20000000       0.00000000 </v>
   <v>       0.40000000       0.20000000       0.00000000 </v>
   <v>       0.00000000       0.40000000       0.00000000 </v>
   <v>       0.20000000       0.40000000       0.00000000 </v>
   <v>       0.40000000       0.40000000       0.00000000 </v>
   <v>       0.00000000       0.00000000       0.33333333 </v>
   <v>       0.20000000       0.00000000       0.33333333 </v>
   <v>       0.40000000       0.00000000       0.33333333 </v>
   <v>       0.00000000       0.20000000       0.33333333 </v>
   <v>       0.20000000       0.20000000       0.33333333 </v>
   <v>       0.40000000       0.20000000       0.33333333 </v>
   <v>       0.00000000       0.40000000       0.33333333 </v>
   <v>       0.20000000       0.40000000       0.33333333 </v>
   <v>       0.40000000       0.40000000       0.33333333 </v>
  </varray>
  <varray name="weights" >
   <v>       0.01333333 </v>
   <v>       0.02666667 </v>
   <v>       0.02666667 </v>
   <v>       0.02666667 </v>
   <v>       0.05333333 </v>
   <v>       0.05333333 </v>
   <v>       0.02666667 </v>
   <v>       0.05333333 </v>
   <v>       0.05333333 </v>
   <v>       0.02666667 </v>
   <v>       0.05333333 </v>
   <v>       0.05333333 </v>
   <v>       0.05333333 </v>
   <v>       0.10666667 </v>
   <v>       0.10666667 </v>
   <v>       0.05333333 </v>
   <v>       0.10666667 </v>
   <v>       0.10666667 </v>
  </varray>
 </kpoints>
 <parameters>
  <separator name="general" >
   <i type="string" name="SYSTEM">unknown system</i>
   <i type="logical" name="LCOMPAT"> F  </i>
  </separator>
  <separator name="electronic" >
   <i type="string" name="PREC">accura</i>
   <i name="ENMAX">    500.00000000</i>
   <i name="ENAUG">    586.98000000</i>
   <i name="EDIFF">      0.00000100</i>
   <i type="int" name="IALGO">    38</i>
   <i type="int" name="IWAVPR">    10</i>
   <i type="int" name="NBANDS">    44</i>
   <i name="NELECT">     66.00000000</i>
   <i type="int" name="TURBO">     0</i>
   <i type="int" name="IRESTART">     0</i>
   <i type="int" name="NREBOOT">     0</i>
   <i type="int" name="NMIN">     0</i>
   <i name="EREF">      0.00000000</i>
   <separator name="electronic smearing" >
    <i type="int" name="ISMEAR">     0</i>
    <i name="SIGMA">      0.05000000</i>
    <i name="KSPACING">      0.50000000</i>
    <i type="logical" name="KGAMMA"> T  </i>
   </separator>
   <separator name="electronic projectors" >
    <i type="logical" name="LREAL"> F  </i>
    <v name="ROPT">      0.00000000      0.00000000      0.00000000</v>
    <i type="int" name="LMAXPAW">  -100</i>
    <i type="int" name="LMAXMIX">     2</i>
    <i type="logical" name="NLSPLINE"> F  </i>
   </separator>
   <separator name="electronic startup" >
    <i type="int" name="ISTART">     0</i>
    <i type="int" name="ICHARG">     2</i>
    <i type="int" name="INIWAV">     1</i>
   </separator>
   <separator name="electronic spin" >
    <i type="int" name="ISPIN">     2</i>
    <i type="logical" name="LNONCOLLINEAR"> F  </i>
    <v name="MAGMOM">      1.00000000      1.00000000      1.00000000      1.00000000      1.00000000      1.00000000      1.00000000      1.00000000</v>
    <i name="NUPDOWN">     -1.00000000</i>
    <i type="logical" name="LSORBIT"> F  </i>
    <v name="SAXIS">      0.00000000      0.00000000      1.00000000</v>
    <i type="logical" name="LSPIRAL"> F  </i>
    <v name="QSPIRAL">      0.00000000      0.00000000      0.00000000</v>
    <i type="logical" name="LZEROZ"> F  </i>
   </separator>
   <separator name="electronic exchange-correlation" >
    <i type="logical" name="LASPH"> F  </i>
    <i type="logical" name="LMETAGGA"> F  </i>
   </separator>
   <separator name="electronic convergence" >
    <i type="int" name="NELM">   100</i>
    <i type="int" name="NELMDL">    -5</i>
    <i type="int" name="NELMIN">     4</i>
    <i name="ENINI">    500.00000000</i>
    <separator name="electronic convergence detail" >
     <i type="logical" name="LDIAG"> T  </i>
     <i type="logical" name="LSUBROT"> F  </i>
     <i name="WEIMIN">      0.00000000</i>
     <i name="EBREAK">      0.00000001</i>
     <i name="DEPER">      0.30000000</i>
     <i type="int" name="NRMM">     4</i>
     <i name="TIME">      0.40000000</i>
    </separator>
   </separator>
   <separator name="electronic mixer" >
    <i name="AMIX">      0.40000000</i>
    <i name="BMIX">      1.00000000</i>
    <i name="AMIN">      0.10000000</i>
    <i name="AMIX_MAG">      1.60000000</i>
    <i name="BMIX_MAG">      1.00000000</i>
    <separator name="electronic mixer details" >
     <i type="int" name="IMIX">     4</i>
     <i type="int" name="MAXMIX">   -45</i>
     <i name="WC">    100.00000000</i>
     <i type="int" name="INIMIX">     1</i>
     <i type="int" name="MIXPRE">     1</i>
     <i type="int" name="MREMOVE">     5</i>
    </separator>
   </separator>
   <separator name="electronic dipolcorrection" >
    <i type="logical" name="LDIPOL"> F  </i>
    <i type="logical" name="LMONO"> F  </i>
    <i type="int" name="IDIPOL">     0</i>
    <i name="EPSILON">      1.00000000</i>
    <v name="DIPOL">   -100.00000000   -100.00000000   -100.00000000</v>
    <i name="EFIELD">      0.00000000</i>
   </separator>
  </separator>
  <separator name="grids" >
   <i type="int" name="NGX">    30</i>
   <i type="int" name="NGY">    30</i>
   <i type="int" name="NGZ">    60</i>
   <i type="int" name="NGXF">    60</i>
   <i type="int" name="NGYF">    60</i>
   <i type="int" name="NGZF">   120</i>
   <i type="logical" name="ADDGRID"> T  </i>
  </separator>
  <separator name="ionic" >
   <i type="int" name="NSW">     0</i>
   <i type="int" name="IBRION">    -1</i>
   <i type="int" name="ISIF">     2</i>
   <i name="PSTRESS">      0.00000000</i>
   <i name="EDIFFG">      0.00001000</i>
   <i type="int" name="NFREE">     0</i>
   <i name="POTIM">      0.50000000</i>
   <i name="SMASS">     -3.00000000</i>
   <i name="SCALEE">      1.00000000</i>
  </separator>
  <separator name="ionic md" >
   <i name="TEBEG">      0.00010000</i>
   <i name="TEEND">      0.00010000</i>
   <i type="int" name="NBLOCK">     1</i>
   <i type="int" name="KBLOCK">     1</i>
   <i type="int" name="NPACO">   256</i>
   <i name="APACO">     16.00000000</i>
  </separator>
  <separator name="symmetry" >
   <i type="int" name="ISYM">     2</i>
   <i name="SYMPREC">      0.00001000</i>
  </separator>
  <separator name="dos" >
   <i type="logical" name="LORBIT"> F  </i>
   <v name="RWIGS">     -1.00000000     -1.00000000     -1.00000000</v>
   <i type="int" name="NEDOS">   301</i>
   <i name="EMIN">     10.00000000</i>
   <i name="EMAX">    -10.00000000</i>
   <i name="EFERMI">      0.00000000</i>
  </separator>
  <separator name="writing" >
   <i type="int" name="NWRITE">     2</i>
   <i type="logical" name="LWAVE"> F  </i>
   <i type="logical" name="LCHARG"> F  </i>
   <i type="logical" name="LPARD"> F  </i>
   <i type="logical" name="LVTOT"> F  </i>
   <i type="logical" name="LVHAR"> F  </i>
   <i type="logical" name="LELF"> F  </i>
   <i type="logical" name="LOPTICS"> F  </i>
   <v name="STM">      0.00000000      0.00000000      0.00000000      0.00000000      0.00000000      0.00000000      0.00000000</v>
  </separator>
  <separator name="performance" >
   <i type="int" name="NPAR">     4</i>
   <i type="int" name="NSIM">     4</i>
   <i type="int" name="NBLK">    -1</i>
   <i type="logical" name="LPLANE"> T  </i>
   <i type="logical" name="LSCALAPACK"> T  </i>
   <i type="logical" name="LSCAAWARE"> F  </i>
   <i type="logical" name="LSCALU"> F  </i>
   <i type="logical" name="LASYNC"> F  </i>
   <i type="logical" name="LORBITALREAL"> F  </i>
  </separator>
  <separator name="miscellaneous" >
   <i type="int" name="IDIOT">     3</i>
   <i type="logical" name="LMUSIC"> F  </i>
   <v name="POMASS">     87.62000000     63.54600000     16.00000000</v>
   <v name="DARWINR">      0.00000000      0.00000000      0.00000000</v>
   <v name="DARWINV">      1.00000000      1.00000000      1.00000000</v>
   <i type="logical" name="LCORR"> T  </i>
  </separator>
  <i type="logical" name="GGA_COMPAT"> T  </i>
  <i type="logical" name="LBERRY"> F  </i>
  <i type="int" name="ICORELEVEL">     0</i>
  <i type="logical" name="LDAU"> T  </i>
  <v type="int" name="LDAUTYPE">     2</v>
  <v type="int" name="LDAUL">     2</v>
  <v name="LDAUU">      0.00000000</v>
  <v name="LDAUJ">      0.00000000</v>
  <i type="int" name="LDAUPRINT">     0</i>
  <i type="int" name="I_CONSTRAINED_M">     0</i>
  <separator name="electronic exchange-correlation" >
   <i type="string" name="GGA">--</i>
   <i type="int" name="VOSKOWN">     0</i>
   <i type="logical" name="LHFCALC"> F  </i>
   <i type="string" name="PRECFOCK"></i>
   <i type="logical" name="LSYMGRAD"> F  </i>
   <i type="logical" name="LHFONE"> F  </i>
   <i type="logical" name="LRHFCALC"> F  </i>
   <i type="logical" name="LTHOMAS"> F  </i>
   <i type="logical" name="LMODELHF"> F  </i>
   <i name="ENCUT4O">     -1.00000000</i>
   <i type="int" name="EXXOEP">     0</i>
   <i type="int" name="FOURORBIT">     0</i>
   <i name="AEXX">      0.00000000</i>
   <i name="HFALPHA">      0.00000000</i>
   <i name="MCALPHA">      0.00000000</i>
   <i name="ALDAX">      1.00000000</i>
   <i name="AGGAX">      1.00000000</i>
   <i name="ALDAC">      1.00000000</i>
   <i name="AGGAC">      1.00000000</i>
   <i type="int" name="NKREDX">     1</i>
   <i type="int" name="NKREDY">     1</i>
   <i type="int" name="NKREDZ">     1</i>
   <i type="logical" name="SHIFTRED"> F  </i>
   <i type="logical" name="ODDONLY"> F  </i>
   <i type="logical" name="EVENONLY"> F  </i>
   <i type="int" name="LMAXFOCK">     0</i>
   <i type="int" name="NMAXFOCKAE">     0</i>
   <i type="logical" name="LFOCKAEDFT"> F  </i>
   <i name="HFSCREEN">      0.00000000</i>
   <i name="HFSCREENC">      0.00000000</i>
   <i type="int" name="NBANDSGWLOW">     0</i>
  </separator>
  <separator name="vdW DFT" >
   <i type="logical" name="LUSE_VDW"> F  </i>
   <i name="Zab_VDW">     -0.84910000</i>
   <i name="PARAM1">      0.12340000</i>
   <i name="PARAM2">      1.00000000</i>
   <i name="PARAM3">      0.00000000</i>
  </separator>
  <separator name="model GW" >
   <i type="int" name="MODEL_GW">     0</i>
   <i name="MODEL_EPS0">      9.60000000</i>
   <i name="MODEL_ALPHA">      1.00000000</i>
  </separator>
  <separator name="linear response parameters" >
   <i type="logical" name="LEPSILON"> F  </i>
   <i type="logical" name="LRPA"> F  </i>
   <i type="logical" name="LNABLA"> F  </i>
   <i type="logical" name="LVEL"> F  </i>
   <i type="int" name="KINTER">     0</i>
   <i name="CSHIFT">      0.10000000</i>
   <i name="OMEGAMAX">     -1.00000000</i>
   <i name="DEG_THRESHOLD">      0.00200000</i>
  </separator>
  <separator name="orbital magnetization" >
   <i type="logical" name="NUCIND"> F  </i>
   <v name="MAGPOS">      0.00000000      0.00000000      0.00000000</v>
   <i type="logical" name="LNICSALL"> T  </i>
   <i type="logical" name="ORBITALMAG"> F  </i>
   <i type="logical" name="LMAGBLOCH"> F  </i>
   <i type="logical" name="LCHIMAG"> F  </i>
   <i type="logical" name="LGAUGE"> T  </i>
   <i type="int" name="MAGATOM">     0</i>
   <v name="MAGDIPOL">      0.00000000      0.00000000      0.00000000</v>
   <v name="AVECCONST">      0.00000000      0.00000000      0.00000000</v>
  </separator>
  <separator name="response functions" >
   <i type="logical" name="LADDER"> F  </i>
   <i type="logical" name="LFXC"> F  </i>
   <i type="logical" name="LHARTREE"> T  </i>
   <i type="int" name="IBSE">     0</i>
   <i type="logical" name="LTCTE"> F  </i>
   <i type="logical" name="LTETE"> F  </i>
   <i type="logical" name="LTRIPLET"> F  </i>
   <i type="logical" name="LFXCEPS"> F  </i>
   <i type="logical" name="LFXHEG"> F  </i>
   <i type="logical" name="L2ORDER"> F  </i>
   <i type="logical" name="LUSEW"> F  </i>
   <i name="ENCUTGW">     -2.00000000</i>
   <i name="ENCUTGWSOFT">     -2.00000000</i>
   <i name="ENCUTLF">     -1.00000000</i>
   <i type="int" name="LMAXMP2">    -1</i>
   <i name="SCISSOR">      0.00000000</i>
   <i type="int" name="NOMEGA">     0</i>
   <i type="int" name="NOMEGAR">     0</i>
   <i type="int" name="NBANDSGW">    -1</i>
   <i type="int" name="NBANDSO">    -1</i>
   <i type="int" name="NBANDSV">    -1</i>
   <i type="int" name="NELM">   100</i>
   <i type="int" name="DIM">     3</i>
   <i type="int" name="ANTIRES">     0</i>
   <i name="OMEGAMAX">    -30.00000000</i>
   <i name="OMEGAMIN">    -30.00000000</i>
   <i name="OMEGATL">   -200.00000000</i>
   <i type="int" name="OMEGAGRID">     0</i>
   <i name="CSHIFT">     -0.10000000</i>
   <i type="logical" name="SELFENERGY"> F  </i>
   <i type="logical" name="LSPECTRAL"> F  </i>
   <i type="logical" name="ODDONLYGW"> F  </i>
   <i type="logical" name="EVENONLYGW"> F  </i>
   <i type="int" name="NKREDLFX">     1</i>
   <i type="int" name="NKREDLFY">     1</i>
   <i type="int" name="NKREDLFZ">     1</i>
   <i type="int" name="MAXMEM">  1800</i>
   <i type="int" name="TELESCOPE">     0</i>
   <i type="int" name="TAUPAR">     1</i>
  </separator>
  <separator name="External order field" >
   <i name="OFIELD_KAPPA">      0.00000000</i>
   <v name="OFIELD_K">      0.00000000      0.00000000      0.00000000</v>
   <i name="OFIELD_Q6_NEAR">      0.00000000</i>
   <i name="OFIELD_Q6_FAR">      0.00000000</i>
   <i name="OFIELD_A">      0.00000000</i>
  </separator>
 </parameters>
 <atominfo>
  <atoms>       8 </atoms>
  <types>       3 </types>
  <array name="atoms" >
   <dimension dim="1">ion</dimension>
   <field type="string">element</field>
   <field type="int">atomtype</field>
   <set>
    <rc><c>Sr</c><c>   1</c></rc>
    <rc><c>Sr</c><c>   1</c></rc>
    <rc><c>Cu</c><c>   2</c></rc>
    <rc><c>Cu</c><c>   2</c></rc>
    <rc><c>O </c><c>   3</c></rc>
    <rc><c>O </c><c>   3</c></rc>
    <rc><c>O </c><c>   3</c></rc>
    <rc><c>O </c><c>   3</c></rc>
   </set>
  </array>
  <array name="atomtypes" >
   <dimension dim="1">type</dimension>
   <field type="int">atomspertype</field>
   <field type="string">element</field>
   <field>mass</field>
   <field>valence</field>
   <field type="string">pseudopotential</field>
   <set>
    <rc><c>   2</c><c>Sr</c><c>     87.62000000</c><c>     10.00000000</c><c>  PAW_PBE Sr_sv 07Sep2000               </c></rc>
    <rc><c>   2</c><c>Cu</c><c>     63.54600000</c><c>     11.00000000</c><c>  PAW_PBE Cu 22Jun2005                  </c></rc>
    <rc><c>   4</c><c>O </c><c>     16.00000000</c><c>      6.00000000</c><c>  PAW_PBE O_s 07Sep2000                 </c></rc>
   </set>
  </array>
 </atominfo>
 <structure name="initialpos" >
  <crystal>
   <varray name="basis" >
    <v>       4.00000000       0.00000000       0.00000000 </v>
    <v>       0.00000000       4.00000000       0.00000000 </v>
    <v>       0.00000000       0.00000000       8.00000000 </v>
   </varray>
   <i name="volume">    128.00000000 </i>
   <varray name="rec_basis" >
    <v>       0.25000000       0.00000000       0.00000000 </v>
    <v>       0.00000000       0.25000000       0.00000000 </v>
    <v>       0.00000000       0.00000000       0.12500000 </v>
   </varray>
  </crystal>
  <varray name="positions" >
   <v>       0.00000000       0.00000000       0.00000000 </v>
   <v>       0.00000000       0.00000000       0.50000000 </v>
   <v>       0.50000000       0.50000000       0.25000000 </v>
   <v>       0.50000000       0.50000000       0.75000000 </v>
   <v>       0.50000000       0.50000000       0.50000000 </v>
   <v>       0.00000000       0.50000000       0.75000000 </v>
   <v>       0.50000000       0.00000000       0.25000000 </v>
   <v>       0.50000000       0.00000000       0.75000000 </v>
  </varray>
 </structure>
 <calculation>
  <scstep>
   <time name="dav">    0.63    0.63</time>
   <time name="total">    0.70    0.71</time>
   <energy>
    <i name="alphaZ">    299.32682072 </i>
    <i name="ewald">  -4277.38463276 </i>
    <i name="hartreedc">  -1944.69095036 </i>
    <i name="XCdc">    271.57576846 </i>
    <i name="pawpsdc">   5094.48486484 </i>
    <i name="pawaedc">  -5258.86638562 </i>
    <i name="eentropy">     -0.00352344 </i>
    <i name="bandstr">    350.17181461 </i>
    <i name="atom">   6197.50364118 </i>
    <i name="e_fr_energy">    732.11741762 </i>
    <i name="e_wo_entrp">    732.12094106 </i>
    <i name="e_0_energy">    732.11917934 </i>
   </energy>
  </scstep>
  <scstep>
   <time name="dav">    0.64    0.64</time>
   <time name="total">    0.64    0.66</time>
   <energy>
    <i name="e_fr_energy">     39.92682813 </i>
    <i name="e_wo_entrp">     39.93170184 </i>
    <i name="e_0_energy">     39.92926498 </i>
   </energy>
  </scstep>
  <scstep>
   <time name="dav">    0.69    0.69</time>
   <time name="total">    0.69    0.71</time>
   <energy>
    <i name="e_fr_energy">    -43.03952283 </i>
    <i name="e_wo_entrp">    -43.03706632 </i>
    <i name="e_0_energy">    -43.03829458 </i>
   </energy>
  </scstep>
  <scstep>
   <time name="dav">    0.97    0.97</time>
   <time name="total">    0.97    0.98</time>
   <energy>
    <i name="e_fr_energy">    -48.33964304 </i>
    <i name="e_wo_entrp">    -48.33889315 </i>
    <i name="e_0_energy">    -48.33926810 </i>
   </energy>
  </scstep>
  <scstep>
   <time name="dav">    0.94    0.94</time>
   <time name="total">    1.04    1.06</time>
   <energy>
    <i name="e_fr_energy">    -48.59365516 </i>
    <i name="e_wo_entrp">    -48.59297721 </i>
    <i name="e_0_energy">    -48.59331619 </i>
   </energy>
  </scstep>
  <scstep>
   <time name="dav">    0.85    0.85</time>
   <time name="total">    1.03    1.04</time>
   <energy>
    <i name="e_fr_energy">    -43.35107898 </i>
    <i name="e_wo_entrp">    -43.34084252 </i>
    <i name="e_0_energy">    -43.34596075 </i>
   </energy>
  </scstep>
  <scstep>
   <time name="dav">    0.83    0.83</time>
   <time name="total">    1.00    1.01</time>
   <energy>
    <i name="e_fr_energy">    -39.43621666 </i>
    <i name="e_wo_entrp">    -39.43216612 </i>
    <i name="e_0_energy">    -39.43419139 </i>
   </energy>
  </scstep>
  <scstep>
   <time name="dav">    0.94    0.94</time>
   <time name="total">    1.11    1.12</time>
   <energy>
    <i name="e_fr_energy">    -39.98334930 </i>
    <i name="e_wo_entrp">    -39.98080639 </i>
    <i name="e_0_energy">    -39.98207785 </i>
   </energy>
  </scstep>
  <scstep>
   <time name="dav">    0.92    0.92</time>
   <time name="total">    1.09    1.11</time>
   <energy>
    <i name="e_fr_energy">    -39.31087413 </i>
    <i name="e_wo_entrp">    -39.30778343 </i>
    <i name="e_0_energy">    -39.30932878 </i>
   </energy>
  </scstep>
  <scstep>
   <time name="dav">    0.88    0.88</time>
   <time name="total">    1.05    1.06</time>
   <energy>
    <i name="e_fr_energy">    -39.10713008 </i>
    <i name="e_wo_entrp">    -39.10304614 </i>
    <i name="e_0_energy">    -39.10508811 </i>
   </energy>
  </scstep>
  <scstep>
   <time name="dav">    0.91    0.91</time>
   <time name="total">    1.08    1.09</time>
   <energy>
    <i name="e_fr_energy">    -39.11160761 </i>
    <i name="e_wo_entrp">    -39.10779528 </i>
    <i name="e_0_energy">    -39.10970144 </i>
   </energy>
  </scstep>
  <scstep>
   <time name="dav">    0.87    0.87</time>
   <time name="total">    1.04    1.06</time>
   <energy>
    <i name="e_fr_energy">    -39.11548070 </i>
    <i name="e_wo_entrp">    -39.11162110 </i>
    <i name="e_0_energy">    -39.11355090 </i>
   </energy>
  </scstep>
  <scstep>
   <time name="dav">    0.89    0.89</time>
   <time name="total">    1.06    1.08</time>
   <energy>
    <i name="e_fr_energy">    -39.11599337 </i>
    <i name="e_wo_entrp">    -39.11294388 </i>
    <i name="e_0_energy">    -39.11446863 </i>
   </energy>
  </scstep>
  <scstep>
   <time name="dav">    0.93    0.93</time>
   <time name="total">    1.10    1.11</time>
   <energy>
    <i name="e_fr_energy">    -39.11653452 </i>
    <i name="e_wo_entrp">    -39.11430001 </i>
    <i name="e_0_energy">    -39.11541727 </i>
   </energy>
  </scstep>
  <scstep>
   <time name="dav">    0.88    0.88</time>
   <time name="total">    1.05    1.06</time>
   <energy>
    <i name="e_fr_energy">    -39.11681676 </i>
    <i name="e_wo_entrp">    -39.11465727 </i>
    <i name="e_0_energy">    -39.11573702 </i>
   </energy>
  </scstep>
  <scstep>
   <time name="dav">    0.91    0.91</time>
   <time name="total">    1.08    1.09</time>
   <energy>
    <i name="e_fr_energy">    -39.11675183 </i>
    <i name="e_wo_entrp">    -39.11458728 </i>
    <i name="e_0_energy">    -39.11566956 </i>
   </energy>
  </scstep>
  <scstep>
   <time name="dav">    0.90    0.90</time>
   <time name="total">    1.07    1.09</time>
   <energy>
    <i name="e_fr_energy">    -39.11678394 </i>
    <i name="e_wo_entrp">    -39.11463520 </i>
    <i name="e_0_energy">    -39.11570957 </i>
   </energy>
  </scstep>
  <scstep>
   <time name="dav">    0.90    0.90</time>
   <time name="total">    1.07    1.08</time>
   <energy>
    <i name="e_fr_energy">    -39.11679073 </i>
    <i name="e_wo_entrp">    -39.11463044 </i>
    <i name="e_0_energy">    -39.11571058 </i>
   </energy>
  </scstep>
  <scstep>
   <time name="dav">    0.71    0.71</time>
   <time name="total">    0.88    0.90</time>
   <energy>
    <i name="e_fr_energy">    -39.11679333 </i>
    <i name="e_wo_entrp">    -39.11462131 </i>
    <i name="e_0_energy">    -39.11570732 </i>
   </energy>
  </scstep>
  <scstep>
   <time name="dav">    0.53    0.53</time>
   <time name="total">    0.60    0.62</time>
   <energy>
    <i name="alphaZ">    299.32682072 </i>
    <i name="ewald">  -4277.38463276 </i>
    <i name="hartreedc">  -1948.22421149 </i>
    <i name="XCdc">    271.68400234 </i>
    <i name="pawpsdc">   7764.10052778 </i>
    <i name="pawaedc">  -7946.72952187 </i>
    <i name="eentropy">     -0.00217693 </i>
    <i name="bandstr">   -399.39124244 </i>
    <i name="atom">   6197.50364118 </i>
    <i name="e_fr_energy">    -39.11679347 </i>
    <i name="e_wo_entrp">    -39.11461654 </i>
    <i name="e_0_energy">    -39.11570500 </i>
   </energy>
  </scstep>
  <structure>
   <crystal>
    <varray name="basis" >
     <v>       4.00000000       0.00000000       0.00000000 </v>
     <v>       0.00000000       4.00000000       0.00000000 </v>
     <v>       0.00000000       0.00000000       8.00000000 </v>
    </varray>
    <i name="volume">    128.00000000 </i>
    <varray name="rec_basis" >
     <v>       0.25000000       0.00000000       0.00000000 </v>
     <v>       0.00000000       0.25000000       0.00000000 </v>
     <v>       0.00000000       0.00000000       0.12500000 </v>
    </varray>
   </crystal>
   <varray name="positions" >
    <v>       0.00000000       0.00000000       0.00000000 </v>
    <v>       0.00000000       0.00000000       0.50000000 </v>
    <v>       0.50000000       0.50000000       0.25000000 </v>
    <v>       0.50000000       0.50000000       0.75000000 </v>
    <v>       0.50000000       0.50000000       0.50000000 </v>
    <v>       0.00000000       0.50000000       0.75000000 </v>
    <v>       0.50000000       0.00000000       0.25000000 </v>
    <v>       0.50000000       0.00000000       0.75000000 </v>
   </varray>
  </structure>
  <varray name="forces" >
   <v>       0.00000000       0.00000000      -1.77460938 </v>
   <v>       0.00000000       0.00000000       1.47541094 </v>
   <v>       0.00000000       0.00000000       0.82173850 </v>
   <v>       0.00000000       0.00000000      -0.67676403 </v>
   <v>       0.00000000       0.00000000      -1.15199630 </v>
   <v>       0.00000000       0.00000000       1.43146958 </v>
   <v>       0.00000000       0.00000000      -1.43153301 </v>
   <v>       0.00000000       0.00000000       1.30628371 </v>
  </varray>
  <varray name="stress" >
   <v>     -96.38644686       0.00000000       0.00000000 </v>
   <v>       0.00000000     -83.10820191       0.00000000 </v>
   <v>       0.00000000       0.00000000     -89.19275354 </v>
  </varray>
  <energy>
   <i name="e_fr_energy">    -39.11679347 </i>
   <i name="e_wo_entrp">    -39.11570500 </i>
   <i name="e_0_energy">     -0.00217693 </i>
  </energy>
  <time name="totalsc">   21.15   21.45</time>
  <eigenvalues>
   <array>
    <dimension dim="1">band</dimension>
    <dimension dim="2">kpoint</dimension>
    <dimension dim="3">spin</dimension>
    <field>eigene</field>
    <field>occ</field>
    <set>
     <set comment="spin 1">
      <set comment="kpoint 1">
       <r>  -32.0778    1.0000 </r>
       <r>  -30.6599    1.0000 </r>
       <r>  -15.1239    1.0000 </r>
       <r>  -14.7245    1.0000 </r>
       <r>  -14.1241    1.0000 </r>
       <r>  -13.9765    1.0000 </r>
       <r>  -13.6916    1.0000 </r>
       <r>  -13.5336    1.0000 </r>
       <r>  -13.4688    1.0000 </r>
       <r>  -12.6094    1.0000 </r>
       <r>  -12.5054    1.0000 </r>
       <r>  -12.4540    1.0000 </r>
       <r>   -2.1920    1.0000 </r>
       <r>   -1.0562    1.0000 </r>
       <r>   -1.0311    1.0000 </r>
       <r>   -0.9754    1.0000 </r>
       <r>   -0.8755    1.0000 </r>
       <r>   -0.8734    1.0000 </r>
       <r>   -0.8058    1.0000 </r>
       <r>   -0.7703    1.0000 </r>
       <r>   -0.5825    1.0000 </r>
       <r>   -0.5503    1.0000 </r>
       <r>   -0.5339    1.0000 </r>
       <r>   -0.5225    1.0000 </r>
       <r>   -0.0067    1.0000 </r>
       <r>    0.0124    1.0000 </r>
       <r>    0.0454    1.0000 </r>
       <r>    0.2306    1.0000 </r>
       <r>    1.1213    1.0000 </r>
       <r>    1.6816    1.0000 </r>
       <r>    1.8023    1.0000 </r>
       <r>    1.8130    1.0000 </r>
       <r>    2.0328    1.0000 </r>
       <r>    2.1748    1.0000 </r>
       <r>    2.6792    0.8327 </r>
       <r>    5.4772    0.0000 </r>
       <r>    6.8468    0.0000 </r>
       <r>    7.7049    0.0000 </r>
       <r>    8.0199    0.0000 </r>
       <r>    8.8566    0.0000 </r>
       <r>    9.0327    0.0000 </r>
       <r>    9.1534    0.0000 </r>
       <r>    9.3146    0.0000 </r>
       <r>    9.9822    0.0000 </r>
      </set>
      <set comment="kpoint 2">
       <r>  -32.0735    1.0000 </r>
       <r>  -30.6551    1.0000 </r>
       <r>  -15.0377    1.0000 </r>
       <r>  -14.7891    1.0000 </r>
       <r>  -14.1173    1.0000 </r>
       <r>  -14.0372    1.0000 </r>
       <r>  -13.7813    1.0000 </r>
       <r>  -13.5492    1.0000 </r>
       <r>  -13.4445    1.0000 </r>
       <r>  -12.5971    1.0000 </r>
       <r>  -12.5161    1.0000 </r>
       <r>  -12.3464    1.0000 </r>
       <r>   -2.1941    1.0000 </r>
       <r>   -1.7804    1.0000 </r>
       <r>   -1.3424    1.0000 </r>
       <r>   -1.1543    1.0000 </r>
       <r>   -1.0796    1.0000 </r>
       <r>   -0.8552    1.0000 </r>
       <r>   -0.7170    1.0000 </r>
       <r>   -0.6337    1.0000 </r>
       <r>   -0.5993    1.0000 </r>
       <r>   -0.5460    1.0000 </r>
       <r>   -0.5383    1.0000 </r>
       <r>   -0.4457    1.0000 </r>
       <r>   -0.0956    1.0000 </r>
       <r>    0.0279    1.0000 </r>
       <r>    0.3761    1.0000 </r>
       <r>    0.6026    1.0000 </r>
       <r>    1.1841    1.0000 </r>
       <r>    1.5250    1.0000 </r>
       <r>    1.6319    1.0000 </r>
       <r>    1.7875    1.0000 </r>
       <r>    2.0738    1.0000 </r>
       <r>    2.0831    1.0000 </r>
       <r>    3.2499    0.0000 </r>
       <r>    5.8094    0.0000 </r>
       <r>    6.8595    0.0000 </r>
       <r>    8.0881    0.0000 </r>
       <r>    8.2851    0.0000 </r>
       <r>    8.4484    0.0000 </r>
       <r>    8.8491    0.0000 </r>
       <r>    9.2131    0.0000 </r>
       <r>    9.7029    0.0000 </r>
       <r>   10.0117    0.0000 </r>
      </set>
      <set comment="kpoint 3">
       <r>  -32.0666    1.0000 </r>
       <r>  -30.6473    1.0000 </r>
       <r>  -15.1018    1.0000 </r>
       <r>  -14.5326    1.0000 </r>
       <r>  -14.1549    1.0000 </r>
       <r>  -14.1063    1.0000 </r>
       <r>  -14.0863    1.0000 </r>
       <r>  -13.5301    1.0000 </r>
       <r>  -13.3892    1.0000 </r>
       <r>  -12.5896    1.0000 </r>
       <r>  -12.5769    1.0000 </r>
       <r>  -12.1475    1.0000 </r>
       <r>   -2.6444    1.0000 </r>
       <r>   -2.1949    1.0000 </r>
       <r>   -1.6794    1.0000 </r>
       <r>   -1.3433    1.0000 </r>
       <r>   -1.1354    1.0000 </r>
       <r>   -0.8530    1.0000 </r>
       <r>   -0.6982    1.0000 </r>
       <r>   -0.6278    1.0000 </r>
       <r>   -0.6191    1.0000 </r>
       <r>   -0.5730    1.0000 </r>
       <r>   -0.5227    1.0000 </r>
       <r>   -0.2530    1.0000 </r>
       <r>   -0.1299    1.0000 </r>
       <r>   -0.0272    1.0000 </r>
       <r>    0.6515    1.0000 </r>
       <r>    0.9349    1.0000 </r>
       <r>    1.1249    1.0000 </r>
       <r>    1.2733    1.0000 </r>
       <r>    1.6160    1.0000 </r>
       <r>    1.7784    1.0000 </r>
       <r>    1.9013    1.0000 </r>
       <r>    2.4538    1.0000 </r>
       <r>    4.1758    0.0000 </r>
       <r>    5.4764    0.0000 </r>
       <r>    6.8109    0.0000 </r>
       <r>    7.8166    0.0000 </r>
       <r>    7.9999    0.0000 </r>
       <r>    8.8184    0.0000 </r>
       <r>    9.0954    0.0000 </r>
       <r>    9.9357    0.0000 </r>
       <r>   10.0817    0.0000 </r>
       <r>   10.3919    0.0000 </r>
      </set>
      <set comment="kpoint 4">
       <r>  -32.0735    1.0000 </r>
       <r>  -30.6552    1.0000 </r>
       <r>  -15.0384    1.0000 </r>
       <r>  -14.6849    1.0000 </r>
       <r>  -14.2045    1.0000 </r>
       <r>  -13.9696    1.0000 </r>
       <r>  -13.8399    1.0000 </r>
       <r>  -13.5346    1.0000 </r>
       <r>  -13.4728    1.0000 </r>
       <r>  -12.4929    1.0000 </r>
       <r>  -12.4783    1.0000 </r>
       <r>  -12.4354    1.0000 </r>
       <r>   -2.2147    1.0000 </r>
       <r>   -2.0214    1.0000 </r>
       <r>   -1.7507    1.0000 </r>
       <r>   -1.5129    1.0000 </r>
       <r>   -1.1705    1.0000 </r>
       <r>   -0.9903    1.0000 </r>
       <r>   -0.9591    1.0000 </r>
       <r>   -0.9245    1.0000 </r>
       <r>   -0.6117    1.0000 </r>
       <r>   -0.5754    1.0000 </r>
       <r>   -0.4906    1.0000 </r>
       <r>   -0.4673    1.0000 </r>
       <r>    0.4029    1.0000 </r>
       <r>    0.5206    1.0000 </r>
       <r>    0.5781    1.0000 </r>
       <r>    0.7000    1.0000 </r>
       <r>    1.2890    1.0000 </r>
       <r>    1.5474    1.0000 </r>
       <r>    1.7375    1.0000 </r>
       <r>    1.7960    1.0000 </r>
       <r>    1.9763    1.0000 </r>
       <r>    2.4449    1.0000 </r>
       <r>    3.5728    0.0000 </r>
       <r>    5.7802    0.0000 </r>
       <r>    7.0748    0.0000 </r>
       <r>    7.7182    0.0000 </r>
       <r>    8.0075    0.0000 </r>
       <r>    8.0772    0.0000 </r>
       <r>    9.4332    0.0000 </r>
       <r>    9.4954    0.0000 </r>
       <r>    9.5128    0.0000 </r>
       <r>   10.0787    0.0000 </r>
      </set>
      <set comment="kpoint 5">
       <r>  -32.0693    1.0000 </r>
       <r>  -30.6505    1.0000 </r>
       <r>  -14.9597    1.0000 </r>
       <r>  -14.7216    1.0000 </r>
       <r>  -14.2337    1.0000 </r>
       <r>  -14.0433    1.0000 </r>
       <r>  -13.7581    1.0000 </r>
       <r>  -13.5501    1.0000 </r>
       <r>  -13.4918    1.0000 </r>
       <r>  -12.5821    1.0000 </r>
       <r>  -12.5091    1.0000 </r>
       <r>  -12.3343    1.0000 </r>
       <r>   -2.2022    1.0000 </r>
       <r>   -2.0151    1.0000 </r>
       <r>   -1.7885    1.0000 </r>
       <r>   -1.7257    1.0000 </r>
       <r>   -1.4664    1.0000 </r>
       <r>   -1.2166    1.0000 </r>
       <r>   -1.1982    1.0000 </r>
       <r>   -1.0705    1.0000 </r>
       <r>   -0.9483    1.0000 </r>
       <r>   -0.6002    1.0000 </r>
       <r>   -0.4402    1.0000 </r>
       <r>   -0.2420    1.0000 </r>
       <r>    0.4668    1.0000 </r>
       <r>    0.5658    1.0000 </r>
       <r>    0.8125    1.0000 </r>
       <r>    1.1858    1.0000 </r>
       <r>    1.2710    1.0000 </r>
       <r>    1.3543    1.0000 </r>
       <r>    1.5007    1.0000 </r>
       <r>    1.8994    1.0000 </r>
       <r>    2.3964    1.0000 </r>
       <r>    2.6592    0.9372 </r>
       <r>    3.8012    0.0000 </r>
       <r>    5.8987    0.0000 </r>
       <r>    7.1259    0.0000 </r>
       <r>    7.6303    0.0000 </r>
       <r>    7.9078    0.0000 </r>
       <r>    8.3873    0.0000 </r>
       <r>    8.7503    0.0000 </r>
       <r>    9.7874    0.0000 </r>
       <r>   10.0243    0.0000 </r>
       <r>   10.1916    0.0000 </r>
      </set>
      <set comment="kpoint 6">
       <r>  -32.0624    1.0000 </r>
       <r>  -30.6430    1.0000 </r>
       <r>  -15.0183    1.0000 </r>
       <r>  -14.4938    1.0000 </r>
       <r>  -14.2267    1.0000 </r>
       <r>  -14.0981    1.0000 </r>
       <r>  -13.9723    1.0000 </r>
       <r>  -13.5507    1.0000 </r>
       <r>  -13.4089    1.0000 </r>
       <r>  -12.6770    1.0000 </r>
       <r>  -12.5440    1.0000 </r>
       <r>  -12.2399    1.0000 </r>
       <r>   -2.6671    1.0000 </r>
       <r>   -2.1825    1.0000 </r>
       <r>   -2.0039    1.0000 </r>
       <r>   -1.7085    1.0000 </r>
       <r>   -1.6029    1.0000 </r>
       <r>   -1.5467    1.0000 </r>
       <r>   -1.2764    1.0000 </r>
       <r>   -1.1817    1.0000 </r>
       <r>   -0.9964    1.0000 </r>
       <r>   -0.6645    1.0000 </r>
       <r>   -0.3346    1.0000 </r>
       <r>    0.0532    1.0000 </r>
       <r>    0.2683    1.0000 </r>
       <r>    0.5756    1.0000 </r>
       <r>    1.0959    1.0000 </r>
       <r>    1.1715    1.0000 </r>
       <r>    1.2419    1.0000 </r>
       <r>    1.5822    1.0000 </r>
       <r>    1.7626    1.0000 </r>
       <r>    1.9555    1.0000 </r>
       <r>    2.3472    1.0000 </r>
       <r>    3.1058    0.0000 </r>
       <r>    4.4163    0.0000 </r>
       <r>    5.2833    0.0000 </r>
       <r>    7.1063    0.0000 </r>
       <r>    7.6461    0.0000 </r>
       <r>    8.2887    0.0000 </r>
       <r>    8.5414    0.0000 </r>
       <r>    9.1079    0.0000 </r>
       <r>   10.0187    0.0000 </r>
       <r>   10.3124    0.0000 </r>
       <r>   10.7054    0.0000 </r>
      </set>
      <set comment="kpoint 7">
       <r>  -32.0666    1.0000 </r>
       <r>  -30.6474    1.0000 </r>
       <r>  -14.8758    1.0000 </r>
       <r>  -14.6946    1.0000 </r>
       <r>  -14.2480    1.0000 </r>
       <r>  -14.0367    1.0000 </r>
       <r>  -13.9583    1.0000 </r>
       <r>  -13.5739    1.0000 </r>
       <r>  -13.4457    1.0000 </r>
       <r>  -12.4723    1.0000 </r>
       <r>  -12.4693    1.0000 </r>
       <r>  -12.2692    1.0000 </r>
       <r>   -3.0726    1.0000 </r>
       <r>   -2.6048    1.0000 </r>
       <r>   -2.1706    1.0000 </r>
       <r>   -1.9281    1.0000 </r>
       <r>   -1.4111    1.0000 </r>
       <r>   -1.2613    1.0000 </r>
       <r>   -1.2022    1.0000 </r>
       <r>   -1.0357    1.0000 </r>
       <r>   -0.5862    1.0000 </r>
       <r>   -0.5381    1.0000 </r>
       <r>   -0.3404    1.0000 </r>
       <r>   -0.3054    1.0000 </r>
       <r>    0.6688    1.0000 </r>
       <r>    0.8268    1.0000 </r>
       <r>    0.9816    1.0000 </r>
       <r>    1.1702    1.0000 </r>
       <r>    1.2814    1.0000 </r>
       <r>    1.5354    1.0000 </r>
       <r>    1.5985    1.0000 </r>
       <r>    1.8329    1.0000 </r>
       <r>    1.9265    1.0000 </r>
       <r>    2.8595    0.0000 </r>
       <r>    4.8998    0.0000 </r>
       <r>    6.4918    0.0000 </r>
       <r>    7.0711    0.0000 </r>
       <r>    7.2361    0.0000 </r>
       <r>    7.3231    0.0000 </r>
       <r>    8.4807    0.0000 </r>
       <r>    9.5452    0.0000 </r>
       <r>    9.7769    0.0000 </r>
       <r>   10.0454    0.0000 </r>
       <r>   10.6635    0.0000 </r>
      </set>
      <set comment="kpoint 8">
       <r>  -32.0624    1.0000 </r>
       <r>  -30.6430    1.0000 </r>
       <r>  -14.8214    1.0000 </r>
       <r>  -14.6463    1.0000 </r>
       <r>  -14.3096    1.0000 </r>
       <r>  -14.1285    1.0000 </r>
       <r>  -13.7775    1.0000 </r>
       <r>  -13.5627    1.0000 </r>
       <r>  -13.4767    1.0000 </r>
       <r>  -12.5597    1.0000 </r>
       <r>  -12.4837    1.0000 </r>
       <r>  -12.3567    1.0000 </r>
       <r>   -3.0450    1.0000 </r>
       <r>   -2.6285    1.0000 </r>
       <r>   -2.1553    1.0000 </r>
       <r>   -1.8007    1.0000 </r>
       <r>   -1.7103    1.0000 </r>
       <r>   -1.5456    1.0000 </r>
       <r>   -1.4178    1.0000 </r>
       <r>   -1.2512    1.0000 </r>
       <r>   -1.2265    1.0000 </r>
       <r>   -0.6122    1.0000 </r>
       <r>   -0.4134    1.0000 </r>
       <r>   -0.0291    1.0000 </r>
       <r>    0.9365    1.0000 </r>
       <r>    1.0100    1.0000 </r>
       <r>    1.1057    1.0000 </r>
       <r>    1.1958    1.0000 </r>
       <r>    1.4251    1.0000 </r>
       <r>    1.5072    1.0000 </r>
       <r>    1.8636    1.0000 </r>
       <r>    2.0249    1.0000 </r>
       <r>    2.4284    1.0000 </r>
       <r>    3.1313    0.0000 </r>
       <r>    4.8354    0.0000 </r>
       <r>    5.6425    0.0000 </r>
       <r>    7.2590    0.0000 </r>
       <r>    7.5918    0.0000 </r>
       <r>    8.1776    0.0000 </r>
       <r>    8.6651    0.0000 </r>
       <r>    9.3203    0.0000 </r>
       <r>    9.8810    0.0000 </r>
       <r>   10.2707    0.0000 </r>
       <r>   10.4557    0.0000 </r>
      </set>
      <set comment="kpoint 9">
       <r>  -32.0556    1.0000 </r>
       <r>  -30.6359    1.0000 </r>
       <r>  -14.8754    1.0000 </r>
       <r>  -14.5334    1.0000 </r>
       <r>  -14.2135    1.0000 </r>
       <r>  -13.9659    1.0000 </r>
       <r>  -13.8448    1.0000 </r>
       <r>  -13.6284    1.0000 </r>
       <r>  -13.4939    1.0000 </r>
       <r>  -12.6984    1.0000 </r>
       <r>  -12.5893    1.0000 </r>
       <r>  -12.3962    1.0000 </r>
       <r>   -3.0045    1.0000 </r>
       <r>   -2.9053    1.0000 </r>
       <r>   -2.4257    1.0000 </r>
       <r>   -2.1257    1.0000 </r>
       <r>   -1.9874    1.0000 </r>
       <r>   -1.6053    1.0000 </r>
       <r>   -1.4985    1.0000 </r>
       <r>   -1.4835    1.0000 </r>
       <r>   -1.3338    1.0000 </r>
       <r>   -0.6622    1.0000 </r>
       <r>   -0.3215    1.0000 </r>
       <r>    0.2446    1.0000 </r>
       <r>    0.8807    1.0000 </r>
       <r>    1.1979    1.0000 </r>
       <r>    1.2784    1.0000 </r>
       <r>    1.3193    1.0000 </r>
       <r>    1.4745    1.0000 </r>
       <r>    1.6800    1.0000 </r>
       <r>    1.9809    1.0000 </r>
       <r>    2.4811    1.0000 </r>
       <r>    2.6098    0.9983 </r>
       <r>    4.0031    0.0000 </r>
       <r>    4.4703    0.0000 </r>
       <r>    4.8222    0.0000 </r>
       <r>    8.2261    0.0000 </r>
       <r>    8.2425    0.0000 </r>
       <r>    8.5453    0.0000 </r>
       <r>    9.0473    0.0000 </r>
       <r>    9.3454    0.0000 </r>
       <r>    9.4654    0.0000 </r>
       <r>   10.3727    0.0000 </r>
       <r>   10.8321    0.0000 </r>
      </set>
      <set comment="kpoint 10">
       <r>  -32.0778    1.0000 </r>
       <r>  -30.6599    1.0000 </r>
       <r>  -15.0833    1.0000 </r>
       <r>  -14.7599    1.0000 </r>
       <r>  -14.1240    1.0000 </r>
       <r>  -13.9764    1.0000 </r>
       <r>  -13.8239    1.0000 </r>
       <r>  -13.4823    1.0000 </r>
       <r>  -13.3767    1.0000 </r>
       <r>  -12.6096    1.0000 </r>
       <r>  -12.5057    1.0000 </r>
       <r>  -12.4704    1.0000 </r>
       <r>   -2.2246    1.0000 </r>
       <r>   -1.0662    1.0000 </r>
       <r>   -0.9683    1.0000 </r>
       <r>   -0.8952    1.0000 </r>
       <r>   -0.8754    1.0000 </r>
       <r>   -0.8533    1.0000 </r>
       <r>   -0.7940    1.0000 </r>
       <r>   -0.7659    1.0000 </r>
       <r>   -0.5944    1.0000 </r>
       <r>   -0.5440    1.0000 </r>
       <r>   -0.5226    1.0000 </r>
       <r>   -0.5202    1.0000 </r>
       <r>   -0.1800    1.0000 </r>
       <r>    0.0112    1.0000 </r>
       <r>    0.0444    1.0000 </r>
       <r>    0.2850    1.0000 </r>
       <r>    1.0984    1.0000 </r>
       <r>    1.5302    1.0000 </r>
       <r>    1.7821    1.0000 </r>
       <r>    1.8082    1.0000 </r>
       <r>    2.0319    1.0000 </r>
       <r>    2.1775    1.0000 </r>
       <r>    2.9876    0.0000 </r>
       <r>    5.2320    0.0000 </r>
       <r>    6.8431    0.0000 </r>
       <r>    7.8563    0.0000 </r>
       <r>    8.2782    0.0000 </r>
       <r>    8.6622    0.0000 </r>
       <r>    8.8929    0.0000 </r>
       <r>    9.0357    0.0000 </r>
       <r>    9.3552    0.0000 </r>
       <r>   10.2611    0.0000 </r>
      </set>
      <set comment="kpoint 11">
       <r>  -32.0735    1.0000 </r>
       <r>  -30.6551    1.0000 </r>
       <r>  -15.0347    1.0000 </r>
       <r>  -14.7611    1.0000 </r>
       <r>  -14.1172    1.0000 </r>
       <r>  -14.0402    1.0000 </r>
       <r>  -13.9031    1.0000 </r>
       <r>  -13.4779    1.0000 </r>
       <r>  -13.4256    1.0000 </r>
       <r>  -12.5972    1.0000 </r>
       <r>  -12.5115    1.0000 </r>
       <r>  -12.3466    1.0000 </r>
       <r>   -2.2243    1.0000 </r>
       <r>   -1.7838    1.0000 </r>
       <r>   -1.3335    1.0000 </r>
       <r>   -1.1601    1.0000 </r>
       <r>   -1.0758    1.0000 </r>
       <r>   -0.8375    1.0000 </r>
       <r>   -0.6885    1.0000 </r>
       <r>   -0.6557    1.0000 </r>
       <r>   -0.5921    1.0000 </r>
       <r>   -0.5411    1.0000 </r>
       <r>   -0.4614    1.0000 </r>
       <r>   -0.4419    1.0000 </r>
       <r>   -0.1369    1.0000 </r>
       <r>   -0.1080    1.0000 </r>
       <r>    0.4401    1.0000 </r>
       <r>    0.6640    1.0000 </r>
       <r>    1.1516    1.0000 </r>
       <r>    1.4525    1.0000 </r>
       <r>    1.6850    1.0000 </r>
       <r>    1.7828    1.0000 </r>
       <r>    2.0774    1.0000 </r>
       <r>    2.1591    1.0000 </r>
       <r>    3.2704    0.0000 </r>
       <r>    5.7371    0.0000 </r>
       <r>    6.7877    0.0000 </r>
       <r>    8.0749    0.0000 </r>
       <r>    8.3167    0.0000 </r>
       <r>    8.4487    0.0000 </r>
       <r>    8.6467    0.0000 </r>
       <r>    9.2357    0.0000 </r>
       <r>    9.6091    0.0000 </r>
       <r>   10.0982    0.0000 </r>
      </set>
      <set comment="kpoint 12">
       <r>  -32.0666    1.0000 </r>
       <r>  -30.6473    1.0000 </r>
       <r>  -15.0634    1.0000 </r>
       <r>  -14.6022    1.0000 </r>
       <r>  -14.2646    1.0000 </r>
       <r>  -14.1062    1.0000 </r>
       <r>  -13.8872    1.0000 </r>
       <r>  -13.5502    1.0000 </r>
       <r>  -13.4384    1.0000 </r>
       <r>  -12.5770    1.0000 </r>
       <r>  -12.5731    1.0000 </r>
       <r>  -12.1535    1.0000 </r>
       <r>   -2.6497    1.0000 </r>
       <r>   -2.2205    1.0000 </r>
       <r>   -1.6896    1.0000 </r>
       <r>   -1.3421    1.0000 </r>
       <r>   -1.1427    1.0000 </r>
       <r>   -0.8148    1.0000 </r>
       <r>   -0.7313    1.0000 </r>
       <r>   -0.6583    1.0000 </r>
       <r>   -0.5788    1.0000 </r>
       <r>   -0.5725    1.0000 </r>
       <r>   -0.3957    1.0000 </r>
       <r>   -0.2454    1.0000 </r>
       <r>   -0.1381    1.0000 </r>
       <r>   -0.0912    1.0000 </r>
       <r>    0.6342    1.0000 </r>
       <r>    0.9118    1.0000 </r>
       <r>    1.1232    1.0000 </r>
       <r>    1.2603    1.0000 </r>
       <r>    1.7092    1.0000 </r>
       <r>    1.7774    1.0000 </r>
       <r>    1.9042    1.0000 </r>
       <r>    2.5160    1.0000 </r>
       <r>    4.0400    0.0000 </r>
       <r>    5.4198    0.0000 </r>
       <r>    6.7995    0.0000 </r>
       <r>    7.8170    0.0000 </r>
       <r>    8.0083    0.0000 </r>
       <r>    8.6184    0.0000 </r>
       <r>    9.0995    0.0000 </r>
       <r>    9.8396    0.0000 </r>
       <r>   10.3711    0.0000 </r>
       <r>   10.4284    0.0000 </r>
      </set>
      <set comment="kpoint 13">
       <r>  -32.0735    1.0000 </r>
       <r>  -30.6552    1.0000 </r>
       <r>  -15.0033    1.0000 </r>
       <r>  -14.7026    1.0000 </r>
       <r>  -14.2062    1.0000 </r>
       <r>  -13.9694    1.0000 </r>
       <r>  -13.9520    1.0000 </r>
       <r>  -13.4968    1.0000 </r>
       <r>  -13.3988    1.0000 </r>
       <r>  -12.4931    1.0000 </r>
       <r>  -12.4878    1.0000 </r>
       <r>  -12.4416    1.0000 </r>
       <r>   -2.2518    1.0000 </r>
       <r>   -2.0181    1.0000 </r>
       <r>   -1.7498    1.0000 </r>
       <r>   -1.3830    1.0000 </r>
       <r>   -1.1532    1.0000 </r>
       <r>   -1.0712    1.0000 </r>
       <r>   -0.9843    1.0000 </r>
       <r>   -0.9669    1.0000 </r>
       <r>   -0.6352    1.0000 </r>
       <r>   -0.5687    1.0000 </r>
       <r>   -0.4576    1.0000 </r>
       <r>   -0.2895    1.0000 </r>
       <r>    0.1613    1.0000 </r>
       <r>    0.5192    1.0000 </r>
       <r>    0.5910    1.0000 </r>
       <r>    0.7341    1.0000 </r>
       <r>    1.2498    1.0000 </r>
       <r>    1.5623    1.0000 </r>
       <r>    1.7157    1.0000 </r>
       <r>    1.9495    1.0000 </r>
       <r>    1.9696    1.0000 </r>
       <r>    2.3827    1.0000 </r>
       <r>    3.5748    0.0000 </r>
       <r>    5.6581    0.0000 </r>
       <r>    7.1611    0.0000 </r>
       <r>    7.8083    0.0000 </r>
       <r>    8.0797    0.0000 </r>
       <r>    8.4804    0.0000 </r>
       <r>    9.1767    0.0000 </r>
       <r>    9.2522    0.0000 </r>
       <r>    9.5423    0.0000 </r>
       <r>    9.9553    0.0000 </r>
      </set>
      <set comment="kpoint 14">
       <r>  -32.0693    1.0000 </r>
       <r>  -30.6505    1.0000 </r>
       <r>  -14.9570    1.0000 </r>
       <r>  -14.6970    1.0000 </r>
       <r>  -14.2342    1.0000 </r>
       <r>  -14.0189    1.0000 </r>
       <r>  -13.8980    1.0000 </r>
       <r>  -13.5125    1.0000 </r>
       <r>  -13.4459    1.0000 </r>
       <r>  -12.5773    1.0000 </r>
       <r>  -12.5110    1.0000 </r>
       <r>  -12.3313    1.0000 </r>
       <r>   -2.2411    1.0000 </r>
       <r>   -2.0116    1.0000 </r>
       <r>   -1.8008    1.0000 </r>
       <r>   -1.7235    1.0000 </r>
       <r>   -1.3919    1.0000 </r>
       <r>   -1.2245    1.0000 </r>
       <r>   -1.2022    1.0000 </r>
       <r>   -1.0902    1.0000 </r>
       <r>   -1.0042    1.0000 </r>
       <r>   -0.6243    1.0000 </r>
       <r>   -0.4213    1.0000 </r>
       <r>   -0.0263    1.0000 </r>
       <r>    0.3387    1.0000 </r>
       <r>    0.4931    1.0000 </r>
       <r>    0.8569    1.0000 </r>
       <r>    1.1929    1.0000 </r>
       <r>    1.3058    1.0000 </r>
       <r>    1.3440    1.0000 </r>
       <r>    1.5322    1.0000 </r>
       <r>    1.9425    1.0000 </r>
       <r>    2.3323    1.0000 </r>
       <r>    2.6579    0.9416 </r>
       <r>    3.7439    0.0000 </r>
       <r>    5.9018    0.0000 </r>
       <r>    7.0197    0.0000 </r>
       <r>    7.6757    0.0000 </r>
       <r>    8.1113    0.0000 </r>
       <r>    8.3884    0.0000 </r>
       <r>    8.9232    0.0000 </r>
       <r>    9.5651    0.0000 </r>
       <r>    9.8274    0.0000 </r>
       <r>   10.2195    0.0000 </r>
      </set>
      <set comment="kpoint 15">
       <r>  -32.0624    1.0000 </r>
       <r>  -30.6430    1.0000 </r>
       <r>  -14.9839    1.0000 </r>
       <r>  -14.5365    1.0000 </r>
       <r>  -14.3127    1.0000 </r>
       <r>  -14.0773    1.0000 </r>
       <r>  -13.8633    1.0000 </r>
       <r>  -13.5511    1.0000 </r>
       <r>  -13.4456    1.0000 </r>
       <r>  -12.6750    1.0000 </r>
       <r>  -12.5378    1.0000 </r>
       <r>  -12.2479    1.0000 </r>
       <r>   -2.6751    1.0000 </r>
       <r>   -2.2201    1.0000 </r>
       <r>   -1.9987    1.0000 </r>
       <r>   -1.7028    1.0000 </r>
       <r>   -1.6181    1.0000 </r>
       <r>   -1.5367    1.0000 </r>
       <r>   -1.2655    1.0000 </r>
       <r>   -1.1666    1.0000 </r>
       <r>   -1.0162    1.0000 </r>
       <r>   -0.6955    1.0000 </r>
       <r>   -0.2399    1.0000 </r>
       <r>    0.1722    1.0000 </r>
       <r>    0.3168    1.0000 </r>
       <r>    0.5068    1.0000 </r>
       <r>    1.0490    1.0000 </r>
       <r>    1.1296    1.0000 </r>
       <r>    1.2299    1.0000 </r>
       <r>    1.6433    1.0000 </r>
       <r>    1.7837    1.0000 </r>
       <r>    1.9835    1.0000 </r>
       <r>    2.2680    1.0000 </r>
       <r>    3.0662    0.0000 </r>
       <r>    4.2772    0.0000 </r>
       <r>    5.2459    0.0000 </r>
       <r>    7.1461    0.0000 </r>
       <r>    7.7733    0.0000 </r>
       <r>    8.4938    0.0000 </r>
       <r>    8.5797    0.0000 </r>
       <r>    9.3089    0.0000 </r>
       <r>    9.9502    0.0000 </r>
       <r>   10.1038    0.0000 </r>
       <r>   10.5502    0.0000 </r>
      </set>
      <set comment="kpoint 16">
       <r>  -32.0666    1.0000 </r>
       <r>  -30.6475    1.0000 </r>
       <r>  -14.8455    1.0000 </r>
       <r>  -14.6840    1.0000 </r>
       <r>  -14.2577    1.0000 </r>
       <r>  -14.1343    1.0000 </r>
       <r>  -13.9582    1.0000 </r>
       <r>  -13.5578    1.0000 </r>
       <r>  -13.3810    1.0000 </r>
       <r>  -12.4846    1.0000 </r>
       <r>  -12.4725    1.0000 </r>
       <r>  -12.2687    1.0000 </r>
       <r>   -3.0811    1.0000 </r>
       <r>   -2.6075    1.0000 </r>
       <r>   -2.1999    1.0000 </r>
       <r>   -1.8080    1.0000 </r>
       <r>   -1.3732    1.0000 </r>
       <r>   -1.3522    1.0000 </r>
       <r>   -1.2961    1.0000 </r>
       <r>   -1.0247    1.0000 </r>
       <r>   -0.6304    1.0000 </r>
       <r>   -0.5156    1.0000 </r>
       <r>   -0.3033    1.0000 </r>
       <r>   -0.1753    1.0000 </r>
       <r>    0.5471    1.0000 </r>
       <r>    0.8072    1.0000 </r>
       <r>    1.0758    1.0000 </r>
       <r>    1.1908    1.0000 </r>
       <r>    1.2985    1.0000 </r>
       <r>    1.4757    1.0000 </r>
       <r>    1.5847    1.0000 </r>
       <r>    1.8977    1.0000 </r>
       <r>    2.0071    1.0000 </r>
       <r>    2.6299    0.9908 </r>
       <r>    4.9164    0.0000 </r>
       <r>    6.5030    0.0000 </r>
       <r>    7.1855    0.0000 </r>
       <r>    7.2402    0.0000 </r>
       <r>    7.4651    0.0000 </r>
       <r>    8.4514    0.0000 </r>
       <r>    9.6608    0.0000 </r>
       <r>    9.7008    0.0000 </r>
       <r>    9.9559    0.0000 </r>
       <r>   10.6657    0.0000 </r>
      </set>
      <set comment="kpoint 17">
       <r>  -32.0624    1.0000 </r>
       <r>  -30.6431    1.0000 </r>
       <r>  -14.8143    1.0000 </r>
       <r>  -14.6355    1.0000 </r>
       <r>  -14.3046    1.0000 </r>
       <r>  -14.1340    1.0000 </r>
       <r>  -13.8252    1.0000 </r>
       <r>  -13.5455    1.0000 </r>
       <r>  -13.4767    1.0000 </r>
       <r>  -12.5543    1.0000 </r>
       <r>  -12.4784    1.0000 </r>
       <r>  -12.3540    1.0000 </r>
       <r>   -3.0570    1.0000 </r>
       <r>   -2.6314    1.0000 </r>
       <r>   -2.1877    1.0000 </r>
       <r>   -1.7811    1.0000 </r>
       <r>   -1.6818    1.0000 </r>
       <r>   -1.5501    1.0000 </r>
       <r>   -1.4348    1.0000 </r>
       <r>   -1.3042    1.0000 </r>
       <r>   -1.2187    1.0000 </r>
       <r>   -0.6230    1.0000 </r>
       <r>   -0.3895    1.0000 </r>
       <r>    0.2204    1.0000 </r>
       <r>    0.8478    1.0000 </r>
       <r>    1.0155    1.0000 </r>
       <r>    1.1135    1.0000 </r>
       <r>    1.2144    1.0000 </r>
       <r>    1.3953    1.0000 </r>
       <r>    1.4512    1.0000 </r>
       <r>    1.8976    1.0000 </r>
       <r>    2.0916    1.0000 </r>
       <r>    2.2590    1.0000 </r>
       <r>    3.0496    0.0000 </r>
       <r>    4.8453    0.0000 </r>
       <r>    5.8023    0.0000 </r>
       <r>    7.2753    0.0000 </r>
       <r>    7.5945    0.0000 </r>
       <r>    8.2306    0.0000 </r>
       <r>    8.4930    0.0000 </r>
       <r>    9.3151    0.0000 </r>
       <r>    9.9194    0.0000 </r>
       <r>   10.0127    0.0000 </r>
       <r>   10.5938    0.0000 </r>
      </set>
      <set comment="kpoint 18">
       <r>  -32.0556    1.0000 </r>
       <r>  -30.6359    1.0000 </r>
       <r>  -14.8532    1.0000 </r>
       <r>  -14.5319    1.0000 </r>
       <r>  -14.2766    1.0000 </r>
       <r>  -13.9376    1.0000 </r>
       <r>  -13.8722    1.0000 </r>
       <r>  -13.5964    1.0000 </r>
       <r>  -13.4731    1.0000 </r>
       <r>  -12.6991    1.0000 </r>
       <r>  -12.5882    1.0000 </r>
       <r>  -12.4131    1.0000 </r>
       <r>   -3.0435    1.0000 </r>
       <r>   -2.8879    1.0000 </r>
       <r>   -2.4257    1.0000 </r>
       <r>   -2.1643    1.0000 </r>
       <r>   -1.9466    1.0000 </r>
       <r>   -1.6181    1.0000 </r>
       <r>   -1.5301    1.0000 </r>
       <r>   -1.4713    1.0000 </r>
       <r>   -1.3308    1.0000 </r>
       <r>   -0.6690    1.0000 </r>
       <r>   -0.2249    1.0000 </r>
       <r>    0.5149    1.0000 </r>
       <r>    0.9470    1.0000 </r>
       <r>    1.1422    1.0000 </r>
       <r>    1.2190    1.0000 </r>
       <r>    1.3225    1.0000 </r>
       <r>    1.4611    1.0000 </r>
       <r>    1.6391    1.0000 </r>
       <r>    1.9613    1.0000 </r>
       <r>    2.1766    1.0000 </r>
       <r>    2.4949    1.0000 </r>
       <r>    4.0038    0.0000 </r>
       <r>    4.4647    0.0000 </r>
       <r>    5.0775    0.0000 </r>
       <r>    8.3034    0.0000 </r>
       <r>    8.3693    0.0000 </r>
       <r>    8.6244    0.0000 </r>
       <r>    8.9690    0.0000 </r>
       <r>    9.2072    0.0000 </r>
       <r>    9.5621    0.0000 </r>
       <r>   10.0915    0.0000 </r>
       <r>   10.5179    0.0000 </r>
      </set>
     </set>
     <set comment="spin 2">
      <set comment="kpoint 1">
       <r>  -32.0789    1.0000 </r>
       <r>  -30.6634    1.0000 </r>
       <r>  -15.0481    1.0000 </r>
       <r>  -14.5686    1.0000 </r>
       <r>  -14.1240    1.0000 </r>
       <r>  -13.9775    1.0000 </r>
       <r>  -13.5479    1.0000 </r>
       <r>  -13.2828    1.0000 </r>
       <r>  -13.1834    1.0000 </r>
       <r>  -12.6144    1.0000 </r>
       <r>  -12.5099    1.0000 </r>
       <r>  -12.4310    1.0000 </r>
       <r>   -1.4386    1.0000 </r>
       <r>   -0.9238    1.0000 </r>
       <r>   -0.7978    1.0000 </r>
       <r>   -0.7499    1.0000 </r>
       <r>   -0.7330    1.0000 </r>
       <r>   -0.6814    1.0000 </r>
       <r>   -0.6408    1.0000 </r>
       <r>   -0.5981    1.0000 </r>
       <r>   -0.4427    1.0000 </r>
       <r>   -0.4260    1.0000 </r>
       <r>   -0.4131    1.0000 </r>
       <r>   -0.4020    1.0000 </r>
       <r>    0.0574    1.0000 </r>
       <r>    0.3468    1.0000 </r>
       <r>    0.8240    1.0000 </r>
       <r>    0.9266    1.0000 </r>
       <r>    1.2913    1.0000 </r>
       <r>    1.9596    1.0000 </r>
       <r>    1.9802    1.0000 </r>
       <r>    2.2317    1.0000 </r>
       <r>    2.2516    1.0000 </r>
       <r>    2.3990    1.0000 </r>
       <r>    2.9393    0.0000 </r>
       <r>    5.5643    0.0000 </r>
       <r>    6.8534    0.0000 </r>
       <r>    7.7257    0.0000 </r>
       <r>    8.1191    0.0000 </r>
       <r>    8.8658    0.0000 </r>
       <r>    9.0405    0.0000 </r>
       <r>    9.1852    0.0000 </r>
       <r>    9.3248    0.0000 </r>
       <r>    9.9823    0.0000 </r>
      </set>
      <set comment="kpoint 2">
       <r>  -32.0746    1.0000 </r>
       <r>  -30.6586    1.0000 </r>
       <r>  -14.9636    1.0000 </r>
       <r>  -14.6551    1.0000 </r>
       <r>  -14.1173    1.0000 </r>
       <r>  -13.9748    1.0000 </r>
       <r>  -13.5938    1.0000 </r>
       <r>  -13.4165    1.0000 </r>
       <r>  -13.1921    1.0000 </r>
       <r>  -12.6021    1.0000 </r>
       <r>  -12.4988    1.0000 </r>
       <r>  -12.2804    1.0000 </r>
       <r>   -1.4815    1.0000 </r>
       <r>   -1.3779    1.0000 </r>
       <r>   -1.1276    1.0000 </r>
       <r>   -0.9853    1.0000 </r>
       <r>   -0.9432    1.0000 </r>
       <r>   -0.7068    1.0000 </r>
       <r>   -0.4966    1.0000 </r>
       <r>   -0.4765    1.0000 </r>
       <r>   -0.4614    1.0000 </r>
       <r>   -0.4344    1.0000 </r>
       <r>   -0.3360    1.0000 </r>
       <r>   -0.2785    1.0000 </r>
       <r>   -0.0086    1.0000 </r>
       <r>    0.4176    1.0000 </r>
       <r>    0.8958    1.0000 </r>
       <r>    1.0981    1.0000 </r>
       <r>    1.3364    1.0000 </r>
       <r>    1.7911    1.0000 </r>
       <r>    1.9324    1.0000 </r>
       <r>    1.9701    1.0000 </r>
       <r>    2.2887    1.0000 </r>
       <r>    2.5566    1.0000 </r>
       <r>    3.5233    0.0000 </r>
       <r>    5.8780    0.0000 </r>
       <r>    6.8911    0.0000 </r>
       <r>    8.1608    0.0000 </r>
       <r>    8.3266    0.0000 </r>
       <r>    8.4659    0.0000 </r>
       <r>    8.8561    0.0000 </r>
       <r>    9.2371    0.0000 </r>
       <r>    9.7316    0.0000 </r>
       <r>   10.0140    0.0000 </r>
      </set>
      <set comment="kpoint 3">
       <r>  -32.0677    1.0000 </r>
       <r>  -30.6509    1.0000 </r>
       <r>  -15.0125    1.0000 </r>
       <r>  -14.4393    1.0000 </r>
       <r>  -14.1063    1.0000 </r>
       <r>  -14.0607    1.0000 </r>
       <r>  -13.8873    1.0000 </r>
       <r>  -13.4519    1.0000 </r>
       <r>  -13.1483    1.0000 </r>
       <r>  -12.5822    1.0000 </r>
       <r>  -12.5735    1.0000 </r>
       <r>  -12.0369    1.0000 </r>
       <r>   -2.1952    1.0000 </r>
       <r>   -1.5307    1.0000 </r>
       <r>   -1.4195    1.0000 </r>
       <r>   -1.1772    1.0000 </r>
       <r>   -0.9925    1.0000 </r>
       <r>   -0.7123    1.0000 </r>
       <r>   -0.6325    1.0000 </r>
       <r>   -0.5253    1.0000 </r>
       <r>   -0.4686    1.0000 </r>
       <r>   -0.4606    1.0000 </r>
       <r>   -0.1345    1.0000 </r>
       <r>   -0.0730    1.0000 </r>
       <r>    0.0991    1.0000 </r>
       <r>    0.4212    1.0000 </r>
       <r>    1.0194    1.0000 </r>
       <r>    1.1200    1.0000 </r>
       <r>    1.2895    1.0000 </r>
       <r>    1.7681    1.0000 </r>
       <r>    1.9072    1.0000 </r>
       <r>    1.9175    1.0000 </r>
       <r>    2.1066    1.0000 </r>
       <r>    3.0149    0.0000 </r>
       <r>    4.3451    0.0000 </r>
       <r>    5.5856    0.0000 </r>
       <r>    6.8418    0.0000 </r>
       <r>    7.8410    0.0000 </r>
       <r>    8.0951    0.0000 </r>
       <r>    8.8228    0.0000 </r>
       <r>    9.1313    0.0000 </r>
       <r>    9.9455    0.0000 </r>
       <r>   10.0751    0.0000 </r>
       <r>   10.4279    0.0000 </r>
      </set>
      <set comment="kpoint 4">
       <r>  -32.0746    1.0000 </r>
       <r>  -30.6587    1.0000 </r>
       <r>  -14.9668    1.0000 </r>
       <r>  -14.5420    1.0000 </r>
       <r>  -14.1744    1.0000 </r>
       <r>  -13.9706    1.0000 </r>
       <r>  -13.6204    1.0000 </r>
       <r>  -13.3841    1.0000 </r>
       <r>  -13.2717    1.0000 </r>
       <r>  -12.4974    1.0000 </r>
       <r>  -12.4400    1.0000 </r>
       <r>  -12.3662    1.0000 </r>
       <r>   -1.8828    1.0000 </r>
       <r>   -1.4716    1.0000 </r>
       <r>   -1.3383    1.0000 </r>
       <r>   -1.2646    1.0000 </r>
       <r>   -1.0192    1.0000 </r>
       <r>   -0.8712    1.0000 </r>
       <r>   -0.7883    1.0000 </r>
       <r>   -0.7506    1.0000 </r>
       <r>   -0.4479    1.0000 </r>
       <r>   -0.4146    1.0000 </r>
       <r>   -0.3159    1.0000 </r>
       <r>   -0.0936    1.0000 </r>
       <r>    0.6481    1.0000 </r>
       <r>    0.6602    1.0000 </r>
       <r>    0.9469    1.0000 </r>
       <r>    1.1129    1.0000 </r>
       <r>    1.4902    1.0000 </r>
       <r>    1.8828    1.0000 </r>
       <r>    1.9303    1.0000 </r>
       <r>    2.0222    1.0000 </r>
       <r>    2.1480    1.0000 </r>
       <r>    3.0979    0.0000 </r>
       <r>    3.7504    0.0000 </r>
       <r>    5.8482    0.0000 </r>
       <r>    7.0891    0.0000 </r>
       <r>    7.7708    0.0000 </r>
       <r>    8.0264    0.0000 </r>
       <r>    8.0954    0.0000 </r>
       <r>    9.4391    0.0000 </r>
       <r>    9.5334    0.0000 </r>
       <r>    9.5713    0.0000 </r>
       <r>   10.1084    0.0000 </r>
      </set>
      <set comment="kpoint 5">
       <r>  -32.0703    1.0000 </r>
       <r>  -30.6541    1.0000 </r>
       <r>  -14.8902    1.0000 </r>
       <r>  -14.5966    1.0000 </r>
       <r>  -14.2172    1.0000 </r>
       <r>  -13.9501    1.0000 </r>
       <r>  -13.6048    1.0000 </r>
       <r>  -13.3831    1.0000 </r>
       <r>  -13.3164    1.0000 </r>
       <r>  -12.5585    1.0000 </r>
       <r>  -12.4953    1.0000 </r>
       <r>  -12.2574    1.0000 </r>
       <r>   -1.8578    1.0000 </r>
       <r>   -1.5915    1.0000 </r>
       <r>   -1.3628    1.0000 </r>
       <r>   -1.2927    1.0000 </r>
       <r>   -1.2209    1.0000 </r>
       <r>   -1.0258    1.0000 </r>
       <r>   -0.9936    1.0000 </r>
       <r>   -0.9608    1.0000 </r>
       <r>   -0.7756    1.0000 </r>
       <r>   -0.4696    1.0000 </r>
       <r>   -0.2725    1.0000 </r>
       <r>    0.1302    1.0000 </r>
       <r>    0.5533    1.0000 </r>
       <r>    0.7657    1.0000 </r>
       <r>    1.1847    1.0000 </r>
       <r>    1.3897    1.0000 </r>
       <r>    1.4707    1.0000 </r>
       <r>    1.5696    1.0000 </r>
       <r>    1.7027    1.0000 </r>
       <r>    2.1056    1.0000 </r>
       <r>    3.0585    0.0000 </r>
       <r>    3.1008    0.0000 </r>
       <r>    3.9558    0.0000 </r>
       <r>    5.9617    0.0000 </r>
       <r>    7.1565    0.0000 </r>
       <r>    7.6458    0.0000 </r>
       <r>    7.9437    0.0000 </r>
       <r>    8.4145    0.0000 </r>
       <r>    8.7867    0.0000 </r>
       <r>    9.8098    0.0000 </r>
       <r>   10.0355    0.0000 </r>
       <r>   10.2365    0.0000 </r>
      </set>
      <set comment="kpoint 6">
       <r>  -32.0635    1.0000 </r>
       <r>  -30.6465    1.0000 </r>
       <r>  -14.9390    1.0000 </r>
       <r>  -14.4175    1.0000 </r>
       <r>  -14.1919    1.0000 </r>
       <r>  -13.9940    1.0000 </r>
       <r>  -13.7936    1.0000 </r>
       <r>  -13.4678    1.0000 </r>
       <r>  -13.1632    1.0000 </r>
       <r>  -12.6737    1.0000 </r>
       <r>  -12.5288    1.0000 </r>
       <r>  -12.1521    1.0000 </r>
       <r>   -2.2691    1.0000 </r>
       <r>   -1.8176    1.0000 </r>
       <r>   -1.5126    1.0000 </r>
       <r>   -1.4416    1.0000 </r>
       <r>   -1.3893    1.0000 </r>
       <r>   -1.1781    1.0000 </r>
       <r>   -1.1018    1.0000 </r>
       <r>   -1.0611    1.0000 </r>
       <r>   -0.8199    1.0000 </r>
       <r>   -0.5381    1.0000 </r>
       <r>   -0.0293    1.0000 </r>
       <r>    0.2674    1.0000 </r>
       <r>    0.5055    1.0000 </r>
       <r>    0.7910    1.0000 </r>
       <r>    1.3021    1.0000 </r>
       <r>    1.3542    1.0000 </r>
       <r>    1.4447    1.0000 </r>
       <r>    1.7651    1.0000 </r>
       <r>    1.9748    1.0000 </r>
       <r>    2.1025    1.0000 </r>
       <r>    3.0265    0.0000 </r>
       <r>    3.6402    0.0000 </r>
       <r>    4.5191    0.0000 </r>
       <r>    5.3911    0.0000 </r>
       <r>    7.1315    0.0000 </r>
       <r>    7.6902    0.0000 </r>
       <r>    8.2951    0.0000 </r>
       <r>    8.5953    0.0000 </r>
       <r>    9.1307    0.0000 </r>
       <r>   10.0492    0.0000 </r>
       <r>   10.3268    0.0000 </r>
       <r>   10.7352    0.0000 </r>
      </set>
      <set comment="kpoint 7">
       <r>  -32.0676    1.0000 </r>
       <r>  -30.6510    1.0000 </r>
       <r>  -14.8142    1.0000 </r>
       <r>  -14.5988    1.0000 </r>
       <r>  -14.1061    1.0000 </r>
       <r>  -13.9594    1.0000 </r>
       <r>  -13.8883    1.0000 </r>
       <r>  -13.3921    1.0000 </r>
       <r>  -13.3248    1.0000 </r>
       <r>  -12.4771    1.0000 </r>
       <r>  -12.4430    1.0000 </r>
       <r>  -12.1344    1.0000 </r>
       <r>   -2.8335    1.0000 </r>
       <r>   -2.1358    1.0000 </r>
       <r>   -1.7974    1.0000 </r>
       <r>   -1.3669    1.0000 </r>
       <r>   -1.3090    1.0000 </r>
       <r>   -1.1174    1.0000 </r>
       <r>   -1.0393    1.0000 </r>
       <r>   -0.8531    1.0000 </r>
       <r>   -0.4298    1.0000 </r>
       <r>   -0.3790    1.0000 </r>
       <r>   -0.1742    1.0000 </r>
       <r>    0.2689    1.0000 </r>
       <r>    0.9245    1.0000 </r>
       <r>    0.9983    1.0000 </r>
       <r>    1.1468    1.0000 </r>
       <r>    1.2508    1.0000 </r>
       <r>    1.6570    1.0000 </r>
       <r>    1.8082    1.0000 </r>
       <r>    1.9314    1.0000 </r>
       <r>    2.0142    1.0000 </r>
       <r>    2.0645    1.0000 </r>
       <r>    3.5457    0.0000 </r>
       <r>    5.1115    0.0000 </r>
       <r>    6.5339    0.0000 </r>
       <r>    7.0921    0.0000 </r>
       <r>    7.2585    0.0000 </r>
       <r>    7.3901    0.0000 </r>
       <r>    8.5532    0.0000 </r>
       <r>    9.5478    0.0000 </r>
       <r>    9.7926    0.0000 </r>
       <r>   10.0754    0.0000 </r>
       <r>   10.6905    0.0000 </r>
      </set>
      <set comment="kpoint 8">
       <r>  -32.0634    1.0000 </r>
       <r>  -30.6466    1.0000 </r>
       <r>  -14.7615    1.0000 </r>
       <r>  -14.5672    1.0000 </r>
       <r>  -14.2567    1.0000 </r>
       <r>  -13.9381    1.0000 </r>
       <r>  -13.7294    1.0000 </r>
       <r>  -13.3848    1.0000 </r>
       <r>  -13.3193    1.0000 </r>
       <r>  -12.5456    1.0000 </r>
       <r>  -12.4654    1.0000 </r>
       <r>  -12.2537    1.0000 </r>
       <r>   -2.8014    1.0000 </r>
       <r>   -2.2150    1.0000 </r>
       <r>   -1.6660    1.0000 </r>
       <r>   -1.4569    1.0000 </r>
       <r>   -1.3657    1.0000 </r>
       <r>   -1.3430    1.0000 </r>
       <r>   -1.2193    1.0000 </r>
       <r>   -1.0877    1.0000 </r>
       <r>   -1.0101    1.0000 </r>
       <r>   -0.4831    1.0000 </r>
       <r>   -0.2356    1.0000 </r>
       <r>    0.4902    1.0000 </r>
       <r>    1.0678    1.0000 </r>
       <r>    1.1876    1.0000 </r>
       <r>    1.2866    1.0000 </r>
       <r>    1.3011    1.0000 </r>
       <r>    1.6288    1.0000 </r>
       <r>    1.6984    1.0000 </r>
       <r>    2.0664    1.0000 </r>
       <r>    2.1718    1.0000 </r>
       <r>    3.0622    0.0000 </r>
       <r>    3.7107    0.0000 </r>
       <r>    5.0224    0.0000 </r>
       <r>    5.7062    0.0000 </r>
       <r>    7.2729    0.0000 </r>
       <r>    7.6088    0.0000 </r>
       <r>    8.2142    0.0000 </r>
       <r>    8.7317    0.0000 </r>
       <r>    9.3479    0.0000 </r>
       <r>    9.9160    0.0000 </r>
       <r>   10.2966    0.0000 </r>
       <r>   10.4778    0.0000 </r>
      </set>
      <set comment="kpoint 9">
       <r>  -32.0567    1.0000 </r>
       <r>  -30.6395    1.0000 </r>
       <r>  -14.8168    1.0000 </r>
       <r>  -14.4922    1.0000 </r>
       <r>  -14.1580    1.0000 </r>
       <r>  -13.8769    1.0000 </r>
       <r>  -13.6541    1.0000 </r>
       <r>  -13.4936    1.0000 </r>
       <r>  -13.2410    1.0000 </r>
       <r>  -12.6938    1.0000 </r>
       <r>  -12.5595    1.0000 </r>
       <r>  -12.3604    1.0000 </r>
       <r>   -2.7560    1.0000 </r>
       <r>   -2.6247    1.0000 </r>
       <r>   -1.8640    1.0000 </r>
       <r>   -1.8146    1.0000 </r>
       <r>   -1.4753    1.0000 </r>
       <r>   -1.4066    1.0000 </r>
       <r>   -1.3616    1.0000 </r>
       <r>   -1.2819    1.0000 </r>
       <r>   -1.1533    1.0000 </r>
       <r>   -0.5401    1.0000 </r>
       <r>    0.0182    1.0000 </r>
       <r>    0.6857    1.0000 </r>
       <r>    0.9873    1.0000 </r>
       <r>    1.3221    1.0000 </r>
       <r>    1.4235    1.0000 </r>
       <r>    1.4859    1.0000 </r>
       <r>    1.6676    1.0000 </r>
       <r>    1.8624    1.0000 </r>
       <r>    2.1891    1.0000 </r>
       <r>    2.6039    0.9990 </r>
       <r>    3.3639    0.0000 </r>
       <r>    4.4500    0.0000 </r>
       <r>    4.5736    0.0000 </r>
       <r>    5.0252    0.0000 </r>
       <r>    8.2419    0.0000 </r>
       <r>    8.2576    0.0000 </r>
       <r>    8.5718    0.0000 </r>
       <r>    9.0783    0.0000 </r>
       <r>    9.3869    0.0000 </r>
       <r>    9.5002    0.0000 </r>
       <r>   10.4418    0.0000 </r>
       <r>   10.8316    0.0000 </r>
      </set>
      <set comment="kpoint 10">
       <r>  -32.0788    1.0000 </r>
       <r>  -30.6635    1.0000 </r>
       <r>  -14.9990    1.0000 </r>
       <r>  -14.6318    1.0000 </r>
       <r>  -14.1240    1.0000 </r>
       <r>  -13.9774    1.0000 </r>
       <r>  -13.5863    1.0000 </r>
       <r>  -13.2838    1.0000 </r>
       <r>  -13.1117    1.0000 </r>
       <r>  -12.6145    1.0000 </r>
       <r>  -12.5101    1.0000 </r>
       <r>  -12.4493    1.0000 </r>
       <r>   -1.4607    1.0000 </r>
       <r>   -0.9352    1.0000 </r>
       <r>   -0.7891    1.0000 </r>
       <r>   -0.7065    1.0000 </r>
       <r>   -0.7046    1.0000 </r>
       <r>   -0.6812    1.0000 </r>
       <r>   -0.6253    1.0000 </r>
       <r>   -0.5997    1.0000 </r>
       <r>   -0.4555    1.0000 </r>
       <r>   -0.4137    1.0000 </r>
       <r>   -0.4132    1.0000 </r>
       <r>   -0.3773    1.0000 </r>
       <r>    0.0509    1.0000 </r>
       <r>    0.2865    1.0000 </r>
       <r>    0.7948    1.0000 </r>
       <r>    0.9259    1.0000 </r>
       <r>    1.2536    1.0000 </r>
       <r>    1.9553    1.0000 </r>
       <r>    1.9599    1.0000 </r>
       <r>    2.1848    1.0000 </r>
       <r>    2.2320    1.0000 </r>
       <r>    2.4011    1.0000 </r>
       <r>    3.2199    0.0000 </r>
       <r>    5.3166    0.0000 </r>
       <r>    6.8548    0.0000 </r>
       <r>    7.8792    0.0000 </r>
       <r>    8.3334    0.0000 </r>
       <r>    8.6669    0.0000 </r>
       <r>    8.9127    0.0000 </r>
       <r>    9.0435    0.0000 </r>
       <r>    9.3686    0.0000 </r>
       <r>   10.3127    0.0000 </r>
      </set>
      <set comment="kpoint 11">
       <r>  -32.0746    1.0000 </r>
       <r>  -30.6587    1.0000 </r>
       <r>  -14.9505    1.0000 </r>
       <r>  -14.6439    1.0000 </r>
       <r>  -14.1172    1.0000 </r>
       <r>  -13.9843    1.0000 </r>
       <r>  -13.7078    1.0000 </r>
       <r>  -13.3332    1.0000 </r>
       <r>  -13.1793    1.0000 </r>
       <r>  -12.6023    1.0000 </r>
       <r>  -12.4938    1.0000 </r>
       <r>  -12.2814    1.0000 </r>
       <r>   -1.5115    1.0000 </r>
       <r>   -1.3688    1.0000 </r>
       <r>   -1.1369    1.0000 </r>
       <r>   -0.9984    1.0000 </r>
       <r>   -0.9307    1.0000 </r>
       <r>   -0.6899    1.0000 </r>
       <r>   -0.5544    1.0000 </r>
       <r>   -0.4984    1.0000 </r>
       <r>   -0.4567    1.0000 </r>
       <r>   -0.4312    1.0000 </r>
       <r>   -0.2735    1.0000 </r>
       <r>   -0.2598    1.0000 </r>
       <r>   -0.0181    1.0000 </r>
       <r>    0.4315    1.0000 </r>
       <r>    0.8708    1.0000 </r>
       <r>    1.1357    1.0000 </r>
       <r>    1.3152    1.0000 </r>
       <r>    1.8251    1.0000 </r>
       <r>    1.9283    1.0000 </r>
       <r>    1.9777    1.0000 </r>
       <r>    2.2916    1.0000 </r>
       <r>    2.6377    0.9838 </r>
       <r>    3.4879    0.0000 </r>
       <r>    5.8227    0.0000 </r>
       <r>    6.8144    0.0000 </r>
       <r>    8.1184    0.0000 </r>
       <r>    8.3498    0.0000 </r>
       <r>    8.4661    0.0000 </r>
       <r>    8.6490    0.0000 </r>
       <r>    9.2583    0.0000 </r>
       <r>    9.6312    0.0000 </r>
       <r>   10.1290    0.0000 </r>
      </set>
      <set comment="kpoint 12">
       <r>  -32.0676    1.0000 </r>
       <r>  -30.6509    1.0000 </r>
       <r>  -14.9784    1.0000 </r>
       <r>  -14.4828    1.0000 </r>
       <r>  -14.1694    1.0000 </r>
       <r>  -14.1062    1.0000 </r>
       <r>  -13.7213    1.0000 </r>
       <r>  -13.4519    1.0000 </r>
       <r>  -13.2115    1.0000 </r>
       <r>  -12.5823    1.0000 </r>
       <r>  -12.5548    1.0000 </r>
       <r>  -12.0410    1.0000 </r>
       <r>   -2.2034    1.0000 </r>
       <r>   -1.5422    1.0000 </r>
       <r>   -1.4390    1.0000 </r>
       <r>   -1.1759    1.0000 </r>
       <r>   -0.9996    1.0000 </r>
       <r>   -0.6772    1.0000 </r>
       <r>   -0.6186    1.0000 </r>
       <r>   -0.5154    1.0000 </r>
       <r>   -0.5007    1.0000 </r>
       <r>   -0.4641    1.0000 </r>
       <r>   -0.1113    1.0000 </r>
       <r>   -0.0659    1.0000 </r>
       <r>    0.0561    1.0000 </r>
       <r>    0.5174    1.0000 </r>
       <r>    0.9756    1.0000 </r>
       <r>    1.0875    1.0000 </r>
       <r>    1.2768    1.0000 </r>
       <r>    1.8701    1.0000 </r>
       <r>    1.9173    1.0000 </r>
       <r>    1.9238    1.0000 </r>
       <r>    2.1089    1.0000 </r>
       <r>    3.1170    0.0000 </r>
       <r>    4.1529    0.0000 </r>
       <r>    5.4915    0.0000 </r>
       <r>    6.8416    0.0000 </r>
       <r>    7.8414    0.0000 </r>
       <r>    8.1142    0.0000 </r>
       <r>    8.6177    0.0000 </r>
       <r>    9.1317    0.0000 </r>
       <r>    9.8504    0.0000 </r>
       <r>   10.4036    0.0000 </r>
       <r>   10.4570    0.0000 </r>
      </set>
      <set comment="kpoint 13">
       <r>  -32.0746    1.0000 </r>
       <r>  -30.6587    1.0000 </r>
       <r>  -14.9232    1.0000 </r>
       <r>  -14.5827    1.0000 </r>
       <r>  -14.1851    1.0000 </r>
       <r>  -13.9705    1.0000 </r>
       <r>  -13.7012    1.0000 </r>
       <r>  -13.3116    1.0000 </r>
       <r>  -13.2384    1.0000 </r>
       <r>  -12.4977    1.0000 </r>
       <r>  -12.4579    1.0000 </r>
       <r>  -12.3658    1.0000 </r>
       <r>   -1.8871    1.0000 </r>
       <r>   -1.4698    1.0000 </r>
       <r>   -1.3027    1.0000 </r>
       <r>   -1.1957    1.0000 </r>
       <r>   -0.9903    1.0000 </r>
       <r>   -0.9049    1.0000 </r>
       <r>   -0.8897    1.0000 </r>
       <r>   -0.7825    1.0000 </r>
       <r>   -0.4731    1.0000 </r>
       <r>   -0.4276    1.0000 </r>
       <r>   -0.3050    1.0000 </r>
       <r>    0.0318    1.0000 </r>
       <r>    0.6002    1.0000 </r>
       <r>    0.6589    1.0000 </r>
       <r>    0.9444    1.0000 </r>
       <r>    1.0801    1.0000 </r>
       <r>    1.4070    1.0000 </r>
       <r>    1.9068    1.0000 </r>
       <r>    1.9220    1.0000 </r>
       <r>    2.1444    1.0000 </r>
       <r>    2.2048    1.0000 </r>
       <r>    3.0248    0.0000 </r>
       <r>    3.7300    0.0000 </r>
       <r>    5.7350    0.0000 </r>
       <r>    7.1771    0.0000 </r>
       <r>    7.8334    0.0000 </r>
       <r>    8.0982    0.0000 </r>
       <r>    8.5205    0.0000 </r>
       <r>    9.2144    0.0000 </r>
       <r>    9.2794    0.0000 </r>
       <r>    9.5522    0.0000 </r>
       <r>    9.9812    0.0000 </r>
      </set>
      <set comment="kpoint 14">
       <r>  -32.0703    1.0000 </r>
       <r>  -30.6541    1.0000 </r>
       <r>  -14.8786    1.0000 </r>
       <r>  -14.5873    1.0000 </r>
       <r>  -14.2159    1.0000 </r>
       <r>  -13.9401    1.0000 </r>
       <r>  -13.7172    1.0000 </r>
       <r>  -13.3642    1.0000 </r>
       <r>  -13.2598    1.0000 </r>
       <r>  -12.5523    1.0000 </r>
       <r>  -12.4976    1.0000 </r>
       <r>  -12.2559    1.0000 </r>
       <r>   -1.8712    1.0000 </r>
       <r>   -1.6119    1.0000 </r>
       <r>   -1.3610    1.0000 </r>
       <r>   -1.2290    1.0000 </r>
       <r>   -1.2130    1.0000 </r>
       <r>   -1.0507    1.0000 </r>
       <r>   -0.9867    1.0000 </r>
       <r>   -0.9625    1.0000 </r>
       <r>   -0.8536    1.0000 </r>
       <r>   -0.4975    1.0000 </r>
       <r>   -0.2798    1.0000 </r>
       <r>    0.2772    1.0000 </r>
       <r>    0.5580    1.0000 </r>
       <r>    0.7204    1.0000 </r>
       <r>    1.1627    1.0000 </r>
       <r>    1.4446    1.0000 </r>
       <r>    1.4747    1.0000 </r>
       <r>    1.5811    1.0000 </r>
       <r>    1.7314    1.0000 </r>
       <r>    2.1490    1.0000 </r>
       <r>    3.0021    0.0000 </r>
       <r>    3.0607    0.0000 </r>
       <r>    3.8806    0.0000 </r>
       <r>    5.9840    0.0000 </r>
       <r>    7.0428    0.0000 </r>
       <r>    7.6974    0.0000 </r>
       <r>    8.1307    0.0000 </r>
       <r>    8.4333    0.0000 </r>
       <r>    8.9501    0.0000 </r>
       <r>    9.5779    0.0000 </r>
       <r>    9.8403    0.0000 </r>
       <r>   10.2481    0.0000 </r>
      </set>
      <set comment="kpoint 15">
       <r>  -32.0634    1.0000 </r>
       <r>  -30.6466    1.0000 </r>
       <r>  -14.9088    1.0000 </r>
       <r>  -14.4363    1.0000 </r>
       <r>  -14.2494    1.0000 </r>
       <r>  -14.0347    1.0000 </r>
       <r>  -13.6803    1.0000 </r>
       <r>  -13.4465    1.0000 </r>
       <r>  -13.2157    1.0000 </r>
       <r>  -12.6711    1.0000 </r>
       <r>  -12.5220    1.0000 </r>
       <r>  -12.1583    1.0000 </r>
       <r>   -2.2866    1.0000 </r>
       <r>   -1.8239    1.0000 </r>
       <r>   -1.4956    1.0000 </r>
       <r>   -1.4537    1.0000 </r>
       <r>   -1.3905    1.0000 </r>
       <r>   -1.1778    1.0000 </r>
       <r>   -1.0884    1.0000 </r>
       <r>   -1.0492    1.0000 </r>
       <r>   -0.8487    1.0000 </r>
       <r>   -0.5722    1.0000 </r>
       <r>   -0.0187    1.0000 </r>
       <r>    0.3181    1.0000 </r>
       <r>    0.5551    1.0000 </r>
       <r>    0.8777    1.0000 </r>
       <r>    1.2548    1.0000 </r>
       <r>    1.3537    1.0000 </r>
       <r>    1.4212    1.0000 </r>
       <r>    1.8330    1.0000 </r>
       <r>    1.9973    1.0000 </r>
       <r>    2.1294    1.0000 </r>
       <r>    2.9149    0.0000 </r>
       <r>    3.5731    0.0000 </r>
[...]
       <r>     0.3904     2.4698    24.7162 </r>
       <r>     0.5478     3.4885    25.2651 </r>
       <r>     0.7051     2.7158    25.6924 </r>
       <r>     0.8624     2.1780    26.0351 </r>
       <r>     1.0198     3.1976    26.5382 </r>
       <r>     1.1771     6.0938    27.4970 </r>
       <r>     1.3345     7.7876    28.7223 </r>
       <r>     1.4918     4.5841    29.4435 </r>
       <r>     1.6491     4.4591    30.1451 </r>
       <r>     1.8065     4.1623    30.8000 </r>
       <r>     1.9638     4.9746    31.5827 </r>
       <r>     2.1212     3.9796    32.2089 </r>
       <r>     2.2785     2.3340    32.5761 </r>
       <r>     2.4358     2.4171    32.9564 </r>
       <r>     2.5932     1.9031    33.2559 </r>
       <r>     2.7505     1.5875    33.5057 </r>
       <r>     2.9079     0.1635    33.5314 </r>
       <r>     3.0652     1.0180    33.6915 </r>
       <r>     3.2225     1.2628    33.8902 </r>
       <r>     3.3799     0.4430    33.9599 </r>
       <r>     3.5372     0.0759    33.9719 </r>
       <r>     3.6946     0.4884    34.0487 </r>
       <r>     3.8519     0.9349    34.1958 </r>
       <r>     4.0092     0.6648    34.3004 </r>
       <r>     4.1666     0.7855    34.4240 </r>
       <r>     4.3239     0.7180    34.5370 </r>
       <r>     4.4813     1.0612    34.7040 </r>
       <r>     4.6386     0.3562    34.7600 </r>
       <r>     4.7959     0.1776    34.7879 </r>
       <r>     4.9533     1.6247    35.0436 </r>
       <r>     5.1106     0.6218    35.1414 </r>
       <r>     5.2680     0.8718    35.2786 </r>
       <r>     5.4253     0.6420    35.3796 </r>
       <r>     5.5826     0.4046    35.4432 </r>
       <r>     5.7400     0.8858    35.5826 </r>
       <r>     5.8973     1.5928    35.8332 </r>
       <r>     6.0547     0.5516    35.9200 </r>
       <r>     6.2120     0.0000    35.9200 </r>
       <r>     6.3693     0.0001    35.9200 </r>
       <r>     6.5267     0.3957    35.9823 </r>
       <r>     6.6840     0.1135    36.0001 </r>
       <r>     6.8414     0.9218    36.1452 </r>
       <r>     6.9987     0.5427    36.2305 </r>
       <r>     7.1560     2.0423    36.5519 </r>
       <r>     7.3134     2.2806    36.9107 </r>
       <r>     7.4707     0.4195    36.9767 </r>
       <r>     7.6281     1.3239    37.1850 </r>
       <r>     7.7854     2.0606    37.5092 </r>
       <r>     7.9427     1.3950    37.7287 </r>
       <r>     8.1001     1.7824    38.0092 </r>
       <r>     8.2574     2.2953    38.3703 </r>
       <r>     8.4148     3.3669    38.9001 </r>
       <r>     8.5721     3.7238    39.4860 </r>
       <r>     8.7294     2.4089    39.8650 </r>
       <r>     8.8868     0.8259    39.9949 </r>
       <r>     9.0441     1.7321    40.2675 </r>
       <r>     9.2015     1.8701    40.5617 </r>
       <r>     9.3588     3.0870    41.0474 </r>
       <r>     9.5161     1.3073    41.2531 </r>
       <r>     9.6735     2.4333    41.6360 </r>
       <r>     9.8308     1.5274    41.8763 </r>
       <r>     9.9882     3.2145    42.3821 </r>
       <r>    10.1455     3.5524    42.9410 </r>
       <r>    10.3028     1.7096    43.2100 </r>
       <r>    10.4602     1.6156    43.4642 </r>
       <r>    10.6175     2.0756    43.7908 </r>
       <r>    10.7749     1.0000    43.9481 </r>
       <r>    10.9322     0.3291    43.9999 </r>
       <r>    11.0895     0.0008    44.0000 </r>
       <r>    11.2469     0.0000    44.0000 </r>
       <r>    11.4042     0.0000    44.0000 </r>
       <r>    11.5616     0.0000    44.0000 </r>
       <r>    11.7189     0.0000    44.0000 </r>
       <r>    11.8762     0.0000    44.0000 </r>
       <r>    12.0336     0.0000    44.0000 </r>
       <r>    12.1909     0.0000    44.0000 </r>
       <r>    12.3483     0.0000    44.0000 </r>
       <r>    12.5056     0.0000    44.0000 </r>
       <r>    12.6629     0.0000    44.0000 </r>
       <r>    12.8203     0.0000    44.0000 </r>
       <r>    12.9776     0.0000    44.0000 </r>
      </set>
      <set comment="spin 2">
       <r>   -34.2244     0.0000     0.0000 </r>
       <r>   -34.0671     0.0000     0.0000 </r>
       <r>   -33.9097     0.0000     0.0000 </r>
       <r>   -33.7524     0.0000     0.0000 </r>
       <r>   -33.5951     0.0000     0.0000 </r>
       <r>   -33.4377     0.0000     0.0000 </r>
       <r>   -33.2804     0.0000     0.0000 </r>
       <r>   -33.1230     0.0000     0.0000 </r>
       <r>   -32.9657     0.0000     0.0000 </r>
       <r>   -32.8083     0.0000     0.0000 </r>
       <r>   -32.6510     0.0000     0.0000 </r>
       <r>   -32.4937     0.0000     0.0000 </r>
       <r>   -32.3363     0.0000     0.0000 </r>
       <r>   -32.1790     0.0055     0.0009 </r>
       <r>   -32.0216     5.6792     0.8944 </r>
       <r>   -31.8643     0.6710     1.0000 </r>
       <r>   -31.7070     0.0000     1.0000 </r>
       <r>   -31.5496     0.0000     1.0000 </r>
       <r>   -31.3923     0.0000     1.0000 </r>
       <r>   -31.2349     0.0000     1.0000 </r>
       <r>   -31.0776     0.0000     1.0000 </r>
       <r>   -30.9203     0.0000     1.0000 </r>
       <r>   -30.7629     0.0054     1.0008 </r>
       <r>   -30.6056     5.6601     1.8914 </r>
       <r>   -30.4482     0.6902     2.0000 </r>
       <r>   -30.2909     0.0000     2.0000 </r>
       <r>   -30.1336     0.0000     2.0000 </r>
       <r>   -29.9762     0.0000     2.0000 </r>
       <r>   -29.8189     0.0000     2.0000 </r>
       <r>   -29.6615     0.0000     2.0000 </r>
       <r>   -29.5042     0.0000     2.0000 </r>
       <r>   -29.3469     0.0000     2.0000 </r>
       <r>   -29.1895     0.0000     2.0000 </r>
       <r>   -29.0322     0.0000     2.0000 </r>
       <r>   -28.8748     0.0000     2.0000 </r>
       <r>   -28.7175     0.0000     2.0000 </r>
       <r>   -28.5602     0.0000     2.0000 </r>
       <r>   -28.4028     0.0000     2.0000 </r>
       <r>   -28.2455     0.0000     2.0000 </r>
       <r>   -28.0881     0.0000     2.0000 </r>
       <r>   -27.9308     0.0000     2.0000 </r>
       <r>   -27.7735     0.0000     2.0000 </r>
       <r>   -27.6161     0.0000     2.0000 </r>
       <r>   -27.4588     0.0000     2.0000 </r>
       <r>   -27.3014     0.0000     2.0000 </r>
       <r>   -27.1441     0.0000     2.0000 </r>
       <r>   -26.9868     0.0000     2.0000 </r>
       <r>   -26.8294     0.0000     2.0000 </r>
       <r>   -26.6721     0.0000     2.0000 </r>
       <r>   -26.5147     0.0000     2.0000 </r>
       <r>   -26.3574     0.0000     2.0000 </r>
       <r>   -26.2001     0.0000     2.0000 </r>
       <r>   -26.0427     0.0000     2.0000 </r>
       <r>   -25.8854     0.0000     2.0000 </r>
       <r>   -25.7280     0.0000     2.0000 </r>
       <r>   -25.5707     0.0000     2.0000 </r>
       <r>   -25.4134     0.0000     2.0000 </r>
       <r>   -25.2560     0.0000     2.0000 </r>
       <r>   -25.0987     0.0000     2.0000 </r>
       <r>   -24.9413     0.0000     2.0000 </r>
       <r>   -24.7840     0.0000     2.0000 </r>
       <r>   -24.6267     0.0000     2.0000 </r>
       <r>   -24.4693     0.0000     2.0000 </r>
       <r>   -24.3120     0.0000     2.0000 </r>
       <r>   -24.1546     0.0000     2.0000 </r>
       <r>   -23.9973     0.0000     2.0000 </r>
       <r>   -23.8400     0.0000     2.0000 </r>
       <r>   -23.6826     0.0000     2.0000 </r>
       <r>   -23.5253     0.0000     2.0000 </r>
       <r>   -23.3679     0.0000     2.0000 </r>
       <r>   -23.2106     0.0000     2.0000 </r>
       <r>   -23.0533     0.0000     2.0000 </r>
       <r>   -22.8959     0.0000     2.0000 </r>
       <r>   -22.7386     0.0000     2.0000 </r>
       <r>   -22.5812     0.0000     2.0000 </r>
       <r>   -22.4239     0.0000     2.0000 </r>
       <r>   -22.2666     0.0000     2.0000 </r>
       <r>   -22.1092     0.0000     2.0000 </r>
       <r>   -21.9519     0.0000     2.0000 </r>
       <r>   -21.7945     0.0000     2.0000 </r>
       <r>   -21.6372     0.0000     2.0000 </r>
       <r>   -21.4799     0.0000     2.0000 </r>
       <r>   -21.3225     0.0000     2.0000 </r>
       <r>   -21.1652     0.0000     2.0000 </r>
       <r>   -21.0078     0.0000     2.0000 </r>
       <r>   -20.8505     0.0000     2.0000 </r>
       <r>   -20.6932     0.0000     2.0000 </r>
       <r>   -20.5358     0.0000     2.0000 </r>
       <r>   -20.3785     0.0000     2.0000 </r>
       <r>   -20.2211     0.0000     2.0000 </r>
       <r>   -20.0638     0.0000     2.0000 </r>
       <r>   -19.9065     0.0000     2.0000 </r>
       <r>   -19.7491     0.0000     2.0000 </r>
       <r>   -19.5918     0.0000     2.0000 </r>
       <r>   -19.4344     0.0000     2.0000 </r>
       <r>   -19.2771     0.0000     2.0000 </r>
       <r>   -19.1198     0.0000     2.0000 </r>
       <r>   -18.9624     0.0000     2.0000 </r>
       <r>   -18.8051     0.0000     2.0000 </r>
       <r>   -18.6477     0.0000     2.0000 </r>
       <r>   -18.4904     0.0000     2.0000 </r>
       <r>   -18.3331     0.0000     2.0000 </r>
       <r>   -18.1757     0.0000     2.0000 </r>
       <r>   -18.0184     0.0000     2.0000 </r>
       <r>   -17.8610     0.0000     2.0000 </r>
       <r>   -17.7037     0.0000     2.0000 </r>
       <r>   -17.5464     0.0000     2.0000 </r>
       <r>   -17.3890     0.0000     2.0000 </r>
       <r>   -17.2317     0.0000     2.0000 </r>
       <r>   -17.0743     0.0000     2.0000 </r>
       <r>   -16.9170     0.0000     2.0000 </r>
       <r>   -16.7597     0.0000     2.0000 </r>
       <r>   -16.6023     0.0000     2.0000 </r>
       <r>   -16.4450     0.0000     2.0000 </r>
       <r>   -16.2876     0.0000     2.0000 </r>
       <r>   -16.1303     0.0000     2.0000 </r>
       <r>   -15.9730     0.0000     2.0000 </r>
       <r>   -15.8156     0.0000     2.0000 </r>
       <r>   -15.6583     0.0000     2.0000 </r>
       <r>   -15.5009     0.0000     2.0000 </r>
       <r>   -15.3436     0.0000     2.0000 </r>
       <r>   -15.1863     0.0000     2.0000 </r>
       <r>   -15.0289     0.1932     2.0304 </r>
       <r>   -14.8716     3.1370     2.5240 </r>
       <r>   -14.7142     2.8942     2.9793 </r>
       <r>   -14.5569     3.0798     3.4639 </r>
       <r>   -14.3996     3.1722     3.9630 </r>
       <r>   -14.2422     1.6412     4.2213 </r>
       <r>   -14.0849     5.0430     5.0147 </r>
       <r>   -13.9275     4.7632     5.7642 </r>
       <r>   -13.7702     2.9793     6.2329 </r>
       <r>   -13.6129     4.1437     6.8849 </r>
       <r>   -13.4555     1.9182     7.1867 </r>
       <r>   -13.2982     6.0902     8.1449 </r>
       <r>   -13.1408     5.0491     8.9394 </r>
       <r>   -12.9835     0.3853     9.0000 </r>
       <r>   -12.8262     0.0001     9.0000 </r>
       <r>   -12.6688     1.3454     9.2117 </r>
       <r>   -12.5115     6.7536    10.2743 </r>
       <r>   -12.3541     5.8920    11.2014 </r>
       <r>   -12.1968     3.0820    11.6863 </r>
       <r>   -12.0395     1.7384    11.9598 </r>
       <r>   -11.8821     0.2555    12.0000 </r>
       <r>   -11.7248     0.0000    12.0000 </r>
       <r>   -11.5674     0.0000    12.0000 </r>
       <r>   -11.4101     0.0000    12.0000 </r>
       <r>   -11.2528     0.0000    12.0000 </r>
       <r>   -11.0954     0.0000    12.0000 </r>
       <r>   -10.9381     0.0000    12.0000 </r>
       <r>   -10.7807     0.0000    12.0000 </r>
       <r>   -10.6234     0.0000    12.0000 </r>
       <r>   -10.4661     0.0000    12.0000 </r>
       <r>   -10.3087     0.0000    12.0000 </r>
       <r>   -10.1514     0.0000    12.0000 </r>
       <r>    -9.9940     0.0000    12.0000 </r>
       <r>    -9.8367     0.0000    12.0000 </r>
       <r>    -9.6794     0.0000    12.0000 </r>
       <r>    -9.5220     0.0000    12.0000 </r>
       <r>    -9.3647     0.0000    12.0000 </r>
       <r>    -9.2073     0.0000    12.0000 </r>
       <r>    -9.0500     0.0000    12.0000 </r>
       <r>    -8.8926     0.0000    12.0000 </r>
       <r>    -8.7353     0.0000    12.0000 </r>
       <r>    -8.5780     0.0000    12.0000 </r>
       <r>    -8.4206     0.0000    12.0000 </r>
       <r>    -8.2633     0.0000    12.0000 </r>
       <r>    -8.1059     0.0000    12.0000 </r>
       <r>    -7.9486     0.0000    12.0000 </r>
       <r>    -7.7913     0.0000    12.0000 </r>
       <r>    -7.6339     0.0000    12.0000 </r>
       <r>    -7.4766     0.0000    12.0000 </r>
       <r>    -7.3192     0.0000    12.0000 </r>
       <r>    -7.1619     0.0000    12.0000 </r>
       <r>    -7.0046     0.0000    12.0000 </r>
       <r>    -6.8472     0.0000    12.0000 </r>
       <r>    -6.6899     0.0000    12.0000 </r>
       <r>    -6.5325     0.0000    12.0000 </r>
       <r>    -6.3752     0.0000    12.0000 </r>
       <r>    -6.2179     0.0000    12.0000 </r>
       <r>    -6.0605     0.0000    12.0000 </r>
       <r>    -5.9032     0.0000    12.0000 </r>
       <r>    -5.7458     0.0000    12.0000 </r>
       <r>    -5.5885     0.0000    12.0000 </r>
       <r>    -5.4312     0.0000    12.0000 </r>
       <r>    -5.2738     0.0000    12.0000 </r>
       <r>    -5.1165     0.0000    12.0000 </r>
       <r>    -4.9591     0.0000    12.0000 </r>
       <r>    -4.8018     0.0000    12.0000 </r>
       <r>    -4.6445     0.0000    12.0000 </r>
       <r>    -4.4871     0.0000    12.0000 </r>
       <r>    -4.3298     0.0000    12.0000 </r>
       <r>    -4.1724     0.0000    12.0000 </r>
       <r>    -4.0151     0.0000    12.0000 </r>
       <r>    -3.8578     0.0000    12.0000 </r>
       <r>    -3.7004     0.0000    12.0000 </r>
       <r>    -3.5431     0.0000    12.0000 </r>
       <r>    -3.3857     0.0000    12.0000 </r>
       <r>    -3.2284     0.0000    12.0000 </r>
       <r>    -3.0711     0.0000    12.0000 </r>
       <r>    -2.9137     0.0149    12.0024 </r>
       <r>    -2.7564     2.2648    12.3587 </r>
       <r>    -2.5990     0.7136    12.4710 </r>
       <r>    -2.4417     0.5658    12.5600 </r>
       <r>    -2.2844     0.5008    12.6388 </r>
       <r>    -2.1270     2.3386    13.0068 </r>
       <r>    -1.9697     0.2184    13.0411 </r>
       <r>    -1.8123     3.3142    13.5626 </r>
       <r>    -1.6550     2.1320    13.8980 </r>
       <r>    -1.4977     3.7522    14.4884 </r>
       <r>    -1.3403    10.2293    16.0979 </r>
       <r>    -1.1830     7.5965    17.2931 </r>
       <r>    -1.0256     7.4578    18.4665 </r>
       <r>    -0.8683     6.3616    19.4674 </r>
       <r>    -0.7110     3.7416    20.0561 </r>
       <r>    -0.5536     3.5426    20.6135 </r>
       <r>    -0.3963     8.3712    21.9306 </r>
       <r>    -0.2389     3.6876    22.5108 </r>
       <r>    -0.0816     2.0928    22.8401 </r>
       <r>     0.0757     3.6933    23.4212 </r>
       <r>     0.2331     0.8831    23.5602 </r>
       <r>     0.3904     2.2455    23.9135 </r>
       <r>     0.5478     2.3301    24.2801 </r>
       <r>     0.7051     2.7757    24.7168 </r>
       <r>     0.8624     2.3915    25.0931 </r>
       <r>     1.0198     3.6212    25.6629 </r>
       <r>     1.1771     4.9755    26.4457 </r>
       <r>     1.3345     6.3241    27.4407 </r>
       <r>     1.4918     6.5138    28.4656 </r>
       <r>     1.6491     3.7158    29.0503 </r>
       <r>     1.8065     4.0455    29.6868 </r>
       <r>     1.9638     5.3807    30.5334 </r>
       <r>     2.1212     5.0329    31.3253 </r>
       <r>     2.2785     4.9560    32.1050 </r>
       <r>     2.4358     0.8175    32.2337 </r>
       <r>     2.5932     0.5207    32.3156 </r>
       <r>     2.7505     1.4931    32.5505 </r>
       <r>     2.9079     1.2022    32.7397 </r>
       <r>     3.0652     2.7227    33.1681 </r>
       <r>     3.2225     1.7051    33.4363 </r>
       <r>     3.3799     0.5064    33.5160 </r>
       <r>     3.5372     0.8879    33.6557 </r>
       <r>     3.6946     1.7467    33.9306 </r>
       <r>     3.8519     0.8372    34.0623 </r>
       <r>     4.0092     0.8530    34.1965 </r>
       <r>     4.1666     0.2427    34.2347 </r>
       <r>     4.3239     0.2738    34.2778 </r>
       <r>     4.4813     1.5408    34.5202 </r>
       <r>     4.6386     1.4957    34.7555 </r>
       <r>     4.7959     0.0284    34.7600 </r>
       <r>     4.9533     0.0192    34.7630 </r>
       <r>     5.1106     1.4416    34.9898 </r>
       <r>     5.2680     0.4225    35.0563 </r>
       <r>     5.4253     1.7029    35.3242 </r>
       <r>     5.5826     0.6180    35.4215 </r>
       <r>     5.7400     0.5909    35.5145 </r>
       <r>     5.8973     0.9780    35.6683 </r>
       <r>     6.0547     1.5824    35.9173 </r>
       <r>     6.2120     0.0170    35.9200 </r>
       <r>     6.3693     0.0000    35.9200 </r>
       <r>     6.5267     0.1516    35.9438 </r>
       <r>     6.6840     0.3569    36.0000 </r>
       <r>     6.8414     0.6202    36.0976 </r>
       <r>     6.9987     0.7244    36.2116 </r>
       <r>     7.1560     1.6513    36.4714 </r>
       <r>     7.3134     2.6000    36.8805 </r>
       <r>     7.4707     0.4263    36.9475 </r>
       <r>     7.6281     1.2042    37.1370 </r>
       <r>     7.7854     1.7836    37.4176 </r>
       <r>     7.9427     1.8258    37.7049 </r>
       <r>     8.1001     1.0948    37.8772 </r>
       <r>     8.2574     2.5922    38.2850 </r>
       <r>     8.4148     3.2017    38.7888 </r>
       <r>     8.5721     3.6090    39.3566 </r>
       <r>     8.7294     2.9813    39.8257 </r>
       <r>     8.8868     0.9400    39.9736 </r>
       <r>     9.0441     1.6355    40.2309 </r>
       <r>     9.2015     1.6881    40.4965 </r>
       <r>     9.3588     3.0248    40.9724 </r>
       <r>     9.5161     1.4250    41.1967 </r>
       <r>     9.6735     2.6436    41.6126 </r>
       <r>     9.8308     1.4423    41.8395 </r>
       <r>     9.9882     2.8174    42.2828 </r>
       <r>    10.1455     3.5022    42.8339 </r>
       <r>    10.3028     2.1115    43.1661 </r>
       <r>    10.4602     1.5516    43.4102 </r>
       <r>    10.6175     1.8613    43.7031 </r>
       <r>    10.7749     1.5166    43.9417 </r>
       <r>    10.9322     0.3699    43.9999 </r>
       <r>    11.0895     0.0008    44.0000 </r>
       <r>    11.2469     0.0000    44.0000 </r>
       <r>    11.4042     0.0000    44.0000 </r>
       <r>    11.5616     0.0000    44.0000 </r>
       <r>    11.7189     0.0000    44.0000 </r>
       <r>    11.8762     0.0000    44.0000 </r>
       <r>    12.0336     0.0000    44.0000 </r>
       <r>    12.1909     0.0000    44.0000 </r>
       <r>    12.3483     0.0000    44.0000 </r>
       <r>    12.5056     0.0000    44.0000 </r>
       <r>    12.6629     0.0000    44.0000 </r>
       <r>    12.8203     0.0000    44.0000 </r>
       <r>    12.9776     0.0000    44.0000 </r>
      </set>
     </set>
    </array>
   </total>
  </dos>
 </calculation>
 <structure name="finalpos" >
  <crystal>
   <varray name="basis" >
    <v>       4.00000000       0.00000000       0.00000000 </v>
    <v>       0.00000000       4.00000000       0.00000000 </v>
    <v>       0.00000000       0.00000000       8.00000000 </v>
   </varray>
   <i name="volume">    128.00000000 </i>
   <varray name="rec_basis" >
    <v>       0.25000000       0.00000000       0.00000000 </v>
    <v>       0.00000000       0.25000000       0.00000000 </v>
    <v>       0.00000000       0.00000000       0.12500000 </v>
   </varray>
  </crystal>
  <varray name="positions" >
   <v>       0.00000000       0.00000000       0.00000000 </v>
   <v>       0.00000000       0.00000000       0.50000000 </v>
   <v>       0.50000000       0.50000000       0.25000000 </v>
   <v>       0.50000000       0.50000000       0.75000000 </v>
   <v>       0.50000000       0.50000000       0.50000000 </v>
   <v>       0.00000000       0.50000000       0.75000000 </v>
   <v>       0.50000000       0.00000000       0.25000000 </v>
   <v>       0.50000000       0.00000000       0.75000000 </v>
  </varray>
 </structure>
</modeling>
