<?xml version="1.0" encoding="ISO-8859-1"?>
<modeling>
 <generator>
  <i name="program" type="string">vasp </i>
  <i name="version" type="string">5.3.5  </i>
  <i name="subversion" type="string">31Mar14 (build Jun 20 2014 13:15:13) complex                          parallel </i>
  <i name="platform" type="string">LinuxIFC </i>
  <i name="date" type="string">2025 11 21 </i>
  <i name="time" type="string">13:55:14 </i>
 </generator>
 <incar>
  <i type="string" name="PREC">accurate</i>
  <i type="int" name="IALGO">    68</i>
  <i type="logical" name="ADDGRID"> T  </i>
  <i type="int" name="NELM">   100</i>
  <i type="int" name="NELMIN">     4</i>
  <i type="int" name="IBRION">     2</i>
  <i name="EDIFF">      0.00000100</i>
  <i name="EDIFFG">     -0.02000000</i>
  <i type="int" name="NSW">    30</i>
  <i type="int" name="ISIF">     3</i>
  <i name="ENCUT">    500.00000000</i>
  <i type="logical" name="LREAL"> F  </i>
  <i type="int" name="ISMEAR">     1</i>
  <i name="SIGMA">      0.30000000</i>
  <i type="logical" name="LWAVE"> F  </i>
  <i type="logical" name="LCHARG"> F  </i>
  <i type="int" name="NELM">   100</i>
 </incar>
 <kpoints>
  <generation param="Auto">
   <i name="subdivisionlength">     70.00000000 </i>
   <v type="int" name="divisions">      17       18       11 </v>
   <v name="usershift">      0.00000000       0.00000000       0.00000000 </v>
   <v name="genvec1">      0.05882353       0.00000000       0.00000000 </v>
   <v name="genvec2">      0.00000000       0.05555556       0.00000000 </v>
   <v name="genvec3">      0.00000000       0.00000000       0.09090909 </v>
   <v name="shift">      0.00000000       0.00000000       0.00000000 </v>
  </generation>
  <varray name="kpointlist" >
   <v>       0.00000000       0.00000000       0.00000000 </v>
   <v>       0.05882353       0.00000000       0.00000000 </v>
   <v>       0.11764706       0.00000000       0.00000000 </v>
   <v>       0.17647059       0.00000000       0.00000000 </v>
   <v>       0.23529412       0.00000000       0.00000000 </v>
   <v>       0.29411765       0.00000000       0.00000000 </v>
   <v>       0.35294118       0.00000000       0.00000000 </v>
   <v>       0.41176471       0.00000000       0.00000000 </v>
   <v>       0.47058824       0.00000000       0.00000000 </v>
   <v>       0.00000000       0.05555556       0.00000000 </v>
   <v>       0.05882353       0.05555556       0.00000000 </v>
   <v>       0.11764706       0.05555556       0.00000000 </v>
   <v>       0.17647059       0.05555556       0.00000000 </v>
   <v>       0.23529412       0.05555556       0.00000000 </v>
   <v>       0.29411765       0.05555556       0.00000000 </v>
   <v>       0.35294118       0.05555556       0.00000000 </v>
   <v>       0.41176471       0.05555556       0.00000000 </v>
   <v>       0.47058824       0.05555556       0.00000000 </v>
   <v>       0.00000000       0.11111111       0.00000000 </v>
   <v>       0.05882353       0.11111111       0.00000000 </v>
   <v>       0.11764706       0.11111111       0.00000000 </v>
   <v>       0.17647059       0.11111111       0.00000000 </v>
   <v>       0.23529412       0.11111111       0.00000000 </v>
   <v>       0.29411765       0.11111111       0.00000000 </v>
   <v>       0.35294118       0.11111111       0.00000000 </v>
   <v>       0.41176471       0.11111111       0.00000000 </v>
   <v>       0.47058824       0.11111111       0.00000000 </v>
   <v>       0.00000000       0.16666667       0.00000000 </v>
   <v>       0.05882353       0.16666667       0.00000000 </v>
   <v>       0.11764706       0.16666667       0.00000000 </v>
   <v>       0.17647059       0.16666667       0.00000000 </v>
   <v>       0.23529412       0.16666667       0.00000000 </v>
   <v>       0.29411765       0.16666667       0.00000000 </v>
   <v>       0.35294118       0.16666667       0.00000000 </v>
   <v>       0.41176471       0.16666667       0.00000000 </v>
   <v>       0.47058824       0.16666667       0.00000000 </v>
   <v>       0.00000000       0.22222222       0.00000000 </v>
   <v>       0.05882353       0.22222222       0.00000000 </v>
   <v>       0.11764706       0.22222222       0.00000000 </v>
   <v>       0.17647059       0.22222222       0.00000000 </v>
   <v>       0.23529412       0.22222222       0.00000000 </v>
   <v>       0.29411765       0.22222222       0.00000000 </v>
   <v>       0.35294118       0.22222222       0.00000000 </v>
   <v>       0.41176471       0.22222222       0.00000000 </v>
   <v>       0.47058824       0.22222222       0.00000000 </v>
   <v>       0.00000000       0.27777778       0.00000000 </v>
   <v>       0.05882353       0.27777778       0.00000000 </v>
   <v>       0.11764706       0.27777778       0.00000000 </v>
   <v>       0.17647059       0.27777778       0.00000000 </v>
   <v>       0.23529412       0.27777778       0.00000000 </v>
   <v>       0.29411765       0.27777778       0.00000000 </v>
   <v>       0.35294118       0.27777778       0.00000000 </v>
   <v>       0.41176471       0.27777778       0.00000000 </v>
   <v>       0.47058824       0.27777778       0.00000000 </v>
   <v>       0.00000000       0.33333333       0.00000000 </v>
   <v>       0.05882353       0.33333333       0.00000000 </v>
   <v>       0.11764706       0.33333333       0.00000000 </v>
   <v>       0.17647059       0.33333333       0.00000000 </v>
   <v>       0.23529412       0.33333333       0.00000000 </v>
   <v>       0.29411765       0.33333333       0.00000000 </v>
   <v>       0.35294118       0.33333333       0.00000000 </v>
   <v>       0.41176471       0.33333333       0.00000000 </v>
   <v>       0.47058824       0.33333333       0.00000000 </v>
   <v>       0.00000000       0.38888889       0.00000000 </v>
   <v>       0.05882353       0.38888889       0.00000000 </v>
   <v>       0.11764706       0.38888889       0.00000000 </v>
   <v>       0.17647059       0.38888889       0.00000000 </v>
   <v>       0.23529412       0.38888889       0.00000000 </v>
   <v>       0.29411765       0.38888889       0.00000000 </v>
   <v>       0.35294118       0.38888889       0.00000000 </v>
   <v>       0.41176471       0.38888889       0.00000000 </v>
   <v>       0.47058824       0.38888889       0.00000000 </v>
   <v>       0.00000000       0.44444444       0.00000000 </v>
   <v>       0.05882353       0.44444444       0.00000000 </v>
   <v>       0.11764706       0.44444444       0.00000000 </v>
   <v>       0.17647059       0.44444444       0.00000000 </v>
   <v>       0.23529412       0.44444444       0.00000000 </v>
   <v>       0.29411765       0.44444444       0.00000000 </v>
   <v>       0.35294118       0.44444444       0.00000000 </v>
   <v>       0.41176471       0.44444444       0.00000000 </v>
   <v>       0.47058824       0.44444444       0.00000000 </v>
   <v>       0.00000000       0.50000000       0.00000000 </v>
   <v>       0.05882353       0.50000000       0.00000000 </v>
   <v>       0.11764706       0.50000000       0.00000000 </v>
   <v>       0.17647059       0.50000000       0.00000000 </v>
   <v>       0.23529412       0.50000000       0.00000000 </v>
   <v>       0.29411765       0.50000000       0.00000000 </v>
   <v>       0.35294118       0.50000000       0.00000000 </v>
   <v>       0.41176471       0.50000000       0.00000000 </v>
   <v>       0.47058824       0.50000000       0.00000000 </v>
   <v>       0.00000000       0.00000000       0.09090909 </v>
   <v>       0.05882353       0.00000000       0.09090909 </v>
   <v>       0.11764706       0.00000000       0.09090909 </v>
   <v>       0.17647059       0.00000000       0.09090909 </v>
   <v>       0.23529412       0.00000000       0.09090909 </v>
   <v>       0.29411765       0.00000000       0.09090909 </v>
   <v>       0.35294118       0.00000000       0.09090909 </v>
   <v>       0.41176471       0.00000000       0.09090909 </v>
   <v>       0.47058824       0.00000000       0.09090909 </v>
   <v>       0.00000000       0.05555556       0.09090909 </v>
   <v>       0.05882353       0.05555556       0.09090909 </v>
   <v>       0.11764706       0.05555556       0.09090909 </v>
   <v>       0.17647059       0.05555556       0.09090909 </v>
   <v>       0.23529412       0.05555556       0.09090909 </v>
   <v>       0.29411765       0.05555556       0.09090909 </v>
   <v>       0.35294118       0.05555556       0.09090909 </v>
   <v>       0.41176471       0.05555556       0.09090909 </v>
   <v>       0.47058824       0.05555556       0.09090909 </v>
   <v>       0.00000000       0.11111111       0.09090909 </v>
   <v>       0.05882353       0.11111111       0.09090909 </v>
   <v>       0.11764706       0.11111111       0.09090909 </v>
   <v>       0.17647059       0.11111111       0.09090909 </v>
   <v>       0.23529412       0.11111111       0.09090909 </v>
   <v>       0.29411765       0.11111111       0.09090909 </v>
   <v>       0.35294118       0.11111111       0.09090909 </v>
   <v>       0.41176471       0.11111111       0.09090909 </v>
   <v>       0.47058824       0.11111111       0.09090909 </v>
   <v>       0.00000000       0.16666667       0.09090909 </v>
   <v>       0.05882353       0.16666667       0.09090909 </v>
   <v>       0.11764706       0.16666667       0.09090909 </v>
   <v>       0.17647059       0.16666667       0.09090909 </v>
   <v>       0.23529412       0.16666667       0.09090909 </v>
   <v>       0.29411765       0.16666667       0.09090909 </v>
   <v>       0.35294118       0.16666667       0.09090909 </v>
   <v>       0.41176471       0.16666667       0.09090909 </v>
   <v>       0.47058824       0.16666667       0.09090909 </v>
   <v>       0.00000000       0.22222222       0.09090909 </v>
   <v>       0.05882353       0.22222222       0.09090909 </v>
   <v>       0.11764706       0.22222222       0.09090909 </v>
   <v>       0.17647059       0.22222222       0.09090909 </v>
   <v>       0.23529412       0.22222222       0.09090909 </v>
   <v>       0.29411765       0.22222222       0.09090909 </v>
   <v>       0.35294118       0.22222222       0.09090909 </v>
   <v>       0.41176471       0.22222222       0.09090909 </v>
   <v>       0.47058824       0.22222222       0.09090909 </v>
   <v>       0.00000000       0.27777778       0.09090909 </v>
   <v>       0.05882353       0.27777778       0.09090909 </v>
   <v>       0.11764706       0.27777778       0.09090909 </v>
   <v>       0.17647059       0.27777778       0.09090909 </v>
   <v>       0.23529412       0.27777778       0.09090909 </v>
   <v>       0.29411765       0.27777778       0.09090909 </v>
   <v>       0.35294118       0.27777778       0.09090909 </v>
   <v>       0.41176471       0.27777778       0.09090909 </v>
   <v>       0.47058824       0.27777778       0.09090909 </v>
   <v>       0.00000000       0.33333333       0.09090909 </v>
   <v>       0.05882353       0.33333333       0.09090909 </v>
   <v>       0.11764706       0.33333333       0.09090909 </v>
   <v>       0.17647059       0.33333333       0.09090909 </v>
   <v>       0.23529412       0.33333333       0.09090909 </v>
   <v>       0.29411765       0.33333333       0.09090909 </v>
   <v>       0.35294118       0.33333333       0.09090909 </v>
   <v>       0.41176471       0.33333333       0.09090909 </v>
   <v>       0.47058824       0.33333333       0.09090909 </v>
   <v>       0.00000000       0.38888889       0.09090909 </v>
   <v>       0.05882353       0.38888889       0.09090909 </v>
   <v>       0.11764706       0.38888889       0.09090909 </v>
   <v>       0.17647059       0.38888889       0.09090909 </v>
   <v>       0.23529412       0.38888889       0.09090909 </v>
   <v>       0.29411765       0.38888889       0.09090909 </v>
   <v>       0.35294118       0.38888889       0.09090909 </v>
   <v>       0.41176471       0.38888889       0.09090909 </v>
   <v>       0.47058824       0.38888889       0.09090909 </v>
   <v>       0.00000000       0.44444444       0.09090909 </v>
   <v>       0.05882353       0.44444444       0.09090909 </v>
   <v>       0.11764706       0.44444444       0.09090909 </v>
   <v>       0.17647059       0.44444444       0.09090909 </v>
   <v>       0.23529412       0.44444444       0.09090909 </v>
   <v>       0.29411765       0.44444444       0.09090909 </v>
   <v>       0.35294118       0.44444444       0.09090909 </v>
   <v>       0.41176471       0.44444444       0.09090909 </v>
   <v>       0.47058824       0.44444444       0.09090909 </v>
   <v>       0.00000000       0.50000000       0.09090909 </v>
   <v>       0.05882353       0.50000000       0.09090909 </v>
   <v>       0.11764706       0.50000000       0.09090909 </v>
   <v>       0.17647059       0.50000000       0.09090909 </v>
   <v>       0.23529412       0.50000000       0.09090909 </v>
   <v>       0.29411765       0.50000000       0.09090909 </v>
   <v>       0.35294118       0.50000000       0.09090909 </v>
   <v>       0.41176471       0.50000000       0.09090909 </v>
   <v>       0.47058824       0.50000000       0.09090909 </v>
   <v>       0.00000000      -0.44444444       0.09090909 </v>
   <v>       0.05882353      -0.44444444       0.09090909 </v>
   <v>       0.11764706      -0.44444444       0.09090909 </v>
   <v>       0.17647059      -0.44444444       0.09090909 </v>
   <v>       0.23529412      -0.44444444       0.09090909 </v>
   <v>       0.29411765      -0.44444444       0.09090909 </v>
   <v>       0.35294118      -0.44444444       0.09090909 </v>
   <v>       0.41176471      -0.44444444       0.09090909 </v>
   <v>       0.47058824      -0.44444444       0.09090909 </v>
   <v>       0.00000000      -0.38888889       0.09090909 </v>
   <v>       0.05882353      -0.38888889       0.09090909 </v>
   <v>       0.11764706      -0.38888889       0.09090909 </v>
   <v>       0.17647059      -0.38888889       0.09090909 </v>
   <v>       0.23529412      -0.38888889       0.09090909 </v>
   <v>       0.29411765      -0.38888889       0.09090909 </v>
   <v>       0.35294118      -0.38888889       0.09090909 </v>
   <v>       0.41176471      -0.38888889       0.09090909 </v>
   <v>       0.47058824      -0.38888889       0.09090909 </v>
   <v>       0.00000000      -0.33333333       0.09090909 </v>
   <v>       0.05882353      -0.33333333       0.09090909 </v>
   <v>       0.11764706      -0.33333333       0.09090909 </v>
   <v>       0.17647059      -0.33333333       0.09090909 </v>
   <v>       0.23529412      -0.33333333       0.09090909 </v>
   <v>       0.29411765      -0.33333333       0.09090909 </v>
   <v>       0.35294118      -0.33333333       0.09090909 </v>
   <v>       0.41176471      -0.33333333       0.09090909 </v>
   <v>       0.47058824      -0.33333333       0.09090909 </v>
   <v>       0.00000000      -0.27777778       0.09090909 </v>
   <v>       0.05882353      -0.27777778       0.09090909 </v>
   <v>       0.11764706      -0.27777778       0.09090909 </v>
   <v>       0.17647059      -0.27777778       0.09090909 </v>
   <v>       0.23529412      -0.27777778       0.09090909 </v>
   <v>       0.29411765      -0.27777778       0.09090909 </v>
   <v>       0.35294118      -0.27777778       0.09090909 </v>
   <v>       0.41176471      -0.27777778       0.09090909 </v>
   <v>       0.47058824      -0.27777778       0.09090909 </v>
   <v>       0.00000000      -0.22222222       0.09090909 </v>
   <v>       0.05882353      -0.22222222       0.09090909 </v>
   <v>       0.11764706      -0.22222222       0.09090909 </v>
   <v>       0.17647059      -0.22222222       0.09090909 </v>
   <v>       0.23529412      -0.22222222       0.09090909 </v>
   <v>       0.29411765      -0.22222222       0.09090909 </v>
   <v>       0.35294118      -0.22222222       0.09090909 </v>
   <v>       0.41176471      -0.22222222       0.09090909 </v>
   <v>       0.47058824      -0.22222222       0.09090909 </v>
   <v>       0.00000000      -0.16666667       0.09090909 </v>
   <v>       0.05882353      -0.16666667       0.09090909 </v>
   <v>       0.11764706      -0.16666667       0.09090909 </v>
   <v>       0.17647059      -0.16666667       0.09090909 </v>
   <v>       0.23529412      -0.16666667       0.09090909 </v>
   <v>       0.29411765      -0.16666667       0.09090909 </v>
   <v>       0.35294118      -0.16666667       0.09090909 </v>
   <v>       0.41176471      -0.16666667       0.09090909 </v>
   <v>       0.47058824      -0.16666667       0.09090909 </v>
   <v>       0.00000000      -0.11111111       0.09090909 </v>
   <v>       0.05882353      -0.11111111       0.09090909 </v>
   <v>       0.11764706      -0.11111111       0.09090909 </v>
   <v>       0.17647059      -0.11111111       0.09090909 </v>
   <v>       0.23529412      -0.11111111       0.09090909 </v>
   <v>       0.29411765      -0.11111111       0.09090909 </v>
   <v>       0.35294118      -0.11111111       0.09090909 </v>
   <v>       0.41176471      -0.11111111       0.09090909 </v>
   <v>       0.47058824      -0.11111111       0.09090909 </v>
   <v>       0.00000000      -0.05555556       0.09090909 </v>
   <v>       0.05882353      -0.05555556       0.09090909 </v>
   <v>       0.11764706      -0.05555556       0.09090909 </v>
   <v>       0.17647059      -0.05555556       0.09090909 </v>
   <v>       0.23529412      -0.05555556       0.09090909 </v>
   <v>       0.29411765      -0.05555556       0.09090909 </v>
   <v>       0.35294118      -0.05555556       0.09090909 </v>
   <v>       0.41176471      -0.05555556       0.09090909 </v>
   <v>       0.47058824      -0.05555556       0.09090909 </v>
   <v>       0.00000000       0.00000000       0.18181818 </v>
   <v>       0.05882353       0.00000000       0.18181818 </v>
   <v>       0.11764706       0.00000000       0.18181818 </v>
   <v>       0.17647059       0.00000000       0.18181818 </v>
   <v>       0.23529412       0.00000000       0.18181818 </v>
   <v>       0.29411765       0.00000000       0.18181818 </v>
   <v>       0.35294118       0.00000000       0.18181818 </v>
   <v>       0.41176471       0.00000000       0.18181818 </v>
   <v>       0.47058824       0.00000000       0.18181818 </v>
   <v>       0.00000000       0.05555556       0.18181818 </v>
   <v>       0.05882353       0.05555556       0.18181818 </v>
   <v>       0.11764706       0.05555556       0.18181818 </v>
   <v>       0.17647059       0.05555556       0.18181818 </v>
   <v>       0.23529412       0.05555556       0.18181818 </v>
   <v>       0.29411765       0.05555556       0.18181818 </v>
   <v>       0.35294118       0.05555556       0.18181818 </v>
   <v>       0.41176471       0.05555556       0.18181818 </v>
   <v>       0.47058824       0.05555556       0.18181818 </v>
   <v>       0.00000000       0.11111111       0.18181818 </v>
   <v>       0.05882353       0.11111111       0.18181818 </v>
   <v>       0.11764706       0.11111111       0.18181818 </v>
   <v>       0.17647059       0.11111111       0.18181818 </v>
   <v>       0.23529412       0.11111111       0.18181818 </v>
   <v>       0.29411765       0.11111111       0.18181818 </v>
   <v>       0.35294118       0.11111111       0.18181818 </v>
   <v>       0.41176471       0.11111111       0.18181818 </v>
   <v>       0.47058824       0.11111111       0.18181818 </v>
   <v>       0.00000000       0.16666667       0.18181818 </v>
   <v>       0.05882353       0.16666667       0.18181818 </v>
   <v>       0.11764706       0.16666667       0.18181818 </v>
   <v>       0.17647059       0.16666667       0.18181818 </v>
   <v>       0.23529412       0.16666667       0.18181818 </v>
   <v>       0.29411765       0.16666667       0.18181818 </v>
   <v>       0.35294118       0.16666667       0.18181818 </v>
   <v>       0.41176471       0.16666667       0.18181818 </v>
   <v>       0.47058824       0.16666667       0.18181818 </v>
   <v>       0.00000000       0.22222222       0.18181818 </v>
   <v>       0.05882353       0.22222222       0.18181818 </v>
   <v>       0.11764706       0.22222222       0.18181818 </v>
   <v>       0.17647059       0.22222222       0.18181818 </v>
   <v>       0.23529412       0.22222222       0.18181818 </v>
   <v>       0.29411765       0.22222222       0.18181818 </v>
   <v>       0.35294118       0.22222222       0.18181818 </v>
   <v>       0.41176471       0.22222222       0.18181818 </v>
   <v>       0.47058824       0.22222222       0.18181818 </v>
   <v>       0.00000000       0.27777778       0.18181818 </v>
   <v>       0.05882353       0.27777778       0.18181818 </v>
   <v>       0.11764706       0.27777778       0.18181818 </v>
   <v>       0.17647059       0.27777778       0.18181818 </v>
   <v>       0.23529412       0.27777778       0.18181818 </v>
   <v>       0.29411765       0.27777778       0.18181818 </v>
   <v>       0.35294118       0.27777778       0.18181818 </v>
   <v>       0.41176471       0.27777778       0.18181818 </v>
   <v>       0.47058824       0.27777778       0.18181818 </v>
   <v>       0.00000000       0.33333333       0.18181818 </v>
   <v>       0.05882353       0.33333333       0.18181818 </v>
   <v>       0.11764706       0.33333333       0.18181818 </v>
   <v>       0.17647059       0.33333333       0.18181818 </v>
   <v>       0.23529412       0.33333333       0.18181818 </v>
   <v>       0.29411765       0.33333333       0.18181818 </v>
   <v>       0.35294118       0.33333333       0.18181818 </v>
   <v>       0.41176471       0.33333333       0.18181818 </v>
   <v>       0.47058824       0.33333333       0.18181818 </v>
   <v>       0.00000000       0.38888889       0.18181818 </v>
   <v>       0.05882353       0.38888889       0.18181818 </v>
   <v>       0.11764706       0.38888889       0.18181818 </v>
   <v>       0.17647059       0.38888889       0.18181818 </v>
   <v>       0.23529412       0.38888889       0.18181818 </v>
   <v>       0.29411765       0.38888889       0.18181818 </v>
   <v>       0.35294118       0.38888889       0.18181818 </v>
   <v>       0.41176471       0.38888889       0.18181818 </v>
   <v>       0.47058824       0.38888889       0.18181818 </v>
   <v>       0.00000000       0.44444444       0.18181818 </v>
   <v>       0.05882353       0.44444444       0.18181818 </v>
   <v>       0.11764706       0.44444444       0.18181818 </v>
   <v>       0.17647059       0.44444444       0.18181818 </v>
   <v>       0.23529412       0.44444444       0.18181818 </v>
   <v>       0.29411765       0.44444444       0.18181818 </v>
   <v>       0.35294118       0.44444444       0.18181818 </v>
   <v>       0.41176471       0.44444444       0.18181818 </v>
   <v>       0.47058824       0.44444444       0.18181818 </v>
   <v>       0.00000000       0.50000000       0.18181818 </v>
   <v>       0.05882353       0.50000000       0.18181818 </v>
   <v>       0.11764706       0.50000000       0.18181818 </v>
   <v>       0.17647059       0.50000000       0.18181818 </v>
   <v>       0.23529412       0.50000000       0.18181818 </v>
   <v>       0.29411765       0.50000000       0.18181818 </v>
   <v>       0.35294118       0.50000000       0.18181818 </v>
   <v>       0.41176471       0.50000000       0.18181818 </v>
   <v>       0.47058824       0.50000000       0.18181818 </v>
   <v>       0.00000000      -0.44444444       0.18181818 </v>
   <v>       0.05882353      -0.44444444       0.18181818 </v>
   <v>       0.11764706      -0.44444444       0.18181818 </v>
   <v>       0.17647059      -0.44444444       0.18181818 </v>
   <v>       0.23529412      -0.44444444       0.18181818 </v>
   <v>       0.29411765      -0.44444444       0.18181818 </v>
   <v>       0.35294118      -0.44444444       0.18181818 </v>
   <v>       0.41176471      -0.44444444       0.18181818 </v>
   <v>       0.47058824      -0.44444444       0.18181818 </v>
   <v>       0.00000000      -0.38888889       0.18181818 </v>
   <v>       0.05882353      -0.38888889       0.18181818 </v>
   <v>       0.11764706      -0.38888889       0.18181818 </v>
   <v>       0.17647059      -0.38888889       0.18181818 </v>
   <v>       0.23529412      -0.38888889       0.18181818 </v>
   <v>       0.29411765      -0.38888889       0.18181818 </v>
   <v>       0.35294118      -0.38888889       0.18181818 </v>
   <v>       0.41176471      -0.38888889       0.18181818 </v>
   <v>       0.47058824      -0.38888889       0.18181818 </v>
   <v>       0.00000000      -0.33333333       0.18181818 </v>
   <v>       0.05882353      -0.33333333       0.18181818 </v>
   <v>       0.11764706      -0.33333333       0.18181818 </v>
   <v>       0.17647059      -0.33333333       0.18181818 </v>
   <v>       0.23529412      -0.33333333       0.18181818 </v>
   <v>       0.29411765      -0.33333333       0.18181818 </v>
   <v>       0.35294118      -0.33333333       0.18181818 </v>
   <v>       0.41176471      -0.33333333       0.18181818 </v>
   <v>       0.47058824      -0.33333333       0.18181818 </v>
   <v>       0.00000000      -0.27777778       0.18181818 </v>
   <v>       0.05882353      -0.27777778       0.18181818 </v>
   <v>       0.11764706      -0.27777778       0.18181818 </v>
   <v>       0.17647059      -0.27777778       0.18181818 </v>
   <v>       0.23529412      -0.27777778       0.18181818 </v>
   <v>       0.29411765      -0.27777778       0.18181818 </v>
   <v>       0.35294118      -0.27777778       0.18181818 </v>
   <v>       0.41176471      -0.27777778       0.18181818 </v>
   <v>       0.47058824      -0.27777778       0.18181818 </v>
   <v>       0.00000000      -0.22222222       0.18181818 </v>
   <v>       0.05882353      -0.22222222       0.18181818 </v>
   <v>       0.11764706      -0.22222222       0.18181818 </v>
   <v>       0.17647059      -0.22222222       0.18181818 </v>
   <v>       0.23529412      -0.22222222       0.18181818 </v>
   <v>       0.29411765      -0.22222222       0.18181818 </v>
   <v>       0.35294118      -0.22222222       0.18181818 </v>
   <v>       0.41176471      -0.22222222       0.18181818 </v>
   <v>       0.47058824      -0.22222222       0.18181818 </v>
   <v>       0.00000000      -0.16666667       0.18181818 </v>
   <v>       0.05882353      -0.16666667       0.18181818 </v>
   <v>       0.11764706      -0.16666667       0.18181818 </v>
   <v>       0.17647059      -0.16666667       0.18181818 </v>
   <v>       0.23529412      -0.16666667       0.18181818 </v>
   <v>       0.29411765      -0.16666667       0.18181818 </v>
   <v>       0.35294118      -0.16666667       0.18181818 </v>
   <v>       0.41176471      -0.16666667       0.18181818 </v>
   <v>       0.47058824      -0.16666667       0.18181818 </v>
   <v>       0.00000000      -0.11111111       0.18181818 </v>
   <v>       0.05882353      -0.11111111       0.18181818 </v>
   <v>       0.11764706      -0.11111111       0.18181818 </v>
   <v>       0.17647059      -0.11111111       0.18181818 </v>
   <v>       0.23529412      -0.11111111       0.18181818 </v>
   <v>       0.29411765      -0.11111111       0.18181818 </v>
   <v>       0.35294118      -0.11111111       0.18181818 </v>
   <v>       0.41176471      -0.11111111       0.18181818 </v>
   <v>       0.47058824      -0.11111111       0.18181818 </v>
   <v>       0.00000000      -0.05555556       0.18181818 </v>
   <v>       0.05882353      -0.05555556       0.18181818 </v>
   <v>       0.11764706      -0.05555556       0.18181818 </v>
   <v>       0.17647059      -0.05555556       0.18181818 </v>
   <v>       0.23529412      -0.05555556       0.18181818 </v>
   <v>       0.29411765      -0.05555556       0.18181818 </v>
   <v>       0.35294118      -0.05555556       0.18181818 </v>
   <v>       0.41176471      -0.05555556       0.18181818 </v>
   <v>       0.47058824      -0.05555556       0.18181818 </v>
   <v>       0.00000000       0.00000000       0.27272727 </v>
   <v>       0.05882353       0.00000000       0.27272727 </v>
   <v>       0.11764706       0.00000000       0.27272727 </v>
   <v>       0.17647059       0.00000000       0.27272727 </v>
   <v>       0.23529412       0.00000000       0.27272727 </v>
   <v>       0.29411765       0.00000000       0.27272727 </v>
   <v>       0.35294118       0.00000000       0.27272727 </v>
   <v>       0.41176471       0.00000000       0.27272727 </v>
   <v>       0.47058824       0.00000000       0.27272727 </v>
   <v>       0.00000000       0.05555556       0.27272727 </v>
   <v>       0.05882353       0.05555556       0.27272727 </v>
   <v>       0.11764706       0.05555556       0.27272727 </v>
   <v>       0.17647059       0.05555556       0.27272727 </v>
   <v>       0.23529412       0.05555556       0.27272727 </v>
   <v>       0.29411765       0.05555556       0.27272727 </v>
   <v>       0.35294118       0.05555556       0.27272727 </v>
   <v>       0.41176471       0.05555556       0.27272727 </v>
   <v>       0.47058824       0.05555556       0.27272727 </v>
   <v>       0.00000000       0.11111111       0.27272727 </v>
   <v>       0.05882353       0.11111111       0.27272727 </v>
   <v>       0.11764706       0.11111111       0.27272727 </v>
   <v>       0.17647059       0.11111111       0.27272727 </v>
   <v>       0.23529412       0.11111111       0.27272727 </v>
   <v>       0.29411765       0.11111111       0.27272727 </v>
   <v>       0.35294118       0.11111111       0.27272727 </v>
   <v>       0.41176471       0.11111111       0.27272727 </v>
   <v>       0.47058824       0.11111111       0.27272727 </v>
   <v>       0.00000000       0.16666667       0.27272727 </v>
   <v>       0.05882353       0.16666667       0.27272727 </v>
   <v>       0.11764706       0.16666667       0.27272727 </v>
   <v>       0.17647059       0.16666667       0.27272727 </v>
   <v>       0.23529412       0.16666667       0.27272727 </v>
   <v>       0.29411765       0.16666667       0.27272727 </v>
   <v>       0.35294118       0.16666667       0.27272727 </v>
   <v>       0.41176471       0.16666667       0.27272727 </v>
   <v>       0.47058824       0.16666667       0.27272727 </v>
   <v>       0.00000000       0.22222222       0.27272727 </v>
   <v>       0.05882353       0.22222222       0.27272727 </v>
   <v>       0.11764706       0.22222222       0.27272727 </v>
   <v>       0.17647059       0.22222222       0.27272727 </v>
   <v>       0.23529412       0.22222222       0.27272727 </v>
   <v>       0.29411765       0.22222222       0.27272727 </v>
   <v>       0.35294118       0.22222222       0.27272727 </v>
   <v>       0.41176471       0.22222222       0.27272727 </v>
   <v>       0.47058824       0.22222222       0.27272727 </v>
   <v>       0.00000000       0.27777778       0.27272727 </v>
   <v>       0.05882353       0.27777778       0.27272727 </v>
   <v>       0.11764706       0.27777778       0.27272727 </v>
   <v>       0.17647059       0.27777778       0.27272727 </v>
   <v>       0.23529412       0.27777778       0.27272727 </v>
   <v>       0.29411765       0.27777778       0.27272727 </v>
   <v>       0.35294118       0.27777778       0.27272727 </v>
   <v>       0.41176471       0.27777778       0.27272727 </v>
   <v>       0.47058824       0.27777778       0.27272727 </v>
   <v>       0.00000000       0.33333333       0.27272727 </v>
   <v>       0.05882353       0.33333333       0.27272727 </v>
   <v>       0.11764706       0.33333333       0.27272727 </v>
   <v>       0.17647059       0.33333333       0.27272727 </v>
   <v>       0.23529412       0.33333333       0.27272727 </v>
   <v>       0.29411765       0.33333333       0.27272727 </v>
   <v>       0.35294118       0.33333333       0.27272727 </v>
   <v>       0.41176471       0.33333333       0.27272727 </v>
   <v>       0.47058824       0.33333333       0.27272727 </v>
   <v>       0.00000000       0.38888889       0.27272727 </v>
   <v>       0.05882353       0.38888889       0.27272727 </v>
   <v>       0.11764706       0.38888889       0.27272727 </v>
   <v>       0.17647059       0.38888889       0.27272727 </v>
   <v>       0.23529412       0.38888889       0.27272727 </v>
   <v>       0.29411765       0.38888889       0.27272727 </v>
   <v>       0.35294118       0.38888889       0.27272727 </v>
   <v>       0.41176471       0.38888889       0.27272727 </v>
   <v>       0.47058824       0.38888889       0.27272727 </v>
   <v>       0.00000000       0.44444444       0.27272727 </v>
   <v>       0.05882353       0.44444444       0.27272727 </v>
   <v>       0.11764706       0.44444444       0.27272727 </v>
   <v>       0.17647059       0.44444444       0.27272727 </v>
   <v>       0.23529412       0.44444444       0.27272727 </v>
   <v>       0.29411765       0.44444444       0.27272727 </v>
   <v>       0.35294118       0.44444444       0.27272727 </v>
   <v>       0.41176471       0.44444444       0.27272727 </v>
   <v>       0.47058824       0.44444444       0.27272727 </v>
   <v>       0.00000000       0.50000000       0.27272727 </v>
   <v>       0.05882353       0.50000000       0.27272727 </v>
   <v>       0.11764706       0.50000000       0.27272727 </v>
   <v>       0.17647059       0.50000000       0.27272727 </v>
   <v>       0.23529412       0.50000000       0.27272727 </v>
   <v>       0.29411765       0.50000000       0.27272727 </v>
   <v>       0.35294118       0.50000000       0.27272727 </v>
   <v>       0.41176471       0.50000000       0.27272727 </v>
   <v>       0.47058824       0.50000000       0.27272727 </v>
   <v>       0.00000000      -0.44444444       0.27272727 </v>
   <v>       0.05882353      -0.44444444       0.27272727 </v>
   <v>       0.11764706      -0.44444444       0.27272727 </v>
   <v>       0.17647059      -0.44444444       0.27272727 </v>
   <v>       0.23529412      -0.44444444       0.27272727 </v>
   <v>       0.29411765      -0.44444444       0.27272727 </v>
   <v>       0.35294118      -0.44444444       0.27272727 </v>
   <v>       0.41176471      -0.44444444       0.27272727 </v>
   <v>       0.47058824      -0.44444444       0.27272727 </v>
   <v>       0.00000000      -0.38888889       0.27272727 </v>
   <v>       0.05882353      -0.38888889       0.27272727 </v>
   <v>       0.11764706      -0.38888889       0.27272727 </v>
   <v>       0.17647059      -0.38888889       0.27272727 </v>
   <v>       0.23529412      -0.38888889       0.27272727 </v>
   <v>       0.29411765      -0.38888889       0.27272727 </v>
   <v>       0.35294118      -0.38888889       0.27272727 </v>
   <v>       0.41176471      -0.38888889       0.27272727 </v>
   <v>       0.47058824      -0.38888889       0.27272727 </v>
   <v>       0.00000000      -0.33333333       0.27272727 </v>
   <v>       0.05882353      -0.33333333       0.27272727 </v>
   <v>       0.11764706      -0.33333333       0.27272727 </v>
   <v>       0.17647059      -0.33333333       0.27272727 </v>
   <v>       0.23529412      -0.33333333       0.27272727 </v>
   <v>       0.29411765      -0.33333333       0.27272727 </v>
   <v>       0.35294118      -0.33333333       0.27272727 </v>
   <v>       0.41176471      -0.33333333       0.27272727 </v>
   <v>       0.47058824      -0.33333333       0.27272727 </v>
   <v>       0.00000000      -0.27777778       0.27272727 </v>
   <v>       0.05882353      -0.27777778       0.27272727 </v>
   <v>       0.11764706      -0.27777778       0.27272727 </v>
   <v>       0.17647059      -0.27777778       0.27272727 </v>
   <v>       0.23529412      -0.27777778       0.27272727 </v>
   <v>       0.29411765      -0.27777778       0.27272727 </v>
   <v>       0.35294118      -0.27777778       0.27272727 </v>
   <v>       0.41176471      -0.27777778       0.27272727 </v>
   <v>       0.47058824      -0.27777778       0.27272727 </v>
   <v>       0.00000000      -0.22222222       0.27272727 </v>
   <v>       0.05882353      -0.22222222       0.27272727 </v>
   <v>       0.11764706      -0.22222222       0.27272727 </v>
   <v>       0.17647059      -0.22222222       0.27272727 </v>
   <v>       0.23529412      -0.22222222       0.27272727 </v>
   <v>       0.29411765      -0.22222222       0.27272727 </v>
   <v>       0.35294118      -0.22222222       0.27272727 </v>
   <v>       0.41176471      -0.22222222       0.27272727 </v>
   <v>       0.47058824      -0.22222222       0.27272727 </v>
   <v>       0.00000000      -0.16666667       0.27272727 </v>
   <v>       0.05882353      -0.16666667       0.27272727 </v>
   <v>       0.11764706      -0.16666667       0.27272727 </v>
   <v>       0.17647059      -0.16666667       0.27272727 </v>
   <v>       0.23529412      -0.16666667       0.27272727 </v>
   <v>       0.29411765      -0.16666667       0.27272727 </v>
   <v>       0.35294118      -0.16666667       0.27272727 </v>
   <v>       0.41176471      -0.16666667       0.27272727 </v>
   <v>       0.47058824      -0.16666667       0.27272727 </v>
   <v>       0.00000000      -0.11111111       0.27272727 </v>
   <v>       0.05882353      -0.11111111       0.27272727 </v>
   <v>       0.11764706      -0.11111111       0.27272727 </v>
   <v>       0.17647059      -0.11111111       0.27272727 </v>
   <v>       0.23529412      -0.11111111       0.27272727 </v>
   <v>       0.29411765      -0.11111111       0.27272727 </v>
   <v>       0.35294118      -0.11111111       0.27272727 </v>
   <v>       0.41176471      -0.11111111       0.27272727 </v>
   <v>       0.47058824      -0.11111111       0.27272727 </v>
   <v>       0.00000000      -0.05555556       0.27272727 </v>
   <v>       0.05882353      -0.05555556       0.27272727 </v>
   <v>       0.11764706      -0.05555556       0.27272727 </v>
   <v>       0.17647059      -0.05555556       0.27272727 </v>
   <v>       0.23529412      -0.05555556       0.27272727 </v>
   <v>       0.29411765      -0.05555556       0.27272727 </v>
   <v>       0.35294118      -0.05555556       0.27272727 </v>
   <v>       0.41176471      -0.05555556       0.27272727 </v>
   <v>       0.47058824      -0.05555556       0.27272727 </v>
   <v>       0.00000000       0.00000000       0.36363636 </v>
   <v>       0.05882353       0.00000000       0.36363636 </v>
   <v>       0.11764706       0.00000000       0.36363636 </v>
   <v>       0.17647059       0.00000000       0.36363636 </v>
   <v>       0.23529412       0.00000000       0.36363636 </v>
   <v>       0.29411765       0.00000000       0.36363636 </v>
   <v>       0.35294118       0.00000000       0.36363636 </v>
   <v>       0.41176471       0.00000000       0.36363636 </v>
   <v>       0.47058824       0.00000000       0.36363636 </v>
   <v>       0.00000000       0.05555556       0.36363636 </v>
   <v>       0.05882353       0.05555556       0.36363636 </v>
   <v>       0.11764706       0.05555556       0.36363636 </v>
   <v>       0.17647059       0.05555556       0.36363636 </v>
   <v>       0.23529412       0.05555556       0.36363636 </v>
   <v>       0.29411765       0.05555556       0.36363636 </v>
   <v>       0.35294118       0.05555556       0.36363636 </v>
   <v>       0.41176471       0.05555556       0.36363636 </v>
   <v>       0.47058824       0.05555556       0.36363636 </v>
   <v>       0.00000000       0.11111111       0.36363636 </v>
   <v>       0.05882353       0.11111111       0.36363636 </v>
   <v>       0.11764706       0.11111111       0.36363636 </v>
   <v>       0.17647059       0.11111111       0.36363636 </v>
   <v>       0.23529412       0.11111111       0.36363636 </v>
   <v>       0.29411765       0.11111111       0.36363636 </v>
   <v>       0.35294118       0.11111111       0.36363636 </v>
   <v>       0.41176471       0.11111111       0.36363636 </v>
   <v>       0.47058824       0.11111111       0.36363636 </v>
   <v>       0.00000000       0.16666667       0.36363636 </v>
   <v>       0.05882353       0.16666667       0.36363636 </v>
   <v>       0.11764706       0.16666667       0.36363636 </v>
   <v>       0.17647059       0.16666667       0.36363636 </v>
   <v>       0.23529412       0.16666667       0.36363636 </v>
   <v>       0.29411765       0.16666667       0.36363636 </v>
   <v>       0.35294118       0.16666667       0.36363636 </v>
   <v>       0.41176471       0.16666667       0.36363636 </v>
   <v>       0.47058824       0.16666667       0.36363636 </v>
   <v>       0.00000000       0.22222222       0.36363636 </v>
   <v>       0.05882353       0.22222222       0.36363636 </v>
   <v>       0.11764706       0.22222222       0.36363636 </v>
   <v>       0.17647059       0.22222222       0.36363636 </v>
   <v>       0.23529412       0.22222222       0.36363636 </v>
   <v>       0.29411765       0.22222222       0.36363636 </v>
   <v>       0.35294118       0.22222222       0.36363636 </v>
   <v>       0.41176471       0.22222222       0.36363636 </v>
   <v>       0.47058824       0.22222222       0.36363636 </v>
   <v>       0.00000000       0.27777778       0.36363636 </v>
   <v>       0.05882353       0.27777778       0.36363636 </v>
   <v>       0.11764706       0.27777778       0.36363636 </v>
   <v>       0.17647059       0.27777778       0.36363636 </v>
   <v>       0.23529412       0.27777778       0.36363636 </v>
   <v>       0.29411765       0.27777778       0.36363636 </v>
   <v>       0.35294118       0.27777778       0.36363636 </v>
   <v>       0.41176471       0.27777778       0.36363636 </v>
   <v>       0.47058824       0.27777778       0.36363636 </v>
   <v>       0.00000000       0.33333333       0.36363636 </v>
   <v>       0.05882353       0.33333333       0.36363636 </v>
   <v>       0.11764706       0.33333333       0.36363636 </v>
   <v>       0.17647059       0.33333333       0.36363636 </v>
   <v>       0.23529412       0.33333333       0.36363636 </v>
   <v>       0.29411765       0.33333333       0.36363636 </v>
   <v>       0.35294118       0.33333333       0.36363636 </v>
   <v>       0.41176471       0.33333333       0.36363636 </v>
   <v>       0.47058824       0.33333333       0.36363636 </v>
   <v>       0.00000000       0.38888889       0.36363636 </v>
   <v>       0.05882353       0.38888889       0.36363636 </v>
   <v>       0.11764706       0.38888889       0.36363636 </v>
   <v>       0.17647059       0.38888889       0.36363636 </v>
   <v>       0.23529412       0.38888889       0.36363636 </v>
   <v>       0.29411765       0.38888889       0.36363636 </v>
   <v>       0.35294118       0.38888889       0.36363636 </v>
   <v>       0.41176471       0.38888889       0.36363636 </v>
   <v>       0.47058824       0.38888889       0.36363636 </v>
   <v>       0.00000000       0.44444444       0.36363636 </v>
   <v>       0.05882353       0.44444444       0.36363636 </v>
   <v>       0.11764706       0.44444444       0.36363636 </v>
   <v>       0.17647059       0.44444444       0.36363636 </v>
   <v>       0.23529412       0.44444444       0.36363636 </v>
   <v>       0.29411765       0.44444444       0.36363636 </v>
   <v>       0.35294118       0.44444444       0.36363636 </v>
   <v>       0.41176471       0.44444444       0.36363636 </v>
   <v>       0.47058824       0.44444444       0.36363636 </v>
   <v>       0.00000000       0.50000000       0.36363636 </v>
   <v>       0.05882353       0.50000000       0.36363636 </v>
   <v>       0.11764706       0.50000000       0.36363636 </v>
   <v>       0.17647059       0.50000000       0.36363636 </v>
   <v>       0.23529412       0.50000000       0.36363636 </v>
   <v>       0.29411765       0.50000000       0.36363636 </v>
   <v>       0.35294118       0.50000000       0.36363636 </v>
   <v>       0.41176471       0.50000000       0.36363636 </v>
   <v>       0.47058824       0.50000000       0.36363636 </v>
   <v>       0.00000000      -0.44444444       0.36363636 </v>
   <v>       0.05882353      -0.44444444       0.36363636 </v>
   <v>       0.11764706      -0.44444444       0.36363636 </v>
   <v>       0.17647059      -0.44444444       0.36363636 </v>
   <v>       0.23529412      -0.44444444       0.36363636 </v>
   <v>       0.29411765      -0.44444444       0.36363636 </v>
   <v>       0.35294118      -0.44444444       0.36363636 </v>
   <v>       0.41176471      -0.44444444       0.36363636 </v>
   <v>       0.47058824      -0.44444444       0.36363636 </v>
   <v>       0.00000000      -0.38888889       0.36363636 </v>
   <v>       0.05882353      -0.38888889       0.36363636 </v>
   <v>       0.11764706      -0.38888889       0.36363636 </v>
   <v>       0.17647059      -0.38888889       0.36363636 </v>
   <v>       0.23529412      -0.38888889       0.36363636 </v>
   <v>       0.29411765      -0.38888889       0.36363636 </v>
   <v>       0.35294118      -0.38888889       0.36363636 </v>
   <v>       0.41176471      -0.38888889       0.36363636 </v>
   <v>       0.47058824      -0.38888889       0.36363636 </v>
   <v>       0.00000000      -0.33333333       0.36363636 </v>
   <v>       0.05882353      -0.33333333       0.36363636 </v>
   <v>       0.11764706      -0.33333333       0.36363636 </v>
   <v>       0.17647059      -0.33333333       0.36363636 </v>
   <v>       0.23529412      -0.33333333       0.36363636 </v>
   <v>       0.29411765      -0.33333333       0.36363636 </v>
   <v>       0.35294118      -0.33333333       0.36363636 </v>
   <v>       0.41176471      -0.33333333       0.36363636 </v>
   <v>       0.47058824      -0.33333333       0.36363636 </v>
   <v>       0.00000000      -0.27777778       0.36363636 </v>
   <v>       0.05882353      -0.27777778       0.36363636 </v>
   <v>       0.11764706      -0.27777778       0.36363636 </v>
   <v>       0.17647059      -0.27777778       0.36363636 </v>
   <v>       0.23529412      -0.27777778       0.36363636 </v>
   <v>       0.29411765      -0.27777778       0.36363636 </v>
   <v>       0.35294118      -0.27777778       0.36363636 </v>
   <v>       0.41176471      -0.27777778       0.36363636 </v>
   <v>       0.47058824      -0.27777778       0.36363636 </v>
   <v>       0.00000000      -0.22222222       0.36363636 </v>
   <v>       0.05882353      -0.22222222       0.36363636 </v>
   <v>       0.11764706      -0.22222222       0.36363636 </v>
   <v>       0.17647059      -0.22222222       0.36363636 </v>
   <v>       0.23529412      -0.22222222       0.36363636 </v>
   <v>       0.29411765      -0.22222222       0.36363636 </v>
   <v>       0.35294118      -0.22222222       0.36363636 </v>
   <v>       0.41176471      -0.22222222       0.36363636 </v>
   <v>       0.47058824      -0.22222222       0.36363636 </v>
   <v>       0.00000000      -0.16666667       0.36363636 </v>
   <v>       0.05882353      -0.16666667       0.36363636 </v>
   <v>       0.11764706      -0.16666667       0.36363636 </v>
   <v>       0.17647059      -0.16666667       0.36363636 </v>
   <v>       0.23529412      -0.16666667       0.36363636 </v>
   <v>       0.29411765      -0.16666667       0.36363636 </v>
   <v>       0.35294118      -0.16666667       0.36363636 </v>
   <v>       0.41176471      -0.16666667       0.36363636 </v>
   <v>       0.47058824      -0.16666667       0.36363636 </v>
   <v>       0.00000000      -0.11111111       0.36363636 </v>
   <v>       0.05882353      -0.11111111       0.36363636 </v>
   <v>       0.11764706      -0.11111111       0.36363636 </v>
   <v>       0.17647059      -0.11111111       0.36363636 </v>
   <v>       0.23529412      -0.11111111       0.36363636 </v>
   <v>       0.29411765      -0.11111111       0.36363636 </v>
   <v>       0.35294118      -0.11111111       0.36363636 </v>
   <v>       0.41176471      -0.11111111       0.36363636 </v>
   <v>       0.47058824      -0.11111111       0.36363636 </v>
   <v>       0.00000000      -0.05555556       0.36363636 </v>
   <v>       0.05882353      -0.05555556       0.36363636 </v>
   <v>       0.11764706      -0.05555556       0.36363636 </v>
   <v>       0.17647059      -0.05555556       0.36363636 </v>
   <v>       0.23529412      -0.05555556       0.36363636 </v>
   <v>       0.29411765      -0.05555556       0.36363636 </v>
   <v>       0.35294118      -0.05555556       0.36363636 </v>
   <v>       0.41176471      -0.05555556       0.36363636 </v>
   <v>       0.47058824      -0.05555556       0.36363636 </v>
   <v>       0.00000000       0.00000000       0.45454545 </v>
   <v>       0.05882353       0.00000000       0.45454545 </v>
   <v>       0.11764706       0.00000000       0.45454545 </v>
   <v>       0.17647059       0.00000000       0.45454545 </v>
   <v>       0.23529412       0.00000000       0.45454545 </v>
   <v>       0.29411765       0.00000000       0.45454545 </v>
   <v>       0.35294118       0.00000000       0.45454545 </v>
   <v>       0.41176471       0.00000000       0.45454545 </v>
   <v>       0.47058824       0.00000000       0.45454545 </v>
   <v>       0.00000000       0.05555556       0.45454545 </v>
   <v>       0.05882353       0.05555556       0.45454545 </v>
   <v>       0.11764706       0.05555556       0.45454545 </v>
   <v>       0.17647059       0.05555556       0.45454545 </v>
   <v>       0.23529412       0.05555556       0.45454545 </v>
   <v>       0.29411765       0.05555556       0.45454545 </v>
   <v>       0.35294118       0.05555556       0.45454545 </v>
   <v>       0.41176471       0.05555556       0.45454545 </v>
   <v>       0.47058824       0.05555556       0.45454545 </v>
   <v>       0.00000000       0.11111111       0.45454545 </v>
   <v>       0.05882353       0.11111111       0.45454545 </v>
   <v>       0.11764706       0.11111111       0.45454545 </v>
   <v>       0.17647059       0.11111111       0.45454545 </v>
   <v>       0.23529412       0.11111111       0.45454545 </v>
   <v>       0.29411765       0.11111111       0.45454545 </v>
   <v>       0.35294118       0.11111111       0.45454545 </v>
   <v>       0.41176471       0.11111111       0.45454545 </v>
   <v>       0.47058824       0.11111111       0.45454545 </v>
   <v>       0.00000000       0.16666667       0.45454545 </v>
   <v>       0.05882353       0.16666667       0.45454545 </v>
   <v>       0.11764706       0.16666667       0.45454545 </v>
   <v>       0.17647059       0.16666667       0.45454545 </v>
   <v>       0.23529412       0.16666667       0.45454545 </v>
   <v>       0.29411765       0.16666667       0.45454545 </v>
   <v>       0.35294118       0.16666667       0.45454545 </v>
   <v>       0.41176471       0.16666667       0.45454545 </v>
   <v>       0.47058824       0.16666667       0.45454545 </v>
   <v>       0.00000000       0.22222222       0.45454545 </v>
   <v>       0.05882353       0.22222222       0.45454545 </v>
   <v>       0.11764706       0.22222222       0.45454545 </v>
   <v>       0.17647059       0.22222222       0.45454545 </v>
   <v>       0.23529412       0.22222222       0.45454545 </v>
   <v>       0.29411765       0.22222222       0.45454545 </v>
   <v>       0.35294118       0.22222222       0.45454545 </v>
   <v>       0.41176471       0.22222222       0.45454545 </v>
   <v>       0.47058824       0.22222222       0.45454545 </v>
   <v>       0.00000000       0.27777778       0.45454545 </v>
   <v>       0.05882353       0.27777778       0.45454545 </v>
   <v>       0.11764706       0.27777778       0.45454545 </v>
   <v>       0.17647059       0.27777778       0.45454545 </v>
   <v>       0.23529412       0.27777778       0.45454545 </v>
   <v>       0.29411765       0.27777778       0.45454545 </v>
   <v>       0.35294118       0.27777778       0.45454545 </v>
   <v>       0.41176471       0.27777778       0.45454545 </v>
   <v>       0.47058824       0.27777778       0.45454545 </v>
   <v>       0.00000000       0.33333333       0.45454545 </v>
   <v>       0.05882353       0.33333333       0.45454545 </v>
   <v>       0.11764706       0.33333333       0.45454545 </v>
   <v>       0.17647059       0.33333333       0.45454545 </v>
   <v>       0.23529412       0.33333333       0.45454545 </v>
   <v>       0.29411765       0.33333333       0.45454545 </v>
   <v>       0.35294118       0.33333333       0.45454545 </v>
   <v>       0.41176471       0.33333333       0.45454545 </v>
   <v>       0.47058824       0.33333333       0.45454545 </v>
   <v>       0.00000000       0.38888889       0.45454545 </v>
   <v>       0.05882353       0.38888889       0.45454545 </v>
   <v>       0.11764706       0.38888889       0.45454545 </v>
   <v>       0.17647059       0.38888889       0.45454545 </v>
   <v>       0.23529412       0.38888889       0.45454545 </v>
   <v>       0.29411765       0.38888889       0.45454545 </v>
   <v>       0.35294118       0.38888889       0.45454545 </v>
   <v>       0.41176471       0.38888889       0.45454545 </v>
   <v>       0.47058824       0.38888889       0.45454545 </v>
   <v>       0.00000000       0.44444444       0.45454545 </v>
   <v>       0.05882353       0.44444444       0.45454545 </v>
   <v>       0.11764706       0.44444444       0.45454545 </v>
   <v>       0.17647059       0.44444444       0.45454545 </v>
   <v>       0.23529412       0.44444444       0.45454545 </v>
   <v>       0.29411765       0.44444444       0.45454545 </v>
   <v>       0.35294118       0.44444444       0.45454545 </v>
   <v>       0.41176471       0.44444444       0.45454545 </v>
   <v>       0.47058824       0.44444444       0.45454545 </v>
   <v>       0.00000000       0.50000000       0.45454545 </v>
   <v>       0.05882353       0.50000000       0.45454545 </v>
   <v>       0.11764706       0.50000000       0.45454545 </v>
   <v>       0.17647059       0.50000000       0.45454545 </v>
   <v>       0.23529412       0.50000000       0.45454545 </v>
   <v>       0.29411765       0.50000000       0.45454545 </v>
   <v>       0.35294118       0.50000000       0.45454545 </v>
   <v>       0.41176471       0.50000000       0.45454545 </v>
   <v>       0.47058824       0.50000000       0.45454545 </v>
   <v>       0.00000000      -0.44444444       0.45454545 </v>
   <v>       0.05882353      -0.44444444       0.45454545 </v>
   <v>       0.11764706      -0.44444444       0.45454545 </v>
   <v>       0.17647059      -0.44444444       0.45454545 </v>
   <v>       0.23529412      -0.44444444       0.45454545 </v>
   <v>       0.29411765      -0.44444444       0.45454545 </v>
   <v>       0.35294118      -0.44444444       0.45454545 </v>
   <v>       0.41176471      -0.44444444       0.45454545 </v>
   <v>       0.47058824      -0.44444444       0.45454545 </v>
   <v>       0.00000000      -0.38888889       0.45454545 </v>
   <v>       0.05882353      -0.38888889       0.45454545 </v>
   <v>       0.11764706      -0.38888889       0.45454545 </v>
   <v>       0.17647059      -0.38888889       0.45454545 </v>
   <v>       0.23529412      -0.38888889       0.45454545 </v>
   <v>       0.29411765      -0.38888889       0.45454545 </v>
   <v>       0.35294118      -0.38888889       0.45454545 </v>
   <v>       0.41176471      -0.38888889       0.45454545 </v>
   <v>       0.47058824      -0.38888889       0.45454545 </v>
   <v>       0.00000000      -0.33333333       0.45454545 </v>
   <v>       0.05882353      -0.33333333       0.45454545 </v>
   <v>       0.11764706      -0.33333333       0.45454545 </v>
   <v>       0.17647059      -0.33333333       0.45454545 </v>
   <v>       0.23529412      -0.33333333       0.45454545 </v>
   <v>       0.29411765      -0.33333333       0.45454545 </v>
   <v>       0.35294118      -0.33333333       0.45454545 </v>
   <v>       0.41176471      -0.33333333       0.45454545 </v>
   <v>       0.47058824      -0.33333333       0.45454545 </v>
   <v>       0.00000000      -0.27777778       0.45454545 </v>
   <v>       0.05882353      -0.27777778       0.45454545 </v>
   <v>       0.11764706      -0.27777778       0.45454545 </v>
   <v>       0.17647059      -0.27777778       0.45454545 </v>
   <v>       0.23529412      -0.27777778       0.45454545 </v>
   <v>       0.29411765      -0.27777778       0.45454545 </v>
   <v>       0.35294118      -0.27777778       0.45454545 </v>
   <v>       0.41176471      -0.27777778       0.45454545 </v>
   <v>       0.47058824      -0.27777778       0.45454545 </v>
   <v>       0.00000000      -0.22222222       0.45454545 </v>
   <v>       0.05882353      -0.22222222       0.45454545 </v>
   <v>       0.11764706      -0.22222222       0.45454545 </v>
   <v>       0.17647059      -0.22222222       0.45454545 </v>
   <v>       0.23529412      -0.22222222       0.45454545 </v>
   <v>       0.29411765      -0.22222222       0.45454545 </v>
   <v>       0.35294118      -0.22222222       0.45454545 </v>
   <v>       0.41176471      -0.22222222       0.45454545 </v>
   <v>       0.47058824      -0.22222222       0.45454545 </v>
   <v>       0.00000000      -0.16666667       0.45454545 </v>
   <v>       0.05882353      -0.16666667       0.45454545 </v>
   <v>       0.11764706      -0.16666667       0.45454545 </v>
   <v>       0.17647059      -0.16666667       0.45454545 </v>
   <v>       0.23529412      -0.16666667       0.45454545 </v>
   <v>       0.29411765      -0.16666667       0.45454545 </v>
   <v>       0.35294118      -0.16666667       0.45454545 </v>
   <v>       0.41176471      -0.16666667       0.45454545 </v>
   <v>       0.47058824      -0.16666667       0.45454545 </v>
   <v>       0.00000000      -0.11111111       0.45454545 </v>
   <v>       0.05882353      -0.11111111       0.45454545 </v>
   <v>       0.11764706      -0.11111111       0.45454545 </v>
   <v>       0.17647059      -0.11111111       0.45454545 </v>
   <v>       0.23529412      -0.11111111       0.45454545 </v>
   <v>       0.29411765      -0.11111111       0.45454545 </v>
   <v>       0.35294118      -0.11111111       0.45454545 </v>
   <v>       0.41176471      -0.11111111       0.45454545 </v>
   <v>       0.47058824      -0.11111111       0.45454545 </v>
   <v>       0.00000000      -0.05555556       0.45454545 </v>
   <v>       0.05882353      -0.05555556       0.45454545 </v>
   <v>       0.11764706      -0.05555556       0.45454545 </v>
   <v>       0.17647059      -0.05555556       0.45454545 </v>
   <v>       0.23529412      -0.05555556       0.45454545 </v>
   <v>       0.29411765      -0.05555556       0.45454545 </v>
   <v>       0.35294118      -0.05555556       0.45454545 </v>
   <v>       0.41176471      -0.05555556       0.45454545 </v>
   <v>       0.47058824      -0.05555556       0.45454545 </v>
  </varray>
  <varray name="weights" >
   <v>       0.00029709 </v>
   <v>       0.00059418 </v>
   <v>       0.00059418 </v>
   <v>       0.00059418 </v>
   <v>       0.00059418 </v>
   <v>       0.00059418 </v>
   <v>       0.00059418 </v>
   <v>       0.00059418 </v>
   <v>       0.00059418 </v>
   <v>       0.00059418 </v>
   <v>       0.00118835 </v>
   <v>       0.00118835 </v>
   <v>       0.00118835 </v>
   <v>       0.00118835 </v>
   <v>       0.00118835 </v>
   <v>       0.00118835 </v>
   <v>       0.00118835 </v>
   <v>       0.00118835 </v>
   <v>       0.00059418 </v>
   <v>       0.00118835 </v>
   <v>       0.00118835 </v>
   <v>       0.00118835 </v>
   <v>       0.00118835 </v>
   <v>       0.00118835 </v>
   <v>       0.00118835 </v>
   <v>       0.00118835 </v>
   <v>       0.00118835 </v>
   <v>       0.00059418 </v>
   <v>       0.00118835 </v>
   <v>       0.00118835 </v>
   <v>       0.00118835 </v>
   <v>       0.00118835 </v>
   <v>       0.00118835 </v>
   <v>       0.00118835 </v>
   <v>       0.00118835 </v>
   <v>       0.00118835 </v>
   <v>       0.00059418 </v>
   <v>       0.00118835 </v>
   <v>       0.00118835 </v>
   <v>       0.00118835 </v>
   <v>       0.00118835 </v>
   <v>       0.00118835 </v>
   <v>       0.00118835 </v>
   <v>       0.00118835 </v>
   <v>       0.00118835 </v>
   <v>       0.00059418 </v>
   <v>       0.00118835 </v>
   <v>       0.00118835 </v>
   <v>       0.00118835 </v>
   <v>       0.00118835 </v>
   <v>       0.00118835 </v>
   <v>       0.00118835 </v>
   <v>       0.00118835 </v>
   <v>       0.00118835 </v>
   <v>       0.00059418 </v>
   <v>       0.00118835 </v>
   <v>       0.00118835 </v>
   <v>       0.00118835 </v>
   <v>       0.00118835 </v>
   <v>       0.00118835 </v>
   <v>       0.00118835 </v>
   <v>       0.00118835 </v>
   <v>       0.00118835 </v>
   <v>       0.00059418 </v>
   <v>       0.00118835 </v>
   <v>       0.00118835 </v>
   <v>       0.00118835 </v>
   <v>       0.00118835 </v>
   <v>       0.00118835 </v>
   <v>       0.00118835 </v>
   <v>       0.00118835 </v>
   <v>       0.00118835 </v>
   <v>       0.00059418 </v>
   <v>       0.00118835 </v>
   <v>       0.00118835 </v>
   <v>       0.00118835 </v>
   <v>       0.00118835 </v>
   <v>       0.00118835 </v>
   <v>       0.00118835 </v>
   <v>       0.00118835 </v>
   <v>       0.00118835 </v>
   <v>       0.00029709 </v>
   <v>       0.00059418 </v>
   <v>       0.00059418 </v>
   <v>       0.00059418 </v>
   <v>       0.00059418 </v>
   <v>       0.00059418 </v>
   <v>       0.00059418 </v>
   <v>       0.00059418 </v>
   <v>       0.00059418 </v>
   <v>       0.00059418 </v>
   <v>       0.00118835 </v>
   <v>       0.00118835 </v>
   <v>       0.00118835 </v>
   <v>       0.00118835 </v>
   <v>       0.00118835 </v>
   <v>       0.00118835 </v>
   <v>       0.00118835 </v>
   <v>       0.00118835 </v>
   <v>       0.00059418 </v>
   <v>       0.00118835 </v>
   <v>       0.00118835 </v>
   <v>       0.00118835 </v>
   <v>       0.00118835 </v>
   <v>       0.00118835 </v>
   <v>       0.00118835 </v>
   <v>       0.00118835 </v>
   <v>       0.00118835 </v>
   <v>       0.00059418 </v>
   <v>       0.00118835 </v>
   <v>       0.00118835 </v>
   <v>       0.00118835 </v>
   <v>       0.00118835 </v>
   <v>       0.00118835 </v>
   <v>       0.00118835 </v>
   <v>       0.00118835 </v>
   <v>       0.00118835 </v>
   <v>       0.00059418 </v>
   <v>       0.00118835 </v>
   <v>       0.00118835 </v>
   <v>       0.00118835 </v>
   <v>       0.00118835 </v>
   <v>       0.00118835 </v>
   <v>       0.00118835 </v>
   <v>       0.00118835 </v>
   <v>       0.00118835 </v>
   <v>       0.00059418 </v>
   <v>       0.00118835 </v>
   <v>       0.00118835 </v>
   <v>       0.00118835 </v>
   <v>       0.00118835 </v>
   <v>       0.00118835 </v>
   <v>       0.00118835 </v>
   <v>       0.00118835 </v>
   <v>       0.00118835 </v>
   <v>       0.00059418 </v>
   <v>       0.00118835 </v>
   <v>       0.00118835 </v>
   <v>       0.00118835 </v>
   <v>       0.00118835 </v>
   <v>       0.00118835 </v>
   <v>       0.00118835 </v>
   <v>       0.00118835 </v>
   <v>       0.00118835 </v>
   <v>       0.00059418 </v>
   <v>       0.00118835 </v>
   <v>       0.00118835 </v>
   <v>       0.00118835 </v>
   <v>       0.00118835 </v>
   <v>       0.00118835 </v>
   <v>       0.00118835 </v>
   <v>       0.00118835 </v>
   <v>       0.00118835 </v>
   <v>       0.00059418 </v>
   <v>       0.00118835 </v>
   <v>       0.00118835 </v>
   <v>       0.00118835 </v>
   <v>       0.00118835 </v>
   <v>       0.00118835 </v>
   <v>       0.00118835 </v>
   <v>       0.00118835 </v>
   <v>       0.00118835 </v>
   <v>       0.00059418 </v>
   <v>       0.00118835 </v>
   <v>       0.00118835 </v>
   <v>       0.00118835 </v>
   <v>       0.00118835 </v>
   <v>       0.00118835 </v>
   <v>       0.00118835 </v>
   <v>       0.00118835 </v>
   <v>       0.00118835 </v>
   <v>       0.00059418 </v>
   <v>       0.00118835 </v>
   <v>       0.00118835 </v>
   <v>       0.00118835 </v>
   <v>       0.00118835 </v>
   <v>       0.00118835 </v>
   <v>       0.00118835 </v>
   <v>       0.00118835 </v>
   <v>       0.00118835 </v>
   <v>       0.00059418 </v>
   <v>       0.00118835 </v>
   <v>       0.00118835 </v>
   <v>       0.00118835 </v>
   <v>       0.00118835 </v>
   <v>       0.00118835 </v>
   <v>       0.00118835 </v>
   <v>       0.00118835 </v>
   <v>       0.00118835 </v>
   <v>       0.00059418 </v>
   <v>       0.00118835 </v>
   <v>       0.00118835 </v>
   <v>       0.00118835 </v>
   <v>       0.00118835 </v>
   <v>       0.00118835 </v>
   <v>       0.00118835 </v>
   <v>       0.00118835 </v>
   <v>       0.00118835 </v>
   <v>       0.00059418 </v>
   <v>       0.00118835 </v>
   <v>       0.00118835 </v>
   <v>       0.00118835 </v>
   <v>       0.00118835 </v>
   <v>       0.00118835 </v>
   <v>       0.00118835 </v>
   <v>       0.00118835 </v>
   <v>       0.00118835 </v>
   <v>       0.00059418 </v>
   <v>       0.00118835 </v>
   <v>       0.00118835 </v>
   <v>       0.00118835 </v>
   <v>       0.00118835 </v>
   <v>       0.00118835 </v>
   <v>       0.00118835 </v>
   <v>       0.00118835 </v>
   <v>       0.00118835 </v>
   <v>       0.00059418 </v>
   <v>       0.00118835 </v>
   <v>       0.00118835 </v>
   <v>       0.00118835 </v>
   <v>       0.00118835 </v>
   <v>       0.00118835 </v>
   <v>       0.00118835 </v>
   <v>       0.00118835 </v>
   <v>       0.00118835 </v>
   <v>       0.00059418 </v>
   <v>       0.00118835 </v>
   <v>       0.00118835 </v>
   <v>       0.00118835 </v>
   <v>       0.00118835 </v>
   <v>       0.00118835 </v>
   <v>       0.00118835 </v>
   <v>       0.00118835 </v>
   <v>       0.00118835 </v>
   <v>       0.00059418 </v>
   <v>       0.00118835 </v>
   <v>       0.00118835 </v>
   <v>       0.00118835 </v>
   <v>       0.00118835 </v>
   <v>       0.00118835 </v>
   <v>       0.00118835 </v>
   <v>       0.00118835 </v>
   <v>       0.00118835 </v>
   <v>       0.00059418 </v>
   <v>       0.00118835 </v>
   <v>       0.00118835 </v>
   <v>       0.00118835 </v>
   <v>       0.00118835 </v>
   <v>       0.00118835 </v>
   <v>       0.00118835 </v>
   <v>       0.00118835 </v>
   <v>       0.00118835 </v>
   <v>       0.00059418 </v>
   <v>       0.00118835 </v>
   <v>       0.00118835 </v>
   <v>       0.00118835 </v>
   <v>       0.00118835 </v>
   <v>       0.00118835 </v>
   <v>       0.00118835 </v>
   <v>       0.00118835 </v>
   <v>       0.00118835 </v>
   <v>       0.00059418 </v>
   <v>       0.00118835 </v>
   <v>       0.00118835 </v>
   <v>       0.00118835 </v>
   <v>       0.00118835 </v>
   <v>       0.00118835 </v>
   <v>       0.00118835 </v>
   <v>       0.00118835 </v>
   <v>       0.00118835 </v>
   <v>       0.00059418 </v>
   <v>       0.00118835 </v>
   <v>       0.00118835 </v>
   <v>       0.00118835 </v>
   <v>       0.00118835 </v>
   <v>       0.00118835 </v>
   <v>       0.00118835 </v>
   <v>       0.00118835 </v>
   <v>       0.00118835 </v>
   <v>       0.00059418 </v>
   <v>       0.00118835 </v>
   <v>       0.00118835 </v>
   <v>       0.00118835 </v>
   <v>       0.00118835 </v>
   <v>       0.00118835 </v>
   <v>       0.00118835 </v>
   <v>       0.00118835 </v>
   <v>       0.00118835 </v>
   <v>       0.00059418 </v>
   <v>       0.00118835 </v>
   <v>       0.00118835 </v>
   <v>       0.00118835 </v>
   <v>       0.00118835 </v>
   <v>       0.00118835 </v>
   <v>       0.00118835 </v>
   <v>       0.00118835 </v>
   <v>       0.00118835 </v>
   <v>       0.00059418 </v>
   <v>       0.00118835 </v>
   <v>       0.00118835 </v>
   <v>       0.00118835 </v>
   <v>       0.00118835 </v>
   <v>       0.00118835 </v>
   <v>       0.00118835 </v>
   <v>       0.00118835 </v>
   <v>       0.00118835 </v>
   <v>       0.00059418 </v>
   <v>       0.00118835 </v>
   <v>       0.00118835 </v>
   <v>       0.00118835 </v>
   <v>       0.00118835 </v>
   <v>       0.00118835 </v>
   <v>       0.00118835 </v>
   <v>       0.00118835 </v>
   <v>       0.00118835 </v>
   <v>       0.00059418 </v>
   <v>       0.00118835 </v>
   <v>       0.00118835 </v>
   <v>       0.00118835 </v>
   <v>       0.00118835 </v>
   <v>       0.00118835 </v>
   <v>       0.00118835 </v>
   <v>       0.00118835 </v>
   <v>       0.00118835 </v>
   <v>       0.00059418 </v>
   <v>       0.00118835 </v>
   <v>       0.00118835 </v>
   <v>       0.00118835 </v>
   <v>       0.00118835 </v>
   <v>       0.00118835 </v>
   <v>       0.00118835 </v>
   <v>       0.00118835 </v>
   <v>       0.00118835 </v>
   <v>       0.00059418 </v>
   <v>       0.00118835 </v>
   <v>       0.00118835 </v>
   <v>       0.00118835 </v>
   <v>       0.00118835 </v>
   <v>       0.00118835 </v>
   <v>       0.00118835 </v>
   <v>       0.00118835 </v>
   <v>       0.00118835 </v>
   <v>       0.00059418 </v>
   <v>       0.00118835 </v>
   <v>       0.00118835 </v>
   <v>       0.00118835 </v>
   <v>       0.00118835 </v>
   <v>       0.00118835 </v>
   <v>       0.00118835 </v>
   <v>       0.00118835 </v>
   <v>       0.00118835 </v>
   <v>       0.00059418 </v>
   <v>       0.00118835 </v>
   <v>       0.00118835 </v>
   <v>       0.00118835 </v>
   <v>       0.00118835 </v>
   <v>       0.00118835 </v>
   <v>       0.00118835 </v>
   <v>       0.00118835 </v>
   <v>       0.00118835 </v>
   <v>       0.00059418 </v>
   <v>       0.00118835 </v>
   <v>       0.00118835 </v>
   <v>       0.00118835 </v>
   <v>       0.00118835 </v>
   <v>       0.00118835 </v>
   <v>       0.00118835 </v>
   <v>       0.00118835 </v>
   <v>       0.00118835 </v>
   <v>       0.00059418 </v>
   <v>       0.00118835 </v>
   <v>       0.00118835 </v>
   <v>       0.00118835 </v>
   <v>       0.00118835 </v>
   <v>       0.00118835 </v>
   <v>       0.00118835 </v>
   <v>       0.00118835 </v>
   <v>       0.00118835 </v>
   <v>       0.00059418 </v>
   <v>       0.00118835 </v>
   <v>       0.00118835 </v>
   <v>       0.00118835 </v>
   <v>       0.00118835 </v>
   <v>       0.00118835 </v>
   <v>       0.00118835 </v>
   <v>       0.00118835 </v>
   <v>       0.00118835 </v>
   <v>       0.00059418 </v>
   <v>       0.00118835 </v>
   <v>       0.00118835 </v>
   <v>       0.00118835 </v>
   <v>       0.00118835 </v>
   <v>       0.00118835 </v>
   <v>       0.00118835 </v>
   <v>       0.00118835 </v>
   <v>       0.00118835 </v>
   <v>       0.00059418 </v>
   <v>       0.00118835 </v>
   <v>       0.00118835 </v>
   <v>       0.00118835 </v>
   <v>       0.00118835 </v>
   <v>       0.00118835 </v>
   <v>       0.00118835 </v>
   <v>       0.00118835 </v>
   <v>       0.00118835 </v>
   <v>       0.00059418 </v>
   <v>       0.00118835 </v>
   <v>       0.00118835 </v>
   <v>       0.00118835 </v>
   <v>       0.00118835 </v>
   <v>       0.00118835 </v>
   <v>       0.00118835 </v>
   <v>       0.00118835 </v>
   <v>       0.00118835 </v>
   <v>       0.00059418 </v>
   <v>       0.00118835 </v>
   <v>       0.00118835 </v>
   <v>       0.00118835 </v>
   <v>       0.00118835 </v>
   <v>       0.00118835 </v>
   <v>       0.00118835 </v>
   <v>       0.00118835 </v>
   <v>       0.00118835 </v>
   <v>       0.00059418 </v>
   <v>       0.00118835 </v>
   <v>       0.00118835 </v>
   <v>       0.00118835 </v>
   <v>       0.00118835 </v>
   <v>       0.00118835 </v>
   <v>       0.00118835 </v>
   <v>       0.00118835 </v>
   <v>       0.00118835 </v>
   <v>       0.00059418 </v>
   <v>       0.00118835 </v>
   <v>       0.00118835 </v>
   <v>       0.00118835 </v>
   <v>       0.00118835 </v>
   <v>       0.00118835 </v>
   <v>       0.00118835 </v>
   <v>       0.00118835 </v>
   <v>       0.00118835 </v>
   <v>       0.00059418 </v>
   <v>       0.00118835 </v>
   <v>       0.00118835 </v>
   <v>       0.00118835 </v>
   <v>       0.00118835 </v>
   <v>       0.00118835 </v>
   <v>       0.00118835 </v>
   <v>       0.00118835 </v>
   <v>       0.00118835 </v>
   <v>       0.00059418 </v>
   <v>       0.00118835 </v>
   <v>       0.00118835 </v>
   <v>       0.00118835 </v>
   <v>       0.00118835 </v>
   <v>       0.00118835 </v>
   <v>       0.00118835 </v>
   <v>       0.00118835 </v>
   <v>       0.00118835 </v>
   <v>       0.00059418 </v>
   <v>       0.00118835 </v>
   <v>       0.00118835 </v>
   <v>       0.00118835 </v>
   <v>       0.00118835 </v>
   <v>       0.00118835 </v>
   <v>       0.00118835 </v>
   <v>       0.00118835 </v>
   <v>       0.00118835 </v>
   <v>       0.00059418 </v>
   <v>       0.00118835 </v>
   <v>       0.00118835 </v>
   <v>       0.00118835 </v>
   <v>       0.00118835 </v>
   <v>       0.00118835 </v>
   <v>       0.00118835 </v>
   <v>       0.00118835 </v>
   <v>       0.00118835 </v>
   <v>       0.00059418 </v>
   <v>       0.00118835 </v>
   <v>       0.00118835 </v>
   <v>       0.00118835 </v>
   <v>       0.00118835 </v>
   <v>       0.00118835 </v>
   <v>       0.00118835 </v>
   <v>       0.00118835 </v>
   <v>       0.00118835 </v>
   <v>       0.00059418 </v>
   <v>       0.00118835 </v>
   <v>       0.00118835 </v>
   <v>       0.00118835 </v>
   <v>       0.00118835 </v>
   <v>       0.00118835 </v>
   <v>       0.00118835 </v>
   <v>       0.00118835 </v>
   <v>       0.00118835 </v>
   <v>       0.00059418 </v>
   <v>       0.00118835 </v>
   <v>       0.00118835 </v>
   <v>       0.00118835 </v>
   <v>       0.00118835 </v>
   <v>       0.00118835 </v>
   <v>       0.00118835 </v>
   <v>       0.00118835 </v>
   <v>       0.00118835 </v>
   <v>       0.00059418 </v>
   <v>       0.00118835 </v>
   <v>       0.00118835 </v>
   <v>       0.00118835 </v>
   <v>       0.00118835 </v>
   <v>       0.00118835 </v>
   <v>       0.00118835 </v>
   <v>       0.00118835 </v>
   <v>       0.00118835 </v>
   <v>       0.00059418 </v>
   <v>       0.00118835 </v>
   <v>       0.00118835 </v>
   <v>       0.00118835 </v>
   <v>       0.00118835 </v>
   <v>       0.00118835 </v>
   <v>       0.00118835 </v>
   <v>       0.00118835 </v>
   <v>       0.00118835 </v>
   <v>       0.00059418 </v>
   <v>       0.00118835 </v>
   <v>       0.00118835 </v>
   <v>       0.00118835 </v>
   <v>       0.00118835 </v>
   <v>       0.00118835 </v>
   <v>       0.00118835 </v>
   <v>       0.00118835 </v>
   <v>       0.00118835 </v>
   <v>       0.00059418 </v>
   <v>       0.00118835 </v>
   <v>       0.00118835 </v>
   <v>       0.00118835 </v>
   <v>       0.00118835 </v>
   <v>       0.00118835 </v>
   <v>       0.00118835 </v>
   <v>       0.00118835 </v>
   <v>       0.00118835 </v>
   <v>       0.00059418 </v>
   <v>       0.00118835 </v>
   <v>       0.00118835 </v>
   <v>       0.00118835 </v>
   <v>       0.00118835 </v>
   <v>       0.00118835 </v>
   <v>       0.00118835 </v>
   <v>       0.00118835 </v>
   <v>       0.00118835 </v>
   <v>       0.00059418 </v>
   <v>       0.00118835 </v>
   <v>       0.00118835 </v>
   <v>       0.00118835 </v>
   <v>       0.00118835 </v>
   <v>       0.00118835 </v>
   <v>       0.00118835 </v>
   <v>       0.00118835 </v>
   <v>       0.00118835 </v>
   <v>       0.00059418 </v>
   <v>       0.00118835 </v>
   <v>       0.00118835 </v>
   <v>       0.00118835 </v>
   <v>       0.00118835 </v>
   <v>       0.00118835 </v>
   <v>       0.00118835 </v>
   <v>       0.00118835 </v>
   <v>       0.00118835 </v>
   <v>       0.00059418 </v>
   <v>       0.00118835 </v>
   <v>       0.00118835 </v>
   <v>       0.00118835 </v>
   <v>       0.00118835 </v>
   <v>       0.00118835 </v>
   <v>       0.00118835 </v>
   <v>       0.00118835 </v>
   <v>       0.00118835 </v>
   <v>       0.00059418 </v>
   <v>       0.00118835 </v>
   <v>       0.00118835 </v>
   <v>       0.00118835 </v>
   <v>       0.00118835 </v>
   <v>       0.00118835 </v>
   <v>       0.00118835 </v>
   <v>       0.00118835 </v>
   <v>       0.00118835 </v>
   <v>       0.00059418 </v>
   <v>       0.00118835 </v>
   <v>       0.00118835 </v>
   <v>       0.00118835 </v>
   <v>       0.00118835 </v>
   <v>       0.00118835 </v>
   <v>       0.00118835 </v>
   <v>       0.00118835 </v>
   <v>       0.00118835 </v>
   <v>       0.00059418 </v>
   <v>       0.00118835 </v>
   <v>       0.00118835 </v>
   <v>       0.00118835 </v>
   <v>       0.00118835 </v>
   <v>       0.00118835 </v>
   <v>       0.00118835 </v>
   <v>       0.00118835 </v>
   <v>       0.00118835 </v>
   <v>       0.00059418 </v>
   <v>       0.00118835 </v>
   <v>       0.00118835 </v>
   <v>       0.00118835 </v>
   <v>       0.00118835 </v>
   <v>       0.00118835 </v>
   <v>       0.00118835 </v>
   <v>       0.00118835 </v>
   <v>       0.00118835 </v>
   <v>       0.00059418 </v>
   <v>       0.00118835 </v>
   <v>       0.00118835 </v>
   <v>       0.00118835 </v>
   <v>       0.00118835 </v>
   <v>       0.00118835 </v>
   <v>       0.00118835 </v>
   <v>       0.00118835 </v>
   <v>       0.00118835 </v>
   <v>       0.00059418 </v>
   <v>       0.00118835 </v>
   <v>       0.00118835 </v>
   <v>       0.00118835 </v>
   <v>       0.00118835 </v>
   <v>       0.00118835 </v>
   <v>       0.00118835 </v>
   <v>       0.00118835 </v>
   <v>       0.00118835 </v>
   <v>       0.00059418 </v>
   <v>       0.00118835 </v>
   <v>       0.00118835 </v>
   <v>       0.00118835 </v>
   <v>       0.00118835 </v>
   <v>       0.00118835 </v>
   <v>       0.00118835 </v>
   <v>       0.00118835 </v>
   <v>       0.00118835 </v>
   <v>       0.00059418 </v>
   <v>       0.00118835 </v>
   <v>       0.00118835 </v>
   <v>       0.00118835 </v>
   <v>       0.00118835 </v>
   <v>       0.00118835 </v>
   <v>       0.00118835 </v>
   <v>       0.00118835 </v>
   <v>       0.00118835 </v>
   <v>       0.00059418 </v>
   <v>       0.00118835 </v>
   <v>       0.00118835 </v>
   <v>       0.00118835 </v>
   <v>       0.00118835 </v>
   <v>       0.00118835 </v>
   <v>       0.00118835 </v>
   <v>       0.00118835 </v>
   <v>       0.00118835 </v>
   <v>       0.00059418 </v>
   <v>       0.00118835 </v>
   <v>       0.00118835 </v>
   <v>       0.00118835 </v>
   <v>       0.00118835 </v>
   <v>       0.00118835 </v>
   <v>       0.00118835 </v>
   <v>       0.00118835 </v>
   <v>       0.00118835 </v>
   <v>       0.00059418 </v>
   <v>       0.00118835 </v>
   <v>       0.00118835 </v>
   <v>       0.00118835 </v>
   <v>       0.00118835 </v>
   <v>       0.00118835 </v>
   <v>       0.00118835 </v>
   <v>       0.00118835 </v>
   <v>       0.00118835 </v>
   <v>       0.00059418 </v>
   <v>       0.00118835 </v>
   <v>       0.00118835 </v>
   <v>       0.00118835 </v>
   <v>       0.00118835 </v>
   <v>       0.00118835 </v>
   <v>       0.00118835 </v>
   <v>       0.00118835 </v>
   <v>       0.00118835 </v>
   <v>       0.00059418 </v>
   <v>       0.00118835 </v>
   <v>       0.00118835 </v>
   <v>       0.00118835 </v>
   <v>       0.00118835 </v>
   <v>       0.00118835 </v>
   <v>       0.00118835 </v>
   <v>       0.00118835 </v>
   <v>       0.00118835 </v>
   <v>       0.00059418 </v>
   <v>       0.00118835 </v>
   <v>       0.00118835 </v>
   <v>       0.00118835 </v>
   <v>       0.00118835 </v>
   <v>       0.00118835 </v>
   <v>       0.00118835 </v>
   <v>       0.00118835 </v>
   <v>       0.00118835 </v>
   <v>       0.00059418 </v>
   <v>       0.00118835 </v>
   <v>       0.00118835 </v>
   <v>       0.00118835 </v>
   <v>       0.00118835 </v>
   <v>       0.00118835 </v>
   <v>       0.00118835 </v>
   <v>       0.00118835 </v>
   <v>       0.00118835 </v>
   <v>       0.00059418 </v>
   <v>       0.00118835 </v>
   <v>       0.00118835 </v>
   <v>       0.00118835 </v>
   <v>       0.00118835 </v>
   <v>       0.00118835 </v>
   <v>       0.00118835 </v>
   <v>       0.00118835 </v>
   <v>       0.00118835 </v>
   <v>       0.00059418 </v>
   <v>       0.00118835 </v>
   <v>       0.00118835 </v>
   <v>       0.00118835 </v>
   <v>       0.00118835 </v>
   <v>       0.00118835 </v>
   <v>       0.00118835 </v>
   <v>       0.00118835 </v>
   <v>       0.00118835 </v>
   <v>       0.00059418 </v>
   <v>       0.00118835 </v>
   <v>       0.00118835 </v>
   <v>       0.00118835 </v>
   <v>       0.00118835 </v>
   <v>       0.00118835 </v>
   <v>       0.00118835 </v>
   <v>       0.00118835 </v>
   <v>       0.00118835 </v>
   <v>       0.00059418 </v>
   <v>       0.00118835 </v>
   <v>       0.00118835 </v>
   <v>       0.00118835 </v>
[...]
       <r>    4.1229    1.0000 </r>
       <r>    4.3083    1.0000 </r>
       <r>    4.4678    1.0000 </r>
       <r>    4.5244    1.0000 </r>
       <r>    4.6900    1.0000 </r>
       <r>    4.7308    1.0000 </r>
       <r>    4.9394    1.0000 </r>
       <r>    5.0841    1.0000 </r>
       <r>    5.1748    1.0000 </r>
       <r>    5.5070    1.0000 </r>
       <r>    5.5471    1.0000 </r>
       <r>    7.1111    1.0002 </r>
       <r>    7.9494    0.5712 </r>
       <r>   11.7421    0.0000 </r>
       <r>   11.8675    0.0000 </r>
       <r>   14.1204    0.0000 </r>
       <r>   14.6025    0.0000 </r>
       <r>   15.2117    0.0000 </r>
       <r>   15.5193    0.0000 </r>
      </set>
      <set comment="kpoint 899">
       <r>    1.9572    1.0000 </r>
       <r>    2.4356    1.0000 </r>
       <r>    2.4370    1.0000 </r>
       <r>    2.4615    1.0000 </r>
       <r>    2.5374    1.0000 </r>
       <r>    2.6830    1.0000 </r>
       <r>    2.7226    1.0000 </r>
       <r>    2.7255    1.0000 </r>
       <r>    2.8108    1.0000 </r>
       <r>    2.9674    1.0000 </r>
       <r>    3.0634    1.0000 </r>
       <r>    3.1075    1.0000 </r>
       <r>    3.1120    1.0000 </r>
       <r>    3.3676    1.0000 </r>
       <r>    3.4666    1.0000 </r>
       <r>    3.4950    1.0000 </r>
       <r>    3.5284    1.0000 </r>
       <r>    3.5468    1.0000 </r>
       <r>    3.8484    1.0000 </r>
       <r>    3.9029    1.0000 </r>
       <r>    4.1306    1.0000 </r>
       <r>    4.1451    1.0000 </r>
       <r>    4.2098    1.0000 </r>
       <r>    4.3636    1.0000 </r>
       <r>    4.4092    1.0000 </r>
       <r>    4.5568    1.0000 </r>
       <r>    4.6165    1.0000 </r>
       <r>    4.8058    1.0000 </r>
       <r>    5.1692    1.0000 </r>
       <r>    5.3054    1.0000 </r>
       <r>    5.5459    1.0000 </r>
       <r>    5.8291    1.0000 </r>
       <r>    6.5087    1.0000 </r>
       <r>    7.3069    1.0036 </r>
       <r>   12.3148    0.0000 </r>
       <r>   12.4793    0.0000 </r>
       <r>   13.9380    0.0000 </r>
       <r>   14.2210    0.0000 </r>
       <r>   14.9337    0.0000 </r>
       <r>   15.3397    0.0000 </r>
      </set>
      <set comment="kpoint 900">
       <r>    2.1031    1.0000 </r>
       <r>    2.5104    1.0000 </r>
       <r>    2.5118    1.0000 </r>
       <r>    2.5332    1.0000 </r>
       <r>    2.5881    1.0000 </r>
       <r>    2.6580    1.0000 </r>
       <r>    2.8651    1.0000 </r>
       <r>    2.9294    1.0000 </r>
       <r>    2.9489    1.0000 </r>
       <r>    2.9527    1.0000 </r>
       <r>    3.0693    1.0000 </r>
       <r>    3.0867    1.0000 </r>
       <r>    3.2138    1.0000 </r>
       <r>    3.2208    1.0000 </r>
       <r>    3.2591    1.0000 </r>
       <r>    3.3405    1.0000 </r>
       <r>    3.4007    1.0000 </r>
       <r>    3.4403    1.0000 </r>
       <r>    3.9293    1.0000 </r>
       <r>    4.0113    1.0000 </r>
       <r>    4.0549    1.0000 </r>
       <r>    4.1270    1.0000 </r>
       <r>    4.2637    1.0000 </r>
       <r>    4.3025    1.0000 </r>
       <r>    4.3709    1.0000 </r>
       <r>    4.4327    1.0000 </r>
       <r>    4.5568    1.0000 </r>
       <r>    4.6791    1.0000 </r>
       <r>    5.1694    1.0000 </r>
       <r>    5.5447    1.0000 </r>
       <r>    5.5966    1.0000 </r>
       <r>    5.9986    1.0000 </r>
       <r>    6.2191    1.0000 </r>
       <r>    6.7718    1.0000 </r>
       <r>   12.8202    0.0000 </r>
       <r>   13.0850    0.0000 </r>
       <r>   13.5860    0.0000 </r>
       <r>   13.7141    0.0000 </r>
       <r>   14.8442    0.0000 </r>
       <r>   15.2854    0.0000 </r>
      </set>
     </set>
    </set>
   </array>
  </eigenvalues>
  <separator name="orbital magnetization" >
   <v name="MAGDIPOLOUT">      0.00000000      0.00000000      0.00000000</v>
  </separator>
  <dos>
   <i name="efermi">      7.97469130 </i>
   <total>
    <array>
     <dimension dim="1">gridpoints</dimension>
     <dimension dim="2">spin</dimension>
     <field>energy</field>
     <field>total</field>
     <field>integrated</field>
     <set>
      <set comment="spin 1">
       <r>    -2.8697     0.0000     0.0000 </r>
       <r>    -2.7934     0.0000     0.0000 </r>
       <r>    -2.7171     0.0000     0.0000 </r>
       <r>    -2.6407     0.0000     0.0000 </r>
       <r>    -2.5644     0.0000     0.0000 </r>
       <r>    -2.4881     0.0000     0.0000 </r>
       <r>    -2.4118     0.0000     0.0000 </r>
       <r>    -2.3355     0.0000     0.0000 </r>
       <r>    -2.2591     0.0000     0.0000 </r>
       <r>    -2.1828     0.0000     0.0000 </r>
       <r>    -2.1065     0.0000     0.0000 </r>
       <r>    -2.0302     0.0000     0.0000 </r>
       <r>    -1.9539     0.0000     0.0000 </r>
       <r>    -1.8775     0.0000     0.0000 </r>
       <r>    -1.8012     0.0000     0.0000 </r>
       <r>    -1.7249     0.0000     0.0000 </r>
       <r>    -1.6486     0.0000     0.0000 </r>
       <r>    -1.5722     0.0000     0.0000 </r>
       <r>    -1.4959     0.0000     0.0000 </r>
       <r>    -1.4196     0.0000     0.0000 </r>
       <r>    -1.3433     0.0000     0.0000 </r>
       <r>    -1.2670     0.0000     0.0000 </r>
       <r>    -1.1906     0.0000     0.0000 </r>
       <r>    -1.1143     0.0000     0.0000 </r>
       <r>    -1.0380     0.0000     0.0000 </r>
       <r>    -0.9617     0.0000     0.0000 </r>
       <r>    -0.8854     0.0000     0.0000 </r>
       <r>    -0.8090     0.0000     0.0000 </r>
       <r>    -0.7327     0.0000     0.0000 </r>
       <r>    -0.6564     0.0000     0.0000 </r>
       <r>    -0.5801    -0.0002     0.0000 </r>
       <r>    -0.5037    -0.0005    -0.0001 </r>
       <r>    -0.4274    -0.0013    -0.0002 </r>
       <r>    -0.3511    -0.0029    -0.0004 </r>
       <r>    -0.2748    -0.0055    -0.0008 </r>
       <r>    -0.1985    -0.0083    -0.0014 </r>
       <r>    -0.1221    -0.0092    -0.0021 </r>
       <r>    -0.0458    -0.0039    -0.0024 </r>
       <r>     0.0305     0.0131    -0.0014 </r>
       <r>     0.1068     0.0458     0.0021 </r>
       <r>     0.1832     0.0948     0.0093 </r>
       <r>     0.2595     0.1562     0.0212 </r>
       <r>     0.3358     0.2229     0.0382 </r>
       <r>     0.4121     0.2885     0.0603 </r>
       <r>     0.4884     0.3493     0.0869 </r>
       <r>     0.5648     0.4057     0.1179 </r>
       <r>     0.6411     0.4601     0.1530 </r>
       <r>     0.7174     0.5151     0.1923 </r>
       <r>     0.7937     0.5716     0.2359 </r>
       <r>     0.8700     0.6275     0.2838 </r>
       <r>     0.9464     0.6783     0.3356 </r>
       <r>     1.0227     0.7183     0.3904 </r>
       <r>     1.0990     0.7435     0.4472 </r>
       <r>     1.1753     0.7551     0.5048 </r>
       <r>     1.2517     0.7646     0.5631 </r>
       <r>     1.3280     0.7992     0.6241 </r>
       <r>     1.4043     0.9034     0.6931 </r>
       <r>     1.4806     1.1317     0.7795 </r>
       <r>     1.5569     1.5351     0.8966 </r>
       <r>     1.6333     2.1541     1.0610 </r>
       <r>     1.7096     3.0256     1.2919 </r>
       <r>     1.7859     4.1991     1.6124 </r>
       <r>     1.8622     5.7388     2.0504 </r>
       <r>     1.9385     7.6951     2.6377 </r>
       <r>     2.0149    10.0502     3.4048 </r>
       <r>     2.0912    12.6588     4.3709 </r>
       <r>     2.1675    15.2233     5.5328 </r>
       <r>     2.2438    17.3403     6.8562 </r>
       <r>     2.3202    18.6288     8.2780 </r>
       <r>     2.3965    18.8890     9.7196 </r>
       <r>     2.4728    18.2010    11.1087 </r>
       <r>     2.5491    16.9068    12.3991 </r>
       <r>     2.6254    15.4857    13.5810 </r>
       <r>     2.7018    14.3879    14.6791 </r>
       <r>     2.7781    13.8867    15.7390 </r>
       <r>     2.8544    14.0004    16.8075 </r>
       <r>     2.9307    14.5196    17.9156 </r>
       <r>     3.0070    15.1452    19.0715 </r>
       <r>     3.0834    15.6756    20.2679 </r>
       <r>     3.1597    16.1417    21.4999 </r>
       <r>     3.2360    16.7938    22.7816 </r>
       <r>     3.3123    17.9185    24.1492 </r>
       <r>     3.3887    19.5747    25.6432 </r>
       <r>     3.4650    21.4217    27.2781 </r>
       <r>     3.5413    22.8057    29.0187 </r>
       <r>     3.6176    23.1130    30.7827 </r>
       <r>     3.6939    22.1710    32.4748 </r>
       <r>     3.7703    20.3919    34.0311 </r>
       <r>     3.8466    18.5352    35.4458 </r>
       <r>     3.9229    17.2693    36.7638 </r>
       <r>     3.9992    16.8526    38.0500 </r>
       <r>     4.0755    17.1090    39.3558 </r>
       <r>     4.1519    17.6309    40.7014 </r>
       <r>     4.2282    18.0229    42.0770 </r>
       <r>     4.3045    18.0514    43.4547 </r>
       <r>     4.3808    17.6778    44.8039 </r>
       <r>     4.4572    17.0168    46.1026 </r>
       <r>     4.5335    16.2678    47.3442 </r>
       <r>     4.6098    15.6502    48.5386 </r>
       <r>     4.6861    15.3544    49.7105 </r>
       <r>     4.7624    15.5047    50.8938 </r>
       <r>     4.8388    16.1198    52.1241 </r>
       <r>     4.9151    17.0658    53.4266 </r>
       <r>     4.9914    18.0353    54.8031 </r>
       <r>     5.0677    18.6006    56.2227 </r>
       <r>     5.1441    18.3526    57.6234 </r>
       <r>     5.2204    17.0681    58.9261 </r>
       <r>     5.2967    14.8140    60.0567 </r>
       <r>     5.3730    11.9291    60.9672 </r>
       <r>     5.4493     8.8951    61.6461 </r>
       <r>     5.5257     6.1668    62.1167 </r>
       <r>     5.6020     4.0408    62.4251 </r>
       <r>     5.6783     2.6082    62.6242 </r>
       <r>     5.7546     1.7877    62.7606 </r>
       <r>     5.8309     1.4055    62.8679 </r>
       <r>     5.9073     1.2777    62.9654 </r>
       <r>     5.9836     1.2648    63.0619 </r>
       <r>     6.0599     1.2873    63.1602 </r>
       <r>     6.1362     1.3137    63.2605 </r>
       <r>     6.2126     1.3378    63.3626 </r>
       <r>     6.2889     1.3619    63.4665 </r>
       <r>     6.3652     1.3874    63.5724 </r>
       <r>     6.4415     1.4113    63.6801 </r>
       <r>     6.5178     1.4282    63.7891 </r>
       <r>     6.5942     1.4343    63.8986 </r>
       <r>     6.6705     1.4308    64.0078 </r>
       <r>     6.7468     1.4230    64.1164 </r>
       <r>     6.8231     1.4161    64.2245 </r>
       <r>     6.8994     1.4133    64.3323 </r>
       <r>     6.9758     1.4182    64.4406 </r>
       <r>     7.0521     1.4359    64.5501 </r>
       <r>     7.1284     1.4682    64.6622 </r>
       <r>     7.2047     1.5077    64.7773 </r>
       <r>     7.2811     1.5384    64.8947 </r>
       <r>     7.3574     1.5477    65.0128 </r>
       <r>     7.4337     1.5388    65.1302 </r>
       <r>     7.5100     1.5306    65.2471 </r>
       <r>     7.5863     1.5430    65.3648 </r>
       <r>     7.6627     1.5801    65.4854 </r>
       <r>     7.7390     1.6268    65.6096 </r>
       <r>     7.8153     1.6598    65.7363 </r>
       <r>     7.8916     1.6649    65.8633 </r>
       <r>     7.9679     1.6465    65.9890 </r>
       <r>     8.0443     1.6227    66.1128 </r>
       <r>     8.1206     1.6125    66.2359 </r>
       <r>     8.1969     1.6232    66.3598 </r>
       <r>     8.2732     1.6464    66.4854 </r>
       <r>     8.3496     1.6641    66.6125 </r>
       <r>     8.4259     1.6605    66.7392 </r>
       <r>     8.5022     1.6331    66.8638 </r>
       <r>     8.5785     1.5964    66.9857 </r>
       <r>     8.6548     1.5730    67.1057 </r>
       <r>     8.7312     1.5775    67.2261 </r>
       <r>     8.8075     1.6045    67.3486 </r>
       <r>     8.8838     1.6311    67.4731 </r>
       <r>     8.9601     1.6343    67.5978 </r>
       <r>     9.0364     1.6094    67.7206 </r>
       <r>     9.1128     1.5732    67.8407 </r>
       <r>     9.1891     1.5513    67.9591 </r>
       <r>     9.2654     1.5590    68.0781 </r>
       <r>     9.3417     1.5919    68.1996 </r>
       <r>     9.4181     1.6290    68.3239 </r>
       <r>     9.4944     1.6456    68.4495 </r>
       <r>     9.5707     1.6294    68.5738 </r>
       <r>     9.6470     1.5875    68.6950 </r>
       <r>     9.7233     1.5424    68.8127 </r>
       <r>     9.7997     1.5165    68.9285 </r>
       <r>     9.8760     1.5182    69.0443 </r>
       <r>     9.9523     1.5379    69.1617 </r>
       <r>    10.0286     1.5552    69.2804 </r>
       <r>    10.1049     1.5513    69.3988 </r>
       <r>    10.1813     1.5185    69.5147 </r>
       <r>    10.2576     1.4628    69.6263 </r>
       <r>    10.3339     1.4006    69.7332 </r>
       <r>    10.4102     1.3515    69.8364 </r>
       <r>    10.4866     1.3301    69.9379 </r>
       <r>    10.5629     1.3403    70.0402 </r>
       <r>    10.6392     1.3735    70.1450 </r>
       <r>    10.7155     1.4131    70.2529 </r>
       <r>    10.7918     1.4438    70.3631 </r>
       <r>    10.8682     1.4597    70.4745 </r>
       <r>    10.9445     1.4681    70.5865 </r>
       <r>    11.0208     1.4834    70.6997 </r>
       <r>    11.0971     1.5163    70.8155 </r>
       <r>    11.1735     1.5641    70.9348 </r>
       <r>    11.2498     1.6103    71.0577 </r>
       <r>    11.3261     1.6358    71.1826 </r>
       <r>    11.4024     1.6349    71.3074 </r>
       <r>    11.4787     1.6231    71.4312 </r>
       <r>    11.5551     1.6294    71.5556 </r>
       <r>    11.6314     1.6756    71.6835 </r>
       <r>    11.7077     1.7591    71.8177 </r>
       <r>    11.7840     1.8542    71.9592 </r>
       <r>    11.8603     1.9301    72.1066 </r>
       <r>    11.9367     1.9705    72.2569 </r>
       <r>    12.0130     1.9798    72.4080 </r>
       <r>    12.0893     1.9748    72.5588 </r>
       <r>    12.1656     1.9702    72.7091 </r>
       <r>    12.2420     1.9701    72.8595 </r>
       <r>    12.3183     1.9692    73.0098 </r>
       <r>    12.3946     1.9603    73.1594 </r>
       <r>    12.4709     1.9402    73.3075 </r>
       <r>    12.5472     1.9107    73.4533 </r>
       <r>    12.6236     1.8761    73.5965 </r>
       <r>    12.6999     1.8417    73.7371 </r>
       <r>    12.7762     1.8137    73.8755 </r>
       <r>    12.8525     1.7971    74.0126 </r>
       <r>    12.9288     1.7932    74.1495 </r>
       <r>    13.0052     1.7972    74.2867 </r>
       <r>    13.0815     1.8010    74.4241 </r>
       <r>    13.1578     1.7986    74.5614 </r>
       <r>    13.2341     1.7908    74.6981 </r>
       <r>    13.3105     1.7853    74.8343 </r>
       <r>    13.3868     1.7901    74.9710 </r>
       <r>    13.4631     1.8059    75.1088 </r>
       <r>    13.5394     1.8245    75.2480 </r>
       <r>    13.6157     1.8357    75.3881 </r>
       <r>    13.6921     1.8378    75.5284 </r>
       <r>    13.7684     1.8398    75.6688 </r>
       <r>    13.8447     1.8534    75.8103 </r>
       <r>    13.9210     1.8834    75.9540 </r>
       <r>    13.9973     1.9258    76.1010 </r>
       <r>    14.0737     1.9717    76.2515 </r>
       <r>    14.1500     2.0102    76.4049 </r>
       <r>    14.2263     2.0285    76.5597 </r>
       <r>    14.3026     2.0148    76.7135 </r>
       <r>    14.3790     1.9660    76.8635 </r>
       <r>    14.4553     1.8946    77.0081 </r>
       <r>    14.5316     1.8275    77.1476 </r>
       <r>    14.6079     1.7953    77.2846 </r>
       <r>    14.6842     1.8154    77.4232 </r>
       <r>    14.7606     1.8806    77.5667 </r>
       <r>    14.8369     1.9622    77.7165 </r>
       <r>    14.9132     2.0293    77.8714 </r>
       <r>    14.9895     2.0698    78.0293 </r>
       <r>    15.0658     2.0954    78.1892 </r>
       <r>    15.1422     2.1249    78.3514 </r>
       <r>    15.2185     2.1601    78.5163 </r>
       <r>    15.2948     2.1770    78.6824 </r>
       <r>    15.3711     2.1397    78.8457 </r>
       <r>    15.4475     2.0268    79.0004 </r>
       <r>    15.5238     1.8470    79.1414 </r>
       <r>    15.6001     1.6359    79.2663 </r>
       <r>    15.6764     1.4356    79.3758 </r>
       <r>    15.7527     1.2742    79.4731 </r>
       <r>    15.8291     1.1556    79.5613 </r>
       <r>    15.9054     1.0636    79.6424 </r>
       <r>    15.9817     0.9752    79.7169 </r>
       <r>    16.0580     0.8726    79.7835 </r>
       <r>    16.1343     0.7502    79.8407 </r>
       <r>    16.2107     0.6130    79.8875 </r>
       <r>    16.2870     0.4722    79.9235 </r>
       <r>    16.3633     0.3410    79.9496 </r>
       <r>    16.4396     0.2301    79.9671 </r>
       <r>    16.5160     0.1457    79.9782 </r>
       <r>    16.5923     0.0881    79.9850 </r>
       <r>    16.6686     0.0533    79.9890 </r>
       <r>    16.7449     0.0351    79.9917 </r>
       <r>    16.8212     0.0271    79.9938 </r>
       <r>    16.8976     0.0239    79.9956 </r>
       <r>    16.9739     0.0215    79.9973 </r>
       <r>    17.0502     0.0178    79.9986 </r>
       <r>    17.1265     0.0126    79.9996 </r>
       <r>    17.2029     0.0070    80.0001 </r>
       <r>    17.2792     0.0025    80.0003 </r>
       <r>    17.3555    -0.0001    80.0003 </r>
       <r>    17.4318    -0.0012    80.0002 </r>
       <r>    17.5081    -0.0012    80.0001 </r>
       <r>    17.5845    -0.0008    80.0001 </r>
       <r>    17.6608    -0.0004    80.0000 </r>
       <r>    17.7371    -0.0002    80.0000 </r>
       <r>    17.8134    -0.0001    80.0000 </r>
       <r>    17.8897     0.0000    80.0000 </r>
       <r>    17.9661     0.0000    80.0000 </r>
       <r>    18.0424     0.0000    80.0000 </r>
       <r>    18.1187     0.0000    80.0000 </r>
       <r>    18.1950     0.0000    80.0000 </r>
       <r>    18.2714     0.0000    80.0000 </r>
       <r>    18.3477     0.0000    80.0000 </r>
       <r>    18.4240     0.0000    80.0000 </r>
       <r>    18.5003     0.0000    80.0000 </r>
       <r>    18.5766     0.0000    80.0000 </r>
       <r>    18.6530     0.0000    80.0000 </r>
       <r>    18.7293     0.0000    80.0000 </r>
       <r>    18.8056     0.0000    80.0000 </r>
       <r>    18.8819     0.0000    80.0000 </r>
       <r>    18.9582     0.0000    80.0000 </r>
       <r>    19.0346     0.0000    80.0000 </r>
       <r>    19.1109     0.0000    80.0000 </r>
       <r>    19.1872     0.0000    80.0000 </r>
       <r>    19.2635     0.0000    80.0000 </r>
       <r>    19.3399     0.0000    80.0000 </r>
       <r>    19.4162     0.0000    80.0000 </r>
       <r>    19.4925     0.0000    80.0000 </r>
       <r>    19.5688     0.0000    80.0000 </r>
       <r>    19.6451     0.0000    80.0000 </r>
       <r>    19.7215     0.0000    80.0000 </r>
       <r>    19.7978     0.0000    80.0000 </r>
       <r>    19.8741     0.0000    80.0000 </r>
       <r>    19.9504     0.0000    80.0000 </r>
       <r>    20.0267     0.0000    80.0000 </r>
      </set>
     </set>
    </array>
   </total>
  </dos>
 </calculation>
 <structure name="finalpos" >
  <crystal>
   <varray name="basis" >
    <v>       4.14740328       0.00000000       0.00000000 </v>
    <v>       0.00000000       0.00000000      -4.14738252 </v>
    <v>       0.00000000       6.22188824       2.07369126 </v>
   </varray>
   <i name="volume">    107.02187770 </i>
   <varray name="rec_basis" >
    <v>       0.24111472       0.00000000       0.00000000 </v>
    <v>       0.00000000       0.08036146      -0.24111593 </v>
    <v>       0.00000000       0.16072291       0.00000000 </v>
   </varray>
  </crystal>
  <varray name="positions" >
   <v>       0.50000000       0.16682704       0.33365408 </v>
   <v>       0.00000000       0.33314731       0.66629461 </v>
   <v>       0.50000000       0.50000000       0.00000000 </v>
   <v>       0.00000000       0.66685269       0.33370539 </v>
   <v>       0.50000000       0.83317296       0.66634592 </v>
   <v>       0.00000000       0.00000000       0.00000000 </v>
  </varray>
 </structure>
</modeling>
