<?xml version="1.0" encoding="ISO-8859-1"?>
<modeling>
 <generator>
  <i name="program" type="string">vasp </i>
  <i name="version" type="string">5.3.5  </i>
  <i name="subversion" type="string">31Mar14 (build Jun 20 2014 13:15:13) complex                          parallel </i>
  <i name="platform" type="string">LinuxIFC </i>
  <i name="date" type="string">2025 11 29 </i>
  <i name="time" type="string">08:42:47 </i>
 </generator>
 <incar>
  <i type="string" name="PREC">accurate</i>
  <i type="int" name="IALGO">    68</i>
  <i type="logical" name="ADDGRID"> T  </i>
  <i type="int" name="NELM">   200</i>
  <i type="int" name="NELMIN">     4</i>
  <i type="int" name="IBRION">     2</i>
  <i name="EDIFF">      0.00000100</i>
  <i name="EDIFFG">     -0.02000000</i>
  <i type="int" name="NSW">    30</i>
  <i type="int" name="ISIF">     3</i>
  <i name="ENCUT">    500.00000000</i>
  <i type="logical" name="LREAL"> F  </i>
  <i type="int" name="ISMEAR">     1</i>
  <i name="SIGMA">      0.30000000</i>
  <i type="logical" name="LWAVE"> F  </i>
  <i type="logical" name="LCHARG"> F  </i>
  <i type="int" name="NELM">   200</i>
 </incar>
 <kpoints>
  <generation param="Auto">
   <i name="subdivisionlength">     70.00000000 </i>
   <v type="int" name="divisions">      18       18       12 </v>
   <v name="usershift">      0.00000000       0.00000000       0.00000000 </v>
   <v name="genvec1">      0.05555556       0.00000000       0.00000000 </v>
   <v name="genvec2">      0.00000000       0.05555556       0.00000000 </v>
   <v name="genvec3">      0.00000000       0.00000000       0.08333333 </v>
   <v name="shift">      0.00000000       0.00000000       0.00000000 </v>
  </generation>
  <varray name="kpointlist" >
   <v>       0.00000000       0.00000000       0.00000000 </v>
   <v>       0.05555556       0.00000000       0.00000000 </v>
   <v>       0.11111111       0.00000000       0.00000000 </v>
   <v>       0.16666667       0.00000000       0.00000000 </v>
   <v>       0.22222222       0.00000000       0.00000000 </v>
   <v>       0.27777778       0.00000000       0.00000000 </v>
   <v>       0.33333333       0.00000000       0.00000000 </v>
   <v>       0.38888889       0.00000000       0.00000000 </v>
   <v>       0.44444444       0.00000000       0.00000000 </v>
   <v>       0.50000000       0.00000000       0.00000000 </v>
   <v>       0.00000000       0.05555556       0.00000000 </v>
   <v>       0.05555556       0.05555556       0.00000000 </v>
   <v>       0.11111111       0.05555556       0.00000000 </v>
   <v>       0.16666667       0.05555556       0.00000000 </v>
   <v>       0.22222222       0.05555556       0.00000000 </v>
   <v>       0.27777778       0.05555556       0.00000000 </v>
   <v>       0.33333333       0.05555556       0.00000000 </v>
   <v>       0.38888889       0.05555556       0.00000000 </v>
   <v>       0.44444444       0.05555556       0.00000000 </v>
   <v>       0.50000000       0.05555556       0.00000000 </v>
   <v>       0.00000000       0.11111111       0.00000000 </v>
   <v>       0.05555556       0.11111111       0.00000000 </v>
   <v>       0.11111111       0.11111111       0.00000000 </v>
   <v>       0.16666667       0.11111111       0.00000000 </v>
   <v>       0.22222222       0.11111111       0.00000000 </v>
   <v>       0.27777778       0.11111111       0.00000000 </v>
   <v>       0.33333333       0.11111111       0.00000000 </v>
   <v>       0.38888889       0.11111111       0.00000000 </v>
   <v>       0.44444444       0.11111111       0.00000000 </v>
   <v>       0.50000000       0.11111111       0.00000000 </v>
   <v>       0.00000000       0.16666667       0.00000000 </v>
   <v>       0.05555556       0.16666667       0.00000000 </v>
   <v>       0.11111111       0.16666667       0.00000000 </v>
   <v>       0.16666667       0.16666667       0.00000000 </v>
   <v>       0.22222222       0.16666667       0.00000000 </v>
   <v>       0.27777778       0.16666667       0.00000000 </v>
   <v>       0.33333333       0.16666667       0.00000000 </v>
   <v>       0.38888889       0.16666667       0.00000000 </v>
   <v>       0.44444444       0.16666667       0.00000000 </v>
   <v>       0.50000000       0.16666667       0.00000000 </v>
   <v>       0.00000000       0.22222222       0.00000000 </v>
   <v>       0.05555556       0.22222222       0.00000000 </v>
   <v>       0.11111111       0.22222222       0.00000000 </v>
   <v>       0.16666667       0.22222222       0.00000000 </v>
   <v>       0.22222222       0.22222222       0.00000000 </v>
   <v>       0.27777778       0.22222222       0.00000000 </v>
   <v>       0.33333333       0.22222222       0.00000000 </v>
   <v>       0.38888889       0.22222222       0.00000000 </v>
   <v>       0.44444444       0.22222222       0.00000000 </v>
   <v>       0.50000000       0.22222222       0.00000000 </v>
   <v>       0.00000000       0.27777778       0.00000000 </v>
   <v>       0.05555556       0.27777778       0.00000000 </v>
   <v>       0.11111111       0.27777778       0.00000000 </v>
   <v>       0.16666667       0.27777778       0.00000000 </v>
   <v>       0.22222222       0.27777778       0.00000000 </v>
   <v>       0.27777778       0.27777778       0.00000000 </v>
   <v>       0.33333333       0.27777778       0.00000000 </v>
   <v>       0.38888889       0.27777778       0.00000000 </v>
   <v>       0.44444444       0.27777778       0.00000000 </v>
   <v>       0.50000000       0.27777778       0.00000000 </v>
   <v>       0.00000000       0.33333333       0.00000000 </v>
   <v>       0.05555556       0.33333333       0.00000000 </v>
   <v>       0.11111111       0.33333333       0.00000000 </v>
   <v>       0.16666667       0.33333333       0.00000000 </v>
   <v>       0.22222222       0.33333333       0.00000000 </v>
   <v>       0.27777778       0.33333333       0.00000000 </v>
   <v>       0.33333333       0.33333333       0.00000000 </v>
   <v>       0.38888889       0.33333333       0.00000000 </v>
   <v>       0.44444444       0.33333333       0.00000000 </v>
   <v>       0.50000000       0.33333333       0.00000000 </v>
   <v>       0.00000000       0.38888889       0.00000000 </v>
   <v>       0.05555556       0.38888889       0.00000000 </v>
   <v>       0.11111111       0.38888889       0.00000000 </v>
   <v>       0.16666667       0.38888889       0.00000000 </v>
   <v>       0.22222222       0.38888889       0.00000000 </v>
   <v>       0.27777778       0.38888889       0.00000000 </v>
   <v>       0.33333333       0.38888889       0.00000000 </v>
   <v>       0.38888889       0.38888889       0.00000000 </v>
   <v>       0.44444444       0.38888889       0.00000000 </v>
   <v>       0.50000000       0.38888889       0.00000000 </v>
   <v>       0.00000000       0.44444444       0.00000000 </v>
   <v>       0.05555556       0.44444444       0.00000000 </v>
   <v>       0.11111111       0.44444444       0.00000000 </v>
   <v>       0.16666667       0.44444444       0.00000000 </v>
   <v>       0.22222222       0.44444444       0.00000000 </v>
   <v>       0.27777778       0.44444444       0.00000000 </v>
   <v>       0.33333333       0.44444444       0.00000000 </v>
   <v>       0.38888889       0.44444444       0.00000000 </v>
   <v>       0.44444444       0.44444444       0.00000000 </v>
   <v>       0.50000000       0.44444444       0.00000000 </v>
   <v>       0.00000000       0.50000000       0.00000000 </v>
   <v>       0.05555556       0.50000000       0.00000000 </v>
   <v>       0.11111111       0.50000000       0.00000000 </v>
   <v>       0.16666667       0.50000000       0.00000000 </v>
   <v>       0.22222222       0.50000000       0.00000000 </v>
   <v>       0.27777778       0.50000000       0.00000000 </v>
   <v>       0.33333333       0.50000000       0.00000000 </v>
   <v>       0.38888889       0.50000000       0.00000000 </v>
   <v>       0.44444444       0.50000000       0.00000000 </v>
   <v>       0.50000000       0.50000000       0.00000000 </v>
   <v>       0.00000000       0.00000000       0.08333333 </v>
   <v>       0.05555556       0.00000000       0.08333333 </v>
   <v>       0.11111111       0.00000000       0.08333333 </v>
   <v>       0.16666667       0.00000000       0.08333333 </v>
   <v>       0.22222222       0.00000000       0.08333333 </v>
   <v>       0.27777778       0.00000000       0.08333333 </v>
   <v>       0.33333333       0.00000000       0.08333333 </v>
   <v>       0.38888889       0.00000000       0.08333333 </v>
   <v>       0.44444444       0.00000000       0.08333333 </v>
   <v>       0.50000000       0.00000000       0.08333333 </v>
   <v>       0.00000000       0.05555556       0.08333333 </v>
   <v>       0.05555556       0.05555556       0.08333333 </v>
   <v>       0.11111111       0.05555556       0.08333333 </v>
   <v>       0.16666667       0.05555556       0.08333333 </v>
   <v>       0.22222222       0.05555556       0.08333333 </v>
   <v>       0.27777778       0.05555556       0.08333333 </v>
   <v>       0.33333333       0.05555556       0.08333333 </v>
   <v>       0.38888889       0.05555556       0.08333333 </v>
   <v>       0.44444444       0.05555556       0.08333333 </v>
   <v>       0.50000000       0.05555556       0.08333333 </v>
   <v>       0.00000000       0.11111111       0.08333333 </v>
   <v>       0.05555556       0.11111111       0.08333333 </v>
   <v>       0.11111111       0.11111111       0.08333333 </v>
   <v>       0.16666667       0.11111111       0.08333333 </v>
   <v>       0.22222222       0.11111111       0.08333333 </v>
   <v>       0.27777778       0.11111111       0.08333333 </v>
   <v>       0.33333333       0.11111111       0.08333333 </v>
   <v>       0.38888889       0.11111111       0.08333333 </v>
   <v>       0.44444444       0.11111111       0.08333333 </v>
   <v>       0.50000000       0.11111111       0.08333333 </v>
   <v>       0.00000000       0.16666667       0.08333333 </v>
   <v>       0.05555556       0.16666667       0.08333333 </v>
   <v>       0.11111111       0.16666667       0.08333333 </v>
   <v>       0.16666667       0.16666667       0.08333333 </v>
   <v>       0.22222222       0.16666667       0.08333333 </v>
   <v>       0.27777778       0.16666667       0.08333333 </v>
   <v>       0.33333333       0.16666667       0.08333333 </v>
   <v>       0.38888889       0.16666667       0.08333333 </v>
   <v>       0.44444444       0.16666667       0.08333333 </v>
   <v>       0.50000000       0.16666667       0.08333333 </v>
   <v>       0.00000000       0.22222222       0.08333333 </v>
   <v>       0.05555556       0.22222222       0.08333333 </v>
   <v>       0.11111111       0.22222222       0.08333333 </v>
   <v>       0.16666667       0.22222222       0.08333333 </v>
   <v>       0.22222222       0.22222222       0.08333333 </v>
   <v>       0.27777778       0.22222222       0.08333333 </v>
   <v>       0.33333333       0.22222222       0.08333333 </v>
   <v>       0.38888889       0.22222222       0.08333333 </v>
   <v>       0.44444444       0.22222222       0.08333333 </v>
   <v>       0.50000000       0.22222222       0.08333333 </v>
   <v>       0.00000000       0.27777778       0.08333333 </v>
   <v>       0.05555556       0.27777778       0.08333333 </v>
   <v>       0.11111111       0.27777778       0.08333333 </v>
   <v>       0.16666667       0.27777778       0.08333333 </v>
   <v>       0.22222222       0.27777778       0.08333333 </v>
   <v>       0.27777778       0.27777778       0.08333333 </v>
   <v>       0.33333333       0.27777778       0.08333333 </v>
   <v>       0.38888889       0.27777778       0.08333333 </v>
   <v>       0.44444444       0.27777778       0.08333333 </v>
   <v>       0.50000000       0.27777778       0.08333333 </v>
   <v>       0.00000000       0.33333333       0.08333333 </v>
   <v>       0.05555556       0.33333333       0.08333333 </v>
   <v>       0.11111111       0.33333333       0.08333333 </v>
   <v>       0.16666667       0.33333333       0.08333333 </v>
   <v>       0.22222222       0.33333333       0.08333333 </v>
   <v>       0.27777778       0.33333333       0.08333333 </v>
   <v>       0.33333333       0.33333333       0.08333333 </v>
   <v>       0.38888889       0.33333333       0.08333333 </v>
   <v>       0.44444444       0.33333333       0.08333333 </v>
   <v>       0.50000000       0.33333333       0.08333333 </v>
   <v>       0.00000000       0.38888889       0.08333333 </v>
   <v>       0.05555556       0.38888889       0.08333333 </v>
   <v>       0.11111111       0.38888889       0.08333333 </v>
   <v>       0.16666667       0.38888889       0.08333333 </v>
   <v>       0.22222222       0.38888889       0.08333333 </v>
   <v>       0.27777778       0.38888889       0.08333333 </v>
   <v>       0.33333333       0.38888889       0.08333333 </v>
   <v>       0.38888889       0.38888889       0.08333333 </v>
   <v>       0.44444444       0.38888889       0.08333333 </v>
   <v>       0.50000000       0.38888889       0.08333333 </v>
   <v>       0.00000000       0.44444444       0.08333333 </v>
   <v>       0.05555556       0.44444444       0.08333333 </v>
   <v>       0.11111111       0.44444444       0.08333333 </v>
   <v>       0.16666667       0.44444444       0.08333333 </v>
   <v>       0.22222222       0.44444444       0.08333333 </v>
   <v>       0.27777778       0.44444444       0.08333333 </v>
   <v>       0.33333333       0.44444444       0.08333333 </v>
   <v>       0.38888889       0.44444444       0.08333333 </v>
   <v>       0.44444444       0.44444444       0.08333333 </v>
   <v>       0.50000000       0.44444444       0.08333333 </v>
   <v>       0.00000000       0.50000000       0.08333333 </v>
   <v>       0.05555556       0.50000000       0.08333333 </v>
   <v>       0.11111111       0.50000000       0.08333333 </v>
   <v>       0.16666667       0.50000000       0.08333333 </v>
   <v>       0.22222222       0.50000000       0.08333333 </v>
   <v>       0.27777778       0.50000000       0.08333333 </v>
   <v>       0.33333333       0.50000000       0.08333333 </v>
   <v>       0.38888889       0.50000000       0.08333333 </v>
   <v>       0.44444444       0.50000000       0.08333333 </v>
   <v>       0.50000000       0.50000000       0.08333333 </v>
   <v>       0.00000000      -0.44444444       0.08333333 </v>
   <v>       0.05555556      -0.44444444       0.08333333 </v>
   <v>       0.11111111      -0.44444444       0.08333333 </v>
   <v>       0.16666667      -0.44444444       0.08333333 </v>
   <v>       0.22222222      -0.44444444       0.08333333 </v>
   <v>       0.27777778      -0.44444444       0.08333333 </v>
   <v>       0.33333333      -0.44444444       0.08333333 </v>
   <v>       0.38888889      -0.44444444       0.08333333 </v>
   <v>       0.44444444      -0.44444444       0.08333333 </v>
   <v>       0.50000000      -0.44444444       0.08333333 </v>
   <v>       0.00000000      -0.38888889       0.08333333 </v>
   <v>       0.05555556      -0.38888889       0.08333333 </v>
   <v>       0.11111111      -0.38888889       0.08333333 </v>
   <v>       0.16666667      -0.38888889       0.08333333 </v>
   <v>       0.22222222      -0.38888889       0.08333333 </v>
   <v>       0.27777778      -0.38888889       0.08333333 </v>
   <v>       0.33333333      -0.38888889       0.08333333 </v>
   <v>       0.38888889      -0.38888889       0.08333333 </v>
   <v>       0.44444444      -0.38888889       0.08333333 </v>
   <v>       0.50000000      -0.38888889       0.08333333 </v>
   <v>       0.00000000      -0.33333333       0.08333333 </v>
   <v>       0.05555556      -0.33333333       0.08333333 </v>
   <v>       0.11111111      -0.33333333       0.08333333 </v>
   <v>       0.16666667      -0.33333333       0.08333333 </v>
   <v>       0.22222222      -0.33333333       0.08333333 </v>
   <v>       0.27777778      -0.33333333       0.08333333 </v>
   <v>       0.33333333      -0.33333333       0.08333333 </v>
   <v>       0.38888889      -0.33333333       0.08333333 </v>
   <v>       0.44444444      -0.33333333       0.08333333 </v>
   <v>       0.50000000      -0.33333333       0.08333333 </v>
   <v>       0.00000000      -0.27777778       0.08333333 </v>
   <v>       0.05555556      -0.27777778       0.08333333 </v>
   <v>       0.11111111      -0.27777778       0.08333333 </v>
   <v>       0.16666667      -0.27777778       0.08333333 </v>
   <v>       0.22222222      -0.27777778       0.08333333 </v>
   <v>       0.27777778      -0.27777778       0.08333333 </v>
   <v>       0.33333333      -0.27777778       0.08333333 </v>
   <v>       0.38888889      -0.27777778       0.08333333 </v>
   <v>       0.44444444      -0.27777778       0.08333333 </v>
   <v>       0.50000000      -0.27777778       0.08333333 </v>
   <v>       0.00000000      -0.22222222       0.08333333 </v>
   <v>       0.05555556      -0.22222222       0.08333333 </v>
   <v>       0.11111111      -0.22222222       0.08333333 </v>
   <v>       0.16666667      -0.22222222       0.08333333 </v>
   <v>       0.22222222      -0.22222222       0.08333333 </v>
   <v>       0.27777778      -0.22222222       0.08333333 </v>
   <v>       0.33333333      -0.22222222       0.08333333 </v>
   <v>       0.38888889      -0.22222222       0.08333333 </v>
   <v>       0.44444444      -0.22222222       0.08333333 </v>
   <v>       0.50000000      -0.22222222       0.08333333 </v>
   <v>       0.00000000      -0.16666667       0.08333333 </v>
   <v>       0.05555556      -0.16666667       0.08333333 </v>
   <v>       0.11111111      -0.16666667       0.08333333 </v>
   <v>       0.16666667      -0.16666667       0.08333333 </v>
   <v>       0.22222222      -0.16666667       0.08333333 </v>
   <v>       0.27777778      -0.16666667       0.08333333 </v>
   <v>       0.33333333      -0.16666667       0.08333333 </v>
   <v>       0.38888889      -0.16666667       0.08333333 </v>
   <v>       0.44444444      -0.16666667       0.08333333 </v>
   <v>       0.50000000      -0.16666667       0.08333333 </v>
   <v>       0.00000000      -0.11111111       0.08333333 </v>
   <v>       0.05555556      -0.11111111       0.08333333 </v>
   <v>       0.11111111      -0.11111111       0.08333333 </v>
   <v>       0.16666667      -0.11111111       0.08333333 </v>
   <v>       0.22222222      -0.11111111       0.08333333 </v>
   <v>       0.27777778      -0.11111111       0.08333333 </v>
   <v>       0.33333333      -0.11111111       0.08333333 </v>
   <v>       0.38888889      -0.11111111       0.08333333 </v>
   <v>       0.44444444      -0.11111111       0.08333333 </v>
   <v>       0.50000000      -0.11111111       0.08333333 </v>
   <v>       0.00000000      -0.05555556       0.08333333 </v>
   <v>       0.05555556      -0.05555556       0.08333333 </v>
   <v>       0.11111111      -0.05555556       0.08333333 </v>
   <v>       0.16666667      -0.05555556       0.08333333 </v>
   <v>       0.22222222      -0.05555556       0.08333333 </v>
   <v>       0.27777778      -0.05555556       0.08333333 </v>
   <v>       0.33333333      -0.05555556       0.08333333 </v>
   <v>       0.38888889      -0.05555556       0.08333333 </v>
   <v>       0.44444444      -0.05555556       0.08333333 </v>
   <v>       0.50000000      -0.05555556       0.08333333 </v>
   <v>       0.00000000       0.00000000       0.16666667 </v>
   <v>       0.05555556       0.00000000       0.16666667 </v>
   <v>       0.11111111       0.00000000       0.16666667 </v>
   <v>       0.16666667       0.00000000       0.16666667 </v>
   <v>       0.22222222       0.00000000       0.16666667 </v>
   <v>       0.27777778       0.00000000       0.16666667 </v>
   <v>       0.33333333       0.00000000       0.16666667 </v>
   <v>       0.38888889       0.00000000       0.16666667 </v>
   <v>       0.44444444       0.00000000       0.16666667 </v>
   <v>       0.50000000       0.00000000       0.16666667 </v>
   <v>       0.00000000       0.05555556       0.16666667 </v>
   <v>       0.05555556       0.05555556       0.16666667 </v>
   <v>       0.11111111       0.05555556       0.16666667 </v>
   <v>       0.16666667       0.05555556       0.16666667 </v>
   <v>       0.22222222       0.05555556       0.16666667 </v>
   <v>       0.27777778       0.05555556       0.16666667 </v>
   <v>       0.33333333       0.05555556       0.16666667 </v>
   <v>       0.38888889       0.05555556       0.16666667 </v>
   <v>       0.44444444       0.05555556       0.16666667 </v>
   <v>       0.50000000       0.05555556       0.16666667 </v>
   <v>       0.00000000       0.11111111       0.16666667 </v>
   <v>       0.05555556       0.11111111       0.16666667 </v>
   <v>       0.11111111       0.11111111       0.16666667 </v>
   <v>       0.16666667       0.11111111       0.16666667 </v>
   <v>       0.22222222       0.11111111       0.16666667 </v>
   <v>       0.27777778       0.11111111       0.16666667 </v>
   <v>       0.33333333       0.11111111       0.16666667 </v>
   <v>       0.38888889       0.11111111       0.16666667 </v>
   <v>       0.44444444       0.11111111       0.16666667 </v>
   <v>       0.50000000       0.11111111       0.16666667 </v>
   <v>       0.00000000       0.16666667       0.16666667 </v>
   <v>       0.05555556       0.16666667       0.16666667 </v>
   <v>       0.11111111       0.16666667       0.16666667 </v>
   <v>       0.16666667       0.16666667       0.16666667 </v>
   <v>       0.22222222       0.16666667       0.16666667 </v>
   <v>       0.27777778       0.16666667       0.16666667 </v>
   <v>       0.33333333       0.16666667       0.16666667 </v>
   <v>       0.38888889       0.16666667       0.16666667 </v>
   <v>       0.44444444       0.16666667       0.16666667 </v>
   <v>       0.50000000       0.16666667       0.16666667 </v>
   <v>       0.00000000       0.22222222       0.16666667 </v>
   <v>       0.05555556       0.22222222       0.16666667 </v>
   <v>       0.11111111       0.22222222       0.16666667 </v>
   <v>       0.16666667       0.22222222       0.16666667 </v>
   <v>       0.22222222       0.22222222       0.16666667 </v>
   <v>       0.27777778       0.22222222       0.16666667 </v>
   <v>       0.33333333       0.22222222       0.16666667 </v>
   <v>       0.38888889       0.22222222       0.16666667 </v>
   <v>       0.44444444       0.22222222       0.16666667 </v>
   <v>       0.50000000       0.22222222       0.16666667 </v>
   <v>       0.00000000       0.27777778       0.16666667 </v>
   <v>       0.05555556       0.27777778       0.16666667 </v>
   <v>       0.11111111       0.27777778       0.16666667 </v>
   <v>       0.16666667       0.27777778       0.16666667 </v>
   <v>       0.22222222       0.27777778       0.16666667 </v>
   <v>       0.27777778       0.27777778       0.16666667 </v>
   <v>       0.33333333       0.27777778       0.16666667 </v>
   <v>       0.38888889       0.27777778       0.16666667 </v>
   <v>       0.44444444       0.27777778       0.16666667 </v>
   <v>       0.50000000       0.27777778       0.16666667 </v>
   <v>       0.00000000       0.33333333       0.16666667 </v>
   <v>       0.05555556       0.33333333       0.16666667 </v>
   <v>       0.11111111       0.33333333       0.16666667 </v>
   <v>       0.16666667       0.33333333       0.16666667 </v>
   <v>       0.22222222       0.33333333       0.16666667 </v>
   <v>       0.27777778       0.33333333       0.16666667 </v>
   <v>       0.33333333       0.33333333       0.16666667 </v>
   <v>       0.38888889       0.33333333       0.16666667 </v>
   <v>       0.44444444       0.33333333       0.16666667 </v>
   <v>       0.50000000       0.33333333       0.16666667 </v>
   <v>       0.00000000       0.38888889       0.16666667 </v>
   <v>       0.05555556       0.38888889       0.16666667 </v>
   <v>       0.11111111       0.38888889       0.16666667 </v>
   <v>       0.16666667       0.38888889       0.16666667 </v>
   <v>       0.22222222       0.38888889       0.16666667 </v>
   <v>       0.27777778       0.38888889       0.16666667 </v>
   <v>       0.33333333       0.38888889       0.16666667 </v>
   <v>       0.38888889       0.38888889       0.16666667 </v>
   <v>       0.44444444       0.38888889       0.16666667 </v>
   <v>       0.50000000       0.38888889       0.16666667 </v>
   <v>       0.00000000       0.44444444       0.16666667 </v>
   <v>       0.05555556       0.44444444       0.16666667 </v>
   <v>       0.11111111       0.44444444       0.16666667 </v>
   <v>       0.16666667       0.44444444       0.16666667 </v>
   <v>       0.22222222       0.44444444       0.16666667 </v>
   <v>       0.27777778       0.44444444       0.16666667 </v>
   <v>       0.33333333       0.44444444       0.16666667 </v>
   <v>       0.38888889       0.44444444       0.16666667 </v>
   <v>       0.44444444       0.44444444       0.16666667 </v>
   <v>       0.50000000       0.44444444       0.16666667 </v>
   <v>       0.00000000       0.50000000       0.16666667 </v>
   <v>       0.05555556       0.50000000       0.16666667 </v>
   <v>       0.11111111       0.50000000       0.16666667 </v>
   <v>       0.16666667       0.50000000       0.16666667 </v>
   <v>       0.22222222       0.50000000       0.16666667 </v>
   <v>       0.27777778       0.50000000       0.16666667 </v>
   <v>       0.33333333       0.50000000       0.16666667 </v>
   <v>       0.38888889       0.50000000       0.16666667 </v>
   <v>       0.44444444       0.50000000       0.16666667 </v>
   <v>       0.50000000       0.50000000       0.16666667 </v>
   <v>       0.00000000      -0.44444444       0.16666667 </v>
   <v>       0.05555556      -0.44444444       0.16666667 </v>
   <v>       0.11111111      -0.44444444       0.16666667 </v>
   <v>       0.16666667      -0.44444444       0.16666667 </v>
   <v>       0.22222222      -0.44444444       0.16666667 </v>
   <v>       0.27777778      -0.44444444       0.16666667 </v>
   <v>       0.33333333      -0.44444444       0.16666667 </v>
   <v>       0.38888889      -0.44444444       0.16666667 </v>
   <v>       0.44444444      -0.44444444       0.16666667 </v>
   <v>       0.50000000      -0.44444444       0.16666667 </v>
   <v>       0.00000000      -0.38888889       0.16666667 </v>
   <v>       0.05555556      -0.38888889       0.16666667 </v>
   <v>       0.11111111      -0.38888889       0.16666667 </v>
   <v>       0.16666667      -0.38888889       0.16666667 </v>
   <v>       0.22222222      -0.38888889       0.16666667 </v>
   <v>       0.27777778      -0.38888889       0.16666667 </v>
   <v>       0.33333333      -0.38888889       0.16666667 </v>
   <v>       0.38888889      -0.38888889       0.16666667 </v>
   <v>       0.44444444      -0.38888889       0.16666667 </v>
   <v>       0.50000000      -0.38888889       0.16666667 </v>
   <v>       0.00000000      -0.33333333       0.16666667 </v>
   <v>       0.05555556      -0.33333333       0.16666667 </v>
   <v>       0.11111111      -0.33333333       0.16666667 </v>
   <v>       0.16666667      -0.33333333       0.16666667 </v>
   <v>       0.22222222      -0.33333333       0.16666667 </v>
   <v>       0.27777778      -0.33333333       0.16666667 </v>
   <v>       0.33333333      -0.33333333       0.16666667 </v>
   <v>       0.38888889      -0.33333333       0.16666667 </v>
   <v>       0.44444444      -0.33333333       0.16666667 </v>
   <v>       0.50000000      -0.33333333       0.16666667 </v>
   <v>       0.00000000      -0.27777778       0.16666667 </v>
   <v>       0.05555556      -0.27777778       0.16666667 </v>
   <v>       0.11111111      -0.27777778       0.16666667 </v>
   <v>       0.16666667      -0.27777778       0.16666667 </v>
   <v>       0.22222222      -0.27777778       0.16666667 </v>
   <v>       0.27777778      -0.27777778       0.16666667 </v>
   <v>       0.33333333      -0.27777778       0.16666667 </v>
   <v>       0.38888889      -0.27777778       0.16666667 </v>
   <v>       0.44444444      -0.27777778       0.16666667 </v>
   <v>       0.50000000      -0.27777778       0.16666667 </v>
   <v>       0.00000000      -0.22222222       0.16666667 </v>
   <v>       0.05555556      -0.22222222       0.16666667 </v>
   <v>       0.11111111      -0.22222222       0.16666667 </v>
   <v>       0.16666667      -0.22222222       0.16666667 </v>
   <v>       0.22222222      -0.22222222       0.16666667 </v>
   <v>       0.27777778      -0.22222222       0.16666667 </v>
   <v>       0.33333333      -0.22222222       0.16666667 </v>
   <v>       0.38888889      -0.22222222       0.16666667 </v>
   <v>       0.44444444      -0.22222222       0.16666667 </v>
   <v>       0.50000000      -0.22222222       0.16666667 </v>
   <v>       0.00000000      -0.11111111       0.16666667 </v>
   <v>       0.05555556      -0.11111111       0.16666667 </v>
   <v>       0.11111111      -0.11111111       0.16666667 </v>
   <v>       0.16666667      -0.11111111       0.16666667 </v>
   <v>       0.22222222      -0.11111111       0.16666667 </v>
   <v>       0.27777778      -0.11111111       0.16666667 </v>
   <v>       0.33333333      -0.11111111       0.16666667 </v>
   <v>       0.38888889      -0.11111111       0.16666667 </v>
   <v>       0.44444444      -0.11111111       0.16666667 </v>
   <v>       0.50000000      -0.11111111       0.16666667 </v>
   <v>       0.00000000      -0.05555556       0.16666667 </v>
   <v>       0.05555556      -0.05555556       0.16666667 </v>
   <v>       0.11111111      -0.05555556       0.16666667 </v>
   <v>       0.16666667      -0.05555556       0.16666667 </v>
   <v>       0.22222222      -0.05555556       0.16666667 </v>
   <v>       0.27777778      -0.05555556       0.16666667 </v>
   <v>       0.33333333      -0.05555556       0.16666667 </v>
   <v>       0.38888889      -0.05555556       0.16666667 </v>
   <v>       0.44444444      -0.05555556       0.16666667 </v>
   <v>       0.50000000      -0.05555556       0.16666667 </v>
   <v>       0.00000000       0.00000000       0.25000000 </v>
   <v>       0.05555556       0.00000000       0.25000000 </v>
   <v>       0.11111111       0.00000000       0.25000000 </v>
   <v>       0.16666667       0.00000000       0.25000000 </v>
   <v>       0.22222222       0.00000000       0.25000000 </v>
   <v>       0.27777778       0.00000000       0.25000000 </v>
   <v>       0.33333333       0.00000000       0.25000000 </v>
   <v>       0.38888889       0.00000000       0.25000000 </v>
   <v>       0.44444444       0.00000000       0.25000000 </v>
   <v>       0.50000000       0.00000000       0.25000000 </v>
   <v>       0.00000000       0.05555556       0.25000000 </v>
   <v>       0.05555556       0.05555556       0.25000000 </v>
   <v>       0.11111111       0.05555556       0.25000000 </v>
   <v>       0.16666667       0.05555556       0.25000000 </v>
   <v>       0.22222222       0.05555556       0.25000000 </v>
   <v>       0.27777778       0.05555556       0.25000000 </v>
   <v>       0.33333333       0.05555556       0.25000000 </v>
   <v>       0.38888889       0.05555556       0.25000000 </v>
   <v>       0.44444444       0.05555556       0.25000000 </v>
   <v>       0.50000000       0.05555556       0.25000000 </v>
   <v>       0.00000000       0.11111111       0.25000000 </v>
   <v>       0.05555556       0.11111111       0.25000000 </v>
   <v>       0.11111111       0.11111111       0.25000000 </v>
   <v>       0.16666667       0.11111111       0.25000000 </v>
   <v>       0.22222222       0.11111111       0.25000000 </v>
   <v>       0.27777778       0.11111111       0.25000000 </v>
   <v>       0.33333333       0.11111111       0.25000000 </v>
   <v>       0.38888889       0.11111111       0.25000000 </v>
   <v>       0.44444444       0.11111111       0.25000000 </v>
   <v>       0.50000000       0.11111111       0.25000000 </v>
   <v>       0.00000000       0.16666667       0.25000000 </v>
   <v>       0.05555556       0.16666667       0.25000000 </v>
   <v>       0.11111111       0.16666667       0.25000000 </v>
   <v>       0.16666667       0.16666667       0.25000000 </v>
   <v>       0.22222222       0.16666667       0.25000000 </v>
   <v>       0.27777778       0.16666667       0.25000000 </v>
   <v>       0.33333333       0.16666667       0.25000000 </v>
   <v>       0.38888889       0.16666667       0.25000000 </v>
   <v>       0.44444444       0.16666667       0.25000000 </v>
   <v>       0.50000000       0.16666667       0.25000000 </v>
   <v>       0.00000000       0.22222222       0.25000000 </v>
   <v>       0.05555556       0.22222222       0.25000000 </v>
   <v>       0.11111111       0.22222222       0.25000000 </v>
   <v>       0.16666667       0.22222222       0.25000000 </v>
   <v>       0.22222222       0.22222222       0.25000000 </v>
   <v>       0.27777778       0.22222222       0.25000000 </v>
   <v>       0.33333333       0.22222222       0.25000000 </v>
   <v>       0.38888889       0.22222222       0.25000000 </v>
   <v>       0.44444444       0.22222222       0.25000000 </v>
   <v>       0.50000000       0.22222222       0.25000000 </v>
   <v>       0.00000000       0.27777778       0.25000000 </v>
   <v>       0.05555556       0.27777778       0.25000000 </v>
   <v>       0.11111111       0.27777778       0.25000000 </v>
   <v>       0.16666667       0.27777778       0.25000000 </v>
   <v>       0.22222222       0.27777778       0.25000000 </v>
   <v>       0.27777778       0.27777778       0.25000000 </v>
   <v>       0.33333333       0.27777778       0.25000000 </v>
   <v>       0.38888889       0.27777778       0.25000000 </v>
   <v>       0.44444444       0.27777778       0.25000000 </v>
   <v>       0.50000000       0.27777778       0.25000000 </v>
   <v>       0.00000000       0.33333333       0.25000000 </v>
   <v>       0.05555556       0.33333333       0.25000000 </v>
   <v>       0.11111111       0.33333333       0.25000000 </v>
   <v>       0.16666667       0.33333333       0.25000000 </v>
   <v>       0.22222222       0.33333333       0.25000000 </v>
   <v>       0.27777778       0.33333333       0.25000000 </v>
   <v>       0.33333333       0.33333333       0.25000000 </v>
   <v>       0.38888889       0.33333333       0.25000000 </v>
   <v>       0.44444444       0.33333333       0.25000000 </v>
   <v>       0.50000000       0.33333333       0.25000000 </v>
   <v>       0.00000000       0.38888889       0.25000000 </v>
   <v>       0.05555556       0.38888889       0.25000000 </v>
   <v>       0.11111111       0.38888889       0.25000000 </v>
   <v>       0.16666667       0.38888889       0.25000000 </v>
   <v>       0.22222222       0.38888889       0.25000000 </v>
   <v>       0.27777778       0.38888889       0.25000000 </v>
   <v>       0.33333333       0.38888889       0.25000000 </v>
   <v>       0.38888889       0.38888889       0.25000000 </v>
   <v>       0.44444444       0.38888889       0.25000000 </v>
   <v>       0.50000000       0.38888889       0.25000000 </v>
   <v>       0.00000000       0.44444444       0.25000000 </v>
   <v>       0.05555556       0.44444444       0.25000000 </v>
   <v>       0.11111111       0.44444444       0.25000000 </v>
   <v>       0.16666667       0.44444444       0.25000000 </v>
   <v>       0.22222222       0.44444444       0.25000000 </v>
   <v>       0.27777778       0.44444444       0.25000000 </v>
   <v>       0.33333333       0.44444444       0.25000000 </v>
   <v>       0.38888889       0.44444444       0.25000000 </v>
   <v>       0.44444444       0.44444444       0.25000000 </v>
   <v>       0.50000000       0.44444444       0.25000000 </v>
   <v>       0.00000000       0.50000000       0.25000000 </v>
   <v>       0.05555556       0.50000000       0.25000000 </v>
   <v>       0.11111111       0.50000000       0.25000000 </v>
   <v>       0.16666667       0.50000000       0.25000000 </v>
   <v>       0.22222222       0.50000000       0.25000000 </v>
   <v>       0.27777778       0.50000000       0.25000000 </v>
   <v>       0.33333333       0.50000000       0.25000000 </v>
   <v>       0.38888889       0.50000000       0.25000000 </v>
   <v>       0.44444444       0.50000000       0.25000000 </v>
   <v>       0.50000000       0.50000000       0.25000000 </v>
   <v>       0.00000000      -0.44444444       0.25000000 </v>
   <v>       0.05555556      -0.44444444       0.25000000 </v>
   <v>       0.11111111      -0.44444444       0.25000000 </v>
   <v>       0.16666667      -0.44444444       0.25000000 </v>
   <v>       0.22222222      -0.44444444       0.25000000 </v>
   <v>       0.27777778      -0.44444444       0.25000000 </v>
   <v>       0.33333333      -0.44444444       0.25000000 </v>
   <v>       0.38888889      -0.44444444       0.25000000 </v>
   <v>       0.44444444      -0.44444444       0.25000000 </v>
   <v>       0.50000000      -0.44444444       0.25000000 </v>
   <v>       0.00000000      -0.38888889       0.25000000 </v>
   <v>       0.05555556      -0.38888889       0.25000000 </v>
   <v>       0.11111111      -0.38888889       0.25000000 </v>
   <v>       0.16666667      -0.38888889       0.25000000 </v>
   <v>       0.22222222      -0.38888889       0.25000000 </v>
   <v>       0.27777778      -0.38888889       0.25000000 </v>
   <v>       0.33333333      -0.38888889       0.25000000 </v>
   <v>       0.38888889      -0.38888889       0.25000000 </v>
   <v>       0.44444444      -0.38888889       0.25000000 </v>
   <v>       0.50000000      -0.38888889       0.25000000 </v>
   <v>       0.00000000      -0.27777778       0.25000000 </v>
   <v>       0.05555556      -0.27777778       0.25000000 </v>
   <v>       0.11111111      -0.27777778       0.25000000 </v>
   <v>       0.16666667      -0.27777778       0.25000000 </v>
   <v>       0.22222222      -0.27777778       0.25000000 </v>
   <v>       0.27777778      -0.27777778       0.25000000 </v>
   <v>       0.33333333      -0.27777778       0.25000000 </v>
   <v>       0.38888889      -0.27777778       0.25000000 </v>
   <v>       0.44444444      -0.27777778       0.25000000 </v>
   <v>       0.50000000      -0.27777778       0.25000000 </v>
   <v>       0.00000000      -0.22222222       0.25000000 </v>
   <v>       0.05555556      -0.22222222       0.25000000 </v>
   <v>       0.11111111      -0.22222222       0.25000000 </v>
   <v>       0.16666667      -0.22222222       0.25000000 </v>
   <v>       0.22222222      -0.22222222       0.25000000 </v>
   <v>       0.27777778      -0.22222222       0.25000000 </v>
   <v>       0.33333333      -0.22222222       0.25000000 </v>
   <v>       0.38888889      -0.22222222       0.25000000 </v>
   <v>       0.44444444      -0.22222222       0.25000000 </v>
   <v>       0.50000000      -0.22222222       0.25000000 </v>
   <v>       0.00000000      -0.11111111       0.25000000 </v>
   <v>       0.05555556      -0.11111111       0.25000000 </v>
   <v>       0.11111111      -0.11111111       0.25000000 </v>
   <v>       0.16666667      -0.11111111       0.25000000 </v>
   <v>       0.22222222      -0.11111111       0.25000000 </v>
   <v>       0.27777778      -0.11111111       0.25000000 </v>
   <v>       0.33333333      -0.11111111       0.25000000 </v>
   <v>       0.38888889      -0.11111111       0.25000000 </v>
   <v>       0.44444444      -0.11111111       0.25000000 </v>
   <v>       0.50000000      -0.11111111       0.25000000 </v>
   <v>       0.00000000      -0.05555556       0.25000000 </v>
   <v>       0.05555556      -0.05555556       0.25000000 </v>
   <v>       0.11111111      -0.05555556       0.25000000 </v>
   <v>       0.16666667      -0.05555556       0.25000000 </v>
   <v>       0.22222222      -0.05555556       0.25000000 </v>
   <v>       0.27777778      -0.05555556       0.25000000 </v>
   <v>       0.33333333      -0.05555556       0.25000000 </v>
   <v>       0.38888889      -0.05555556       0.25000000 </v>
   <v>       0.44444444      -0.05555556       0.25000000 </v>
   <v>       0.50000000      -0.05555556       0.25000000 </v>
   <v>       0.00000000       0.00000000       0.33333333 </v>
   <v>       0.05555556       0.00000000       0.33333333 </v>
   <v>       0.11111111       0.00000000       0.33333333 </v>
   <v>       0.16666667       0.00000000       0.33333333 </v>
   <v>       0.22222222       0.00000000       0.33333333 </v>
   <v>       0.27777778       0.00000000       0.33333333 </v>
   <v>       0.33333333       0.00000000       0.33333333 </v>
   <v>       0.38888889       0.00000000       0.33333333 </v>
   <v>       0.44444444       0.00000000       0.33333333 </v>
   <v>       0.50000000       0.00000000       0.33333333 </v>
   <v>       0.00000000       0.05555556       0.33333333 </v>
   <v>       0.05555556       0.05555556       0.33333333 </v>
   <v>       0.11111111       0.05555556       0.33333333 </v>
   <v>       0.16666667       0.05555556       0.33333333 </v>
   <v>       0.22222222       0.05555556       0.33333333 </v>
   <v>       0.27777778       0.05555556       0.33333333 </v>
   <v>       0.33333333       0.05555556       0.33333333 </v>
   <v>       0.38888889       0.05555556       0.33333333 </v>
   <v>       0.44444444       0.05555556       0.33333333 </v>
   <v>       0.50000000       0.05555556       0.33333333 </v>
   <v>       0.00000000       0.11111111       0.33333333 </v>
   <v>       0.05555556       0.11111111       0.33333333 </v>
   <v>       0.11111111       0.11111111       0.33333333 </v>
   <v>       0.16666667       0.11111111       0.33333333 </v>
   <v>       0.22222222       0.11111111       0.33333333 </v>
   <v>       0.27777778       0.11111111       0.33333333 </v>
   <v>       0.33333333       0.11111111       0.33333333 </v>
   <v>       0.38888889       0.11111111       0.33333333 </v>
   <v>       0.44444444       0.11111111       0.33333333 </v>
   <v>       0.50000000       0.11111111       0.33333333 </v>
   <v>       0.00000000       0.16666667       0.33333333 </v>
   <v>       0.05555556       0.16666667       0.33333333 </v>
   <v>       0.11111111       0.16666667       0.33333333 </v>
   <v>       0.16666667       0.16666667       0.33333333 </v>
   <v>       0.22222222       0.16666667       0.33333333 </v>
   <v>       0.27777778       0.16666667       0.33333333 </v>
   <v>       0.33333333       0.16666667       0.33333333 </v>
   <v>       0.38888889       0.16666667       0.33333333 </v>
   <v>       0.44444444       0.16666667       0.33333333 </v>
   <v>       0.50000000       0.16666667       0.33333333 </v>
   <v>       0.00000000       0.22222222       0.33333333 </v>
   <v>       0.05555556       0.22222222       0.33333333 </v>
   <v>       0.11111111       0.22222222       0.33333333 </v>
   <v>       0.16666667       0.22222222       0.33333333 </v>
   <v>       0.22222222       0.22222222       0.33333333 </v>
   <v>       0.27777778       0.22222222       0.33333333 </v>
   <v>       0.33333333       0.22222222       0.33333333 </v>
   <v>       0.38888889       0.22222222       0.33333333 </v>
   <v>       0.44444444       0.22222222       0.33333333 </v>
   <v>       0.50000000       0.22222222       0.33333333 </v>
   <v>       0.00000000       0.27777778       0.33333333 </v>
   <v>       0.05555556       0.27777778       0.33333333 </v>
   <v>       0.11111111       0.27777778       0.33333333 </v>
   <v>       0.16666667       0.27777778       0.33333333 </v>
   <v>       0.22222222       0.27777778       0.33333333 </v>
   <v>       0.27777778       0.27777778       0.33333333 </v>
   <v>       0.33333333       0.27777778       0.33333333 </v>
   <v>       0.38888889       0.27777778       0.33333333 </v>
   <v>       0.44444444       0.27777778       0.33333333 </v>
   <v>       0.50000000       0.27777778       0.33333333 </v>
   <v>       0.00000000       0.33333333       0.33333333 </v>
   <v>       0.05555556       0.33333333       0.33333333 </v>
   <v>       0.11111111       0.33333333       0.33333333 </v>
   <v>       0.16666667       0.33333333       0.33333333 </v>
   <v>       0.22222222       0.33333333       0.33333333 </v>
   <v>       0.27777778       0.33333333       0.33333333 </v>
   <v>       0.33333333       0.33333333       0.33333333 </v>
   <v>       0.38888889       0.33333333       0.33333333 </v>
   <v>       0.44444444       0.33333333       0.33333333 </v>
   <v>       0.50000000       0.33333333       0.33333333 </v>
   <v>       0.00000000       0.38888889       0.33333333 </v>
   <v>       0.05555556       0.38888889       0.33333333 </v>
   <v>       0.11111111       0.38888889       0.33333333 </v>
   <v>       0.16666667       0.38888889       0.33333333 </v>
   <v>       0.22222222       0.38888889       0.33333333 </v>
   <v>       0.27777778       0.38888889       0.33333333 </v>
   <v>       0.33333333       0.38888889       0.33333333 </v>
   <v>       0.38888889       0.38888889       0.33333333 </v>
   <v>       0.44444444       0.38888889       0.33333333 </v>
   <v>       0.50000000       0.38888889       0.33333333 </v>
   <v>       0.00000000       0.44444444       0.33333333 </v>
   <v>       0.05555556       0.44444444       0.33333333 </v>
   <v>       0.11111111       0.44444444       0.33333333 </v>
   <v>       0.16666667       0.44444444       0.33333333 </v>
   <v>       0.22222222       0.44444444       0.33333333 </v>
   <v>       0.27777778       0.44444444       0.33333333 </v>
   <v>       0.33333333       0.44444444       0.33333333 </v>
   <v>       0.38888889       0.44444444       0.33333333 </v>
   <v>       0.44444444       0.44444444       0.33333333 </v>
   <v>       0.50000000       0.44444444       0.33333333 </v>
   <v>       0.00000000      -0.44444444       0.33333333 </v>
   <v>       0.05555556      -0.44444444       0.33333333 </v>
   <v>       0.11111111      -0.44444444       0.33333333 </v>
   <v>       0.16666667      -0.44444444       0.33333333 </v>
   <v>       0.22222222      -0.44444444       0.33333333 </v>
   <v>       0.27777778      -0.44444444       0.33333333 </v>
   <v>       0.33333333      -0.44444444       0.33333333 </v>
   <v>       0.38888889      -0.44444444       0.33333333 </v>
   <v>       0.44444444      -0.44444444       0.33333333 </v>
   <v>       0.50000000      -0.44444444       0.33333333 </v>
   <v>       0.00000000      -0.38888889       0.33333333 </v>
   <v>       0.05555556      -0.38888889       0.33333333 </v>
   <v>       0.11111111      -0.38888889       0.33333333 </v>
   <v>       0.16666667      -0.38888889       0.33333333 </v>
   <v>       0.22222222      -0.38888889       0.33333333 </v>
   <v>       0.27777778      -0.38888889       0.33333333 </v>
   <v>       0.33333333      -0.38888889       0.33333333 </v>
   <v>       0.38888889      -0.38888889       0.33333333 </v>
   <v>       0.44444444      -0.38888889       0.33333333 </v>
   <v>       0.50000000      -0.38888889       0.33333333 </v>
   <v>       0.00000000      -0.27777778       0.33333333 </v>
   <v>       0.05555556      -0.27777778       0.33333333 </v>
   <v>       0.11111111      -0.27777778       0.33333333 </v>
   <v>       0.16666667      -0.27777778       0.33333333 </v>
   <v>       0.22222222      -0.27777778       0.33333333 </v>
   <v>       0.27777778      -0.27777778       0.33333333 </v>
   <v>       0.33333333      -0.27777778       0.33333333 </v>
   <v>       0.38888889      -0.27777778       0.33333333 </v>
   <v>       0.44444444      -0.27777778       0.33333333 </v>
   <v>       0.50000000      -0.27777778       0.33333333 </v>
   <v>       0.00000000      -0.22222222       0.33333333 </v>
   <v>       0.05555556      -0.22222222       0.33333333 </v>
   <v>       0.11111111      -0.22222222       0.33333333 </v>
   <v>       0.16666667      -0.22222222       0.33333333 </v>
   <v>       0.22222222      -0.22222222       0.33333333 </v>
   <v>       0.27777778      -0.22222222       0.33333333 </v>
   <v>       0.33333333      -0.22222222       0.33333333 </v>
   <v>       0.38888889      -0.22222222       0.33333333 </v>
   <v>       0.44444444      -0.22222222       0.33333333 </v>
   <v>       0.50000000      -0.22222222       0.33333333 </v>
   <v>       0.00000000      -0.11111111       0.33333333 </v>
   <v>       0.05555556      -0.11111111       0.33333333 </v>
   <v>       0.11111111      -0.11111111       0.33333333 </v>
   <v>       0.16666667      -0.11111111       0.33333333 </v>
   <v>       0.22222222      -0.11111111       0.33333333 </v>
   <v>       0.27777778      -0.11111111       0.33333333 </v>
   <v>       0.33333333      -0.11111111       0.33333333 </v>
   <v>       0.38888889      -0.11111111       0.33333333 </v>
   <v>       0.44444444      -0.11111111       0.33333333 </v>
   <v>       0.50000000      -0.11111111       0.33333333 </v>
   <v>       0.00000000      -0.05555556       0.33333333 </v>
   <v>       0.05555556      -0.05555556       0.33333333 </v>
   <v>       0.11111111      -0.05555556       0.33333333 </v>
   <v>       0.16666667      -0.05555556       0.33333333 </v>
   <v>       0.22222222      -0.05555556       0.33333333 </v>
   <v>       0.27777778      -0.05555556       0.33333333 </v>
   <v>       0.33333333      -0.05555556       0.33333333 </v>
   <v>       0.38888889      -0.05555556       0.33333333 </v>
   <v>       0.44444444      -0.05555556       0.33333333 </v>
   <v>       0.50000000      -0.05555556       0.33333333 </v>
   <v>       0.00000000       0.00000000       0.41666667 </v>
   <v>       0.05555556       0.00000000       0.41666667 </v>
   <v>       0.11111111       0.00000000       0.41666667 </v>
   <v>       0.16666667       0.00000000       0.41666667 </v>
   <v>       0.22222222       0.00000000       0.41666667 </v>
   <v>       0.27777778       0.00000000       0.41666667 </v>
   <v>       0.33333333       0.00000000       0.41666667 </v>
   <v>       0.38888889       0.00000000       0.41666667 </v>
   <v>       0.44444444       0.00000000       0.41666667 </v>
   <v>       0.50000000       0.00000000       0.41666667 </v>
   <v>       0.00000000       0.05555556       0.41666667 </v>
   <v>       0.05555556       0.05555556       0.41666667 </v>
   <v>       0.11111111       0.05555556       0.41666667 </v>
   <v>       0.16666667       0.05555556       0.41666667 </v>
   <v>       0.22222222       0.05555556       0.41666667 </v>
   <v>       0.27777778       0.05555556       0.41666667 </v>
   <v>       0.33333333       0.05555556       0.41666667 </v>
   <v>       0.38888889       0.05555556       0.41666667 </v>
   <v>       0.44444444       0.05555556       0.41666667 </v>
   <v>       0.50000000       0.05555556       0.41666667 </v>
   <v>       0.00000000       0.11111111       0.41666667 </v>
   <v>       0.05555556       0.11111111       0.41666667 </v>
   <v>       0.11111111       0.11111111       0.41666667 </v>
   <v>       0.16666667       0.11111111       0.41666667 </v>
   <v>       0.22222222       0.11111111       0.41666667 </v>
   <v>       0.27777778       0.11111111       0.41666667 </v>
   <v>       0.33333333       0.11111111       0.41666667 </v>
   <v>       0.38888889       0.11111111       0.41666667 </v>
   <v>       0.44444444       0.11111111       0.41666667 </v>
   <v>       0.50000000       0.11111111       0.41666667 </v>
   <v>       0.00000000       0.16666667       0.41666667 </v>
   <v>       0.05555556       0.16666667       0.41666667 </v>
   <v>       0.11111111       0.16666667       0.41666667 </v>
   <v>       0.16666667       0.16666667       0.41666667 </v>
   <v>       0.22222222       0.16666667       0.41666667 </v>
   <v>       0.27777778       0.16666667       0.41666667 </v>
   <v>       0.33333333       0.16666667       0.41666667 </v>
   <v>       0.38888889       0.16666667       0.41666667 </v>
   <v>       0.44444444       0.16666667       0.41666667 </v>
   <v>       0.50000000       0.16666667       0.41666667 </v>
   <v>       0.00000000       0.22222222       0.41666667 </v>
   <v>       0.05555556       0.22222222       0.41666667 </v>
   <v>       0.11111111       0.22222222       0.41666667 </v>
   <v>       0.16666667       0.22222222       0.41666667 </v>
   <v>       0.22222222       0.22222222       0.41666667 </v>
   <v>       0.27777778       0.22222222       0.41666667 </v>
   <v>       0.33333333       0.22222222       0.41666667 </v>
   <v>       0.38888889       0.22222222       0.41666667 </v>
   <v>       0.44444444       0.22222222       0.41666667 </v>
   <v>       0.50000000       0.22222222       0.41666667 </v>
   <v>       0.00000000       0.27777778       0.41666667 </v>
   <v>       0.05555556       0.27777778       0.41666667 </v>
   <v>       0.11111111       0.27777778       0.41666667 </v>
   <v>       0.16666667       0.27777778       0.41666667 </v>
   <v>       0.22222222       0.27777778       0.41666667 </v>
   <v>       0.27777778       0.27777778       0.41666667 </v>
   <v>       0.33333333       0.27777778       0.41666667 </v>
   <v>       0.38888889       0.27777778       0.41666667 </v>
   <v>       0.44444444       0.27777778       0.41666667 </v>
   <v>       0.50000000       0.27777778       0.41666667 </v>
   <v>       0.00000000       0.38888889       0.41666667 </v>
   <v>       0.05555556       0.38888889       0.41666667 </v>
   <v>       0.11111111       0.38888889       0.41666667 </v>
   <v>       0.16666667       0.38888889       0.41666667 </v>
   <v>       0.22222222       0.38888889       0.41666667 </v>
   <v>       0.27777778       0.38888889       0.41666667 </v>
   <v>       0.33333333       0.38888889       0.41666667 </v>
   <v>       0.38888889       0.38888889       0.41666667 </v>
   <v>       0.44444444       0.38888889       0.41666667 </v>
   <v>       0.50000000       0.38888889       0.41666667 </v>
   <v>       0.00000000       0.44444444       0.41666667 </v>
   <v>       0.05555556       0.44444444       0.41666667 </v>
   <v>       0.11111111       0.44444444       0.41666667 </v>
   <v>       0.16666667       0.44444444       0.41666667 </v>
   <v>       0.22222222       0.44444444       0.41666667 </v>
   <v>       0.27777778       0.44444444       0.41666667 </v>
   <v>       0.33333333       0.44444444       0.41666667 </v>
   <v>       0.38888889       0.44444444       0.41666667 </v>
   <v>       0.44444444       0.44444444       0.41666667 </v>
   <v>       0.50000000       0.44444444       0.41666667 </v>
   <v>       0.00000000      -0.44444444       0.41666667 </v>
   <v>       0.05555556      -0.44444444       0.41666667 </v>
   <v>       0.11111111      -0.44444444       0.41666667 </v>
   <v>       0.16666667      -0.44444444       0.41666667 </v>
   <v>       0.22222222      -0.44444444       0.41666667 </v>
   <v>       0.27777778      -0.44444444       0.41666667 </v>
   <v>       0.33333333      -0.44444444       0.41666667 </v>
   <v>       0.38888889      -0.44444444       0.41666667 </v>
   <v>       0.44444444      -0.44444444       0.41666667 </v>
   <v>       0.50000000      -0.44444444       0.41666667 </v>
   <v>       0.00000000      -0.38888889       0.41666667 </v>
   <v>       0.05555556      -0.38888889       0.41666667 </v>
   <v>       0.11111111      -0.38888889       0.41666667 </v>
   <v>       0.16666667      -0.38888889       0.41666667 </v>
   <v>       0.22222222      -0.38888889       0.41666667 </v>
   <v>       0.27777778      -0.38888889       0.41666667 </v>
   <v>       0.33333333      -0.38888889       0.41666667 </v>
   <v>       0.38888889      -0.38888889       0.41666667 </v>
   <v>       0.44444444      -0.38888889       0.41666667 </v>
   <v>       0.50000000      -0.38888889       0.41666667 </v>
   <v>       0.00000000      -0.27777778       0.41666667 </v>
   <v>       0.05555556      -0.27777778       0.41666667 </v>
   <v>       0.11111111      -0.27777778       0.41666667 </v>
   <v>       0.16666667      -0.27777778       0.41666667 </v>
   <v>       0.22222222      -0.27777778       0.41666667 </v>
   <v>       0.27777778      -0.27777778       0.41666667 </v>
   <v>       0.33333333      -0.27777778       0.41666667 </v>
   <v>       0.38888889      -0.27777778       0.41666667 </v>
   <v>       0.44444444      -0.27777778       0.41666667 </v>
   <v>       0.50000000      -0.27777778       0.41666667 </v>
   <v>       0.00000000      -0.22222222       0.41666667 </v>
   <v>       0.05555556      -0.22222222       0.41666667 </v>
   <v>       0.11111111      -0.22222222       0.41666667 </v>
   <v>       0.16666667      -0.22222222       0.41666667 </v>
   <v>       0.22222222      -0.22222222       0.41666667 </v>
   <v>       0.27777778      -0.22222222       0.41666667 </v>
   <v>       0.33333333      -0.22222222       0.41666667 </v>
   <v>       0.38888889      -0.22222222       0.41666667 </v>
   <v>       0.44444444      -0.22222222       0.41666667 </v>
   <v>       0.50000000      -0.22222222       0.41666667 </v>
   <v>       0.00000000      -0.11111111       0.41666667 </v>
   <v>       0.05555556      -0.11111111       0.41666667 </v>
   <v>       0.11111111      -0.11111111       0.41666667 </v>
   <v>       0.16666667      -0.11111111       0.41666667 </v>
   <v>       0.22222222      -0.11111111       0.41666667 </v>
   <v>       0.27777778      -0.11111111       0.41666667 </v>
   <v>       0.33333333      -0.11111111       0.41666667 </v>
   <v>       0.38888889      -0.11111111       0.41666667 </v>
   <v>       0.44444444      -0.11111111       0.41666667 </v>
   <v>       0.50000000      -0.11111111       0.41666667 </v>
   <v>       0.00000000      -0.05555556       0.41666667 </v>
   <v>       0.05555556      -0.05555556       0.41666667 </v>
   <v>       0.11111111      -0.05555556       0.41666667 </v>
   <v>       0.16666667      -0.05555556       0.41666667 </v>
   <v>       0.22222222      -0.05555556       0.41666667 </v>
   <v>       0.27777778      -0.05555556       0.41666667 </v>
   <v>       0.33333333      -0.05555556       0.41666667 </v>
   <v>       0.38888889      -0.05555556       0.41666667 </v>
   <v>       0.44444444      -0.05555556       0.41666667 </v>
   <v>       0.50000000      -0.05555556       0.41666667 </v>
   <v>       0.00000000       0.00000000       0.50000000 </v>
   <v>       0.05555556       0.00000000       0.50000000 </v>
   <v>       0.11111111       0.00000000       0.50000000 </v>
   <v>       0.16666667       0.00000000       0.50000000 </v>
   <v>       0.22222222       0.00000000       0.50000000 </v>
   <v>       0.27777778       0.00000000       0.50000000 </v>
   <v>       0.33333333       0.00000000       0.50000000 </v>
   <v>       0.38888889       0.00000000       0.50000000 </v>
   <v>       0.44444444       0.00000000       0.50000000 </v>
   <v>       0.50000000       0.00000000       0.50000000 </v>
   <v>       0.00000000       0.05555556       0.50000000 </v>
   <v>       0.05555556       0.05555556       0.50000000 </v>
   <v>       0.11111111       0.05555556       0.50000000 </v>
   <v>       0.16666667       0.05555556       0.50000000 </v>
   <v>       0.22222222       0.05555556       0.50000000 </v>
   <v>       0.27777778       0.05555556       0.50000000 </v>
   <v>       0.33333333       0.05555556       0.50000000 </v>
   <v>       0.38888889       0.05555556       0.50000000 </v>
   <v>       0.44444444       0.05555556       0.50000000 </v>
   <v>       0.50000000       0.05555556       0.50000000 </v>
   <v>       0.00000000       0.11111111       0.50000000 </v>
   <v>       0.05555556       0.11111111       0.50000000 </v>
   <v>       0.11111111       0.11111111       0.50000000 </v>
   <v>       0.16666667       0.11111111       0.50000000 </v>
   <v>       0.22222222       0.11111111       0.50000000 </v>
   <v>       0.27777778       0.11111111       0.50000000 </v>
   <v>       0.33333333       0.11111111       0.50000000 </v>
   <v>       0.38888889       0.11111111       0.50000000 </v>
   <v>       0.44444444       0.11111111       0.50000000 </v>
   <v>       0.50000000       0.11111111       0.50000000 </v>
   <v>       0.00000000       0.22222222       0.50000000 </v>
   <v>       0.05555556       0.22222222       0.50000000 </v>
   <v>       0.11111111       0.22222222       0.50000000 </v>
   <v>       0.16666667       0.22222222       0.50000000 </v>
   <v>       0.22222222       0.22222222       0.50000000 </v>
   <v>       0.27777778       0.22222222       0.50000000 </v>
   <v>       0.33333333       0.22222222       0.50000000 </v>
   <v>       0.38888889       0.22222222       0.50000000 </v>
   <v>       0.44444444       0.22222222       0.50000000 </v>
   <v>       0.50000000       0.22222222       0.50000000 </v>
   <v>       0.00000000       0.27777778       0.50000000 </v>
   <v>       0.05555556       0.27777778       0.50000000 </v>
   <v>       0.11111111       0.27777778       0.50000000 </v>
   <v>       0.16666667       0.27777778       0.50000000 </v>
   <v>       0.22222222       0.27777778       0.50000000 </v>
   <v>       0.27777778       0.27777778       0.50000000 </v>
   <v>       0.33333333       0.27777778       0.50000000 </v>
   <v>       0.38888889       0.27777778       0.50000000 </v>
   <v>       0.44444444       0.27777778       0.50000000 </v>
   <v>       0.50000000       0.27777778       0.50000000 </v>
   <v>       0.00000000       0.38888889       0.50000000 </v>
   <v>       0.05555556       0.38888889       0.50000000 </v>
   <v>       0.11111111       0.38888889       0.50000000 </v>
   <v>       0.16666667       0.38888889       0.50000000 </v>
   <v>       0.22222222       0.38888889       0.50000000 </v>
   <v>       0.27777778       0.38888889       0.50000000 </v>
   <v>       0.33333333       0.38888889       0.50000000 </v>
   <v>       0.38888889       0.38888889       0.50000000 </v>
   <v>       0.44444444       0.38888889       0.50000000 </v>
   <v>       0.50000000       0.38888889       0.50000000 </v>
   <v>       0.00000000       0.44444444       0.50000000 </v>
   <v>       0.05555556       0.44444444       0.50000000 </v>
   <v>       0.11111111       0.44444444       0.50000000 </v>
   <v>       0.16666667       0.44444444       0.50000000 </v>
   <v>       0.22222222       0.44444444       0.50000000 </v>
   <v>       0.27777778       0.44444444       0.50000000 </v>
   <v>       0.33333333       0.44444444       0.50000000 </v>
   <v>       0.38888889       0.44444444       0.50000000 </v>
   <v>       0.44444444       0.44444444       0.50000000 </v>
   <v>       0.50000000       0.44444444       0.50000000 </v>
  </varray>
  <varray name="weights" >
   <v>       0.00025720 </v>
   <v>       0.00051440 </v>
   <v>       0.00051440 </v>
   <v>       0.00051440 </v>
   <v>       0.00051440 </v>
   <v>       0.00051440 </v>
   <v>       0.00051440 </v>
   <v>       0.00051440 </v>
   <v>       0.00051440 </v>
   <v>       0.00025720 </v>
   <v>       0.00051440 </v>
   <v>       0.00102881 </v>
   <v>       0.00102881 </v>
   <v>       0.00102881 </v>
   <v>       0.00102881 </v>
   <v>       0.00102881 </v>
   <v>       0.00102881 </v>
   <v>       0.00102881 </v>
   <v>       0.00102881 </v>
   <v>       0.00051440 </v>
   <v>       0.00051440 </v>
   <v>       0.00102881 </v>
   <v>       0.00102881 </v>
   <v>       0.00102881 </v>
   <v>       0.00102881 </v>
   <v>       0.00102881 </v>
   <v>       0.00102881 </v>
   <v>       0.00102881 </v>
   <v>       0.00102881 </v>
   <v>       0.00051440 </v>
   <v>       0.00102881 </v>
   <v>       0.00205761 </v>
   <v>       0.00205761 </v>
   <v>       0.00205761 </v>
   <v>       0.00205761 </v>
   <v>       0.00205761 </v>
   <v>       0.00205761 </v>
   <v>       0.00205761 </v>
   <v>       0.00205761 </v>
   <v>       0.00102881 </v>
   <v>       0.00051440 </v>
   <v>       0.00102881 </v>
   <v>       0.00102881 </v>
   <v>       0.00102881 </v>
   <v>       0.00102881 </v>
   <v>       0.00102881 </v>
   <v>       0.00102881 </v>
   <v>       0.00102881 </v>
   <v>       0.00102881 </v>
   <v>       0.00051440 </v>
   <v>       0.00051440 </v>
   <v>       0.00102881 </v>
   <v>       0.00102881 </v>
   <v>       0.00102881 </v>
   <v>       0.00102881 </v>
   <v>       0.00102881 </v>
   <v>       0.00102881 </v>
   <v>       0.00102881 </v>
   <v>       0.00102881 </v>
   <v>       0.00051440 </v>
   <v>       0.00102881 </v>
   <v>       0.00205761 </v>
   <v>       0.00205761 </v>
   <v>       0.00205761 </v>
   <v>       0.00205761 </v>
   <v>       0.00205761 </v>
   <v>       0.00205761 </v>
   <v>       0.00205761 </v>
   <v>       0.00205761 </v>
   <v>       0.00102881 </v>
   <v>       0.00051440 </v>
   <v>       0.00102881 </v>
   <v>       0.00102881 </v>
   <v>       0.00102881 </v>
   <v>       0.00102881 </v>
   <v>       0.00102881 </v>
   <v>       0.00102881 </v>
   <v>       0.00102881 </v>
   <v>       0.00102881 </v>
   <v>       0.00051440 </v>
   <v>       0.00051440 </v>
   <v>       0.00102881 </v>
   <v>       0.00102881 </v>
   <v>       0.00102881 </v>
   <v>       0.00102881 </v>
   <v>       0.00102881 </v>
   <v>       0.00102881 </v>
   <v>       0.00102881 </v>
   <v>       0.00102881 </v>
   <v>       0.00051440 </v>
   <v>       0.00051440 </v>
   <v>       0.00102881 </v>
   <v>       0.00102881 </v>
   <v>       0.00102881 </v>
   <v>       0.00102881 </v>
   <v>       0.00102881 </v>
   <v>       0.00102881 </v>
   <v>       0.00102881 </v>
   <v>       0.00102881 </v>
   <v>       0.00051440 </v>
   <v>       0.00051440 </v>
   <v>       0.00102881 </v>
   <v>       0.00102881 </v>
   <v>       0.00102881 </v>
   <v>       0.00102881 </v>
   <v>       0.00102881 </v>
   <v>       0.00102881 </v>
   <v>       0.00102881 </v>
   <v>       0.00102881 </v>
   <v>       0.00051440 </v>
   <v>       0.00051440 </v>
   <v>       0.00102881 </v>
   <v>       0.00102881 </v>
   <v>       0.00102881 </v>
   <v>       0.00102881 </v>
   <v>       0.00102881 </v>
   <v>       0.00102881 </v>
   <v>       0.00102881 </v>
   <v>       0.00102881 </v>
   <v>       0.00051440 </v>
   <v>       0.00051440 </v>
   <v>       0.00102881 </v>
   <v>       0.00102881 </v>
   <v>       0.00102881 </v>
   <v>       0.00102881 </v>
   <v>       0.00102881 </v>
   <v>       0.00102881 </v>
   <v>       0.00102881 </v>
   <v>       0.00102881 </v>
   <v>       0.00051440 </v>
   <v>       0.00102881 </v>
   <v>       0.00205761 </v>
   <v>       0.00205761 </v>
   <v>       0.00205761 </v>
   <v>       0.00205761 </v>
   <v>       0.00205761 </v>
   <v>       0.00205761 </v>
   <v>       0.00205761 </v>
   <v>       0.00205761 </v>
   <v>       0.00102881 </v>
   <v>       0.00051440 </v>
   <v>       0.00102881 </v>
   <v>       0.00102881 </v>
   <v>       0.00102881 </v>
   <v>       0.00102881 </v>
   <v>       0.00102881 </v>
   <v>       0.00102881 </v>
   <v>       0.00102881 </v>
   <v>       0.00102881 </v>
   <v>       0.00051440 </v>
   <v>       0.00051440 </v>
   <v>       0.00102881 </v>
   <v>       0.00102881 </v>
   <v>       0.00102881 </v>
   <v>       0.00102881 </v>
   <v>       0.00102881 </v>
   <v>       0.00102881 </v>
   <v>       0.00102881 </v>
   <v>       0.00102881 </v>
   <v>       0.00051440 </v>
   <v>       0.00102881 </v>
   <v>       0.00205761 </v>
   <v>       0.00205761 </v>
   <v>       0.00205761 </v>
   <v>       0.00205761 </v>
   <v>       0.00205761 </v>
   <v>       0.00205761 </v>
   <v>       0.00205761 </v>
   <v>       0.00205761 </v>
   <v>       0.00102881 </v>
   <v>       0.00051440 </v>
   <v>       0.00102881 </v>
   <v>       0.00102881 </v>
   <v>       0.00102881 </v>
   <v>       0.00102881 </v>
   <v>       0.00102881 </v>
   <v>       0.00102881 </v>
   <v>       0.00102881 </v>
   <v>       0.00102881 </v>
   <v>       0.00051440 </v>
   <v>       0.00051440 </v>
   <v>       0.00102881 </v>
   <v>       0.00102881 </v>
   <v>       0.00102881 </v>
   <v>       0.00102881 </v>
   <v>       0.00102881 </v>
   <v>       0.00102881 </v>
   <v>       0.00102881 </v>
   <v>       0.00102881 </v>
   <v>       0.00051440 </v>
   <v>       0.00102881 </v>
   <v>       0.00205761 </v>
   <v>       0.00205761 </v>
   <v>       0.00205761 </v>
   <v>       0.00205761 </v>
   <v>       0.00205761 </v>
   <v>       0.00205761 </v>
   <v>       0.00205761 </v>
   <v>       0.00205761 </v>
   <v>       0.00102881 </v>
   <v>       0.00051440 </v>
   <v>       0.00102881 </v>
   <v>       0.00102881 </v>
   <v>       0.00102881 </v>
   <v>       0.00102881 </v>
   <v>       0.00102881 </v>
   <v>       0.00102881 </v>
   <v>       0.00102881 </v>
   <v>       0.00102881 </v>
   <v>       0.00051440 </v>
   <v>       0.00051440 </v>
   <v>       0.00102881 </v>
   <v>       0.00102881 </v>
   <v>       0.00102881 </v>
   <v>       0.00102881 </v>
   <v>       0.00102881 </v>
   <v>       0.00102881 </v>
   <v>       0.00102881 </v>
   <v>       0.00102881 </v>
   <v>       0.00051440 </v>
   <v>       0.00102881 </v>
   <v>       0.00205761 </v>
   <v>       0.00205761 </v>
   <v>       0.00205761 </v>
   <v>       0.00205761 </v>
   <v>       0.00205761 </v>
   <v>       0.00205761 </v>
   <v>       0.00205761 </v>
   <v>       0.00205761 </v>
   <v>       0.00102881 </v>
   <v>       0.00051440 </v>
   <v>       0.00102881 </v>
   <v>       0.00102881 </v>
   <v>       0.00102881 </v>
   <v>       0.00102881 </v>
   <v>       0.00102881 </v>
   <v>       0.00102881 </v>
   <v>       0.00102881 </v>
   <v>       0.00102881 </v>
   <v>       0.00051440 </v>
   <v>       0.00051440 </v>
   <v>       0.00102881 </v>
   <v>       0.00102881 </v>
   <v>       0.00102881 </v>
   <v>       0.00102881 </v>
   <v>       0.00102881 </v>
   <v>       0.00102881 </v>
   <v>       0.00102881 </v>
   <v>       0.00102881 </v>
   <v>       0.00051440 </v>
   <v>       0.00051440 </v>
   <v>       0.00102881 </v>
   <v>       0.00102881 </v>
   <v>       0.00102881 </v>
   <v>       0.00102881 </v>
   <v>       0.00102881 </v>
   <v>       0.00102881 </v>
   <v>       0.00102881 </v>
   <v>       0.00102881 </v>
   <v>       0.00051440 </v>
   <v>       0.00051440 </v>
   <v>       0.00102881 </v>
   <v>       0.00102881 </v>
   <v>       0.00102881 </v>
   <v>       0.00102881 </v>
   <v>       0.00102881 </v>
   <v>       0.00102881 </v>
   <v>       0.00102881 </v>
   <v>       0.00102881 </v>
   <v>       0.00051440 </v>
   <v>       0.00051440 </v>
   <v>       0.00102881 </v>
   <v>       0.00102881 </v>
   <v>       0.00102881 </v>
   <v>       0.00102881 </v>
   <v>       0.00102881 </v>
   <v>       0.00102881 </v>
   <v>       0.00102881 </v>
   <v>       0.00102881 </v>
   <v>       0.00051440 </v>
   <v>       0.00051440 </v>
   <v>       0.00102881 </v>
   <v>       0.00102881 </v>
   <v>       0.00102881 </v>
   <v>       0.00102881 </v>
   <v>       0.00102881 </v>
   <v>       0.00102881 </v>
   <v>       0.00102881 </v>
   <v>       0.00102881 </v>
   <v>       0.00051440 </v>
   <v>       0.00051440 </v>
   <v>       0.00102881 </v>
   <v>       0.00102881 </v>
   <v>       0.00102881 </v>
   <v>       0.00102881 </v>
   <v>       0.00102881 </v>
   <v>       0.00102881 </v>
   <v>       0.00102881 </v>
   <v>       0.00102881 </v>
   <v>       0.00051440 </v>
   <v>       0.00051440 </v>
   <v>       0.00102881 </v>
   <v>       0.00102881 </v>
   <v>       0.00102881 </v>
   <v>       0.00102881 </v>
   <v>       0.00102881 </v>
   <v>       0.00102881 </v>
   <v>       0.00102881 </v>
   <v>       0.00102881 </v>
   <v>       0.00051440 </v>
   <v>       0.00102881 </v>
   <v>       0.00205761 </v>
   <v>       0.00205761 </v>
   <v>       0.00205761 </v>
   <v>       0.00205761 </v>
   <v>       0.00205761 </v>
   <v>       0.00205761 </v>
   <v>       0.00205761 </v>
   <v>       0.00205761 </v>
   <v>       0.00102881 </v>
   <v>       0.00051440 </v>
   <v>       0.00102881 </v>
   <v>       0.00102881 </v>
   <v>       0.00102881 </v>
   <v>       0.00102881 </v>
   <v>       0.00102881 </v>
   <v>       0.00102881 </v>
   <v>       0.00102881 </v>
   <v>       0.00102881 </v>
   <v>       0.00051440 </v>
   <v>       0.00051440 </v>
   <v>       0.00102881 </v>
   <v>       0.00102881 </v>
   <v>       0.00102881 </v>
   <v>       0.00102881 </v>
   <v>       0.00102881 </v>
   <v>       0.00102881 </v>
   <v>       0.00102881 </v>
   <v>       0.00102881 </v>
   <v>       0.00051440 </v>
   <v>       0.00102881 </v>
   <v>       0.00205761 </v>
   <v>       0.00205761 </v>
   <v>       0.00205761 </v>
   <v>       0.00205761 </v>
   <v>       0.00205761 </v>
   <v>       0.00205761 </v>
   <v>       0.00205761 </v>
   <v>       0.00205761 </v>
   <v>       0.00102881 </v>
   <v>       0.00051440 </v>
   <v>       0.00102881 </v>
   <v>       0.00102881 </v>
   <v>       0.00102881 </v>
   <v>       0.00102881 </v>
   <v>       0.00102881 </v>
   <v>       0.00102881 </v>
   <v>       0.00102881 </v>
   <v>       0.00102881 </v>
   <v>       0.00051440 </v>
   <v>       0.00051440 </v>
   <v>       0.00102881 </v>
   <v>       0.00102881 </v>
   <v>       0.00102881 </v>
   <v>       0.00102881 </v>
   <v>       0.00102881 </v>
   <v>       0.00102881 </v>
   <v>       0.00102881 </v>
   <v>       0.00102881 </v>
   <v>       0.00051440 </v>
   <v>       0.00102881 </v>
   <v>       0.00205761 </v>
   <v>       0.00205761 </v>
   <v>       0.00205761 </v>
   <v>       0.00205761 </v>
   <v>       0.00205761 </v>
   <v>       0.00205761 </v>
   <v>       0.00205761 </v>
   <v>       0.00205761 </v>
   <v>       0.00102881 </v>
   <v>       0.00051440 </v>
   <v>       0.00102881 </v>
   <v>       0.00102881 </v>
   <v>       0.00102881 </v>
   <v>       0.00102881 </v>
   <v>       0.00102881 </v>
   <v>       0.00102881 </v>
   <v>       0.00102881 </v>
   <v>       0.00102881 </v>
   <v>       0.00051440 </v>
   <v>       0.00051440 </v>
   <v>       0.00102881 </v>
   <v>       0.00102881 </v>
   <v>       0.00102881 </v>
   <v>       0.00102881 </v>
   <v>       0.00102881 </v>
   <v>       0.00102881 </v>
   <v>       0.00102881 </v>
   <v>       0.00102881 </v>
   <v>       0.00051440 </v>
   <v>       0.00051440 </v>
   <v>       0.00102881 </v>
   <v>       0.00102881 </v>
   <v>       0.00102881 </v>
   <v>       0.00102881 </v>
   <v>       0.00102881 </v>
   <v>       0.00102881 </v>
   <v>       0.00102881 </v>
   <v>       0.00102881 </v>
   <v>       0.00051440 </v>
   <v>       0.00051440 </v>
   <v>       0.00102881 </v>
   <v>       0.00102881 </v>
   <v>       0.00102881 </v>
   <v>       0.00102881 </v>
   <v>       0.00102881 </v>
   <v>       0.00102881 </v>
   <v>       0.00102881 </v>
   <v>       0.00102881 </v>
   <v>       0.00051440 </v>
   <v>       0.00051440 </v>
   <v>       0.00102881 </v>
   <v>       0.00102881 </v>
   <v>       0.00102881 </v>
   <v>       0.00102881 </v>
   <v>       0.00102881 </v>
   <v>       0.00102881 </v>
   <v>       0.00102881 </v>
   <v>       0.00102881 </v>
   <v>       0.00051440 </v>
   <v>       0.00051440 </v>
   <v>       0.00102881 </v>
   <v>       0.00102881 </v>
   <v>       0.00102881 </v>
   <v>       0.00102881 </v>
   <v>       0.00102881 </v>
   <v>       0.00102881 </v>
   <v>       0.00102881 </v>
   <v>       0.00102881 </v>
   <v>       0.00051440 </v>
   <v>       0.00051440 </v>
   <v>       0.00102881 </v>
   <v>       0.00102881 </v>
   <v>       0.00102881 </v>
   <v>       0.00102881 </v>
   <v>       0.00102881 </v>
   <v>       0.00102881 </v>
   <v>       0.00102881 </v>
   <v>       0.00102881 </v>
   <v>       0.00051440 </v>
   <v>       0.00051440 </v>
   <v>       0.00102881 </v>
   <v>       0.00102881 </v>
   <v>       0.00102881 </v>
   <v>       0.00102881 </v>
   <v>       0.00102881 </v>
   <v>       0.00102881 </v>
   <v>       0.00102881 </v>
   <v>       0.00102881 </v>
   <v>       0.00051440 </v>
   <v>       0.00051440 </v>
   <v>       0.00102881 </v>
   <v>       0.00102881 </v>
   <v>       0.00102881 </v>
   <v>       0.00102881 </v>
   <v>       0.00102881 </v>
   <v>       0.00102881 </v>
   <v>       0.00102881 </v>
   <v>       0.00102881 </v>
   <v>       0.00051440 </v>
   <v>       0.00051440 </v>
   <v>       0.00102881 </v>
   <v>       0.00102881 </v>
   <v>       0.00102881 </v>
   <v>       0.00102881 </v>
   <v>       0.00102881 </v>
   <v>       0.00102881 </v>
   <v>       0.00102881 </v>
   <v>       0.00102881 </v>
   <v>       0.00051440 </v>
   <v>       0.00102881 </v>
   <v>       0.00205761 </v>
   <v>       0.00205761 </v>
   <v>       0.00205761 </v>
   <v>       0.00205761 </v>
   <v>       0.00205761 </v>
   <v>       0.00205761 </v>
   <v>       0.00205761 </v>
   <v>       0.00205761 </v>
   <v>       0.00102881 </v>
   <v>       0.00051440 </v>
   <v>       0.00102881 </v>
   <v>       0.00102881 </v>
   <v>       0.00102881 </v>
   <v>       0.00102881 </v>
   <v>       0.00102881 </v>
   <v>       0.00102881 </v>
   <v>       0.00102881 </v>
   <v>       0.00102881 </v>
   <v>       0.00051440 </v>
   <v>       0.00051440 </v>
   <v>       0.00102881 </v>
   <v>       0.00102881 </v>
   <v>       0.00102881 </v>
   <v>       0.00102881 </v>
   <v>       0.00102881 </v>
   <v>       0.00102881 </v>
   <v>       0.00102881 </v>
   <v>       0.00102881 </v>
   <v>       0.00051440 </v>
   <v>       0.00102881 </v>
   <v>       0.00205761 </v>
   <v>       0.00205761 </v>
   <v>       0.00205761 </v>
   <v>       0.00205761 </v>
   <v>       0.00205761 </v>
   <v>       0.00205761 </v>
   <v>       0.00205761 </v>
   <v>       0.00205761 </v>
   <v>       0.00102881 </v>
   <v>       0.00051440 </v>
   <v>       0.00102881 </v>
   <v>       0.00102881 </v>
   <v>       0.00102881 </v>
   <v>       0.00102881 </v>
   <v>       0.00102881 </v>
   <v>       0.00102881 </v>
   <v>       0.00102881 </v>
   <v>       0.00102881 </v>
   <v>       0.00051440 </v>
   <v>       0.00051440 </v>
   <v>       0.00102881 </v>
   <v>       0.00102881 </v>
   <v>       0.00102881 </v>
   <v>       0.00102881 </v>
   <v>       0.00102881 </v>
   <v>       0.00102881 </v>
   <v>       0.00102881 </v>
   <v>       0.00102881 </v>
   <v>       0.00051440 </v>
   <v>       0.00051440 </v>
   <v>       0.00102881 </v>
   <v>       0.00102881 </v>
   <v>       0.00102881 </v>
   <v>       0.00102881 </v>
   <v>       0.00102881 </v>
   <v>       0.00102881 </v>
   <v>       0.00102881 </v>
   <v>       0.00102881 </v>
   <v>       0.00051440 </v>
   <v>       0.00051440 </v>
   <v>       0.00102881 </v>
   <v>       0.00102881 </v>
   <v>       0.00102881 </v>
   <v>       0.00102881 </v>
   <v>       0.00102881 </v>
   <v>       0.00102881 </v>
   <v>       0.00102881 </v>
   <v>       0.00102881 </v>
   <v>       0.00051440 </v>
   <v>       0.00051440 </v>
   <v>       0.00102881 </v>
   <v>       0.00102881 </v>
   <v>       0.00102881 </v>
   <v>       0.00102881 </v>
   <v>       0.00102881 </v>
   <v>       0.00102881 </v>
   <v>       0.00102881 </v>
   <v>       0.00102881 </v>
   <v>       0.00051440 </v>
   <v>       0.00051440 </v>
   <v>       0.00102881 </v>
   <v>       0.00102881 </v>
   <v>       0.00102881 </v>
   <v>       0.00102881 </v>
   <v>       0.00102881 </v>
   <v>       0.00102881 </v>
   <v>       0.00102881 </v>
   <v>       0.00102881 </v>
   <v>       0.00051440 </v>
   <v>       0.00051440 </v>
   <v>       0.00102881 </v>
   <v>       0.00102881 </v>
   <v>       0.00102881 </v>
   <v>       0.00102881 </v>
   <v>       0.00102881 </v>
   <v>       0.00102881 </v>
   <v>       0.00102881 </v>
   <v>       0.00102881 </v>
   <v>       0.00051440 </v>
[...]
       <r>    5.4398    1.0000 </r>
       <r>    5.6748    1.0000 </r>
       <r>    5.7477    1.0000 </r>
       <r>    5.8115    1.0000 </r>
       <r>    5.9807    1.0000 </r>
       <r>    6.0406    1.0000 </r>
       <r>    6.1611    1.0000 </r>
       <r>    6.2573    1.0000 </r>
       <r>    6.2688    1.0000 </r>
       <r>    6.5697    1.0000 </r>
       <r>    6.8615    1.0000 </r>
       <r>    7.3299    1.0018 </r>
       <r>    7.9783    0.6899 </r>
       <r>    8.3605   -0.0290 </r>
       <r>    9.3646    0.0000 </r>
       <r>   11.1583    0.0000 </r>
       <r>   12.5780    0.0000 </r>
       <r>   13.0544    0.0000 </r>
       <r>   13.7355    0.0000 </r>
      </set>
      <set comment="kpoint 969">
       <r>    1.5709    1.0000 </r>
       <r>    1.6406    1.0000 </r>
       <r>    1.8851    1.0000 </r>
       <r>    2.1750    1.0000 </r>
       <r>    2.2641    1.0000 </r>
       <r>    2.7860    1.0000 </r>
       <r>    2.9781    1.0000 </r>
       <r>    3.0596    1.0000 </r>
       <r>    3.3600    1.0000 </r>
       <r>    3.5031    1.0000 </r>
       <r>    3.5909    1.0000 </r>
       <r>    3.7584    1.0000 </r>
       <r>    3.8635    1.0000 </r>
       <r>    3.9011    1.0000 </r>
       <r>    4.1192    1.0000 </r>
       <r>    4.1872    1.0000 </r>
       <r>    4.3126    1.0000 </r>
       <r>    4.4848    1.0000 </r>
       <r>    4.6336    1.0000 </r>
       <r>    4.7932    1.0000 </r>
       <r>    5.0564    1.0000 </r>
       <r>    5.3878    1.0000 </r>
       <r>    5.6729    1.0000 </r>
       <r>    5.7678    1.0000 </r>
       <r>    5.8727    1.0000 </r>
       <r>    6.0042    1.0000 </r>
       <r>    6.1430    1.0000 </r>
       <r>    6.1727    1.0000 </r>
       <r>    6.2646    1.0000 </r>
       <r>    6.2802    1.0000 </r>
       <r>    6.8287    1.0000 </r>
       <r>    7.0392    1.0000 </r>
       <r>    7.6307    1.0321 </r>
       <r>    7.7081    1.0339 </r>
       <r>    7.7878    1.0051 </r>
       <r>    8.7829   -0.0014 </r>
       <r>   10.9811    0.0000 </r>
       <r>   12.2037    0.0000 </r>
       <r>   13.5617    0.0000 </r>
       <r>   14.2130    0.0000 </r>
      </set>
      <set comment="kpoint 970">
       <r>    1.5556    1.0000 </r>
       <r>    1.6327    1.0000 </r>
       <r>    1.9095    1.0000 </r>
       <r>    2.1471    1.0000 </r>
       <r>    2.2483    1.0000 </r>
       <r>    2.7934    1.0000 </r>
       <r>    2.9761    1.0000 </r>
       <r>    3.0551    1.0000 </r>
       <r>    3.3954    1.0000 </r>
       <r>    3.5614    1.0000 </r>
       <r>    3.5619    1.0000 </r>
       <r>    3.7759    1.0000 </r>
       <r>    3.8542    1.0000 </r>
       <r>    3.8905    1.0000 </r>
       <r>    4.1448    1.0000 </r>
       <r>    4.2122    1.0000 </r>
       <r>    4.3532    1.0000 </r>
       <r>    4.4648    1.0000 </r>
       <r>    4.6839    1.0000 </r>
       <r>    4.7388    1.0000 </r>
       <r>    5.1640    1.0000 </r>
       <r>    5.2976    1.0000 </r>
       <r>    5.6709    1.0000 </r>
       <r>    5.7668    1.0000 </r>
       <r>    5.9181    1.0000 </r>
       <r>    6.0072    1.0000 </r>
       <r>    6.1384    1.0000 </r>
       <r>    6.2445    1.0000 </r>
       <r>    6.2453    1.0000 </r>
       <r>    6.2687    1.0000 </r>
       <r>    7.0950    1.0000 </r>
       <r>    7.3280    1.0018 </r>
       <r>    7.3418    1.0022 </r>
       <r>    7.3903    1.0041 </r>
       <r>    7.9283    0.8089 </r>
       <r>    8.4591   -0.0328 </r>
       <r>   10.9410    0.0000 </r>
       <r>   12.0572    0.0000 </r>
       <r>   14.1050    0.0000 </r>
       <r>   14.1341    0.0000 </r>
      </set>
     </set>
    </set>
   </array>
  </eigenvalues>
  <separator name="orbital magnetization" >
   <v name="MAGDIPOLOUT">      0.00000000      0.00000000      0.00000000</v>
  </separator>
  <dos>
   <i name="efermi">      8.04759903 </i>
   <total>
    <array>
     <dimension dim="1">gridpoints</dimension>
     <dimension dim="2">spin</dimension>
     <field>energy</field>
     <field>total</field>
     <field>integrated</field>
     <set>
      <set comment="spin 1">
       <r>    -3.6831     0.0000     0.0000 </r>
       <r>    -3.6056     0.0000     0.0000 </r>
       <r>    -3.5282     0.0000     0.0000 </r>
       <r>    -3.4507     0.0000     0.0000 </r>
       <r>    -3.3732     0.0000     0.0000 </r>
       <r>    -3.2958     0.0000     0.0000 </r>
       <r>    -3.2183     0.0000     0.0000 </r>
       <r>    -3.1408     0.0000     0.0000 </r>
       <r>    -3.0634     0.0000     0.0000 </r>
       <r>    -2.9859     0.0000     0.0000 </r>
       <r>    -2.9084     0.0000     0.0000 </r>
       <r>    -2.8310     0.0000     0.0000 </r>
       <r>    -2.7535     0.0000     0.0000 </r>
       <r>    -2.6761     0.0000     0.0000 </r>
       <r>    -2.5986     0.0000     0.0000 </r>
       <r>    -2.5211     0.0000     0.0000 </r>
       <r>    -2.4437     0.0000     0.0000 </r>
       <r>    -2.3662     0.0000     0.0000 </r>
       <r>    -2.2887     0.0000     0.0000 </r>
       <r>    -2.2113     0.0000     0.0000 </r>
       <r>    -2.1338     0.0000     0.0000 </r>
       <r>    -2.0564     0.0000     0.0000 </r>
       <r>    -1.9789     0.0000     0.0000 </r>
       <r>    -1.9014     0.0000     0.0000 </r>
       <r>    -1.8240     0.0000     0.0000 </r>
       <r>    -1.7465     0.0000     0.0000 </r>
       <r>    -1.6690     0.0000     0.0000 </r>
       <r>    -1.5916     0.0000     0.0000 </r>
       <r>    -1.5141     0.0000     0.0000 </r>
       <r>    -1.4367    -0.0001     0.0000 </r>
       <r>    -1.3592    -0.0002     0.0000 </r>
       <r>    -1.2817    -0.0007    -0.0001 </r>
       <r>    -1.2043    -0.0017    -0.0002 </r>
       <r>    -1.1268    -0.0036    -0.0005 </r>
       <r>    -1.0493    -0.0061    -0.0010 </r>
       <r>    -0.9719    -0.0081    -0.0016 </r>
       <r>    -0.8944    -0.0064    -0.0021 </r>
       <r>    -0.8170     0.0035    -0.0018 </r>
       <r>    -0.7395     0.0263     0.0002 </r>
       <r>    -0.6620     0.0642     0.0052 </r>
       <r>    -0.5846     0.1150     0.0141 </r>
       <r>    -0.5071     0.1731     0.0275 </r>
       <r>    -0.4296     0.2315     0.0454 </r>
       <r>    -0.3522     0.2853     0.0675 </r>
       <r>    -0.2747     0.3330     0.0933 </r>
       <r>    -0.1973     0.3756     0.1224 </r>
       <r>    -0.1198     0.4157     0.1546 </r>
       <r>    -0.0423     0.4555     0.1899 </r>
       <r>     0.0351     0.4967     0.2284 </r>
       <r>     0.1126     0.5389     0.2701 </r>
       <r>     0.1901     0.5802     0.3151 </r>
       <r>     0.2675     0.6175     0.3629 </r>
       <r>     0.3450     0.6488     0.4132 </r>
       <r>     0.4224     0.6742     0.4654 </r>
       <r>     0.4999     0.6963     0.5193 </r>
       <r>     0.5774     0.7197     0.5751 </r>
       <r>     0.6548     0.7498     0.6332 </r>
       <r>     0.7323     0.7910     0.6944 </r>
       <r>     0.8098     0.8446     0.7599 </r>
       <r>     0.8872     0.9080     0.8302 </r>
       <r>     0.9647     0.9769     0.9059 </r>
       <r>     1.0421     1.0510     0.9873 </r>
       <r>     1.1196     1.1417     1.0757 </r>
       <r>     1.1971     1.2806     1.1749 </r>
       <r>     1.2745     1.5209     1.2928 </r>
       <r>     1.3520     1.9200     1.4415 </r>
       <r>     1.4295     2.5020     1.6353 </r>
       <r>     1.5069     3.2241     1.8850 </r>
       <r>     1.5844     3.9830     2.1936 </r>
       <r>     1.6618     4.6742     2.5556 </r>
       <r>     1.7393     5.2672     2.9637 </r>
       <r>     1.8168     5.8331     3.4155 </r>
       <r>     1.8942     6.4971     3.9188 </r>
       <r>     1.9717     7.3569     4.4887 </r>
       <r>     2.0492     8.4318     5.1418 </r>
       <r>     2.1266     9.6659     5.8906 </r>
       <r>     2.2041    10.9535     6.7390 </r>
       <r>     2.2815    12.1516     7.6803 </r>
       <r>     2.3590    13.0857     8.6940 </r>
       <r>     2.4365    13.5869     9.7465 </r>
       <r>     2.5139    13.5685    10.7975 </r>
       <r>     2.5914    13.0997    11.8123 </r>
       <r>     2.6689    12.4125    12.7738 </r>
       <r>     2.7463    11.8189    13.6893 </r>
       <r>     2.8238    11.5720    14.5857 </r>
       <r>     2.9012    11.7427    15.4953 </r>
       <r>     2.9787    12.1846    16.4392 </r>
       <r>     3.0562    12.6122    17.4161 </r>
       <r>     3.1336    12.7540    18.4041 </r>
       <r>     3.2111    12.4889    19.3715 </r>
       <r>     3.2886    11.8916    20.2927 </r>
       <r>     3.3660    11.1786    21.1586 </r>
       <r>     3.4435    10.6018    21.9798 </r>
       <r>     3.5209    10.3447    22.7811 </r>
       <r>     3.5984    10.4598    23.5914 </r>
       <r>     3.6759    10.8664    24.4331 </r>
       <r>     3.7533    11.4070    25.3167 </r>
       <r>     3.8308    11.9364    26.2414 </r>
       <r>     3.9083    12.3904    27.2012 </r>
       <r>     3.9857    12.7923    28.1921 </r>
       <r>     4.0632    13.1942    29.2141 </r>
       <r>     4.1406    13.6048    30.2680 </r>
       <r>     4.2181    13.9554    31.3490 </r>
       <r>     4.2956    14.1282    32.4434 </r>
       <r>     4.3730    14.0271    33.5300 </r>
       <r>     4.4505    13.6475    34.5872 </r>
       <r>     4.5280    13.0974    35.6017 </r>
       <r>     4.6054    12.5430    36.5734 </r>
       <r>     4.6829    12.1093    37.5114 </r>
       <r>     4.7603    11.8015    38.4255 </r>
       <r>     4.8378    11.4999    39.3164 </r>
       <r>     4.9153    11.0318    40.1709 </r>
       <r>     4.9927    10.2759    40.9669 </r>
       <r>     5.0702     9.2453    41.6831 </r>
       <r>     5.1477     8.1071    42.3111 </r>
       <r>     5.2251     7.1264    42.8631 </r>
       <r>     5.3026     6.5689    43.3719 </r>
       <r>     5.3800     6.6230    43.8850 </r>
       <r>     5.4575     7.3762    44.4563 </r>
       <r>     5.5350     8.8240    45.1399 </r>
       <r>     5.6124    10.8725    45.9821 </r>
       <r>     5.6899    13.3381    47.0153 </r>
       <r>     5.7674    15.9833    48.2534 </r>
       <r>     5.8448    18.5850    49.6931 </r>
       <r>     5.9223    20.9696    51.3174 </r>
       <r>     5.9997    22.9587    53.0958 </r>
       <r>     6.0772    24.2698    54.9758 </r>
       <r>     6.1547    24.4978    56.8735 </r>
       <r>     6.2321    23.2624    58.6755 </r>
       <r>     6.3096    20.4637    60.2607 </r>
       <r>     6.3871    16.4581    61.5355 </r>
       <r>     6.4645    11.9902    62.4643 </r>
       <r>     6.5420     7.8958    63.0760 </r>
       <r>     6.6194     4.7694    63.4454 </r>
       <r>     6.6969     2.7989    63.6622 </r>
       <r>     6.7744     1.8235    63.8035 </r>
       <r>     6.8518     1.5126    63.9206 </r>
       <r>     6.9293     1.5380    64.0398 </r>
       <r>     7.0068     1.6664    64.1689 </r>
       <r>     7.0842     1.7768    64.3065 </r>
       <r>     7.1617     1.8321    64.4484 </r>
       <r>     7.2391     1.8393    64.5909 </r>
       <r>     7.3166     1.8165    64.7316 </r>
       <r>     7.3941     1.7786    64.8694 </r>
       <r>     7.4715     1.7389    65.0041 </r>
       <r>     7.5490     1.7117    65.1367 </r>
       <r>     7.6265     1.7077    65.2690 </r>
       <r>     7.7039     1.7251    65.4026 </r>
       <r>     7.7814     1.7487    65.5380 </r>
       <r>     7.8588     1.7597    65.6744 </r>
       <r>     7.9363     1.7478    65.8097 </r>
       <r>     8.0138     1.7173    65.9428 </r>
       <r>     8.0912     1.6831    66.0732 </r>
       <r>     8.1687     1.6622    66.2019 </r>
       <r>     8.2462     1.6630    66.3307 </r>
       <r>     8.3236     1.6798    66.4609 </r>
       <r>     8.4011     1.6980    66.5924 </r>
       <r>     8.4785     1.7050    66.7245 </r>
       <r>     8.5560     1.6973    66.8559 </r>
       <r>     8.6335     1.6789    66.9860 </r>
       <r>     8.7109     1.6549    67.1142 </r>
       <r>     8.7884     1.6299    67.2404 </r>
       <r>     8.8659     1.6101    67.3652 </r>
       <r>     8.9433     1.6031    67.4893 </r>
       <r>     9.0208     1.6129    67.6143 </r>
       <r>     9.0982     1.6345    67.7409 </r>
       <r>     9.1757     1.6554    67.8691 </r>
       <r>     9.2532     1.6618    67.9979 </r>
       <r>     9.3306     1.6471    68.1254 </r>
       <r>     9.4081     1.6144    68.2505 </r>
       <r>     9.4856     1.5746    68.3725 </r>
       <r>     9.5630     1.5393    68.4917 </r>
       <r>     9.6405     1.5166    68.6092 </r>
       <r>     9.7179     1.5098    68.7261 </r>
       <r>     9.7954     1.5169    68.8436 </r>
       <r>     9.8729     1.5291    68.9621 </r>
       <r>     9.9503     1.5321    69.0808 </r>
       <r>    10.0278     1.5134    69.1980 </r>
       <r>    10.1053     1.4723    69.3120 </r>
       <r>    10.1827     1.4236    69.4223 </r>
       <r>    10.2602     1.3893    69.5299 </r>
       <r>    10.3376     1.3830    69.6371 </r>
       <r>    10.4151     1.4002    69.7455 </r>
       <r>    10.4926     1.4220    69.8557 </r>
       <r>    10.5700     1.4305    69.9665 </r>
       <r>    10.6475     1.4236    70.0768 </r>
       <r>    10.7250     1.4153    70.1864 </r>
       <r>    10.8024     1.4219    70.2965 </r>
       <r>    10.8799     1.4482    70.4087 </r>
       <r>    10.9573     1.4845    70.5237 </r>
       <r>    11.0348     1.5164    70.6412 </r>
       <r>    11.1123     1.5343    70.7600 </r>
       <r>    11.1897     1.5375    70.8791 </r>
       <r>    11.2672     1.5303    70.9977 </r>
       <r>    11.3447     1.5189    71.1153 </r>
       <r>    11.4221     1.5097    71.2323 </r>
       <r>    11.4996     1.5099    71.3492 </r>
       <r>    11.5770     1.5255    71.4674 </r>
       <r>    11.6545     1.5590    71.5882 </r>
       <r>    11.7320     1.6090    71.7128 </r>
       <r>    11.8094     1.6716    71.8423 </r>
       <r>    11.8869     1.7416    71.9772 </r>
       <r>    11.9644     1.8115    72.1175 </r>
       <r>    12.0418     1.8716    72.2625 </r>
       <r>    12.1193     1.9129    72.4107 </r>
       <r>    12.1968     1.9314    72.5603 </r>
       <r>    12.2742     1.9298    72.7098 </r>
       <r>    12.3517     1.9151    72.8581 </r>
       <r>    12.4291     1.8935    73.0048 </r>
       <r>    12.5066     1.8676    73.1495 </r>
       <r>    12.5841     1.8382    73.2919 </r>
       <r>    12.6615     1.8068    73.4318 </r>
       <r>    12.7390     1.7781    73.5696 </r>
       <r>    12.8165     1.7589    73.7058 </r>
       <r>    12.8939     1.7545    73.8417 </r>
       <r>    12.9714     1.7639    73.9784 </r>
       <r>    13.0488     1.7789    74.1162 </r>
       <r>    13.1263     1.7887    74.2547 </r>
       <r>    13.2038     1.7874    74.3932 </r>
       <r>    13.2812     1.7790    74.5310 </r>
       <r>    13.3587     1.7770    74.6686 </r>
       <r>    13.4362     1.7982    74.8079 </r>
       <r>    13.5136     1.8520    74.9514 </r>
       <r>    13.5911     1.9304    75.1009 </r>
       <r>    13.6685     2.0054    75.2563 </r>
       <r>    13.7460     2.0412    75.4144 </r>
       <r>    13.8235     2.0169    75.5706 </r>
       <r>    13.9009     1.9443    75.7212 </r>
       <r>    13.9784     1.8654    75.8657 </r>
       <r>    14.0559     1.8271    76.0073 </r>
       <r>    14.1333     1.8525    76.1508 </r>
       <r>    14.2108     1.9270    76.3000 </r>
       <r>    14.2882     2.0090    76.4556 </r>
       <r>    14.3657     2.0555    76.6149 </r>
       <r>    14.4432     2.0455    76.7733 </r>
       <r>    14.5206     1.9882    76.9273 </r>
       <r>    14.5981     1.9139    77.0756 </r>
       <r>    14.6756     1.8553    77.2193 </r>
       <r>    14.7530     1.8318    77.3612 </r>
       <r>    14.8305     1.8434    77.5040 </r>
       <r>    14.9079     1.8745    77.6492 </r>
       <r>    14.9854     1.9044    77.7967 </r>
       <r>    15.0629     1.9167    77.9452 </r>
       <r>    15.1403     1.9046    78.0927 </r>
       <r>    15.2178     1.8705    78.2376 </r>
       <r>    15.2953     1.8233    78.3789 </r>
       <r>    15.3727     1.7744    78.5163 </r>
       <r>    15.4502     1.7334    78.6506 </r>
       <r>    15.5276     1.7029    78.7825 </r>
       <r>    15.6051     1.6749    78.9122 </r>
       <r>    15.6826     1.6343    79.0388 </r>
       <r>    15.7600     1.5683    79.1603 </r>
       <r>    15.8375     1.4772    79.2747 </r>
       <r>    15.9150     1.3763    79.3814 </r>
       <r>    15.9924     1.2870    79.4810 </r>
       <r>    16.0699     1.2222    79.5757 </r>
       <r>    16.1473     1.1750    79.6667 </r>
       <r>    16.2248     1.1197    79.7535 </r>
       <r>    16.3023     1.0237    79.8328 </r>
       <r>    16.3797     0.8675    79.9000 </r>
       <r>    16.4572     0.6584    79.9510 </r>
       <r>    16.5347     0.4305    79.9843 </r>
       <r>    16.6121     0.2273    80.0019 </r>
       <r>    16.6896     0.0807    80.0082 </r>
       <r>    16.7670    -0.0010    80.0081 </r>
       <r>    16.8445    -0.0312    80.0057 </r>
       <r>    16.9220    -0.0318    80.0032 </r>
       <r>    16.9994    -0.0217    80.0015 </r>
       <r>    17.0769    -0.0118    80.0006 </r>
       <r>    17.1544    -0.0053    80.0002 </r>
       <r>    17.2318    -0.0020    80.0001 </r>
       <r>    17.3093    -0.0007    80.0000 </r>
       <r>    17.3867    -0.0002    80.0000 </r>
       <r>    17.4642     0.0000    80.0000 </r>
       <r>    17.5417     0.0000    80.0000 </r>
       <r>    17.6191     0.0000    80.0000 </r>
       <r>    17.6966     0.0000    80.0000 </r>
       <r>    17.7741     0.0000    80.0000 </r>
       <r>    17.8515     0.0000    80.0000 </r>
       <r>    17.9290     0.0000    80.0000 </r>
       <r>    18.0064     0.0000    80.0000 </r>
       <r>    18.0839     0.0000    80.0000 </r>
       <r>    18.1614     0.0000    80.0000 </r>
       <r>    18.2388     0.0000    80.0000 </r>
       <r>    18.3163     0.0000    80.0000 </r>
       <r>    18.3938     0.0000    80.0000 </r>
       <r>    18.4712     0.0000    80.0000 </r>
       <r>    18.5487     0.0000    80.0000 </r>
       <r>    18.6261     0.0000    80.0000 </r>
       <r>    18.7036     0.0000    80.0000 </r>
       <r>    18.7811     0.0000    80.0000 </r>
       <r>    18.8585     0.0000    80.0000 </r>
       <r>    18.9360     0.0000    80.0000 </r>
       <r>    19.0135     0.0000    80.0000 </r>
       <r>    19.0909     0.0000    80.0000 </r>
       <r>    19.1684     0.0000    80.0000 </r>
       <r>    19.2458     0.0000    80.0000 </r>
       <r>    19.3233     0.0000    80.0000 </r>
       <r>    19.4008     0.0000    80.0000 </r>
       <r>    19.4782     0.0000    80.0000 </r>
       <r>    19.5557     0.0000    80.0000 </r>
      </set>
     </set>
    </array>
   </total>
  </dos>
 </calculation>
 <structure name="finalpos" >
  <crystal>
   <varray name="basis" >
    <v>       3.85876377       0.00000000       0.00000000 </v>
    <v>       0.00000000       0.00000000      -4.09962583 </v>
    <v>       0.00000000       6.06419941       2.04981291 </v>
   </varray>
   <i name="volume">     95.93252738 </i>
   <varray name="rec_basis" >
    <v>       0.25915035       0.00000000       0.00000000 </v>
    <v>       0.00000000       0.08245111      -0.24392470 </v>
    <v>       0.00000000       0.16490223       0.00000000 </v>
   </varray>
  </crystal>
  <varray name="positions" >
   <v>       0.50000000       0.49887973       0.99775947 </v>
   <v>       0.50000000       0.83653980       0.67307961 </v>
   <v>       0.50000000       0.16637784       0.33275568 </v>
   <v>       0.00000000       0.33698581       0.67397162 </v>
   <v>       0.00000000       0.99350772       0.98701544 </v>
   <v>       0.00000000       0.66770909       0.33541819 </v>
  </varray>
 </structure>
</modeling>
