<?xml version="1.0" encoding="ISO-8859-1"?>
<modeling>
 <generator>
  <i name="program" type="string">vasp </i>
  <i name="version" type="string">5.3.5  </i>
  <i name="subversion" type="string">31Mar14 (build Jun 20 2014 13:15:13) complex                          parallel </i>
  <i name="platform" type="string">LinuxIFC </i>
  <i name="date" type="string">2025 11 21 </i>
  <i name="time" type="string">12:54:55 </i>
 </generator>
 <incar>
  <i type="string" name="PREC">accurate</i>
  <i type="int" name="IALGO">    68</i>
  <i type="logical" name="ADDGRID"> T  </i>
  <i type="int" name="NELM">   100</i>
  <i type="int" name="NELMIN">     4</i>
  <i type="int" name="IBRION">     2</i>
  <i name="EDIFF">      0.00000100</i>
  <i name="EDIFFG">     -0.02000000</i>
  <i type="int" name="NSW">    30</i>
  <i type="int" name="ISIF">     3</i>
  <i name="ENCUT">    500.00000000</i>
  <i type="logical" name="LREAL"> F  </i>
  <i type="int" name="ISMEAR">     1</i>
  <i name="SIGMA">      0.30000000</i>
  <i type="logical" name="LWAVE"> F  </i>
  <i type="logical" name="LCHARG"> F  </i>
  <i type="int" name="NELM">   100</i>
 </incar>
 <kpoints>
  <generation param="Auto">
   <i name="subdivisionlength">     70.00000000 </i>
   <v type="int" name="divisions">      24       24        6 </v>
   <v name="usershift">      0.00000000       0.00000000       0.00000000 </v>
   <v name="genvec1">      0.04166667       0.00000000       0.00000000 </v>
   <v name="genvec2">      0.00000000       0.04166667       0.00000000 </v>
   <v name="genvec3">      0.00000000       0.00000000       0.16666667 </v>
   <v name="shift">      0.00000000       0.00000000       0.00000000 </v>
  </generation>
  <varray name="kpointlist" >
   <v>       0.00000000       0.00000000       0.00000000 </v>
   <v>       0.04166667       0.00000000       0.00000000 </v>
   <v>       0.08333333       0.00000000       0.00000000 </v>
   <v>       0.12500000       0.00000000       0.00000000 </v>
   <v>       0.16666667       0.00000000       0.00000000 </v>
   <v>       0.20833333       0.00000000       0.00000000 </v>
   <v>       0.25000000       0.00000000       0.00000000 </v>
   <v>       0.29166667       0.00000000       0.00000000 </v>
   <v>       0.33333333       0.00000000       0.00000000 </v>
   <v>       0.37500000       0.00000000       0.00000000 </v>
   <v>       0.41666667       0.00000000       0.00000000 </v>
   <v>       0.45833333       0.00000000       0.00000000 </v>
   <v>       0.50000000       0.00000000       0.00000000 </v>
   <v>       0.04166667       0.04166667       0.00000000 </v>
   <v>       0.08333333       0.04166667       0.00000000 </v>
   <v>       0.12500000       0.04166667       0.00000000 </v>
   <v>       0.16666667       0.04166667       0.00000000 </v>
   <v>       0.20833333       0.04166667       0.00000000 </v>
   <v>       0.25000000       0.04166667       0.00000000 </v>
   <v>       0.29166667       0.04166667       0.00000000 </v>
   <v>       0.33333333       0.04166667       0.00000000 </v>
   <v>       0.37500000       0.04166667       0.00000000 </v>
   <v>       0.41666667       0.04166667       0.00000000 </v>
   <v>       0.45833333       0.04166667       0.00000000 </v>
   <v>       0.50000000       0.04166667       0.00000000 </v>
   <v>       0.08333333       0.08333333       0.00000000 </v>
   <v>       0.12500000       0.08333333       0.00000000 </v>
   <v>       0.16666667       0.08333333       0.00000000 </v>
   <v>       0.20833333       0.08333333       0.00000000 </v>
   <v>       0.25000000       0.08333333       0.00000000 </v>
   <v>       0.29166667       0.08333333       0.00000000 </v>
   <v>       0.33333333       0.08333333       0.00000000 </v>
   <v>       0.37500000       0.08333333       0.00000000 </v>
   <v>       0.41666667       0.08333333       0.00000000 </v>
   <v>       0.45833333       0.08333333       0.00000000 </v>
   <v>       0.50000000       0.08333333       0.00000000 </v>
   <v>       0.12500000       0.12500000       0.00000000 </v>
   <v>       0.16666667       0.12500000       0.00000000 </v>
   <v>       0.20833333       0.12500000       0.00000000 </v>
   <v>       0.25000000       0.12500000       0.00000000 </v>
   <v>       0.29166667       0.12500000       0.00000000 </v>
   <v>       0.33333333       0.12500000       0.00000000 </v>
   <v>       0.37500000       0.12500000       0.00000000 </v>
   <v>       0.41666667       0.12500000       0.00000000 </v>
   <v>       0.45833333       0.12500000       0.00000000 </v>
   <v>       0.50000000       0.12500000       0.00000000 </v>
   <v>       0.16666667       0.16666667       0.00000000 </v>
   <v>       0.20833333       0.16666667       0.00000000 </v>
   <v>       0.25000000       0.16666667       0.00000000 </v>
   <v>       0.29166667       0.16666667       0.00000000 </v>
   <v>       0.33333333       0.16666667       0.00000000 </v>
   <v>       0.37500000       0.16666667       0.00000000 </v>
   <v>       0.41666667       0.16666667       0.00000000 </v>
   <v>       0.45833333       0.16666667       0.00000000 </v>
   <v>       0.50000000       0.16666667       0.00000000 </v>
   <v>       0.20833333       0.20833333       0.00000000 </v>
   <v>       0.25000000       0.20833333       0.00000000 </v>
   <v>       0.29166667       0.20833333       0.00000000 </v>
   <v>       0.33333333       0.20833333       0.00000000 </v>
   <v>       0.37500000       0.20833333       0.00000000 </v>
   <v>       0.41666667       0.20833333       0.00000000 </v>
   <v>       0.45833333       0.20833333       0.00000000 </v>
   <v>       0.50000000       0.20833333       0.00000000 </v>
   <v>       0.25000000       0.25000000       0.00000000 </v>
   <v>       0.29166667       0.25000000       0.00000000 </v>
   <v>       0.33333333       0.25000000       0.00000000 </v>
   <v>       0.37500000       0.25000000       0.00000000 </v>
   <v>       0.41666667       0.25000000       0.00000000 </v>
   <v>       0.45833333       0.25000000       0.00000000 </v>
   <v>       0.50000000       0.25000000       0.00000000 </v>
   <v>       0.29166667       0.29166667       0.00000000 </v>
   <v>       0.33333333       0.29166667       0.00000000 </v>
   <v>       0.37500000       0.29166667       0.00000000 </v>
   <v>       0.41666667       0.29166667       0.00000000 </v>
   <v>       0.45833333       0.29166667       0.00000000 </v>
   <v>       0.50000000       0.29166667       0.00000000 </v>
   <v>       0.33333333       0.33333333       0.00000000 </v>
   <v>       0.37500000       0.33333333       0.00000000 </v>
   <v>       0.41666667       0.33333333       0.00000000 </v>
   <v>       0.45833333       0.33333333       0.00000000 </v>
   <v>       0.50000000       0.33333333       0.00000000 </v>
   <v>       0.37500000       0.37500000       0.00000000 </v>
   <v>       0.41666667       0.37500000       0.00000000 </v>
   <v>       0.45833333       0.37500000       0.00000000 </v>
   <v>       0.50000000       0.37500000       0.00000000 </v>
   <v>       0.41666667       0.41666667       0.00000000 </v>
   <v>       0.45833333       0.41666667       0.00000000 </v>
   <v>       0.50000000       0.41666667       0.00000000 </v>
   <v>       0.45833333       0.45833333       0.00000000 </v>
   <v>       0.50000000       0.45833333       0.00000000 </v>
   <v>       0.50000000       0.50000000       0.00000000 </v>
   <v>       0.00000000       0.00000000       0.16666667 </v>
   <v>       0.04166667       0.00000000       0.16666667 </v>
   <v>       0.08333333       0.00000000       0.16666667 </v>
   <v>       0.12500000       0.00000000       0.16666667 </v>
   <v>       0.16666667       0.00000000       0.16666667 </v>
   <v>       0.20833333       0.00000000       0.16666667 </v>
   <v>       0.25000000       0.00000000       0.16666667 </v>
   <v>       0.29166667       0.00000000       0.16666667 </v>
   <v>       0.33333333       0.00000000       0.16666667 </v>
   <v>       0.37500000       0.00000000       0.16666667 </v>
   <v>       0.41666667       0.00000000       0.16666667 </v>
   <v>       0.45833333       0.00000000       0.16666667 </v>
   <v>       0.50000000       0.00000000       0.16666667 </v>
   <v>       0.04166667       0.04166667       0.16666667 </v>
   <v>       0.08333333       0.04166667       0.16666667 </v>
   <v>       0.12500000       0.04166667       0.16666667 </v>
   <v>       0.16666667       0.04166667       0.16666667 </v>
   <v>       0.20833333       0.04166667       0.16666667 </v>
   <v>       0.25000000       0.04166667       0.16666667 </v>
   <v>       0.29166667       0.04166667       0.16666667 </v>
   <v>       0.33333333       0.04166667       0.16666667 </v>
   <v>       0.37500000       0.04166667       0.16666667 </v>
   <v>       0.41666667       0.04166667       0.16666667 </v>
   <v>       0.45833333       0.04166667       0.16666667 </v>
   <v>       0.50000000       0.04166667       0.16666667 </v>
   <v>       0.08333333       0.08333333       0.16666667 </v>
   <v>       0.12500000       0.08333333       0.16666667 </v>
   <v>       0.16666667       0.08333333       0.16666667 </v>
   <v>       0.20833333       0.08333333       0.16666667 </v>
   <v>       0.25000000       0.08333333       0.16666667 </v>
   <v>       0.29166667       0.08333333       0.16666667 </v>
   <v>       0.33333333       0.08333333       0.16666667 </v>
   <v>       0.37500000       0.08333333       0.16666667 </v>
   <v>       0.41666667       0.08333333       0.16666667 </v>
   <v>       0.45833333       0.08333333       0.16666667 </v>
   <v>       0.50000000       0.08333333       0.16666667 </v>
   <v>       0.12500000       0.12500000       0.16666667 </v>
   <v>       0.16666667       0.12500000       0.16666667 </v>
   <v>       0.20833333       0.12500000       0.16666667 </v>
   <v>       0.25000000       0.12500000       0.16666667 </v>
   <v>       0.29166667       0.12500000       0.16666667 </v>
   <v>       0.33333333       0.12500000       0.16666667 </v>
   <v>       0.37500000       0.12500000       0.16666667 </v>
   <v>       0.41666667       0.12500000       0.16666667 </v>
   <v>       0.45833333       0.12500000       0.16666667 </v>
   <v>       0.50000000       0.12500000       0.16666667 </v>
   <v>       0.16666667       0.16666667       0.16666667 </v>
   <v>       0.20833333       0.16666667       0.16666667 </v>
   <v>       0.25000000       0.16666667       0.16666667 </v>
   <v>       0.29166667       0.16666667       0.16666667 </v>
   <v>       0.33333333       0.16666667       0.16666667 </v>
   <v>       0.37500000       0.16666667       0.16666667 </v>
   <v>       0.41666667       0.16666667       0.16666667 </v>
   <v>       0.45833333       0.16666667       0.16666667 </v>
   <v>       0.50000000       0.16666667       0.16666667 </v>
   <v>       0.20833333       0.20833333       0.16666667 </v>
   <v>       0.25000000       0.20833333       0.16666667 </v>
   <v>       0.29166667       0.20833333       0.16666667 </v>
   <v>       0.33333333       0.20833333       0.16666667 </v>
   <v>       0.37500000       0.20833333       0.16666667 </v>
   <v>       0.41666667       0.20833333       0.16666667 </v>
   <v>       0.45833333       0.20833333       0.16666667 </v>
   <v>       0.50000000       0.20833333       0.16666667 </v>
   <v>       0.25000000       0.25000000       0.16666667 </v>
   <v>       0.29166667       0.25000000       0.16666667 </v>
   <v>       0.33333333       0.25000000       0.16666667 </v>
   <v>       0.37500000       0.25000000       0.16666667 </v>
   <v>       0.41666667       0.25000000       0.16666667 </v>
   <v>       0.45833333       0.25000000       0.16666667 </v>
   <v>       0.50000000       0.25000000       0.16666667 </v>
   <v>       0.29166667       0.29166667       0.16666667 </v>
   <v>       0.33333333       0.29166667       0.16666667 </v>
   <v>       0.37500000       0.29166667       0.16666667 </v>
   <v>       0.41666667       0.29166667       0.16666667 </v>
   <v>       0.45833333       0.29166667       0.16666667 </v>
   <v>       0.50000000       0.29166667       0.16666667 </v>
   <v>       0.33333333       0.33333333       0.16666667 </v>
   <v>       0.37500000       0.33333333       0.16666667 </v>
   <v>       0.41666667       0.33333333       0.16666667 </v>
   <v>       0.45833333       0.33333333       0.16666667 </v>
   <v>       0.50000000       0.33333333       0.16666667 </v>
   <v>       0.37500000       0.37500000       0.16666667 </v>
   <v>       0.41666667       0.37500000       0.16666667 </v>
   <v>       0.45833333       0.37500000       0.16666667 </v>
   <v>       0.50000000       0.37500000       0.16666667 </v>
   <v>       0.41666667       0.41666667       0.16666667 </v>
   <v>       0.45833333       0.41666667       0.16666667 </v>
   <v>       0.50000000       0.41666667       0.16666667 </v>
   <v>       0.45833333       0.45833333       0.16666667 </v>
   <v>       0.50000000       0.45833333       0.16666667 </v>
   <v>       0.50000000       0.50000000       0.16666667 </v>
   <v>       0.00000000       0.00000000       0.33333333 </v>
   <v>       0.04166667       0.00000000       0.33333333 </v>
   <v>       0.08333333       0.00000000       0.33333333 </v>
   <v>       0.12500000       0.00000000       0.33333333 </v>
   <v>       0.16666667       0.00000000       0.33333333 </v>
   <v>       0.20833333       0.00000000       0.33333333 </v>
   <v>       0.25000000       0.00000000       0.33333333 </v>
   <v>       0.29166667       0.00000000       0.33333333 </v>
   <v>       0.33333333       0.00000000       0.33333333 </v>
   <v>       0.37500000       0.00000000       0.33333333 </v>
   <v>       0.41666667       0.00000000       0.33333333 </v>
   <v>       0.45833333       0.00000000       0.33333333 </v>
   <v>       0.50000000       0.00000000       0.33333333 </v>
   <v>       0.04166667       0.04166667       0.33333333 </v>
   <v>       0.08333333       0.04166667       0.33333333 </v>
   <v>       0.12500000       0.04166667       0.33333333 </v>
   <v>       0.16666667       0.04166667       0.33333333 </v>
   <v>       0.20833333       0.04166667       0.33333333 </v>
   <v>       0.25000000       0.04166667       0.33333333 </v>
   <v>       0.29166667       0.04166667       0.33333333 </v>
   <v>       0.33333333       0.04166667       0.33333333 </v>
   <v>       0.37500000       0.04166667       0.33333333 </v>
   <v>       0.41666667       0.04166667       0.33333333 </v>
   <v>       0.45833333       0.04166667       0.33333333 </v>
   <v>       0.50000000       0.04166667       0.33333333 </v>
   <v>       0.08333333       0.08333333       0.33333333 </v>
   <v>       0.12500000       0.08333333       0.33333333 </v>
   <v>       0.16666667       0.08333333       0.33333333 </v>
   <v>       0.20833333       0.08333333       0.33333333 </v>
   <v>       0.25000000       0.08333333       0.33333333 </v>
   <v>       0.29166667       0.08333333       0.33333333 </v>
   <v>       0.33333333       0.08333333       0.33333333 </v>
   <v>       0.37500000       0.08333333       0.33333333 </v>
   <v>       0.41666667       0.08333333       0.33333333 </v>
   <v>       0.45833333       0.08333333       0.33333333 </v>
   <v>       0.50000000       0.08333333       0.33333333 </v>
   <v>       0.12500000       0.12500000       0.33333333 </v>
   <v>       0.16666667       0.12500000       0.33333333 </v>
   <v>       0.20833333       0.12500000       0.33333333 </v>
   <v>       0.25000000       0.12500000       0.33333333 </v>
   <v>       0.29166667       0.12500000       0.33333333 </v>
   <v>       0.33333333       0.12500000       0.33333333 </v>
   <v>       0.37500000       0.12500000       0.33333333 </v>
   <v>       0.41666667       0.12500000       0.33333333 </v>
   <v>       0.45833333       0.12500000       0.33333333 </v>
   <v>       0.50000000       0.12500000       0.33333333 </v>
   <v>       0.16666667       0.16666667       0.33333333 </v>
   <v>       0.20833333       0.16666667       0.33333333 </v>
   <v>       0.25000000       0.16666667       0.33333333 </v>
   <v>       0.29166667       0.16666667       0.33333333 </v>
   <v>       0.33333333       0.16666667       0.33333333 </v>
   <v>       0.37500000       0.16666667       0.33333333 </v>
   <v>       0.41666667       0.16666667       0.33333333 </v>
   <v>       0.45833333       0.16666667       0.33333333 </v>
   <v>       0.50000000       0.16666667       0.33333333 </v>
   <v>       0.20833333       0.20833333       0.33333333 </v>
   <v>       0.25000000       0.20833333       0.33333333 </v>
   <v>       0.29166667       0.20833333       0.33333333 </v>
   <v>       0.33333333       0.20833333       0.33333333 </v>
   <v>       0.37500000       0.20833333       0.33333333 </v>
   <v>       0.41666667       0.20833333       0.33333333 </v>
   <v>       0.45833333       0.20833333       0.33333333 </v>
   <v>       0.50000000       0.20833333       0.33333333 </v>
   <v>       0.25000000       0.25000000       0.33333333 </v>
   <v>       0.29166667       0.25000000       0.33333333 </v>
   <v>       0.33333333       0.25000000       0.33333333 </v>
   <v>       0.37500000       0.25000000       0.33333333 </v>
   <v>       0.41666667       0.25000000       0.33333333 </v>
   <v>       0.45833333       0.25000000       0.33333333 </v>
   <v>       0.50000000       0.25000000       0.33333333 </v>
   <v>       0.29166667       0.29166667       0.33333333 </v>
   <v>       0.33333333       0.29166667       0.33333333 </v>
   <v>       0.37500000       0.29166667       0.33333333 </v>
   <v>       0.41666667       0.29166667       0.33333333 </v>
   <v>       0.45833333       0.29166667       0.33333333 </v>
   <v>       0.50000000       0.29166667       0.33333333 </v>
   <v>       0.33333333       0.33333333       0.33333333 </v>
   <v>       0.37500000       0.33333333       0.33333333 </v>
   <v>       0.41666667       0.33333333       0.33333333 </v>
   <v>       0.45833333       0.33333333       0.33333333 </v>
   <v>       0.50000000       0.33333333       0.33333333 </v>
   <v>       0.37500000       0.37500000       0.33333333 </v>
   <v>       0.41666667       0.37500000       0.33333333 </v>
   <v>       0.45833333       0.37500000       0.33333333 </v>
   <v>       0.50000000       0.37500000       0.33333333 </v>
   <v>       0.41666667       0.41666667       0.33333333 </v>
   <v>       0.45833333       0.41666667       0.33333333 </v>
   <v>       0.50000000       0.41666667       0.33333333 </v>
   <v>       0.45833333       0.45833333       0.33333333 </v>
   <v>       0.50000000       0.45833333       0.33333333 </v>
   <v>       0.50000000       0.50000000       0.33333333 </v>
   <v>       0.00000000       0.00000000       0.50000000 </v>
   <v>       0.04166667       0.00000000       0.50000000 </v>
   <v>       0.08333333       0.00000000       0.50000000 </v>
   <v>       0.12500000       0.00000000       0.50000000 </v>
   <v>       0.16666667       0.00000000       0.50000000 </v>
   <v>       0.20833333       0.00000000       0.50000000 </v>
   <v>       0.25000000       0.00000000       0.50000000 </v>
   <v>       0.29166667       0.00000000       0.50000000 </v>
   <v>       0.33333333       0.00000000       0.50000000 </v>
   <v>       0.37500000       0.00000000       0.50000000 </v>
   <v>       0.41666667       0.00000000       0.50000000 </v>
   <v>       0.45833333       0.00000000       0.50000000 </v>
   <v>       0.50000000       0.00000000       0.50000000 </v>
   <v>       0.04166667       0.04166667       0.50000000 </v>
   <v>       0.08333333       0.04166667       0.50000000 </v>
   <v>       0.12500000       0.04166667       0.50000000 </v>
   <v>       0.16666667       0.04166667       0.50000000 </v>
   <v>       0.20833333       0.04166667       0.50000000 </v>
   <v>       0.25000000       0.04166667       0.50000000 </v>
   <v>       0.29166667       0.04166667       0.50000000 </v>
   <v>       0.33333333       0.04166667       0.50000000 </v>
   <v>       0.37500000       0.04166667       0.50000000 </v>
   <v>       0.41666667       0.04166667       0.50000000 </v>
   <v>       0.45833333       0.04166667       0.50000000 </v>
   <v>       0.50000000       0.04166667       0.50000000 </v>
   <v>       0.08333333       0.08333333       0.50000000 </v>
   <v>       0.12500000       0.08333333       0.50000000 </v>
   <v>       0.16666667       0.08333333       0.50000000 </v>
   <v>       0.20833333       0.08333333       0.50000000 </v>
   <v>       0.25000000       0.08333333       0.50000000 </v>
   <v>       0.29166667       0.08333333       0.50000000 </v>
   <v>       0.33333333       0.08333333       0.50000000 </v>
   <v>       0.37500000       0.08333333       0.50000000 </v>
   <v>       0.41666667       0.08333333       0.50000000 </v>
   <v>       0.45833333       0.08333333       0.50000000 </v>
   <v>       0.50000000       0.08333333       0.50000000 </v>
   <v>       0.12500000       0.12500000       0.50000000 </v>
   <v>       0.16666667       0.12500000       0.50000000 </v>
   <v>       0.20833333       0.12500000       0.50000000 </v>
   <v>       0.25000000       0.12500000       0.50000000 </v>
   <v>       0.29166667       0.12500000       0.50000000 </v>
   <v>       0.33333333       0.12500000       0.50000000 </v>
   <v>       0.37500000       0.12500000       0.50000000 </v>
   <v>       0.41666667       0.12500000       0.50000000 </v>
   <v>       0.45833333       0.12500000       0.50000000 </v>
   <v>       0.50000000       0.12500000       0.50000000 </v>
   <v>       0.16666667       0.16666667       0.50000000 </v>
   <v>       0.20833333       0.16666667       0.50000000 </v>
   <v>       0.25000000       0.16666667       0.50000000 </v>
   <v>       0.29166667       0.16666667       0.50000000 </v>
   <v>       0.33333333       0.16666667       0.50000000 </v>
   <v>       0.37500000       0.16666667       0.50000000 </v>
   <v>       0.41666667       0.16666667       0.50000000 </v>
   <v>       0.45833333       0.16666667       0.50000000 </v>
   <v>       0.50000000       0.16666667       0.50000000 </v>
   <v>       0.20833333       0.20833333       0.50000000 </v>
   <v>       0.25000000       0.20833333       0.50000000 </v>
   <v>       0.29166667       0.20833333       0.50000000 </v>
   <v>       0.33333333       0.20833333       0.50000000 </v>
   <v>       0.37500000       0.20833333       0.50000000 </v>
   <v>       0.41666667       0.20833333       0.50000000 </v>
   <v>       0.45833333       0.20833333       0.50000000 </v>
   <v>       0.50000000       0.20833333       0.50000000 </v>
   <v>       0.25000000       0.25000000       0.50000000 </v>
   <v>       0.29166667       0.25000000       0.50000000 </v>
   <v>       0.33333333       0.25000000       0.50000000 </v>
   <v>       0.37500000       0.25000000       0.50000000 </v>
   <v>       0.41666667       0.25000000       0.50000000 </v>
   <v>       0.45833333       0.25000000       0.50000000 </v>
   <v>       0.50000000       0.25000000       0.50000000 </v>
   <v>       0.29166667       0.29166667       0.50000000 </v>
   <v>       0.33333333       0.29166667       0.50000000 </v>
   <v>       0.37500000       0.29166667       0.50000000 </v>
   <v>       0.41666667       0.29166667       0.50000000 </v>
   <v>       0.45833333       0.29166667       0.50000000 </v>
   <v>       0.50000000       0.29166667       0.50000000 </v>
   <v>       0.33333333       0.33333333       0.50000000 </v>
   <v>       0.37500000       0.33333333       0.50000000 </v>
   <v>       0.41666667       0.33333333       0.50000000 </v>
   <v>       0.45833333       0.33333333       0.50000000 </v>
   <v>       0.50000000       0.33333333       0.50000000 </v>
   <v>       0.37500000       0.37500000       0.50000000 </v>
   <v>       0.41666667       0.37500000       0.50000000 </v>
   <v>       0.45833333       0.37500000       0.50000000 </v>
   <v>       0.50000000       0.37500000       0.50000000 </v>
   <v>       0.41666667       0.41666667       0.50000000 </v>
   <v>       0.45833333       0.41666667       0.50000000 </v>
   <v>       0.50000000       0.41666667       0.50000000 </v>
   <v>       0.45833333       0.45833333       0.50000000 </v>
   <v>       0.50000000       0.45833333       0.50000000 </v>
   <v>       0.50000000       0.50000000       0.50000000 </v>
  </varray>
  <varray name="weights" >
   <v>       0.00028935 </v>
   <v>       0.00115741 </v>
   <v>       0.00115741 </v>
   <v>       0.00115741 </v>
   <v>       0.00115741 </v>
   <v>       0.00115741 </v>
   <v>       0.00115741 </v>
   <v>       0.00115741 </v>
   <v>       0.00115741 </v>
   <v>       0.00115741 </v>
   <v>       0.00115741 </v>
   <v>       0.00115741 </v>
   <v>       0.00057870 </v>
   <v>       0.00115741 </v>
   <v>       0.00231481 </v>
   <v>       0.00231481 </v>
   <v>       0.00231481 </v>
   <v>       0.00231481 </v>
   <v>       0.00231481 </v>
   <v>       0.00231481 </v>
   <v>       0.00231481 </v>
   <v>       0.00231481 </v>
   <v>       0.00231481 </v>
   <v>       0.00231481 </v>
   <v>       0.00115741 </v>
   <v>       0.00115741 </v>
   <v>       0.00231481 </v>
   <v>       0.00231481 </v>
   <v>       0.00231481 </v>
   <v>       0.00231481 </v>
   <v>       0.00231481 </v>
   <v>       0.00231481 </v>
   <v>       0.00231481 </v>
   <v>       0.00231481 </v>
   <v>       0.00231481 </v>
   <v>       0.00115741 </v>
   <v>       0.00115741 </v>
   <v>       0.00231481 </v>
   <v>       0.00231481 </v>
   <v>       0.00231481 </v>
   <v>       0.00231481 </v>
   <v>       0.00231481 </v>
   <v>       0.00231481 </v>
   <v>       0.00231481 </v>
   <v>       0.00231481 </v>
   <v>       0.00115741 </v>
   <v>       0.00115741 </v>
   <v>       0.00231481 </v>
   <v>       0.00231481 </v>
   <v>       0.00231481 </v>
   <v>       0.00231481 </v>
   <v>       0.00231481 </v>
   <v>       0.00231481 </v>
   <v>       0.00231481 </v>
   <v>       0.00115741 </v>
   <v>       0.00115741 </v>
   <v>       0.00231481 </v>
   <v>       0.00231481 </v>
   <v>       0.00231481 </v>
   <v>       0.00231481 </v>
   <v>       0.00231481 </v>
   <v>       0.00231481 </v>
   <v>       0.00115741 </v>
   <v>       0.00115741 </v>
   <v>       0.00231481 </v>
   <v>       0.00231481 </v>
   <v>       0.00231481 </v>
   <v>       0.00231481 </v>
   <v>       0.00231481 </v>
   <v>       0.00115741 </v>
   <v>       0.00115741 </v>
   <v>       0.00231481 </v>
   <v>       0.00231481 </v>
   <v>       0.00231481 </v>
   <v>       0.00231481 </v>
   <v>       0.00115741 </v>
   <v>       0.00115741 </v>
   <v>       0.00231481 </v>
   <v>       0.00231481 </v>
   <v>       0.00231481 </v>
   <v>       0.00115741 </v>
   <v>       0.00115741 </v>
   <v>       0.00231481 </v>
   <v>       0.00231481 </v>
   <v>       0.00115741 </v>
   <v>       0.00115741 </v>
   <v>       0.00231481 </v>
   <v>       0.00115741 </v>
   <v>       0.00115741 </v>
   <v>       0.00115741 </v>
   <v>       0.00028935 </v>
   <v>       0.00057870 </v>
   <v>       0.00231481 </v>
   <v>       0.00231481 </v>
   <v>       0.00231481 </v>
   <v>       0.00231481 </v>
   <v>       0.00231481 </v>
   <v>       0.00231481 </v>
   <v>       0.00231481 </v>
   <v>       0.00231481 </v>
   <v>       0.00231481 </v>
   <v>       0.00231481 </v>
   <v>       0.00231481 </v>
   <v>       0.00115741 </v>
   <v>       0.00231481 </v>
   <v>       0.00462963 </v>
   <v>       0.00462963 </v>
   <v>       0.00462963 </v>
   <v>       0.00462963 </v>
   <v>       0.00462963 </v>
   <v>       0.00462963 </v>
   <v>       0.00462963 </v>
   <v>       0.00462963 </v>
   <v>       0.00462963 </v>
   <v>       0.00462963 </v>
   <v>       0.00231481 </v>
   <v>       0.00231481 </v>
   <v>       0.00462963 </v>
   <v>       0.00462963 </v>
   <v>       0.00462963 </v>
   <v>       0.00462963 </v>
   <v>       0.00462963 </v>
   <v>       0.00462963 </v>
   <v>       0.00462963 </v>
   <v>       0.00462963 </v>
   <v>       0.00462963 </v>
   <v>       0.00231481 </v>
   <v>       0.00231481 </v>
   <v>       0.00462963 </v>
   <v>       0.00462963 </v>
   <v>       0.00462963 </v>
   <v>       0.00462963 </v>
   <v>       0.00462963 </v>
   <v>       0.00462963 </v>
   <v>       0.00462963 </v>
   <v>       0.00462963 </v>
   <v>       0.00231481 </v>
   <v>       0.00231481 </v>
   <v>       0.00462963 </v>
   <v>       0.00462963 </v>
   <v>       0.00462963 </v>
   <v>       0.00462963 </v>
   <v>       0.00462963 </v>
   <v>       0.00462963 </v>
   <v>       0.00462963 </v>
   <v>       0.00231481 </v>
   <v>       0.00231481 </v>
   <v>       0.00462963 </v>
   <v>       0.00462963 </v>
   <v>       0.00462963 </v>
   <v>       0.00462963 </v>
   <v>       0.00462963 </v>
   <v>       0.00462963 </v>
   <v>       0.00231481 </v>
   <v>       0.00231481 </v>
   <v>       0.00462963 </v>
   <v>       0.00462963 </v>
   <v>       0.00462963 </v>
   <v>       0.00462963 </v>
   <v>       0.00462963 </v>
   <v>       0.00231481 </v>
   <v>       0.00231481 </v>
   <v>       0.00462963 </v>
   <v>       0.00462963 </v>
   <v>       0.00462963 </v>
   <v>       0.00462963 </v>
   <v>       0.00231481 </v>
   <v>       0.00231481 </v>
   <v>       0.00462963 </v>
   <v>       0.00462963 </v>
   <v>       0.00462963 </v>
   <v>       0.00231481 </v>
   <v>       0.00231481 </v>
   <v>       0.00462963 </v>
   <v>       0.00462963 </v>
   <v>       0.00231481 </v>
   <v>       0.00231481 </v>
   <v>       0.00462963 </v>
   <v>       0.00231481 </v>
   <v>       0.00231481 </v>
   <v>       0.00231481 </v>
   <v>       0.00057870 </v>
   <v>       0.00057870 </v>
   <v>       0.00231481 </v>
   <v>       0.00231481 </v>
   <v>       0.00231481 </v>
   <v>       0.00231481 </v>
   <v>       0.00231481 </v>
   <v>       0.00231481 </v>
   <v>       0.00231481 </v>
   <v>       0.00231481 </v>
   <v>       0.00231481 </v>
   <v>       0.00231481 </v>
   <v>       0.00231481 </v>
   <v>       0.00115741 </v>
   <v>       0.00231481 </v>
   <v>       0.00462963 </v>
   <v>       0.00462963 </v>
   <v>       0.00462963 </v>
   <v>       0.00462963 </v>
   <v>       0.00462963 </v>
   <v>       0.00462963 </v>
   <v>       0.00462963 </v>
   <v>       0.00462963 </v>
   <v>       0.00462963 </v>
   <v>       0.00462963 </v>
   <v>       0.00231481 </v>
   <v>       0.00231481 </v>
   <v>       0.00462963 </v>
   <v>       0.00462963 </v>
   <v>       0.00462963 </v>
   <v>       0.00462963 </v>
   <v>       0.00462963 </v>
   <v>       0.00462963 </v>
   <v>       0.00462963 </v>
   <v>       0.00462963 </v>
   <v>       0.00462963 </v>
   <v>       0.00231481 </v>
   <v>       0.00231481 </v>
   <v>       0.00462963 </v>
   <v>       0.00462963 </v>
   <v>       0.00462963 </v>
   <v>       0.00462963 </v>
   <v>       0.00462963 </v>
   <v>       0.00462963 </v>
   <v>       0.00462963 </v>
   <v>       0.00462963 </v>
   <v>       0.00231481 </v>
   <v>       0.00231481 </v>
   <v>       0.00462963 </v>
   <v>       0.00462963 </v>
   <v>       0.00462963 </v>
   <v>       0.00462963 </v>
   <v>       0.00462963 </v>
   <v>       0.00462963 </v>
   <v>       0.00462963 </v>
   <v>       0.00231481 </v>
   <v>       0.00231481 </v>
   <v>       0.00462963 </v>
   <v>       0.00462963 </v>
   <v>       0.00462963 </v>
   <v>       0.00462963 </v>
   <v>       0.00462963 </v>
   <v>       0.00462963 </v>
   <v>       0.00231481 </v>
   <v>       0.00231481 </v>
   <v>       0.00462963 </v>
   <v>       0.00462963 </v>
   <v>       0.00462963 </v>
   <v>       0.00462963 </v>
   <v>       0.00462963 </v>
   <v>       0.00231481 </v>
   <v>       0.00231481 </v>
   <v>       0.00462963 </v>
   <v>       0.00462963 </v>
   <v>       0.00462963 </v>
   <v>       0.00462963 </v>
   <v>       0.00231481 </v>
   <v>       0.00231481 </v>
   <v>       0.00462963 </v>
   <v>       0.00462963 </v>
   <v>       0.00462963 </v>
   <v>       0.00231481 </v>
   <v>       0.00231481 </v>
   <v>       0.00462963 </v>
   <v>       0.00462963 </v>
   <v>       0.00231481 </v>
   <v>       0.00231481 </v>
   <v>       0.00462963 </v>
   <v>       0.00231481 </v>
   <v>       0.00231481 </v>
   <v>       0.00231481 </v>
   <v>       0.00057870 </v>
   <v>       0.00028935 </v>
   <v>       0.00115741 </v>
   <v>       0.00115741 </v>
   <v>       0.00115741 </v>
   <v>       0.00115741 </v>
   <v>       0.00115741 </v>
   <v>       0.00115741 </v>
   <v>       0.00115741 </v>
   <v>       0.00115741 </v>
   <v>       0.00115741 </v>
   <v>       0.00115741 </v>
   <v>       0.00115741 </v>
   <v>       0.00057870 </v>
   <v>       0.00115741 </v>
   <v>       0.00231481 </v>
   <v>       0.00231481 </v>
   <v>       0.00231481 </v>
   <v>       0.00231481 </v>
   <v>       0.00231481 </v>
   <v>       0.00231481 </v>
   <v>       0.00231481 </v>
   <v>       0.00231481 </v>
   <v>       0.00231481 </v>
   <v>       0.00231481 </v>
   <v>       0.00115741 </v>
   <v>       0.00115741 </v>
   <v>       0.00231481 </v>
   <v>       0.00231481 </v>
   <v>       0.00231481 </v>
   <v>       0.00231481 </v>
   <v>       0.00231481 </v>
   <v>       0.00231481 </v>
   <v>       0.00231481 </v>
   <v>       0.00231481 </v>
   <v>       0.00231481 </v>
   <v>       0.00115741 </v>
   <v>       0.00115741 </v>
   <v>       0.00231481 </v>
   <v>       0.00231481 </v>
   <v>       0.00231481 </v>
   <v>       0.00231481 </v>
   <v>       0.00231481 </v>
   <v>       0.00231481 </v>
   <v>       0.00231481 </v>
   <v>       0.00231481 </v>
   <v>       0.00115741 </v>
   <v>       0.00115741 </v>
   <v>       0.00231481 </v>
   <v>       0.00231481 </v>
   <v>       0.00231481 </v>
   <v>       0.00231481 </v>
   <v>       0.00231481 </v>
   <v>       0.00231481 </v>
   <v>       0.00231481 </v>
   <v>       0.00115741 </v>
   <v>       0.00115741 </v>
   <v>       0.00231481 </v>
   <v>       0.00231481 </v>
   <v>       0.00231481 </v>
   <v>       0.00231481 </v>
   <v>       0.00231481 </v>
   <v>       0.00231481 </v>
   <v>       0.00115741 </v>
   <v>       0.00115741 </v>
   <v>       0.00231481 </v>
   <v>       0.00231481 </v>
   <v>       0.00231481 </v>
   <v>       0.00231481 </v>
   <v>       0.00231481 </v>
   <v>       0.00115741 </v>
   <v>       0.00115741 </v>
   <v>       0.00231481 </v>
   <v>       0.00231481 </v>
   <v>       0.00231481 </v>
   <v>       0.00231481 </v>
   <v>       0.00115741 </v>
   <v>       0.00115741 </v>
   <v>       0.00231481 </v>
   <v>       0.00231481 </v>
   <v>       0.00231481 </v>
   <v>       0.00115741 </v>
   <v>       0.00115741 </v>
   <v>       0.00231481 </v>
   <v>       0.00231481 </v>
   <v>       0.00115741 </v>
   <v>       0.00115741 </v>
   <v>       0.00231481 </v>
   <v>       0.00115741 </v>
   <v>       0.00115741 </v>
   <v>       0.00115741 </v>
   <v>       0.00028935 </v>
  </varray>
 </kpoints>
 <parameters>
  <separator name="general" >
   <i type="string" name="SYSTEM">unknown system</i>
   <i type="logical" name="LCOMPAT"> F  </i>
  </separator>
  <separator name="electronic" >
   <i type="string" name="PREC">accura</i>
   <i name="ENMAX">    500.00000000</i>
   <i name="ENAUG">    412.49600000</i>
   <i name="EDIFF">      0.00000100</i>
   <i type="int" name="IALGO">    68</i>
   <i type="int" name="IWAVPR">    11</i>
   <i type="int" name="NBANDS">    40</i>
   <i name="NELECT">     66.00000000</i>
   <i type="int" name="TURBO">     0</i>
   <i type="int" name="IRESTART">     0</i>
   <i type="int" name="NREBOOT">     0</i>
   <i type="int" name="NMIN">     0</i>
   <i name="EREF">      0.00000000</i>
   <separator name="electronic smearing" >
    <i type="int" name="ISMEAR">     1</i>
    <i name="SIGMA">      0.30000000</i>
    <i name="KSPACING">      0.50000000</i>
    <i type="logical" name="KGAMMA"> T  </i>
   </separator>
   <separator name="electronic projectors" >
    <i type="logical" name="LREAL"> F  </i>
    <v name="ROPT">      0.00000000      0.00000000</v>
    <i type="int" name="LMAXPAW">  -100</i>
    <i type="int" name="LMAXMIX">     2</i>
    <i type="logical" name="NLSPLINE"> F  </i>
   </separator>
   <separator name="electronic startup" >
    <i type="int" name="ISTART">     0</i>
    <i type="int" name="ICHARG">     2</i>
    <i type="int" name="INIWAV">     1</i>
   </separator>
   <separator name="electronic spin" >
    <i type="int" name="ISPIN">     1</i>
    <i type="logical" name="LNONCOLLINEAR"> F  </i>
    <v name="MAGMOM">      1.00000000      1.00000000      1.00000000      1.00000000      1.00000000      1.00000000</v>
    <i name="NUPDOWN">     -1.00000000</i>
    <i type="logical" name="LSORBIT"> F  </i>
    <v name="SAXIS">      0.00000000      0.00000000      1.00000000</v>
    <i type="logical" name="LSPIRAL"> F  </i>
    <v name="QSPIRAL">      0.00000000      0.00000000      0.00000000</v>
    <i type="logical" name="LZEROZ"> F  </i>
   </separator>
   <separator name="electronic exchange-correlation" >
    <i type="logical" name="LASPH"> F  </i>
    <i type="logical" name="LMETAGGA"> F  </i>
   </separator>
   <separator name="electronic convergence" >
    <i type="int" name="NELM">   100</i>
    <i type="int" name="NELMDL">     0</i>
    <i type="int" name="NELMIN">     4</i>
    <i name="ENINI">    500.00000000</i>
    <separator name="electronic convergence detail" >
     <i type="logical" name="LDIAG"> T  </i>
     <i type="logical" name="LSUBROT"> F  </i>
     <i name="WEIMIN">      0.00100000</i>
     <i name="EBREAK">      0.00000001</i>
     <i name="DEPER">      0.30000000</i>
     <i type="int" name="NRMM">     4</i>
     <i name="TIME">      0.40000000</i>
    </separator>
   </separator>
   <separator name="electronic mixer" >
    <i name="AMIX">      0.40000000</i>
    <i name="BMIX">      1.00000000</i>
    <i name="AMIN">      0.10000000</i>
    <i name="AMIX_MAG">      1.60000000</i>
    <i name="BMIX_MAG">      1.00000000</i>
    <separator name="electronic mixer details" >
     <i type="int" name="IMIX">     4</i>
     <i type="int" name="MAXMIX">   -45</i>
     <i name="WC">    100.00000000</i>
     <i type="int" name="INIMIX">     1</i>
     <i type="int" name="MIXPRE">     1</i>
     <i type="int" name="MREMOVE">     5</i>
    </separator>
   </separator>
   <separator name="electronic dipolcorrection" >
    <i type="logical" name="LDIPOL"> F  </i>
    <i type="logical" name="LMONO"> F  </i>
    <i type="int" name="IDIPOL">     0</i>
    <i name="EPSILON">      1.00000000</i>
    <v name="DIPOL">   -100.00000000   -100.00000000   -100.00000000</v>
    <i name="EFIELD">      0.00000000</i>
   </separator>
  </separator>
  <separator name="grids" >
   <i type="int" name="NGX">    24</i>
   <i type="int" name="NGY">    24</i>
   <i type="int" name="NGZ">    96</i>
   <i type="int" name="NGXF">    48</i>
   <i type="int" name="NGYF">    48</i>
   <i type="int" name="NGZF">   192</i>
   <i type="logical" name="ADDGRID"> T  </i>
  </separator>
  <separator name="ionic" >
   <i type="int" name="NSW">    30</i>
   <i type="int" name="IBRION">     2</i>
   <i type="int" name="ISIF">     3</i>
   <i name="PSTRESS">      0.00000000</i>
   <i name="EDIFFG">     -0.02000000</i>
   <i type="int" name="NFREE">     1</i>
   <i name="POTIM">      0.50000000</i>
   <i name="SMASS">     -3.00000000</i>
   <i name="SCALEE">      1.00000000</i>
  </separator>
  <separator name="ionic md" >
   <i name="TEBEG">      0.00010000</i>
   <i name="TEEND">      0.00010000</i>
   <i type="int" name="NBLOCK">     1</i>
   <i type="int" name="KBLOCK">    30</i>
   <i type="int" name="NPACO">   256</i>
   <i name="APACO">     16.00000000</i>
  </separator>
  <separator name="symmetry" >
   <i type="int" name="ISYM">     2</i>
   <i name="SYMPREC">      0.00001000</i>
  </separator>
  <separator name="dos" >
   <i type="logical" name="LORBIT"> F  </i>
   <v name="RWIGS">     -1.00000000     -1.00000000</v>
   <i type="int" name="NEDOS">   301</i>
   <i name="EMIN">     10.00000000</i>
   <i name="EMAX">    -10.00000000</i>
   <i name="EFERMI">      0.00000000</i>
  </separator>
  <separator name="writing" >
   <i type="int" name="NWRITE">     2</i>
   <i type="logical" name="LWAVE"> F  </i>
   <i type="logical" name="LCHARG"> F  </i>
   <i type="logical" name="LPARD"> F  </i>
   <i type="logical" name="LVTOT"> F  </i>
   <i type="logical" name="LVHAR"> F  </i>
   <i type="logical" name="LELF"> F  </i>
   <i type="logical" name="LOPTICS"> F  </i>
   <v name="STM">      0.00000000      0.00000000      0.00000000      0.00000000      0.00000000      0.00000000      0.00000000</v>
  </separator>
  <separator name="performance" >
   <i type="int" name="NPAR">     4</i>
   <i type="int" name="NSIM">     4</i>
   <i type="int" name="NBLK">    -1</i>
   <i type="logical" name="LPLANE"> T  </i>
   <i type="logical" name="LSCALAPACK"> T  </i>
   <i type="logical" name="LSCAAWARE"> F  </i>
   <i type="logical" name="LSCALU"> F  </i>
   <i type="logical" name="LASYNC"> F  </i>
   <i type="logical" name="LORBITALREAL"> F  </i>
  </separator>
  <separator name="miscellaneous" >
   <i type="int" name="IDIOT">     3</i>
   <i type="logical" name="LMUSIC"> F  </i>
   <v name="POMASS">    107.86800000    196.96600000</v>
   <v name="DARWINR">      0.00000000      0.00000000</v>
   <v name="DARWINV">      1.00000000      1.00000000</v>
   <i type="logical" name="LCORR"> T  </i>
  </separator>
  <i type="logical" name="GGA_COMPAT"> T  </i>
  <i type="logical" name="LBERRY"> F  </i>
  <i type="int" name="ICORELEVEL">     0</i>
  <i type="logical" name="LDAU"> F  </i>
  <i type="int" name="I_CONSTRAINED_M">     0</i>
  <separator name="electronic exchange-correlation" >
   <i type="string" name="GGA">--</i>
   <i type="int" name="VOSKOWN">     0</i>
   <i type="logical" name="LHFCALC"> F  </i>
   <i type="string" name="PRECFOCK"></i>
   <i type="logical" name="LSYMGRAD"> F  </i>
   <i type="logical" name="LHFONE"> F  </i>
   <i type="logical" name="LRHFCALC"> F  </i>
   <i type="logical" name="LTHOMAS"> F  </i>
   <i type="logical" name="LMODELHF"> F  </i>
   <i name="ENCUT4O">     -1.00000000</i>
   <i type="int" name="EXXOEP">     0</i>
   <i type="int" name="FOURORBIT">     0</i>
   <i name="AEXX">      0.00000000</i>
   <i name="HFALPHA">      0.00000000</i>
   <i name="MCALPHA">      0.00000000</i>
   <i name="ALDAX">      1.00000000</i>
   <i name="AGGAX">      1.00000000</i>
   <i name="ALDAC">      1.00000000</i>
   <i name="AGGAC">      1.00000000</i>
   <i type="int" name="NKREDX">     1</i>
   <i type="int" name="NKREDY">     1</i>
   <i type="int" name="NKREDZ">     1</i>
   <i type="logical" name="SHIFTRED"> F  </i>
   <i type="logical" name="ODDONLY"> F  </i>
   <i type="logical" name="EVENONLY"> F  </i>
   <i type="int" name="LMAXFOCK">     0</i>
   <i type="int" name="NMAXFOCKAE">     0</i>
   <i type="logical" name="LFOCKAEDFT"> F  </i>
   <i name="HFSCREEN">      0.00000000</i>
   <i name="HFSCREENC">      0.00000000</i>
   <i type="int" name="NBANDSGWLOW">     0</i>
  </separator>
  <separator name="vdW DFT" >
   <i type="logical" name="LUSE_VDW"> F  </i>
   <i name="Zab_VDW">     -0.84910000</i>
   <i name="PARAM1">      0.12340000</i>
   <i name="PARAM2">      1.00000000</i>
   <i name="PARAM3">      0.00000000</i>
  </separator>
  <separator name="model GW" >
   <i type="int" name="MODEL_GW">     0</i>
   <i name="MODEL_EPS0">     10.73650955</i>
   <i name="MODEL_ALPHA">      1.00000000</i>
  </separator>
  <separator name="linear response parameters" >
   <i type="logical" name="LEPSILON"> F  </i>
   <i type="logical" name="LRPA"> F  </i>
   <i type="logical" name="LNABLA"> F  </i>
   <i type="logical" name="LVEL"> F  </i>
   <i type="int" name="KINTER">     0</i>
   <i name="CSHIFT">      0.10000000</i>
   <i name="OMEGAMAX">     -1.00000000</i>
   <i name="DEG_THRESHOLD">      0.00200000</i>
  </separator>
  <separator name="orbital magnetization" >
   <i type="logical" name="NUCIND"> F  </i>
   <v name="MAGPOS">      0.00000000      0.00000000      0.00000000</v>
   <i type="logical" name="LNICSALL"> T  </i>
   <i type="logical" name="ORBITALMAG"> F  </i>
   <i type="logical" name="LMAGBLOCH"> F  </i>
   <i type="logical" name="LCHIMAG"> F  </i>
   <i type="logical" name="LGAUGE"> T  </i>
   <i type="int" name="MAGATOM">     0</i>
   <v name="MAGDIPOL">      0.00000000      0.00000000      0.00000000</v>
   <v name="AVECCONST">      0.00000000      0.00000000      0.00000000</v>
  </separator>
  <separator name="response functions" >
   <i type="logical" name="LADDER"> F  </i>
   <i type="logical" name="LFXC"> F  </i>
   <i type="logical" name="LHARTREE"> T  </i>
   <i type="int" name="IBSE">     0</i>
   <i type="logical" name="LTCTE"> F  </i>
   <i type="logical" name="LTETE"> F  </i>
   <i type="logical" name="LTRIPLET"> F  </i>
   <i type="logical" name="LFXCEPS"> F  </i>
   <i type="logical" name="LFXHEG"> F  </i>
   <i type="logical" name="L2ORDER"> F  </i>
   <i type="logical" name="LUSEW"> F  </i>
   <i name="ENCUTGW">     -2.00000000</i>
   <i name="ENCUTGWSOFT">     -2.00000000</i>
   <i name="ENCUTLF">     -1.00000000</i>
   <i type="int" name="LMAXMP2">    -1</i>
   <i name="SCISSOR">      0.00000000</i>
   <i type="int" name="NOMEGA">     0</i>
   <i type="int" name="NOMEGAR">     0</i>
   <i type="int" name="NBANDSGW">    -1</i>
   <i type="int" name="NBANDSO">    -1</i>
   <i type="int" name="NBANDSV">    -1</i>
   <i type="int" name="NELM">   100</i>
   <i type="int" name="DIM">     3</i>
   <i type="int" name="ANTIRES">     0</i>
   <i name="OMEGAMAX">    -30.00000000</i>
   <i name="OMEGAMIN">    -30.00000000</i>
   <i name="OMEGATL">   -200.00000000</i>
   <i type="int" name="OMEGAGRID">     0</i>
   <i name="CSHIFT">     -0.10000000</i>
   <i type="logical" name="SELFENERGY"> F  </i>
   <i type="logical" name="LSPECTRAL"> F  </i>
   <i type="logical" name="ODDONLYGW"> F  </i>
   <i type="logical" name="EVENONLYGW"> F  </i>
   <i type="int" name="NKREDLFX">     1</i>
   <i type="int" name="NKREDLFY">     1</i>
   <i type="int" name="NKREDLFZ">     1</i>
   <i type="int" name="MAXMEM">  1800</i>
   <i type="int" name="TELESCOPE">     0</i>
   <i type="int" name="TAUPAR">     1</i>
  </separator>
  <separator name="External order field" >
   <i name="OFIELD_KAPPA">      0.00000000</i>
   <v name="OFIELD_K">      0.00000000      0.00000000      0.00000000</v>
   <i name="OFIELD_Q6_NEAR">      0.00000000</i>
   <i name="OFIELD_Q6_FAR">      0.00000000</i>
   <i name="OFIELD_A">      0.00000000</i>
  </separator>
 </parameters>
 <atominfo>
  <atoms>       6 </atoms>
  <types>       2 </types>
  <array name="atoms" >
   <dimension dim="1">ion</dimension>
   <field type="string">element</field>
   <field type="int">atomtype</field>
   <set>
    <rc><c>Ag</c><c>   1</c></rc>
    <rc><c>Au</c><c>   2</c></rc>
    <rc><c>Au</c><c>   2</c></rc>
    <rc><c>Au</c><c>   2</c></rc>
    <rc><c>Au</c><c>   2</c></rc>
    <rc><c>Au</c><c>   2</c></rc>
   </set>
  </array>
  <array name="atomtypes" >
   <dimension dim="1">type</dimension>
   <field type="int">atomspertype</field>
   <field type="string">element</field>
   <field>mass</field>
   <field>valence</field>
   <field type="string">pseudopotential</field>
   <set>
    <rc><c>   1</c><c>Ag</c><c>    107.86800000</c><c>     11.00000000</c><c>  PAW_PBE Ag 02Apr2005                  </c></rc>
    <rc><c>   5</c><c>Au</c><c>    196.96600000</c><c>     11.00000000</c><c>  PAW_PBE Au 04Oct2007                  </c></rc>
   </set>
  </array>
 </atominfo>
 <structure name="initialpos" >
  <crystal>
   <varray name="basis" >
    <v>       0.00000000       2.06400461      -2.06400461 </v>
    <v>       0.00000000      -2.06400461      -2.06400461 </v>
    <v>     -12.60119676       0.00000000       0.00000000 </v>
   </varray>
   <i name="volume">    107.36509546 </i>
   <varray name="rec_basis" >
    <v>       0.00000000       0.24224752      -0.24224752 </v>
    <v>       0.00000000      -0.24224752      -0.24224752 </v>
    <v>      -0.07935754       0.00000000       0.00000000 </v>
   </varray>
  </crystal>
  <varray name="positions" >
   <v>       0.50000000       0.50000000       0.16666667 </v>
   <v>       0.00000000       0.00000000       0.00117700 </v>
   <v>       0.50000000       0.50000000       0.83348200 </v>
   <v>       0.00000000       0.00000000       0.66666667 </v>
   <v>       0.50000000       0.50000000       0.49985133 </v>
   <v>       0.00000000       0.00000000       0.33215634 </v>
  </varray>
 </structure>
 <calculation>
  <scstep>
   <time name="dav">    5.45    5.45</time>
   <time name="total">    5.51    5.52</time>
   <energy>
    <i name="alphaZ">    373.00157694 </i>
    <i name="ewald">  -5771.80410810 </i>
    <i name="hartreedc">   -861.73151978 </i>
    <i name="XCdc">     66.90537692 </i>
    <i name="pawpsdc">   5373.94966609 </i>
    <i name="pawaedc">  -5212.39994835 </i>
    <i name="eentropy">     -0.00247948 </i>
    <i name="bandstr">    806.05265900 </i>
    <i name="atom">   5667.67462415 </i>
    <i name="e_fr_energy">    441.64584739 </i>
    <i name="e_wo_entrp">    441.64832687 </i>
    <i name="e_0_energy">    441.64667388 </i>
   </energy>
  </scstep>
  <scstep>
   <time name="dav">    5.81    5.81</time>
   <time name="total">    5.83    5.84</time>
   <energy>
    <i name="e_fr_energy">     -8.71705138 </i>
    <i name="e_wo_entrp">     -8.71898349 </i>
    <i name="e_0_energy">     -8.71769542 </i>
   </energy>
  </scstep>
  <scstep>
   <time name="dav">    6.01    6.02</time>
   <time name="total">    6.03    6.05</time>
   <energy>
    <i name="e_fr_energy">    -20.43716246 </i>
    <i name="e_wo_entrp">    -20.43593857 </i>
    <i name="e_0_energy">    -20.43675450 </i>
   </energy>
  </scstep>
  <scstep>
   <time name="dav">    5.71    5.71</time>
   <time name="total">    5.73    5.74</time>
   <energy>
    <i name="e_fr_energy">    -20.53816606 </i>
    <i name="e_wo_entrp">    -20.53692585 </i>
    <i name="e_0_energy">    -20.53775266 </i>
   </energy>
  </scstep>
  <scstep>
   <time name="dav">    6.21    6.21</time>
   <time name="total">    6.57    6.59</time>
   <energy>
    <i name="e_fr_energy">    -20.53928747 </i>
    <i name="e_wo_entrp">    -20.53804679 </i>
    <i name="e_0_energy">    -20.53887391 </i>
   </energy>
  </scstep>
  <scstep>
   <time name="diag">    1.41    1.41</time>
   <time name="diis">    2.61    2.61</time>
   <time name="orth">    0.24    0.24</time>
   <time name="total">    4.66    4.67</time>
   <energy>
    <i name="e_fr_energy">    -19.04397152 </i>
    <i name="e_wo_entrp">    -19.04440963 </i>
    <i name="e_0_energy">    -19.04411755 </i>
   </energy>
  </scstep>
  <scstep>
   <time name="diag">    1.41    1.41</time>
   <time name="diis">    2.61    2.61</time>
   <time name="orth">    0.22    0.22</time>
   <time name="total">    4.65    4.66</time>
   <energy>
    <i name="e_fr_energy">    -18.97612150 </i>
    <i name="e_wo_entrp">    -18.97621684 </i>
    <i name="e_0_energy">    -18.97615328 </i>
   </energy>
  </scstep>
  <scstep>
   <time name="diag">    1.41    1.41</time>
   <time name="diis">    2.62    2.62</time>
   <time name="orth">    0.23    0.23</time>
   <time name="total">    4.66    4.68</time>
   <energy>
    <i name="e_fr_energy">    -18.96422502 </i>
    <i name="e_wo_entrp">    -18.96515351 </i>
    <i name="e_0_energy">    -18.96453452 </i>
   </energy>
  </scstep>
  <scstep>
   <time name="diag">    1.41    1.41</time>
   <time name="diis">    2.61    2.62</time>
   <time name="orth">    0.23    0.23</time>
   <time name="total">    4.65    4.67</time>
   <energy>
    <i name="e_fr_energy">    -18.94493490 </i>
    <i name="e_wo_entrp">    -18.94537992 </i>
    <i name="e_0_energy">    -18.94508324 </i>
   </energy>
  </scstep>
  <scstep>
   <time name="diag">    1.40    1.40</time>
   <time name="diis">    2.62    2.62</time>
   <time name="orth">    0.24    0.24</time>
   <time name="total">    4.66    4.67</time>
   <energy>
    <i name="e_fr_energy">    -18.94487909 </i>
    <i name="e_wo_entrp">    -18.94530093 </i>
    <i name="e_0_energy">    -18.94501970 </i>
   </energy>
  </scstep>
  <scstep>
   <time name="diag">    1.41    1.41</time>
   <time name="diis">    2.61    2.61</time>
   <time name="orth">    0.23    0.23</time>
   <time name="total">    4.64    4.66</time>
   <energy>
    <i name="e_fr_energy">    -18.94488601 </i>
    <i name="e_wo_entrp">    -18.94531190 </i>
    <i name="e_0_energy">    -18.94502797 </i>
   </energy>
  </scstep>
  <scstep>
   <time name="diag">    1.45    1.45</time>
   <time name="diis">    1.93    1.93</time>
   <time name="orth">    0.23    0.23</time>
   <time name="total">    4.02    4.03</time>
   <energy>
    <i name="e_fr_energy">    -18.94489176 </i>
    <i name="e_wo_entrp">    -18.94531742 </i>
    <i name="e_0_energy">    -18.94503364 </i>
   </energy>
  </scstep>
  <scstep>
   <time name="diag">    1.41    1.41</time>
   <time name="diis">    1.60    1.61</time>
   <time name="orth">    0.23    0.23</time>
   <time name="total">    3.65    3.66</time>
   <energy>
    <i name="e_fr_energy">    -18.94489057 </i>
    <i name="e_wo_entrp">    -18.94531598 </i>
    <i name="e_0_energy">    -18.94503237 </i>
   </energy>
  </scstep>
  <scstep>
   <time name="diag">    1.41    1.41</time>
   <time name="diis">    1.46    1.46</time>
   <time name="orth">    0.24    0.24</time>
   <time name="total">    3.16    3.18</time>
   <energy>
    <i name="alphaZ">    373.00157694 </i>
    <i name="ewald">  -5771.80410810 </i>
    <i name="hartreedc">   -794.45774799 </i>
    <i name="XCdc">     63.98128695 </i>
    <i name="pawpsdc">   6221.08844985 </i>
    <i name="pawaedc">  -6074.14940048 </i>
    <i name="eentropy">      0.00042526 </i>
    <i name="bandstr">    295.72000294 </i>
    <i name="atom">   5667.67462415 </i>
    <i name="e_fr_energy">    -18.94489048 </i>
    <i name="e_wo_entrp">    -18.94531573 </i>
    <i name="e_0_energy">    -18.94503223 </i>
   </energy>
  </scstep>
  <structure>
   <crystal>
    <varray name="basis" >
     <v>       0.00000000       2.06400461      -2.06400461 </v>
     <v>       0.00000000      -2.06400461      -2.06400461 </v>
     <v>     -12.60119676       0.00000000       0.00000000 </v>
    </varray>
    <i name="volume">    107.36509546 </i>
    <varray name="rec_basis" >
     <v>       0.00000000       0.24224752      -0.24224752 </v>
     <v>       0.00000000      -0.24224752      -0.24224752 </v>
     <v>      -0.07935754       0.00000000       0.00000000 </v>
    </varray>
   </crystal>
   <varray name="positions" >
    <v>       0.50000000       0.50000000       0.16666667 </v>
    <v>       0.00000000       0.00000000       0.00117700 </v>
    <v>       0.50000000       0.50000000       0.83348200 </v>
    <v>       0.00000000       0.00000000       0.66666667 </v>
    <v>       0.50000000       0.50000000       0.49985133 </v>
    <v>       0.00000000       0.00000000       0.33215634 </v>
   </varray>
  </structure>
  <varray name="forces" >
   <v>       0.00000000       0.00000000       0.00000000 </v>
   <v>       0.00580964       0.00000000       0.00000000 </v>
   <v>       0.00222038       0.00000000       0.00000000 </v>
   <v>       0.00000000       0.00000000       0.00000000 </v>
   <v>      -0.00222038       0.00000000       0.00000000 </v>
   <v>      -0.00580964       0.00000000       0.00000000 </v>
  </varray>
  <varray name="stress" >
   <v>      -1.46639828       0.00000000       0.00000000 </v>
   <v>       0.00000000       0.93581909       0.00000000 </v>
   <v>       0.00000000       0.00000000       0.93581909 </v>
  </varray>
  <energy>
   <i name="e_fr_energy">    -18.94489048 </i>
   <i name="e_wo_entrp">    -18.94503223 </i>
   <i name="e_0_energy">      0.00042526 </i>
  </energy>
  <time name="totalsc">   72.19   72.45</time>
  <eigenvalues>
   <array>
    <dimension dim="1">band</dimension>
    <dimension dim="2">kpoint</dimension>
    <dimension dim="3">spin</dimension>
    <field>eigene</field>
    <field>occ</field>
    <set>
     <set comment="spin 1">
      <set comment="kpoint 1">
       <r>   -0.6321    1.0000 </r>
       <r>    0.3657    1.0000 </r>
       <r>    0.8465    1.0000 </r>
       <r>    1.9257    1.0000 </r>
       <r>    2.0656    1.0000 </r>
       <r>    2.2337    1.0000 </r>
       <r>    2.4658    1.0000 </r>
       <r>    2.5959    1.0000 </r>
       <r>    2.6659    1.0000 </r>
       <r>    3.4681    1.0000 </r>
       <r>    3.4933    1.0000 </r>
       <r>    3.9618    1.0000 </r>
       <r>    4.0879    1.0000 </r>
       <r>    4.0879    1.0000 </r>
       <r>    4.5217    1.0000 </r>
       <r>    4.5217    1.0000 </r>
       <r>    4.6736    1.0000 </r>
       <r>    4.6736    1.0000 </r>
       <r>    4.7412    1.0000 </r>
       <r>    4.8528    1.0000 </r>
       <r>    5.1463    1.0000 </r>
       <r>    5.3016    1.0000 </r>
       <r>    5.6426    1.0000 </r>
       <r>    5.6815    1.0000 </r>
       <r>    5.7247    1.0000 </r>
       <r>    5.7247    1.0000 </r>
       <r>    5.7951    1.0000 </r>
       <r>    5.8081    1.0000 </r>
       <r>    5.9665    1.0000 </r>
       <r>    5.9665    1.0000 </r>
       <r>    6.1005    1.0000 </r>
       <r>    6.2707    1.0000 </r>
       <r>    6.4773    1.0000 </r>
       <r>    6.7251    1.0000 </r>
       <r>    6.7251    1.0000 </r>
       <r>    9.5867    0.0000 </r>
       <r>   13.8708    0.0000 </r>
       <r>   18.6868    0.0000 </r>
       <r>   18.6868    0.0000 </r>
       <r>   19.8377    0.0000 </r>
      </set>
      <set comment="kpoint 2">
       <r>   -0.5933    1.0000 </r>
       <r>    0.3993    1.0000 </r>
       <r>    0.8787    1.0000 </r>
       <r>    1.9519    1.0000 </r>
       <r>    2.0950    1.0000 </r>
       <r>    2.2547    1.0000 </r>
       <r>    2.4888    1.0000 </r>
       <r>    2.6139    1.0000 </r>
       <r>    2.6827    1.0000 </r>
       <r>    3.4768    1.0000 </r>
       <r>    3.5010    1.0000 </r>
       <r>    3.9785    1.0000 </r>
       <r>    4.0744    1.0000 </r>
       <r>    4.0981    1.0000 </r>
       <r>    4.4914    1.0000 </r>
       <r>    4.5180    1.0000 </r>
       <r>    4.5883    1.0000 </r>
       <r>    4.6621    1.0000 </r>
       <r>    4.8341    1.0000 </r>
       <r>    4.8905    1.0000 </r>
       <r>    5.1427    1.0000 </r>
       <r>    5.3008    1.0000 </r>
       <r>    5.3461    1.0000 </r>
       <r>    5.4943    1.0000 </r>
       <r>    5.6337    1.0000 </r>
       <r>    5.6798    1.0000 </r>
       <r>    5.7983    1.0000 </r>
       <r>    5.8829    1.0000 </r>
       <r>    6.0629    1.0000 </r>
       <r>    6.1638    1.0000 </r>
       <r>    6.2843    1.0000 </r>
       <r>    6.3019    1.0000 </r>
       <r>    6.4571    1.0000 </r>
       <r>    6.6282    1.0000 </r>
       <r>    6.7178    1.0000 </r>
       <r>    9.7402    0.0000 </r>
       <r>   13.8458    0.0000 </r>
       <r>   18.4736    0.0000 </r>
       <r>   18.7603    0.0000 </r>
       <r>   19.5864    0.0000 </r>
      </set>
      <set comment="kpoint 3">
       <r>   -0.4779    1.0000 </r>
       <r>    0.4972    1.0000 </r>
       <r>    0.9718    1.0000 </r>
       <r>    2.0240    1.0000 </r>
       <r>    2.1732    1.0000 </r>
       <r>    2.3214    1.0000 </r>
       <r>    2.5448    1.0000 </r>
       <r>    2.6747    1.0000 </r>
       <r>    2.7443    1.0000 </r>
       <r>    3.5052    1.0000 </r>
       <r>    3.5271    1.0000 </r>
       <r>    4.0264    1.0000 </r>
       <r>    4.0351    1.0000 </r>
       <r>    4.1281    1.0000 </r>
       <r>    4.4275    1.0000 </r>
       <r>    4.4871    1.0000 </r>
       <r>    4.5069    1.0000 </r>
       <r>    4.6289    1.0000 </r>
       <r>    4.9291    1.0000 </r>
       <r>    4.9572    1.0000 </r>
       <r>    5.0644    1.0000 </r>
       <r>    5.1167    1.0000 </r>
       <r>    5.1289    1.0000 </r>
       <r>    5.3313    1.0000 </r>
       <r>    5.5729    1.0000 </r>
       <r>    5.6012    1.0000 </r>
       <r>    5.7573    1.0000 </r>
       <r>    5.7947    1.0000 </r>
       <r>    6.2094    1.0000 </r>
       <r>    6.2225    1.0000 </r>
       <r>    6.3135    1.0000 </r>
       <r>    6.4165    1.0000 </r>
       <r>    6.5873    1.0000 </r>
       <r>    6.6967    1.0000 </r>
       <r>    6.7162    1.0000 </r>
       <r>   10.1444    0.0000 </r>
       <r>   13.7676    0.0000 </r>
       <r>   17.9279    0.0000 </r>
       <r>   18.8645    0.0000 </r>
       <r>   18.9787    0.0000 </r>
      </set>
      <set comment="kpoint 4">
       <r>   -0.2894    1.0000 </r>
       <r>    0.6505    1.0000 </r>
       <r>    1.1148    1.0000 </r>
       <r>    2.1237    1.0000 </r>
       <r>    2.2693    1.0000 </r>
       <r>    2.4435    1.0000 </r>
       <r>    2.6019    1.0000 </r>
       <r>    2.7996    1.0000 </r>
       <r>    2.8753    1.0000 </r>
       <r>    3.5600    1.0000 </r>
       <r>    3.5807    1.0000 </r>
       <r>    3.9735    1.0000 </r>
       <r>    4.0983    1.0000 </r>
       <r>    4.1764    1.0000 </r>
       <r>    4.3593    1.0000 </r>
       <r>    4.3982    1.0000 </r>
       <r>    4.4884    1.0000 </r>
       <r>    4.5771    1.0000 </r>
       <r>    4.6782    1.0000 </r>
       <r>    4.7925    1.0000 </r>
       <r>    5.0808    1.0000 </r>
       <r>    5.0965    1.0000 </r>
       <r>    5.1308    1.0000 </r>
       <r>    5.3608    1.0000 </r>
       <r>    5.4298    1.0000 </r>
       <r>    5.5117    1.0000 </r>
       <r>    5.6781    1.0000 </r>
       <r>    5.7855    1.0000 </r>
       <r>    5.9041    1.0000 </r>
       <r>    6.1776    1.0000 </r>
       <r>    6.3383    1.0000 </r>
       <r>    6.4227    1.0000 </r>
       <r>    6.6637    1.0000 </r>
       <r>    6.9289    1.0000 </r>
       <r>    7.1387    1.0000 </r>
       <r>   10.7057    0.0000 </r>
       <r>   13.6241    0.0000 </r>
       <r>   17.2209    0.0000 </r>
       <r>   17.8708    0.0000 </r>
       <r>   18.2039    0.0000 </r>
      </set>
      <set comment="kpoint 5">
       <r>   -0.0335    1.0000 </r>
       <r>    0.8435    1.0000 </r>
       <r>    1.2883    1.0000 </r>
       <r>    2.2319    1.0000 </r>
       <r>    2.3451    1.0000 </r>
       <r>    2.6237    1.0000 </r>
       <r>    2.6462    1.0000 </r>
       <r>    3.0079    1.0000 </r>
       <r>    3.0762    1.0000 </r>
       <r>    3.6543    1.0000 </r>
       <r>    3.6785    1.0000 </r>
       <r>    3.8954    1.0000 </r>
       <r>    4.1798    1.0000 </r>
       <r>    4.2379    1.0000 </r>
       <r>    4.2948    1.0000 </r>
       <r>    4.3236    1.0000 </r>
       <r>    4.4284    1.0000 </r>
       <r>    4.4658    1.0000 </r>
       <r>    4.5115    1.0000 </r>
       <r>    4.5183    1.0000 </r>
       <r>    5.0355    1.0000 </r>
       <r>    5.1972    1.0000 </r>
       <r>    5.2515    1.0000 </r>
       <r>    5.2664    1.0000 </r>
       <r>    5.3736    1.0000 </r>
       <r>    5.4307    1.0000 </r>
       <r>    5.5454    1.0000 </r>
       <r>    5.6589    1.0000 </r>
       <r>    5.7778    1.0000 </r>
       <r>    6.0509    1.0000 </r>
       <r>    6.3446    1.0000 </r>
       <r>    6.4632    1.0000 </r>
       <r>    6.6231    1.0000 </r>
       <r>    7.3219    1.0000 </r>
       <r>    7.5632    1.0000 </r>
       <r>   11.3632    0.0000 </r>
       <r>   13.3906    0.0000 </r>
       <r>   16.4931    0.0000 </r>
       <r>   16.7877    0.0000 </r>
       <r>   17.1114    0.0000 </r>
      </set>
      <set comment="kpoint 6">
       <r>    0.2809    1.0000 </r>
       <r>    1.0532    1.0000 </r>
       <r>    1.4658    1.0000 </r>
       <r>    2.3392    1.0000 </r>
       <r>    2.3829    1.0000 </r>
       <r>    2.6749    1.0000 </r>
       <r>    2.8521    1.0000 </r>
       <r>    3.2810    1.0000 </r>
       <r>    3.3177    1.0000 </r>
       <r>    3.7992    1.0000 </r>
       <r>    3.8156    1.0000 </r>
       <r>    3.8416    1.0000 </r>
       <r>    4.2103    1.0000 </r>
       <r>    4.2283    1.0000 </r>
       <r>    4.2756    1.0000 </r>
       <r>    4.2816    1.0000 </r>
       <r>    4.2946    1.0000 </r>
       <r>    4.3384    1.0000 </r>
       <r>    4.4377    1.0000 </r>
       <r>    4.4560    1.0000 </r>
       <r>    4.9409    1.0000 </r>
       <r>    5.0949    1.0000 </r>
       <r>    5.1273    1.0000 </r>
       <r>    5.2355    1.0000 </r>
       <r>    5.3126    1.0000 </r>
       <r>    5.4534    1.0000 </r>
       <r>    5.5503    1.0000 </r>
       <r>    5.6562    1.0000 </r>
       <r>    5.7770    1.0000 </r>
       <r>    5.9088    1.0000 </r>
       <r>    6.3229    1.0000 </r>
       <r>    6.4966    1.0000 </r>
       <r>    6.5816    1.0000 </r>
       <r>    7.7231    1.0006 </r>
       <r>    7.9863    1.0156 </r>
       <r>   12.0851    0.0000 </r>
       <r>   13.0289    0.0000 </r>
       <r>   15.6782    0.0000 </r>
       <r>   15.8052    0.0000 </r>
       <r>   16.0596    0.0000 </r>
      </set>
      <set comment="kpoint 7">
       <r>    0.6408    1.0000 </r>
       <r>    1.2536    1.0000 </r>
       <r>    1.6209    1.0000 </r>
       <r>    2.3808    1.0000 </r>
       <r>    2.4341    1.0000 </r>
       <r>    2.6971    1.0000 </r>
       <r>    3.1006    1.0000 </r>
       <r>    3.5354    1.0000 </r>
       <r>    3.5388    1.0000 </r>
       <r>    3.7182    1.0000 </r>
       <r>    4.0350    1.0000 </r>
       <r>    4.0700    1.0000 </r>
       <r>    4.1751    1.0000 </r>
       <r>    4.1922    1.0000 </r>
       <r>    4.2412    1.0000 </r>
       <r>    4.2978    1.0000 </r>
       <r>    4.3028    1.0000 </r>
       <r>    4.3234    1.0000 </r>
       <r>    4.3617    1.0000 </r>
       <r>    4.5021    1.0000 </r>
       <r>    4.7982    1.0000 </r>
       <r>    4.8187    1.0000 </r>
       <r>    4.9264    1.0000 </r>
       <r>    5.1153    1.0000 </r>
       <r>    5.4460    1.0000 </r>
       <r>    5.6020    1.0000 </r>
       <r>    5.6054    1.0000 </r>
       <r>    5.7206    1.0000 </r>
       <r>    5.7850    1.0000 </r>
       <r>    5.8305    1.0000 </r>
       <r>    6.2702    1.0000 </r>
       <r>    6.5136    1.0000 </r>
       <r>    6.5437    1.0000 </r>
       <r>    8.1292    1.0348 </r>
       <r>    8.4051    0.7932 </r>
       <r>   12.5110    0.0000 </r>
       <r>   12.8518    0.0000 </r>
       <r>   14.5779    0.0000 </r>
       <r>   14.8371    0.0000 </r>
       <r>   15.4868    0.0000 </r>
      </set>
      <set comment="kpoint 8">
       <r>    1.0266    1.0000 </r>
       <r>    1.4230    1.0000 </r>
       <r>    1.7411    1.0000 </r>
       <r>    2.3398    1.0000 </r>
       <r>    2.4818    1.0000 </r>
       <r>    2.7407    1.0000 </r>
       <r>    3.3445    1.0000 </r>
       <r>    3.6359    1.0000 </r>
       <r>    3.6403    1.0000 </r>
       <r>    3.6592    1.0000 </r>
       <r>    4.1398    1.0000 </r>
       <r>    4.1737    1.0000 </r>
       <r>    4.2697    1.0000 </r>
       <r>    4.2896    1.0000 </r>
       <r>    4.3082    1.0000 </r>
       <r>    4.3299    1.0000 </r>
       <r>    4.3662    1.0000 </r>
       <r>    4.4195    1.0000 </r>
       <r>    4.5125    1.0000 </r>
       <r>    4.5556    1.0000 </r>
       <r>    4.5877    1.0000 </r>
       <r>    4.6843    1.0000 </r>
       <r>    4.7805    1.0000 </r>
       <r>    5.0155    1.0000 </r>
       <r>    5.4647    1.0000 </r>
       <r>    5.6011    1.0000 </r>
       <r>    5.7829    1.0000 </r>
       <r>    5.7985    1.0000 </r>
       <r>    5.8545    1.0000 </r>
       <r>    5.9514    1.0000 </r>
       <r>    6.1943    1.0000 </r>
       <r>    6.5083    1.0000 </r>
       <r>    6.5129    1.0000 </r>
       <r>    8.5420    0.4304 </r>
       <r>    8.8137   -0.0239 </r>
       <r>   11.8568    0.0000 </r>
       <r>   13.4304    0.0000 </r>
       <r>   13.7305    0.0000 </r>
       <r>   13.7934    0.0000 </r>
       <r>   15.2379    0.0000 </r>
      </set>
      <set comment="kpoint 9">
       <r>    1.4011    1.0000 </r>
       <r>    1.5536    1.0000 </r>
       <r>    1.8400    1.0000 </r>
       <r>    2.2672    1.0000 </r>
       <r>    2.4642    1.0000 </r>
       <r>    2.8308    1.0000 </r>
       <r>    3.5584    1.0000 </r>
       <r>    3.5683    1.0000 </r>
       <r>    3.6757    1.0000 </r>
       <r>    3.6960    1.0000 </r>
       <r>    4.1057    1.0000 </r>
       <r>    4.1389    1.0000 </r>
       <r>    4.2155    1.0000 </r>
       <r>    4.2267    1.0000 </r>
       <r>    4.2289    1.0000 </r>
       <r>    4.2710    1.0000 </r>
       <r>    4.5538    1.0000 </r>
       <r>    4.5719    1.0000 </r>
       <r>    4.6712    1.0000 </r>
       <r>    4.7014    1.0000 </r>
       <r>    4.7748    1.0000 </r>
       <r>    4.8330    1.0000 </r>
       <r>    4.9356    1.0000 </r>
       <r>    4.9973    1.0000 </r>
       <r>    5.3130    1.0000 </r>
       <r>    5.7749    1.0000 </r>
       <r>    5.8044    1.0000 </r>
       <r>    5.9167    1.0000 </r>
       <r>    5.9899    1.0000 </r>
       <r>    6.1139    1.0000 </r>
       <r>    6.2585    1.0000 </r>
       <r>    6.4717    1.0000 </r>
       <r>    6.4954    1.0000 </r>
       <r>    8.9591   -0.0288 </r>
       <r>    9.1901   -0.0034 </r>
       <r>   11.1235    0.0000 </r>
       <r>   12.4632    0.0000 </r>
       <r>   12.8280    0.0000 </r>
       <r>   14.5079    0.0000 </r>
       <r>   15.1742    0.0000 </r>
      </set>
      <set comment="kpoint 10">
       <r>    1.6511    1.0000 </r>
       <r>    1.6727    1.0000 </r>
       <r>    1.9735    1.0000 </r>
       <r>    2.1766    1.0000 </r>
       <r>    2.4395    1.0000 </r>
       <r>    2.9384    1.0000 </r>
       <r>    3.5229    1.0000 </r>
       <r>    3.7127    1.0000 </r>
       <r>    3.7223    1.0000 </r>
       <r>    3.7351    1.0000 </r>
       <r>    3.9912    1.0000 </r>
       <r>    4.0627    1.0000 </r>
       <r>    4.0979    1.0000 </r>
       <r>    4.1776    1.0000 </r>
       <r>    4.1944    1.0000 </r>
       <r>    4.2035    1.0000 </r>
       <r>    4.4385    1.0000 </r>
       <r>    4.4599    1.0000 </r>
       <r>    4.8768    1.0000 </r>
       <r>    4.8979    1.0000 </r>
       <r>    4.9798    1.0000 </r>
       <r>    5.0587    1.0000 </r>
       <r>    5.1758    1.0000 </r>
       <r>    5.2588    1.0000 </r>
       <r>    5.4500    1.0000 </r>
       <r>    5.7728    1.0000 </r>
       <r>    5.9912    1.0000 </r>
       <r>    6.0368    1.0000 </r>
       <r>    6.0624    1.0000 </r>
       <r>    6.2721    1.0000 </r>
       <r>    6.4327    1.0000 </r>
       <r>    6.4631    1.0000 </r>
       <r>    6.6457    1.0000 </r>
       <r>    9.3362   -0.0004 </r>
       <r>    9.4482   -0.0001 </r>
       <r>   10.3663    0.0000 </r>
       <r>   11.5724    0.0000 </r>
       <r>   12.0558    0.0000 </r>
       <r>   14.8439    0.0000 </r>
       <r>   15.1060    0.0000 </r>
      </set>
      <set comment="kpoint 11">
       <r>    1.7273    1.0000 </r>
       <r>    1.7782    1.0000 </r>
       <r>    2.0829    1.0000 </r>
       <r>    2.1050    1.0000 </r>
       <r>    2.5225    1.0000 </r>
       <r>    3.0307    1.0000 </r>
       <r>    3.5060    1.0000 </r>
       <r>    3.7640    1.0000 </r>
       <r>    3.7900    1.0000 </r>
       <r>    3.8107    1.0000 </r>
       <r>    3.8286    1.0000 </r>
       <r>    4.0141    1.0000 </r>
       <r>    4.0473    1.0000 </r>
       <r>    4.1192    1.0000 </r>
       <r>    4.1450    1.0000 </r>
       <r>    4.1732    1.0000 </r>
       <r>    4.3467    1.0000 </r>
       <r>    4.3608    1.0000 </r>
       <r>    4.8406    1.0000 </r>
       <r>    5.0383    1.0000 </r>
       <r>    5.0644    1.0000 </r>
       <r>    5.2403    1.0000 </r>
       <r>    5.3558    1.0000 </r>
       <r>    5.5841    1.0000 </r>
       <r>    5.6858    1.0000 </r>
       <r>    5.6951    1.0000 </r>
       <r>    6.0591    1.0000 </r>
       <r>    6.0673    1.0000 </r>
       <r>    6.3937    1.0000 </r>
       <r>    6.4197    1.0000 </r>
       <r>    6.5598    1.0000 </r>
       <r>    6.7225    1.0000 </r>
       <r>    7.1080    1.0000 </r>
       <r>    9.3559   -0.0003 </r>
       <r>    9.4168   -0.0001 </r>
       <r>    9.6229    0.0000 </r>
       <r>   11.0923    0.0000 </r>
       <r>   11.7305    0.0000 </r>
       <r>   13.8646    0.0000 </r>
       <r>   14.3168    0.0000 </r>
      </set>
      <set comment="kpoint 12">
       <r>    1.7903    1.0000 </r>
       <r>    1.8159    1.0000 </r>
       <r>    2.0003    1.0000 </r>
       <r>    2.1200    1.0000 </r>
       <r>    2.7124    1.0000 </r>
       <r>    3.0797    1.0000 </r>
       <r>    3.5225    1.0000 </r>
       <r>    3.6732    1.0000 </r>
       <r>    3.8210    1.0000 </r>
       <r>    3.8554    1.0000 </r>
       <r>    3.8922    1.0000 </r>
       <r>    3.9635    1.0000 </r>
       <r>    3.9887    1.0000 </r>
       <r>    4.0323    1.0000 </r>
       <r>    4.1288    1.0000 </r>
       <r>    4.1676    1.0000 </r>
       <r>    4.2854    1.0000 </r>
       <r>    4.2901    1.0000 </r>
       <r>    4.8255    1.0000 </r>
       <r>    4.9879    1.0000 </r>
       <r>    5.1722    1.0000 </r>
       <r>    5.4177    1.0000 </r>
       <r>    5.5537    1.0000 </r>
       <r>    5.5740    1.0000 </r>
       <r>    5.7483    1.0000 </r>
       <r>    5.7790    1.0000 </r>
       <r>    6.0773    1.0000 </r>
       <r>    6.1338    1.0000 </r>
       <r>    6.3616    1.0000 </r>
       <r>    6.3737    1.0000 </r>
       <r>    7.2618    1.0000 </r>
       <r>    7.3653    1.0000 </r>
       <r>    7.6392    1.0001 </r>
       <r>    8.8243   -0.0274 </r>
       <r>    8.8896   -0.0354 </r>
       <r>    8.9112   -0.0344 </r>
       <r>   11.3547    0.0000 </r>
       <r>   11.9566    0.0000 </r>
       <r>   12.9323    0.0000 </r>
       <r>   13.4813    0.0000 </r>
      </set>
      <set comment="kpoint 13">
       <r>    1.8244    1.0000 </r>
       <r>    1.8270    1.0000 </r>
       <r>    1.9581    1.0000 </r>
       <r>    2.1129    1.0000 </r>
       <r>    2.8116    1.0000 </r>
       <r>    3.0848    1.0000 </r>
       <r>    3.5681    1.0000 </r>
       <r>    3.5870    1.0000 </r>
       <r>    3.8575    1.0000 </r>
       <r>    3.9191    1.0000 </r>
       <r>    3.9235    1.0000 </r>
       <r>    3.9235    1.0000 </r>
       <r>    3.9587    1.0000 </r>
       <r>    3.9596    1.0000 </r>
       <r>    4.1247    1.0000 </r>
       <r>    4.1697    1.0000 </r>
       <r>    4.2620    1.0000 </r>
       <r>    4.2632    1.0000 </r>
       <r>    4.8233    1.0000 </r>
       <r>    4.9591    1.0000 </r>
       <r>    5.2453    1.0000 </r>
       <r>    5.4821    1.0000 </r>
       <r>    5.5071    1.0000 </r>
       <r>    5.6245    1.0000 </r>
       <r>    5.7939    1.0000 </r>
       <r>    5.7985    1.0000 </r>
       <r>    6.0874    1.0000 </r>
       <r>    6.1650    1.0000 </r>
       <r>    6.3484    1.0000 </r>
       <r>    6.3496    1.0000 </r>
       <r>    7.8702    1.0047 </r>
       <r>    8.0937    1.0313 </r>
       <r>    8.1506    1.0355 </r>
       <r>    8.1813    1.0335 </r>
       <r>    8.2345    1.0181 </r>
       <r>    8.3167    0.9484 </r>
       <r>   11.8505    0.0000 </r>
       <r>   12.2677    0.0000 </r>
       <r>   12.2991    0.0000 </r>
       <r>   12.9669    0.0000 </r>
      </set>
      <set comment="kpoint 14">
       <r>   -0.5545    1.0000 </r>
       <r>    0.4331    1.0000 </r>
       <r>    0.9111    1.0000 </r>
       <r>    1.9788    1.0000 </r>
       <r>    2.1256    1.0000 </r>
       <r>    2.2750    1.0000 </r>
       <r>    2.5136    1.0000 </r>
       <r>    2.6307    1.0000 </r>
       <r>    2.6978    1.0000 </r>
       <r>    3.4845    1.0000 </r>
       <r>    3.5078    1.0000 </r>
       <r>    3.9954    1.0000 </r>
       <r>    4.0531    1.0000 </r>
       <r>    4.1156    1.0000 </r>
       <r>    4.4686    1.0000 </r>
       <r>    4.5168    1.0000 </r>
       <r>    4.5443    1.0000 </r>
       <r>    4.6645    1.0000 </r>
       <r>    4.8638    1.0000 </r>
       <r>    4.9142    1.0000 </r>
       <r>    5.1393    1.0000 </r>
       <r>    5.1875    1.0000 </r>
       <r>    5.2758    1.0000 </r>
       <r>    5.3567    1.0000 </r>
       <r>    5.6315    1.0000 </r>
       <r>    5.7214    1.0000 </r>
       <r>    5.7904    1.0000 </r>
       <r>    5.9623    1.0000 </r>
       <r>    6.0402    1.0000 </r>
       <r>    6.0804    1.0000 </r>
       <r>    6.3243    1.0000 </r>
       <r>    6.3968    1.0000 </r>
       <r>    6.5505    1.0000 </r>
       <r>    6.5773    1.0000 </r>
       <r>    6.7239    1.0000 </r>
       <r>    9.8814    0.0000 </r>
       <r>   13.8227    0.0000 </r>
       <r>   18.5425    0.0000 </r>
       <r>   18.5455    0.0000 </r>
       <r>   19.4563    0.0000 </r>
      </set>
      <set comment="kpoint 15">
       <r>   -0.4393    1.0000 </r>
       <r>    0.5315    1.0000 </r>
       <r>    1.0049    1.0000 </r>
       <r>    2.0528    1.0000 </r>
       <r>    2.2074    1.0000 </r>
       <r>    2.3399    1.0000 </r>
       <r>    2.5744    1.0000 </r>
       <r>    2.6880    1.0000 </r>
       <r>    2.7544    1.0000 </r>
       <r>    3.5097    1.0000 </r>
       <r>    3.5308    1.0000 </r>
       <r>    4.0085    1.0000 </r>
       <r>    4.0442    1.0000 </r>
       <r>    4.1496    1.0000 </r>
       <r>    4.4184    1.0000 </r>
       <r>    4.4681    1.0000 </r>
       <r>    4.5093    1.0000 </r>
       <r>    4.6389    1.0000 </r>
       <r>    4.8638    1.0000 </r>
       <r>    4.9282    1.0000 </r>
       <r>    4.9949    1.0000 </r>
       <r>    5.0326    1.0000 </r>
       <r>    5.1718    1.0000 </r>
       <r>    5.3261    1.0000 </r>
       <r>    5.6156    1.0000 </r>
       <r>    5.6406    1.0000 </r>
       <r>    5.7965    1.0000 </r>
       <r>    5.8250    1.0000 </r>
       <r>    6.1167    1.0000 </r>
       <r>    6.1359    1.0000 </r>
       <r>    6.2016    1.0000 </r>
       <r>    6.3490    1.0000 </r>
       <r>    6.7051    1.0000 </r>
       <r>    6.7326    1.0000 </r>
       <r>    6.8745    1.0000 </r>
       <r>   10.2604    0.0000 </r>
       <r>   13.7499    0.0000 </r>
       <r>   17.9911    0.0000 </r>
       <r>   18.7504    0.0000 </r>
       <r>   18.8164    0.0000 </r>
      </set>
      <set comment="kpoint 16">
       <r>   -0.2510    1.0000 </r>
       <r>    0.6857    1.0000 </r>
       <r>    1.1491    1.0000 </r>
       <r>    2.1548    1.0000 </r>
       <r>    2.3082    1.0000 </r>
       <r>    2.4593    1.0000 </r>
       <r>    2.6348    1.0000 </r>
       <r>    2.8083    1.0000 </r>
       <r>    2.8818    1.0000 </r>
       <r>    3.5590    1.0000 </r>
       <r>    3.5790    1.0000 </r>
       <r>    3.9445    1.0000 </r>
       <r>    4.1174    1.0000 </r>
       <r>    4.1961    1.0000 </r>
       <r>    4.3629    1.0000 </r>
       <r>    4.3927    1.0000 </r>
       <r>    4.4941    1.0000 </r>
       <r>    4.5861    1.0000 </r>
       <r>    4.6064    1.0000 </r>
       <r>    4.7062    1.0000 </r>
       <r>    4.9929    1.0000 </r>
       <r>    5.1109    1.0000 </r>
       <r>    5.1741    1.0000 </r>
       <r>    5.3417    1.0000 </r>
       <r>    5.4904    1.0000 </r>
       <r>    5.5491    1.0000 </r>
       <r>    5.7248    1.0000 </r>
       <r>    5.7691    1.0000 </r>
       <r>    5.8534    1.0000 </r>
       <r>    6.1463    1.0000 </r>
[...]
       <r>    6.0561    1.0000 </r>
       <r>    6.1844    1.0000 </r>
       <r>    6.2453    1.0000 </r>
       <r>    6.3060    1.0000 </r>
       <r>    6.7911    1.0000 </r>
       <r>    6.8366    1.0000 </r>
       <r>    6.8420    1.0000 </r>
       <r>    6.8481    1.0000 </r>
       <r>    6.8499    1.0000 </r>
       <r>   10.0244    0.0000 </r>
       <r>   10.2749    0.0000 </r>
       <r>   10.9119    0.0000 </r>
       <r>   11.1139    0.0000 </r>
       <r>   12.4931    0.0000 </r>
       <r>   12.7823    0.0000 </r>
       <r>   13.6494    0.0000 </r>
       <r>   13.8956    0.0000 </r>
       <r>   14.5468    0.0000 </r>
       <r>   14.5816    0.0000 </r>
      </set>
      <set comment="kpoint 363">
       <r>    2.1263    1.0000 </r>
       <r>    2.1306    1.0000 </r>
       <r>    2.2534    1.0000 </r>
       <r>    2.2674    1.0000 </r>
       <r>    2.3955    1.0000 </r>
       <r>    2.3996    1.0000 </r>
       <r>    2.4895    1.0000 </r>
       <r>    2.4897    1.0000 </r>
       <r>    2.9364    1.0000 </r>
       <r>    2.9825    1.0000 </r>
       <r>    3.6285    1.0000 </r>
       <r>    3.6592    1.0000 </r>
       <r>    3.6881    1.0000 </r>
       <r>    3.7213    1.0000 </r>
       <r>    5.1029    1.0000 </r>
       <r>    5.3527    1.0000 </r>
       <r>    5.7442    1.0000 </r>
       <r>    5.7516    1.0000 </r>
       <r>    5.7779    1.0000 </r>
       <r>    5.9062    1.0000 </r>
       <r>    5.9616    1.0000 </r>
       <r>    6.0744    1.0000 </r>
       <r>    6.1648    1.0000 </r>
       <r>    6.2813    1.0000 </r>
       <r>    6.2814    1.0000 </r>
       <r>    6.8688    1.0000 </r>
       <r>    6.8764    1.0000 </r>
       <r>    6.8813    1.0000 </r>
       <r>    6.8846    1.0000 </r>
       <r>    6.8878    1.0000 </r>
       <r>   10.5414    0.0000 </r>
       <r>   10.5430    0.0000 </r>
       <r>   10.7438    0.0000 </r>
       <r>   10.8035    0.0000 </r>
       <r>   12.8292    0.0000 </r>
       <r>   13.1008    0.0000 </r>
       <r>   13.7274    0.0000 </r>
       <r>   13.9420    0.0000 </r>
       <r>   13.9896    0.0000 </r>
       <r>   14.2353    0.0000 </r>
      </set>
      <set comment="kpoint 364">
       <r>    2.1101    1.0000 </r>
       <r>    2.1151    1.0000 </r>
       <r>    2.2418    1.0000 </r>
       <r>    2.2621    1.0000 </r>
       <r>    2.3721    1.0000 </r>
       <r>    2.3721    1.0000 </r>
       <r>    2.4719    1.0000 </r>
       <r>    2.4719    1.0000 </r>
       <r>    2.9165    1.0000 </r>
       <r>    2.9649    1.0000 </r>
       <r>    3.6672    1.0000 </r>
       <r>    3.6672    1.0000 </r>
       <r>    3.6984    1.0000 </r>
       <r>    3.6984    1.0000 </r>
       <r>    5.0977    1.0000 </r>
       <r>    5.3449    1.0000 </r>
       <r>    5.7874    1.0000 </r>
       <r>    5.7874    1.0000 </r>
       <r>    5.8477    1.0000 </r>
       <r>    5.9365    1.0000 </r>
       <r>    6.0385    1.0000 </r>
       <r>    6.0385    1.0000 </r>
       <r>    6.1443    1.0000 </r>
       <r>    6.2879    1.0000 </r>
       <r>    6.2892    1.0000 </r>
       <r>    6.9260    1.0000 </r>
       <r>    6.9262    1.0000 </r>
       <r>    6.9271    1.0000 </r>
       <r>    6.9298    1.0000 </r>
       <r>    6.9305    1.0000 </r>
       <r>   10.6706    0.0000 </r>
       <r>   10.6706    0.0000 </r>
       <r>   10.9085    0.0000 </r>
       <r>   10.9085    0.0000 </r>
       <r>   13.1764    0.0000 </r>
       <r>   13.3002    0.0000 </r>
       <r>   13.5149    0.0000 </r>
       <r>   13.7704    0.0000 </r>
       <r>   13.8115    0.0000 </r>
       <r>   14.4272    0.0000 </r>
      </set>
     </set>
    </set>
   </array>
  </eigenvalues>
  <separator name="orbital magnetization" >
   <v name="MAGDIPOLOUT">      0.00000000      0.00000000      0.00000000</v>
  </separator>
  <dos>
   <i name="efermi">      8.51720309 </i>
   <total>
    <array>
     <dimension dim="1">gridpoints</dimension>
     <dimension dim="2">spin</dimension>
     <field>energy</field>
     <field>total</field>
     <field>integrated</field>
     <set>
      <set comment="spin 1">
       <r>    -3.6321     0.0000     0.0000 </r>
       <r>    -3.5438     0.0000     0.0000 </r>
       <r>    -3.4556     0.0000     0.0000 </r>
       <r>    -3.3674     0.0000     0.0000 </r>
       <r>    -3.2791     0.0000     0.0000 </r>
       <r>    -3.1909     0.0000     0.0000 </r>
       <r>    -3.1027     0.0000     0.0000 </r>
       <r>    -3.0144     0.0000     0.0000 </r>
       <r>    -2.9262     0.0000     0.0000 </r>
       <r>    -2.8380     0.0000     0.0000 </r>
       <r>    -2.7497     0.0000     0.0000 </r>
       <r>    -2.6615     0.0000     0.0000 </r>
       <r>    -2.5733     0.0000     0.0000 </r>
       <r>    -2.4851     0.0000     0.0000 </r>
       <r>    -2.3968     0.0000     0.0000 </r>
       <r>    -2.3086     0.0000     0.0000 </r>
       <r>    -2.2204     0.0000     0.0000 </r>
       <r>    -2.1321     0.0000     0.0000 </r>
       <r>    -2.0439     0.0000     0.0000 </r>
       <r>    -1.9557     0.0000     0.0000 </r>
       <r>    -1.8674     0.0000     0.0000 </r>
       <r>    -1.7792     0.0000     0.0000 </r>
       <r>    -1.6910     0.0000     0.0000 </r>
       <r>    -1.6027     0.0000     0.0000 </r>
       <r>    -1.5145     0.0000     0.0000 </r>
       <r>    -1.4263     0.0000     0.0000 </r>
       <r>    -1.3380    -0.0002     0.0000 </r>
       <r>    -1.2498    -0.0006    -0.0001 </r>
       <r>    -1.1616    -0.0018    -0.0002 </r>
       <r>    -1.0733    -0.0043    -0.0006 </r>
       <r>    -0.9851    -0.0076    -0.0013 </r>
       <r>    -0.8969    -0.0090    -0.0021 </r>
       <r>    -0.8086    -0.0018    -0.0022 </r>
       <r>    -0.7204     0.0226    -0.0002 </r>
       <r>    -0.6322     0.0689     0.0058 </r>
       <r>    -0.5439     0.1319     0.0175 </r>
       <r>    -0.4557     0.1973     0.0349 </r>
       <r>    -0.3675     0.2494     0.0569 </r>
       <r>    -0.2792     0.2826     0.0818 </r>
       <r>    -0.1910     0.3033     0.1086 </r>
       <r>    -0.1028     0.3247     0.1372 </r>
       <r>    -0.0145     0.3568     0.1687 </r>
       <r>     0.0737     0.4017     0.2042 </r>
       <r>     0.1619     0.4563     0.2444 </r>
       <r>     0.2502     0.5146     0.2898 </r>
       <r>     0.3384     0.5690     0.3400 </r>
       <r>     0.4266     0.6128     0.3941 </r>
       <r>     0.5149     0.6447     0.4510 </r>
       <r>     0.6031     0.6695     0.5100 </r>
       <r>     0.6913     0.6928     0.5712 </r>
       <r>     0.7796     0.7191     0.6346 </r>
       <r>     0.8678     0.7542     0.7012 </r>
       <r>     0.9560     0.8043     0.7721 </r>
       <r>     1.0442     0.8685     0.8488 </r>
       <r>     1.1325     0.9381     0.9315 </r>
       <r>     1.2207     1.0072     1.0204 </r>
       <r>     1.3089     1.0849     1.1161 </r>
       <r>     1.3972     1.1972     1.2217 </r>
       <r>     1.4854     1.3846     1.3439 </r>
       <r>     1.5736     1.6908     1.4931 </r>
       <r>     1.6619     2.1347     1.6814 </r>
       <r>     1.7501     2.6847     1.9183 </r>
       <r>     1.8383     3.2805     2.2078 </r>
       <r>     1.9266     3.9060     2.5524 </r>
       <r>     2.0148     4.6342     2.9613 </r>
       <r>     2.1030     5.5766     3.4533 </r>
       <r>     2.1913     6.7767     4.0512 </r>
       <r>     2.2795     8.1515     4.7705 </r>
       <r>     2.3677     9.5241     5.6108 </r>
       <r>     2.4560    10.7044     6.5553 </r>
       <r>     2.5442    11.5600     7.5752 </r>
       <r>     2.6324    12.0516     8.6386 </r>
       <r>     2.7207    12.2194     9.7167 </r>
       <r>     2.8089    12.1206    10.7862 </r>
       <r>     2.8971    11.7768    11.8253 </r>
       <r>     2.9854    11.2048    12.8139 </r>
       <r>     3.0736    10.5128    13.7415 </r>
       <r>     3.1618     9.9493    14.6193 </r>
       <r>     3.2501     9.8081    15.4847 </r>
       <r>     3.3383    10.2365    16.3879 </r>
       <r>     3.4265    11.1123    17.3684 </r>
       <r>     3.5148    12.1113    18.4370 </r>
       <r>     3.6030    12.9122    19.5762 </r>
       <r>     3.6912    13.3795    20.7567 </r>
       <r>     3.7795    13.6168    21.9582 </r>
       <r>     3.8677    13.8954    23.1842 </r>
       <r>     3.9559    14.5162    24.4650 </r>
       <r>     4.0442    15.6452    25.8454 </r>
       <r>     4.1324    17.1603    27.3595 </r>
       <r>     4.2206    18.5991    29.0006 </r>
       <r>     4.3088    19.3239    30.7056 </r>
       <r>     4.3971    18.8920    32.3725 </r>
       <r>     4.4853    17.3803    33.9060 </r>
       <r>     4.5735    15.3674    35.2619 </r>
       <r>     4.6618    13.5693    36.4591 </r>
       <r>     4.7500    12.4412    37.5568 </r>
       <r>     4.8382    12.0515    38.6202 </r>
       <r>     4.9265    12.2185    39.6982 </r>
       <r>     5.0147    12.6924    40.8181 </r>
       <r>     5.1029    13.2348    41.9859 </r>
       <r>     5.1912    13.6361    43.1890 </r>
       <r>     5.2794    13.7531    44.4025 </r>
       <r>     5.3676    13.5611    45.5990 </r>
       <r>     5.4559    13.1564    46.7598 </r>
       <r>     5.5441    12.6875    47.8793 </r>
       <r>     5.6323    12.2757    48.9624 </r>
       <r>     5.7206    11.9903    50.0203 </r>
       <r>     5.8088    11.8690    51.0676 </r>
       <r>     5.8970    11.9313    52.1203 </r>
       <r>     5.9853    12.1789    53.1949 </r>
       <r>     6.0735    12.6040    54.3069 </r>
       <r>     6.1617    13.1847    55.4703 </r>
       <r>     6.2500    13.8378    56.6912 </r>
       <r>     6.3382    14.3556    57.9578 </r>
       <r>     6.4264    14.3964    59.2281 </r>
       <r>     6.5147    13.5890    60.4270 </r>
       <r>     6.6029    11.7558    61.4643 </r>
       <r>     6.6911     9.1221    62.2692 </r>
       <r>     6.7794     6.2928    62.8244 </r>
       <r>     6.8676     3.9398    63.1720 </r>
       <r>     6.9558     2.4386    63.3872 </r>
       <r>     7.0441     1.7460    63.5412 </r>
       <r>     7.1323     1.5570    63.6786 </r>
       <r>     7.2205     1.5544    63.8158 </r>
       <r>     7.3088     1.5645    63.9538 </r>
       <r>     7.3970     1.5647    64.0919 </r>
       <r>     7.4852     1.5936    64.2325 </r>
       <r>     7.5735     1.6599    64.3789 </r>
       <r>     7.6617     1.7212    64.5308 </r>
       <r>     7.7499     1.7331    64.6837 </r>
       <r>     7.8381     1.6962    64.8334 </r>
       <r>     7.9264     1.6495    64.9789 </r>
       <r>     8.0146     1.6317    65.1229 </r>
       <r>     8.1028     1.6576    65.2691 </r>
       <r>     8.1911     1.7168    65.4206 </r>
       <r>     8.2793     1.7792    65.5776 </r>
       <r>     8.3675     1.8081    65.7371 </r>
       <r>     8.4558     1.7813    65.8943 </r>
       <r>     8.5440     1.7076    66.0450 </r>
       <r>     8.6322     1.6273    66.1885 </r>
       <r>     8.7205     1.5926    66.3291 </r>
       <r>     8.8087     1.6320    66.4730 </r>
       <r>     8.8969     1.7215    66.6249 </r>
       <r>     8.9852     1.7986    66.7836 </r>
       <r>     9.0734     1.8133    66.9436 </r>
       <r>     9.1616     1.7649    67.0993 </r>
       <r>     9.2499     1.6896    67.2484 </r>
       <r>     9.3381     1.6258    67.3919 </r>
       <r>     9.4263     1.5953    67.5326 </r>
       <r>     9.5146     1.6037    67.6741 </r>
       <r>     9.6028     1.6432    67.8191 </r>
       <r>     9.6910     1.6943    67.9686 </r>
       <r>     9.7793     1.7330    68.1215 </r>
       <r>     9.8675     1.7414    68.2752 </r>
       <r>     9.9557     1.7138    68.4264 </r>
       <r>    10.0440     1.6606    68.5729 </r>
       <r>    10.1322     1.6067    68.7147 </r>
       <r>    10.2204     1.5769    68.8538 </r>
       <r>    10.3087     1.5774    68.9930 </r>
       <r>    10.3969     1.5901    69.1333 </r>
       <r>    10.4851     1.5893    69.2735 </r>
       <r>    10.5734     1.5642    69.4115 </r>
       <r>    10.6616     1.5238    69.5460 </r>
       <r>    10.7498     1.4854    69.6770 </r>
       <r>    10.8381     1.4614    69.8059 </r>
       <r>    10.9263     1.4627    69.9350 </r>
       <r>    11.0145     1.5057    70.0679 </r>
       <r>    11.1027     1.6032    70.2093 </r>
       <r>    11.1910     1.7440    70.3632 </r>
       <r>    11.2792     1.8867    70.5297 </r>
       <r>    11.3674     1.9818    70.7045 </r>
       <r>    11.4557     2.0049    70.8814 </r>
       <r>    11.5439     1.9730    71.0555 </r>
       <r>    11.6321     1.9329    71.2260 </r>
       <r>    11.7204     1.9286    71.3962 </r>
       <r>    11.8086     1.9714    71.5701 </r>
       <r>    11.8968     2.0360    71.7498 </r>
       <r>    11.9851     2.0835    71.9336 </r>
       <r>    12.0733     2.0891    72.1179 </r>
       <r>    12.1615     2.0515    72.2989 </r>
       <r>    12.2498     1.9835    72.4740 </r>
       <r>    12.3380     1.8990    72.6415 </r>
       <r>    12.4262     1.8093    72.8011 </r>
       <r>    12.5145     1.7257    72.9534 </r>
       <r>    12.6027     1.6657    73.1004 </r>
       <r>    12.6909     1.6501    73.2460 </r>
       <r>    12.7792     1.6884    73.3949 </r>
       <r>    12.8674     1.7624    73.5504 </r>
       <r>    12.9556     1.8314    73.7120 </r>
       <r>    13.0439     1.8627    73.8764 </r>
       <r>    13.1321     1.8608    74.0406 </r>
       <r>    13.2203     1.8616    74.2048 </r>
       <r>    13.3086     1.8927    74.3718 </r>
       <r>    13.3968     1.9464    74.5436 </r>
       <r>    13.4850     1.9969    74.7198 </r>
       <r>    13.5733     2.0373    74.8995 </r>
       <r>    13.6615     2.0870    75.0837 </r>
       <r>    13.7497     2.1631    75.2745 </r>
       <r>    13.8380     2.2546    75.4734 </r>
       <r>    13.9262     2.3260    75.6787 </r>
       <r>    14.0144     2.3408    75.8852 </r>
       <r>    14.1027     2.2831    76.0866 </r>
       <r>    14.1909     2.1641    76.2776 </r>
       <r>    14.2791     2.0172    76.4556 </r>
       <r>    14.3674     1.8821    76.6216 </r>
       <r>    14.4556     1.7863    76.7792 </r>
       <r>    14.5438     1.7330    76.9322 </r>
       <r>    14.6320     1.7050    77.0826 </r>
       <r>    14.7203     1.6777    77.2306 </r>
       <r>    14.8085     1.6276    77.3742 </r>
       <r>    14.8967     1.5381    77.5099 </r>
       <r>    14.9850     1.4103    77.6344 </r>
       <r>    15.0732     1.2693    77.7464 </r>
       <r>    15.1614     1.1499    77.8478 </r>
       <r>    15.2497     1.0725    77.9424 </r>
       <r>    15.3379     1.0355    78.0338 </r>
       <r>    15.4261     1.0261    78.1243 </r>
       <r>    15.5144     1.0344    78.2156 </r>
       <r>    15.6026     1.0576    78.3089 </r>
       <r>    15.6908     1.0962    78.4057 </r>
       <r>    15.7791     1.1386    78.5061 </r>
       <r>    15.8673     1.1513    78.6077 </r>
       <r>    15.9555     1.0956    78.7044 </r>
       <r>    16.0438     0.9610    78.7892 </r>
       <r>    16.1320     0.7801    78.8580 </r>
       <r>    16.2202     0.6100    78.9118 </r>
       <r>    16.3085     0.5038    78.9563 </r>
       <r>    16.3967     0.4868    78.9992 </r>
       <r>    16.4849     0.5434    79.0472 </r>
       <r>    16.5732     0.6195    79.1018 </r>
       <r>    16.6614     0.6534    79.1595 </r>
       <r>    16.7496     0.6169    79.2139 </r>
       <r>    16.8379     0.5317    79.2608 </r>
       <r>    16.9261     0.4452    79.3001 </r>
       <r>    17.0143     0.3931    79.3348 </r>
       <r>    17.1026     0.3812    79.3684 </r>
       <r>    17.1908     0.3936    79.4031 </r>
       <r>    17.2790     0.4095    79.4393 </r>
       <r>    17.3673     0.4162    79.4760 </r>
       <r>    17.4555     0.4113    79.5123 </r>
       <r>    17.5437     0.3965    79.5473 </r>
       <r>    17.6320     0.3715    79.5800 </r>
       <r>    17.7202     0.3362    79.6097 </r>
       <r>    17.8084     0.2996    79.6361 </r>
       <r>    17.8966     0.2783    79.6607 </r>
       <r>    17.9849     0.2833    79.6857 </r>
       <r>    18.0731     0.3065    79.7127 </r>
       <r>    18.1613     0.3234    79.7413 </r>
       <r>    18.2496     0.3139    79.7690 </r>
       <r>    18.3378     0.2820    79.7938 </r>
       <r>    18.4260     0.2545    79.8163 </r>
       <r>    18.5143     0.2562    79.8389 </r>
       <r>    18.6025     0.2855    79.8641 </r>
       <r>    18.6907     0.3143    79.8918 </r>
       <r>    18.7790     0.3133    79.9195 </r>
       <r>    18.8672     0.2753    79.9438 </r>
       <r>    18.9554     0.2161    79.9628 </r>
       <r>    19.0437     0.1561    79.9766 </r>
       <r>    19.1319     0.1060    79.9860 </r>
       <r>    19.2201     0.0669    79.9919 </r>
       <r>    19.3084     0.0378    79.9952 </r>
       <r>    19.3966     0.0191    79.9969 </r>
       <r>    19.4848     0.0103    79.9978 </r>
       <r>    19.5731     0.0076    79.9985 </r>
       <r>    19.6613     0.0067    79.9991 </r>
       <r>    19.7495     0.0054    79.9995 </r>
       <r>    19.8378     0.0035    79.9998 </r>
       <r>    19.9260     0.0018    80.0000 </r>
       <r>    20.0142     0.0006    80.0001 </r>
       <r>    20.1025     0.0000    80.0001 </r>
       <r>    20.1907    -0.0002    80.0000 </r>
       <r>    20.2789    -0.0002    80.0000 </r>
       <r>    20.3672    -0.0001    80.0000 </r>
       <r>    20.4554    -0.0001    80.0000 </r>
       <r>    20.5436     0.0000    80.0000 </r>
       <r>    20.6319     0.0000    80.0000 </r>
       <r>    20.7201     0.0000    80.0000 </r>
       <r>    20.8083     0.0000    80.0000 </r>
       <r>    20.8966     0.0000    80.0000 </r>
       <r>    20.9848     0.0000    80.0000 </r>
       <r>    21.0730     0.0000    80.0000 </r>
       <r>    21.1613     0.0000    80.0000 </r>
       <r>    21.2495     0.0000    80.0000 </r>
       <r>    21.3377     0.0000    80.0000 </r>
       <r>    21.4259     0.0000    80.0000 </r>
       <r>    21.5142     0.0000    80.0000 </r>
       <r>    21.6024     0.0000    80.0000 </r>
       <r>    21.6906     0.0000    80.0000 </r>
       <r>    21.7789     0.0000    80.0000 </r>
       <r>    21.8671     0.0000    80.0000 </r>
       <r>    21.9553     0.0000    80.0000 </r>
       <r>    22.0436     0.0000    80.0000 </r>
       <r>    22.1318     0.0000    80.0000 </r>
       <r>    22.2200     0.0000    80.0000 </r>
       <r>    22.3083     0.0000    80.0000 </r>
       <r>    22.3965     0.0000    80.0000 </r>
       <r>    22.4847     0.0000    80.0000 </r>
       <r>    22.5730     0.0000    80.0000 </r>
       <r>    22.6612     0.0000    80.0000 </r>
       <r>    22.7494     0.0000    80.0000 </r>
       <r>    22.8377     0.0000    80.0000 </r>
      </set>
     </set>
    </array>
   </total>
  </dos>
 </calculation>
 <structure name="finalpos" >
  <crystal>
   <varray name="basis" >
    <v>       0.00000000       2.06400461      -2.06400461 </v>
    <v>       0.00000000      -2.06400461      -2.06400461 </v>
    <v>     -12.60119676       0.00000000       0.00000000 </v>
   </varray>
   <i name="volume">    107.36509546 </i>
   <varray name="rec_basis" >
    <v>       0.00000000       0.24224752      -0.24224752 </v>
    <v>       0.00000000      -0.24224752      -0.24224752 </v>
    <v>      -0.07935754       0.00000000       0.00000000 </v>
   </varray>
  </crystal>
  <varray name="positions" >
   <v>       0.50000000       0.50000000       0.16666667 </v>
   <v>       0.00000000       0.00000000       0.00117700 </v>
   <v>       0.50000000       0.50000000       0.83348200 </v>
   <v>       0.00000000       0.00000000       0.66666667 </v>
   <v>       0.50000000       0.50000000       0.49985133 </v>
   <v>       0.00000000       0.00000000       0.33215634 </v>
  </varray>
 </structure>
</modeling>
