<?xml version="1.0" encoding="ISO-8859-1"?>
<modeling>
 <generator>
  <i name="program" type="string">vasp </i>
  <i name="version" type="string">5.3.5  </i>
  <i name="subversion" type="string">31Mar14 (build Jun 20 2014 13:15:13) complex                          parallel </i>
  <i name="platform" type="string">LinuxIFC </i>
  <i name="date" type="string">2025 12 12 </i>
  <i name="time" type="string">11:33:27 </i>
 </generator>
 <incar>
  <i type="string" name="PREC">accurate</i>
  <i type="int" name="IALGO">    38</i>
  <i type="logical" name="ADDGRID"> T  </i>
  <i type="int" name="ISPIN">     2</i>
  <i type="int" name="NELM">   100</i>
  <i type="int" name="NELMIN">     4</i>
  <i name="EDIFF">      0.00000100</i>
  <i name="ENCUT">    500.00000000</i>
  <i type="logical" name="LREAL"> F  </i>
  <i type="int" name="ISMEAR">     0</i>
  <i name="SIGMA">      0.05000000</i>
  <i type="logical" name="LWAVE"> F  </i>
  <i type="logical" name="LCHARG"> F  </i>
  <i type="int" name="NELM">   100</i>
  <i type="logical" name="LDAU"> T  </i>
  <v name="LDAUU">      0.00000000      4.00000000      0.00000000</v>
  <v name="LDAUJ">      0.00000000      0.00000000      0.00000000</v>
 </incar>
 <kpoints>
  <generation param="Auto">
   <i name="subdivisionlength">     20.00000000 </i>
   <v type="int" name="divisions">       5        5        1 </v>
   <v name="usershift">      0.00000000       0.00000000       0.00000000 </v>
   <v name="genvec1">      0.20000000       0.00000000       0.00000000 </v>
   <v name="genvec2">      0.00000000       0.20000000       0.00000000 </v>
   <v name="genvec3">      0.00000000       0.00000000       1.00000000 </v>
   <v name="shift">      0.00000000       0.00000000       0.00000000 </v>
  </generation>
  <varray name="kpointlist" >
   <v>       0.00000000       0.00000000       0.00000000 </v>
   <v>       0.20000000       0.00000000       0.00000000 </v>
   <v>       0.40000000       0.00000000       0.00000000 </v>
   <v>       0.00000000       0.20000000       0.00000000 </v>
   <v>       0.20000000       0.20000000       0.00000000 </v>
   <v>       0.40000000       0.20000000       0.00000000 </v>
   <v>       0.00000000       0.40000000       0.00000000 </v>
   <v>       0.20000000       0.40000000       0.00000000 </v>
   <v>       0.40000000       0.40000000       0.00000000 </v>
  </varray>
  <varray name="weights" >
   <v>       0.04000000 </v>
   <v>       0.08000000 </v>
   <v>       0.08000000 </v>
   <v>       0.08000000 </v>
   <v>       0.16000000 </v>
   <v>       0.16000000 </v>
   <v>       0.08000000 </v>
   <v>       0.16000000 </v>
   <v>       0.16000000 </v>
  </varray>
 </kpoints>
 <parameters>
  <separator name="general" >
   <i type="string" name="SYSTEM">unknown system</i>
   <i type="logical" name="LCOMPAT"> F  </i>
  </separator>
  <separator name="electronic" >
   <i type="string" name="PREC">accura</i>
   <i name="ENMAX">    500.00000000</i>
   <i name="ENAUG">    586.98000000</i>
   <i name="EDIFF">      0.00000100</i>
   <i type="int" name="IALGO">    38</i>
   <i type="int" name="IWAVPR">    10</i>
   <i type="int" name="NBANDS">    88</i>
   <i name="NELECT">    132.00000000</i>
   <i type="int" name="TURBO">     0</i>
   <i type="int" name="IRESTART">     0</i>
   <i type="int" name="NREBOOT">     0</i>
   <i type="int" name="NMIN">     0</i>
   <i name="EREF">      0.00000000</i>
   <separator name="electronic smearing" >
    <i type="int" name="ISMEAR">     0</i>
    <i name="SIGMA">      0.05000000</i>
    <i name="KSPACING">      0.50000000</i>
    <i type="logical" name="KGAMMA"> T  </i>
   </separator>
   <separator name="electronic projectors" >
    <i type="logical" name="LREAL"> F  </i>
    <v name="ROPT">      0.00000000      0.00000000      0.00000000</v>
    <i type="int" name="LMAXPAW">  -100</i>
    <i type="int" name="LMAXMIX">     2</i>
    <i type="logical" name="NLSPLINE"> F  </i>
   </separator>
   <separator name="electronic startup" >
    <i type="int" name="ISTART">     0</i>
    <i type="int" name="ICHARG">     2</i>
    <i type="int" name="INIWAV">     1</i>
   </separator>
   <separator name="electronic spin" >
    <i type="int" name="ISPIN">     2</i>
    <i type="logical" name="LNONCOLLINEAR"> F  </i>
    <v name="MAGMOM">      1.00000000      1.00000000      1.00000000      1.00000000      1.00000000      1.00000000      1.00000000      1.00000000      1.00000000      1.00000000      1.00000000      1.00000000      1.00000000      1.00000000      1.00000000      1.00000000</v>
    <i name="NUPDOWN">     -1.00000000</i>
    <i type="logical" name="LSORBIT"> F  </i>
    <v name="SAXIS">      0.00000000      0.00000000      1.00000000</v>
    <i type="logical" name="LSPIRAL"> F  </i>
    <v name="QSPIRAL">      0.00000000      0.00000000      0.00000000</v>
    <i type="logical" name="LZEROZ"> F  </i>
   </separator>
   <separator name="electronic exchange-correlation" >
    <i type="logical" name="LASPH"> F  </i>
    <i type="logical" name="LMETAGGA"> F  </i>
   </separator>
   <separator name="electronic convergence" >
    <i type="int" name="NELM">   100</i>
    <i type="int" name="NELMDL">    -5</i>
    <i type="int" name="NELMIN">     4</i>
    <i name="ENINI">    500.00000000</i>
    <separator name="electronic convergence detail" >
     <i type="logical" name="LDIAG"> T  </i>
     <i type="logical" name="LSUBROT"> F  </i>
     <i name="WEIMIN">      0.00000000</i>
     <i name="EBREAK">      0.00000000</i>
     <i name="DEPER">      0.30000000</i>
     <i type="int" name="NRMM">     4</i>
     <i name="TIME">      0.40000000</i>
    </separator>
   </separator>
   <separator name="electronic mixer" >
    <i name="AMIX">      0.40000000</i>
    <i name="BMIX">      1.00000000</i>
    <i name="AMIN">      0.10000000</i>
    <i name="AMIX_MAG">      1.60000000</i>
    <i name="BMIX_MAG">      1.00000000</i>
    <separator name="electronic mixer details" >
     <i type="int" name="IMIX">     4</i>
     <i type="int" name="MAXMIX">   -45</i>
     <i name="WC">    100.00000000</i>
     <i type="int" name="INIMIX">     1</i>
     <i type="int" name="MIXPRE">     1</i>
     <i type="int" name="MREMOVE">     5</i>
    </separator>
   </separator>
   <separator name="electronic dipolcorrection" >
    <i type="logical" name="LDIPOL"> F  </i>
    <i type="logical" name="LMONO"> F  </i>
    <i type="int" name="IDIPOL">     0</i>
    <i name="EPSILON">      1.00000000</i>
    <v name="DIPOL">   -100.00000000   -100.00000000   -100.00000000</v>
    <i name="EFIELD">      0.00000000</i>
   </separator>
  </separator>
  <separator name="grids" >
   <i type="int" name="NGX">    30</i>
   <i type="int" name="NGY">    30</i>
   <i type="int" name="NGZ">   120</i>
   <i type="int" name="NGXF">    60</i>
   <i type="int" name="NGYF">    60</i>
   <i type="int" name="NGZF">   240</i>
   <i type="logical" name="ADDGRID"> T  </i>
  </separator>
  <separator name="ionic" >
   <i type="int" name="NSW">     0</i>
   <i type="int" name="IBRION">    -1</i>
   <i type="int" name="ISIF">     2</i>
   <i name="PSTRESS">      0.00000000</i>
   <i name="EDIFFG">      0.00001000</i>
   <i type="int" name="NFREE">     0</i>
   <i name="POTIM">      0.50000000</i>
   <i name="SMASS">     -3.00000000</i>
   <i name="SCALEE">      1.00000000</i>
  </separator>
  <separator name="ionic md" >
   <i name="TEBEG">      0.00010000</i>
   <i name="TEEND">      0.00010000</i>
   <i type="int" name="NBLOCK">     1</i>
   <i type="int" name="KBLOCK">     1</i>
   <i type="int" name="NPACO">   256</i>
   <i name="APACO">     16.00000000</i>
  </separator>
  <separator name="symmetry" >
   <i type="int" name="ISYM">     2</i>
   <i name="SYMPREC">      0.00001000</i>
  </separator>
  <separator name="dos" >
   <i type="logical" name="LORBIT"> F  </i>
   <v name="RWIGS">     -1.00000000     -1.00000000     -1.00000000</v>
   <i type="int" name="NEDOS">   301</i>
   <i name="EMIN">     10.00000000</i>
   <i name="EMAX">    -10.00000000</i>
   <i name="EFERMI">      0.00000000</i>
  </separator>
  <separator name="writing" >
   <i type="int" name="NWRITE">     2</i>
   <i type="logical" name="LWAVE"> F  </i>
   <i type="logical" name="LCHARG"> F  </i>
   <i type="logical" name="LPARD"> F  </i>
   <i type="logical" name="LVTOT"> F  </i>
   <i type="logical" name="LVHAR"> F  </i>
   <i type="logical" name="LELF"> F  </i>
   <i type="logical" name="LOPTICS"> F  </i>
   <v name="STM">      0.00000000      0.00000000      0.00000000      0.00000000      0.00000000      0.00000000      0.00000000</v>
  </separator>
  <separator name="performance" >
   <i type="int" name="NPAR">     4</i>
   <i type="int" name="NSIM">     4</i>
   <i type="int" name="NBLK">    -1</i>
   <i type="logical" name="LPLANE"> T  </i>
   <i type="logical" name="LSCALAPACK"> T  </i>
   <i type="logical" name="LSCAAWARE"> F  </i>
   <i type="logical" name="LSCALU"> F  </i>
   <i type="logical" name="LASYNC"> F  </i>
   <i type="logical" name="LORBITALREAL"> F  </i>
  </separator>
  <separator name="miscellaneous" >
   <i type="int" name="IDIOT">     3</i>
   <i type="logical" name="LMUSIC"> F  </i>
   <v name="POMASS">     87.62000000     63.54600000     16.00000000</v>
   <v name="DARWINR">      0.00000000      0.00000000      0.00000000</v>
   <v name="DARWINV">      1.00000000      1.00000000      1.00000000</v>
   <i type="logical" name="LCORR"> T  </i>
  </separator>
  <i type="logical" name="GGA_COMPAT"> T  </i>
  <i type="logical" name="LBERRY"> F  </i>
  <i type="int" name="ICORELEVEL">     0</i>
  <i type="logical" name="LDAU"> T  </i>
  <v type="int" name="LDAUTYPE">     2</v>
  <v type="int" name="LDAUL">     2</v>
  <v name="LDAUU">      0.00000000</v>
  <v name="LDAUJ">      0.00000000</v>
  <i type="int" name="LDAUPRINT">     0</i>
  <i type="int" name="I_CONSTRAINED_M">     0</i>
  <separator name="electronic exchange-correlation" >
   <i type="string" name="GGA">--</i>
   <i type="int" name="VOSKOWN">     0</i>
   <i type="logical" name="LHFCALC"> F  </i>
   <i type="string" name="PRECFOCK"></i>
   <i type="logical" name="LSYMGRAD"> F  </i>
   <i type="logical" name="LHFONE"> F  </i>
   <i type="logical" name="LRHFCALC"> F  </i>
   <i type="logical" name="LTHOMAS"> F  </i>
   <i type="logical" name="LMODELHF"> F  </i>
   <i name="ENCUT4O">     -1.00000000</i>
   <i type="int" name="EXXOEP">     0</i>
   <i type="int" name="FOURORBIT">     0</i>
   <i name="AEXX">      0.00000000</i>
   <i name="HFALPHA">      0.00000000</i>
   <i name="MCALPHA">      0.00000000</i>
   <i name="ALDAX">      1.00000000</i>
   <i name="AGGAX">      1.00000000</i>
   <i name="ALDAC">      1.00000000</i>
   <i name="AGGAC">      1.00000000</i>
   <i type="int" name="NKREDX">     1</i>
   <i type="int" name="NKREDY">     1</i>
   <i type="int" name="NKREDZ">     1</i>
   <i type="logical" name="SHIFTRED"> F  </i>
   <i type="logical" name="ODDONLY"> F  </i>
   <i type="logical" name="EVENONLY"> F  </i>
   <i type="int" name="LMAXFOCK">     0</i>
   <i type="int" name="NMAXFOCKAE">     0</i>
   <i type="logical" name="LFOCKAEDFT"> F  </i>
   <i name="HFSCREEN">      0.00000000</i>
   <i name="HFSCREENC">      0.00000000</i>
   <i type="int" name="NBANDSGWLOW">     0</i>
  </separator>
  <separator name="vdW DFT" >
   <i type="logical" name="LUSE_VDW"> F  </i>
   <i name="Zab_VDW">     -0.84910000</i>
   <i name="PARAM1">      0.12340000</i>
   <i name="PARAM2">      1.00000000</i>
   <i name="PARAM3">      0.00000000</i>
  </separator>
  <separator name="model GW" >
   <i type="int" name="MODEL_GW">     0</i>
   <i name="MODEL_EPS0">      9.60000000</i>
   <i name="MODEL_ALPHA">      1.00000000</i>
  </separator>
  <separator name="linear response parameters" >
   <i type="logical" name="LEPSILON"> F  </i>
   <i type="logical" name="LRPA"> F  </i>
   <i type="logical" name="LNABLA"> F  </i>
   <i type="logical" name="LVEL"> F  </i>
   <i type="int" name="KINTER">     0</i>
   <i name="CSHIFT">      0.10000000</i>
   <i name="OMEGAMAX">     -1.00000000</i>
   <i name="DEG_THRESHOLD">      0.00200000</i>
  </separator>
  <separator name="orbital magnetization" >
   <i type="logical" name="NUCIND"> F  </i>
   <v name="MAGPOS">      0.00000000      0.00000000      0.00000000</v>
   <i type="logical" name="LNICSALL"> T  </i>
   <i type="logical" name="ORBITALMAG"> F  </i>
   <i type="logical" name="LMAGBLOCH"> F  </i>
   <i type="logical" name="LCHIMAG"> F  </i>
   <i type="logical" name="LGAUGE"> T  </i>
   <i type="int" name="MAGATOM">     0</i>
   <v name="MAGDIPOL">      0.00000000      0.00000000      0.00000000</v>
   <v name="AVECCONST">      0.00000000      0.00000000      0.00000000</v>
  </separator>
  <separator name="response functions" >
   <i type="logical" name="LADDER"> F  </i>
   <i type="logical" name="LFXC"> F  </i>
   <i type="logical" name="LHARTREE"> T  </i>
   <i type="int" name="IBSE">     0</i>
   <i type="logical" name="LTCTE"> F  </i>
   <i type="logical" name="LTETE"> F  </i>
   <i type="logical" name="LTRIPLET"> F  </i>
   <i type="logical" name="LFXCEPS"> F  </i>
   <i type="logical" name="LFXHEG"> F  </i>
   <i type="logical" name="L2ORDER"> F  </i>
   <i type="logical" name="LUSEW"> F  </i>
   <i name="ENCUTGW">     -2.00000000</i>
   <i name="ENCUTGWSOFT">     -2.00000000</i>
   <i name="ENCUTLF">     -1.00000000</i>
   <i type="int" name="LMAXMP2">    -1</i>
   <i name="SCISSOR">      0.00000000</i>
   <i type="int" name="NOMEGA">     0</i>
   <i type="int" name="NOMEGAR">     0</i>
   <i type="int" name="NBANDSGW">    -1</i>
   <i type="int" name="NBANDSO">    -1</i>
   <i type="int" name="NBANDSV">    -1</i>
   <i type="int" name="NELM">   100</i>
   <i type="int" name="DIM">     3</i>
   <i type="int" name="ANTIRES">     0</i>
   <i name="OMEGAMAX">    -30.00000000</i>
   <i name="OMEGAMIN">    -30.00000000</i>
   <i name="OMEGATL">   -200.00000000</i>
   <i type="int" name="OMEGAGRID">     0</i>
   <i name="CSHIFT">     -0.10000000</i>
   <i type="logical" name="SELFENERGY"> F  </i>
   <i type="logical" name="LSPECTRAL"> F  </i>
   <i type="logical" name="ODDONLYGW"> F  </i>
   <i type="logical" name="EVENONLYGW"> F  </i>
   <i type="int" name="NKREDLFX">     1</i>
   <i type="int" name="NKREDLFY">     1</i>
   <i type="int" name="NKREDLFZ">     1</i>
   <i type="int" name="MAXMEM">  1800</i>
   <i type="int" name="TELESCOPE">     0</i>
   <i type="int" name="TAUPAR">     1</i>
  </separator>
  <separator name="External order field" >
   <i name="OFIELD_KAPPA">      0.00000000</i>
   <v name="OFIELD_K">      0.00000000      0.00000000      0.00000000</v>
   <i name="OFIELD_Q6_NEAR">      0.00000000</i>
   <i name="OFIELD_Q6_FAR">      0.00000000</i>
   <i name="OFIELD_A">      0.00000000</i>
  </separator>
 </parameters>
 <atominfo>
  <atoms>      16 </atoms>
  <types>       3 </types>
  <array name="atoms" >
   <dimension dim="1">ion</dimension>
   <field type="string">element</field>
   <field type="int">atomtype</field>
   <set>
    <rc><c>Sr</c><c>   1</c></rc>
    <rc><c>Sr</c><c>   1</c></rc>
    <rc><c>Sr</c><c>   1</c></rc>
    <rc><c>Sr</c><c>   1</c></rc>
    <rc><c>Cu</c><c>   2</c></rc>
    <rc><c>Cu</c><c>   2</c></rc>
    <rc><c>Cu</c><c>   2</c></rc>
    <rc><c>Cu</c><c>   2</c></rc>
    <rc><c>O </c><c>   3</c></rc>
    <rc><c>O </c><c>   3</c></rc>
    <rc><c>O </c><c>   3</c></rc>
    <rc><c>O </c><c>   3</c></rc>
    <rc><c>O </c><c>   3</c></rc>
    <rc><c>O </c><c>   3</c></rc>
    <rc><c>O </c><c>   3</c></rc>
    <rc><c>O </c><c>   3</c></rc>
   </set>
  </array>
  <array name="atomtypes" >
   <dimension dim="1">type</dimension>
   <field type="int">atomspertype</field>
   <field type="string">element</field>
   <field>mass</field>
   <field>valence</field>
   <field type="string">pseudopotential</field>
   <set>
    <rc><c>   4</c><c>Sr</c><c>     87.62000000</c><c>     10.00000000</c><c>  PAW_PBE Sr_sv 07Sep2000               </c></rc>
    <rc><c>   4</c><c>Cu</c><c>     63.54600000</c><c>     11.00000000</c><c>  PAW_PBE Cu 22Jun2005                  </c></rc>
    <rc><c>   8</c><c>O </c><c>     16.00000000</c><c>      6.00000000</c><c>  PAW_PBE O_s 07Sep2000                 </c></rc>
   </set>
  </array>
 </atominfo>
 <structure name="initialpos" >
  <crystal>
   <varray name="basis" >
    <v>       4.00000000       0.00000000       0.00000000 </v>
    <v>       0.00000000       4.00000000       0.00000000 </v>
    <v>       0.00000000       0.00000000      16.00000000 </v>
   </varray>
   <i name="volume">    256.00000000 </i>
   <varray name="rec_basis" >
    <v>       0.25000000       0.00000000       0.00000000 </v>
    <v>       0.00000000       0.25000000       0.00000000 </v>
    <v>       0.00000000       0.00000000       0.06250000 </v>
   </varray>
  </crystal>
  <varray name="positions" >
   <v>       0.00000000       0.00000000       0.00000000 </v>
   <v>       0.00000000       0.00000000       0.25000000 </v>
   <v>       0.00000000       0.00000000       0.50000000 </v>
   <v>       0.00000000       0.00000000       0.75000000 </v>
   <v>       0.50000000       0.50000000       0.12500000 </v>
   <v>       0.50000000       0.50000000       0.37500000 </v>
   <v>       0.50000000       0.50000000       0.62500000 </v>
   <v>       0.50000000       0.50000000       0.87500000 </v>
   <v>       0.50000000       0.50000000       0.25000000 </v>
   <v>       0.50000000       0.50000000       0.50000000 </v>
   <v>       0.50000000       0.50000000       0.75000000 </v>
   <v>       0.00000000       0.50000000       0.37500000 </v>
   <v>       0.00000000       0.50000000       0.62500000 </v>
   <v>       0.00000000       0.50000000       0.87500000 </v>
   <v>       0.50000000       0.00000000       0.12500000 </v>
   <v>       0.50000000       0.00000000       0.87500000 </v>
  </varray>
 </structure>
 <calculation>
  <scstep>
   <time name="dav">    1.66    1.66</time>
   <time name="total">    1.86    1.87</time>
   <energy>
    <i name="alphaZ">    598.65364144 </i>
    <i name="ewald">  -8601.75258860 </i>
    <i name="hartreedc">  -3842.49640476 </i>
    <i name="XCdc">    543.12361276 </i>
    <i name="pawpsdc">  10188.96972968 </i>
    <i name="pawaedc"> -10517.73277125 </i>
    <i name="eentropy">     -0.00408175 </i>
    <i name="bandstr">    869.63635075 </i>
    <i name="atom">  12395.00728236 </i>
    <i name="e_fr_energy">   1633.40477063 </i>
    <i name="e_wo_entrp">   1633.40885238 </i>
    <i name="e_0_energy">   1633.40681151 </i>
   </energy>
  </scstep>
  <scstep>
   <time name="dav">    1.71    1.71</time>
   <time name="total">    1.71    1.73</time>
   <energy>
    <i name="e_fr_energy">    147.92560937 </i>
    <i name="e_wo_entrp">    147.93557744 </i>
    <i name="e_0_energy">    147.93059340 </i>
   </energy>
  </scstep>
  <scstep>
   <time name="dav">    1.77    1.77</time>
   <time name="total">    1.77    1.79</time>
   <energy>
    <i name="e_fr_energy">    -79.49155430 </i>
    <i name="e_wo_entrp">    -79.48224871 </i>
    <i name="e_0_energy">    -79.48690150 </i>
   </energy>
  </scstep>
  <scstep>
   <time name="dav">    2.60    2.60</time>
   <time name="total">    2.61    2.62</time>
   <energy>
    <i name="e_fr_energy">    -96.70239963 </i>
    <i name="e_wo_entrp">    -96.69598750 </i>
    <i name="e_0_energy">    -96.69919356 </i>
   </energy>
  </scstep>
  <scstep>
   <time name="dav">    2.86    2.86</time>
   <time name="total">    3.14    3.15</time>
   <energy>
    <i name="e_fr_energy">    -97.60164206 </i>
    <i name="e_wo_entrp">    -97.59522301 </i>
    <i name="e_0_energy">    -97.59843253 </i>
   </energy>
  </scstep>
  <scstep>
   <time name="dav">    2.51    2.51</time>
   <time name="total">    2.98    3.00</time>
   <energy>
    <i name="e_fr_energy">    -85.82943193 </i>
    <i name="e_wo_entrp">    -85.81838927 </i>
    <i name="e_0_energy">    -85.82391060 </i>
   </energy>
  </scstep>
  <scstep>
   <time name="dav">    2.28    2.28</time>
   <time name="total">    2.75    2.76</time>
   <energy>
    <i name="e_fr_energy">    -79.91207454 </i>
    <i name="e_wo_entrp">    -79.90032306 </i>
    <i name="e_0_energy">    -79.90619880 </i>
   </energy>
  </scstep>
  <scstep>
   <time name="dav">    2.99    2.99</time>
   <time name="total">    3.45    3.47</time>
   <energy>
    <i name="e_fr_energy">    -86.49163112 </i>
    <i name="e_wo_entrp">    -86.47929154 </i>
    <i name="e_0_energy">    -86.48546133 </i>
   </energy>
  </scstep>
  <scstep>
   <time name="dav">    2.68    2.69</time>
   <time name="total">    3.15    3.17</time>
   <energy>
    <i name="e_fr_energy">    -82.72115907 </i>
    <i name="e_wo_entrp">    -82.71064635 </i>
    <i name="e_0_energy">    -82.71590271 </i>
   </energy>
  </scstep>
  <scstep>
   <time name="dav">    2.26    2.26</time>
   <time name="total">    2.73    2.75</time>
   <energy>
    <i name="e_fr_energy">    -80.33494679 </i>
    <i name="e_wo_entrp">    -80.32730125 </i>
    <i name="e_0_energy">    -80.33112402 </i>
   </energy>
  </scstep>
  <scstep>
   <time name="dav">    2.69    2.69</time>
   <time name="total">    3.16    3.18</time>
   <energy>
    <i name="e_fr_energy">    -78.92295785 </i>
    <i name="e_wo_entrp">    -78.91809044 </i>
    <i name="e_0_energy">    -78.92052415 </i>
   </energy>
  </scstep>
  <scstep>
   <time name="dav">    2.29    2.29</time>
   <time name="total">    2.75    2.77</time>
   <energy>
    <i name="e_fr_energy">    -79.16912510 </i>
    <i name="e_wo_entrp">    -79.16434233 </i>
    <i name="e_0_energy">    -79.16673372 </i>
   </energy>
  </scstep>
  <scstep>
   <time name="dav">    2.55    2.55</time>
   <time name="total">    3.01    3.03</time>
   <energy>
    <i name="e_fr_energy">    -79.30798870 </i>
    <i name="e_wo_entrp">    -79.30228495 </i>
    <i name="e_0_energy">    -79.30513682 </i>
   </energy>
  </scstep>
  <scstep>
   <time name="dav">    2.58    2.58</time>
   <time name="total">    3.05    3.06</time>
   <energy>
    <i name="e_fr_energy">    -79.58862791 </i>
    <i name="e_wo_entrp">    -79.58027025 </i>
    <i name="e_0_energy">    -79.58444908 </i>
   </energy>
  </scstep>
  <scstep>
   <time name="dav">    2.28    2.28</time>
   <time name="total">    2.75    2.76</time>
   <energy>
    <i name="e_fr_energy">    -79.64955679 </i>
    <i name="e_wo_entrp">    -79.64269412 </i>
    <i name="e_0_energy">    -79.64612545 </i>
   </energy>
  </scstep>
  <scstep>
   <time name="dav">    2.53    2.53</time>
   <time name="total">    3.00    3.01</time>
   <energy>
    <i name="e_fr_energy">    -79.68826263 </i>
    <i name="e_wo_entrp">    -79.68152826 </i>
    <i name="e_0_energy">    -79.68489544 </i>
   </energy>
  </scstep>
  <scstep>
   <time name="dav">    2.20    2.20</time>
   <time name="total">    2.67    2.69</time>
   <energy>
    <i name="e_fr_energy">    -79.72646389 </i>
    <i name="e_wo_entrp">    -79.71996260 </i>
    <i name="e_0_energy">    -79.72321325 </i>
   </energy>
  </scstep>
  <scstep>
   <time name="dav">    2.40    2.40</time>
   <time name="total">    2.87    2.89</time>
   <energy>
    <i name="e_fr_energy">    -79.74465521 </i>
    <i name="e_wo_entrp">    -79.73800164 </i>
    <i name="e_0_energy">    -79.74132843 </i>
   </energy>
  </scstep>
  <scstep>
   <time name="dav">    2.20    2.20</time>
   <time name="total">    2.67    2.69</time>
   <energy>
    <i name="e_fr_energy">    -79.75600039 </i>
    <i name="e_wo_entrp">    -79.74892268 </i>
    <i name="e_0_energy">    -79.75246153 </i>
   </energy>
  </scstep>
  <scstep>
   <time name="dav">    2.63    2.63</time>
   <time name="total">    3.10    3.11</time>
   <energy>
    <i name="e_fr_energy">    -79.75734774 </i>
    <i name="e_wo_entrp">    -79.75036646 </i>
    <i name="e_0_energy">    -79.75385710 </i>
   </energy>
  </scstep>
  <scstep>
   <time name="dav">    2.58    2.58</time>
   <time name="total">    3.05    3.07</time>
   <energy>
    <i name="e_fr_energy">    -79.75753543 </i>
    <i name="e_wo_entrp">    -79.75058507 </i>
    <i name="e_0_energy">    -79.75406025 </i>
   </energy>
  </scstep>
  <scstep>
   <time name="dav">    2.72    2.77</time>
   <time name="total">    3.20    3.26</time>
   <energy>
    <i name="e_fr_energy">    -79.75761664 </i>
    <i name="e_wo_entrp">    -79.75074808 </i>
    <i name="e_0_energy">    -79.75418236 </i>
   </energy>
  </scstep>
  <scstep>
   <time name="dav">    2.64    2.64</time>
   <time name="total">    3.10    3.12</time>
   <energy>
    <i name="e_fr_energy">    -79.75751399 </i>
    <i name="e_wo_entrp">    -79.75067904 </i>
    <i name="e_0_energy">    -79.75409651 </i>
   </energy>
  </scstep>
  <scstep>
   <time name="dav">    2.28    2.28</time>
   <time name="total">    2.75    2.77</time>
   <energy>
    <i name="e_fr_energy">    -79.75749839 </i>
    <i name="e_wo_entrp">    -79.75067586 </i>
    <i name="e_0_energy">    -79.75408712 </i>
   </energy>
  </scstep>
  <scstep>
   <time name="dav">    2.36    2.36</time>
   <time name="total">    3.10    3.12</time>
   <energy>
    <i name="e_fr_energy">    -79.75750067 </i>
    <i name="e_wo_entrp">    -79.75068920 </i>
    <i name="e_0_energy">    -79.75409493 </i>
   </energy>
  </scstep>
  <scstep>
   <time name="dav">    2.42    2.42</time>
   <time name="total">    2.89    2.90</time>
   <energy>
    <i name="e_fr_energy">    -79.75750492 </i>
    <i name="e_wo_entrp">    -79.75070249 </i>
    <i name="e_0_energy">    -79.75410370 </i>
   </energy>
  </scstep>
  <scstep>
   <time name="dav">    1.58    1.58</time>
   <time name="total">    2.05    2.07</time>
   <energy>
    <i name="e_fr_energy">    -79.75750783 </i>
    <i name="e_wo_entrp">    -79.75071002 </i>
    <i name="e_0_energy">    -79.75410892 </i>
   </energy>
  </scstep>
  <scstep>
   <time name="dav">    1.57    1.57</time>
   <time name="total">    2.32    2.34</time>
   <energy>
    <i name="e_fr_energy">    -79.75750982 </i>
    <i name="e_wo_entrp">    -79.75071632 </i>
    <i name="e_0_energy">    -79.75411307 </i>
   </energy>
  </scstep>
  <scstep>
   <time name="dav">    1.58    1.58</time>
   <time name="total">    2.05    2.07</time>
   <energy>
    <i name="e_fr_energy">    -79.75751136 </i>
    <i name="e_wo_entrp">    -79.75072103 </i>
    <i name="e_0_energy">    -79.75411619 </i>
   </energy>
  </scstep>
  <scstep>
   <time name="dav">    1.46    1.46</time>
   <time name="total">    1.93    1.95</time>
   <energy>
    <i name="e_fr_energy">    -79.75751238 </i>
    <i name="e_wo_entrp">    -79.75072672 </i>
    <i name="e_0_energy">    -79.75411955 </i>
   </energy>
  </scstep>
  <scstep>
   <time name="dav">    1.63    1.63</time>
   <time name="total">    1.82    1.84</time>
   <energy>
    <i name="alphaZ">    598.65364144 </i>
    <i name="ewald">  -8601.75258860 </i>
    <i name="hartreedc">  -3848.95561680 </i>
    <i name="XCdc">    543.56319530 </i>
    <i name="pawpsdc">  15570.26466133 </i>
    <i name="pawaedc"> -15935.62115008 </i>
    <i name="eentropy">     -0.00678500 </i>
    <i name="bandstr">   -800.91015295 </i>
    <i name="atom">  12395.00728236 </i>
    <i name="e_fr_energy">    -79.75751300 </i>
    <i name="e_wo_entrp">    -79.75072799 </i>
    <i name="e_0_energy">    -79.75412049 </i>
   </energy>
  </scstep>
  <structure>
   <crystal>
    <varray name="basis" >
     <v>       4.00000000       0.00000000       0.00000000 </v>
     <v>       0.00000000       4.00000000       0.00000000 </v>
     <v>       0.00000000       0.00000000      16.00000000 </v>
    </varray>
    <i name="volume">    256.00000000 </i>
    <varray name="rec_basis" >
     <v>       0.25000000       0.00000000       0.00000000 </v>
     <v>       0.00000000       0.25000000       0.00000000 </v>
     <v>       0.00000000       0.00000000       0.06250000 </v>
    </varray>
   </crystal>
   <varray name="positions" >
    <v>       0.00000000       0.00000000       0.00000000 </v>
    <v>       0.00000000       0.00000000       0.25000000 </v>
    <v>       0.00000000       0.00000000       0.50000000 </v>
    <v>       0.00000000       0.00000000       0.75000000 </v>
    <v>       0.50000000       0.50000000       0.12500000 </v>
    <v>       0.50000000       0.50000000       0.37500000 </v>
    <v>       0.50000000       0.50000000       0.62500000 </v>
    <v>       0.50000000       0.50000000       0.87500000 </v>
    <v>       0.50000000       0.50000000       0.25000000 </v>
    <v>       0.50000000       0.50000000       0.50000000 </v>
    <v>       0.50000000       0.50000000       0.75000000 </v>
    <v>       0.00000000       0.50000000       0.37500000 </v>
    <v>       0.00000000       0.50000000       0.62500000 </v>
    <v>       0.00000000       0.50000000       0.87500000 </v>
    <v>       0.50000000       0.00000000       0.12500000 </v>
    <v>       0.50000000       0.00000000       0.87500000 </v>
   </varray>
  </structure>
  <varray name="forces" >
   <v>       0.00000000       0.00000000      -1.74878425 </v>
   <v>       0.00000000       0.00000000       0.16437569 </v>
   <v>       0.00000000       0.00000000       0.05129434 </v>
   <v>       0.00000000       0.00000000       1.24362278 </v>
   <v>       0.00000000       0.00000000       0.27865415 </v>
   <v>       0.00000000       0.00000000      -0.15677939 </v>
   <v>       0.00000000       0.00000000       0.61435492 </v>
   <v>       0.00000000       0.00000000      -0.43177844 </v>
   <v>       0.00000000       0.00000000       1.04616351 </v>
   <v>       0.00000000       0.00000000      -0.08864666 </v>
   <v>       0.00000000       0.00000000      -2.16613466 </v>
   <v>       0.00000000       0.00000000      -0.17417741 </v>
   <v>       0.00000000       0.00000000      -0.17399820 </v>
   <v>       0.00000000       0.00000000       1.48977722 </v>
   <v>       0.00000000       0.00000000      -1.16168123 </v>
   <v>       0.00000000       0.00000000       1.21373763 </v>
  </varray>
  <varray name="stress" >
   <v>     -88.00378148       0.00000000       0.00000000 </v>
   <v>       0.00000000    -127.40388176       0.00000000 </v>
   <v>       0.00000000       0.00000000     -76.85447489 </v>
  </varray>
  <energy>
   <i name="e_fr_energy">    -79.75751300 </i>
   <i name="e_wo_entrp">    -79.75412049 </i>
   <i name="e_0_energy">     -0.00678500 </i>
  </energy>
  <time name="totalsc">   89.08   89.64</time>
  <eigenvalues>
   <array>
    <dimension dim="1">band</dimension>
    <dimension dim="2">kpoint</dimension>
    <dimension dim="3">spin</dimension>
    <field>eigene</field>
    <field>occ</field>
    <set>
     <set comment="spin 1">
      <set comment="kpoint 1">
       <r>  -32.0680    1.0000 </r>
       <r>  -31.5071    1.0000 </r>
       <r>  -31.4430    1.0000 </r>
       <r>  -30.5178    1.0000 </r>
       <r>  -15.1010    1.0000 </r>
       <r>  -14.7414    1.0000 </r>
       <r>  -14.6512    1.0000 </r>
       <r>  -14.4885    1.0000 </r>
       <r>  -14.1046    1.0000 </r>
       <r>  -13.9690    1.0000 </r>
       <r>  -13.8593    1.0000 </r>
       <r>  -13.7799    1.0000 </r>
       <r>  -13.5824    1.0000 </r>
       <r>  -13.4603    1.0000 </r>
       <r>  -13.4522    1.0000 </r>
       <r>  -13.4364    1.0000 </r>
       <r>  -13.3884    1.0000 </r>
       <r>  -13.3672    1.0000 </r>
       <r>  -13.2336    1.0000 </r>
       <r>  -13.1892    1.0000 </r>
       <r>  -13.0789    1.0000 </r>
       <r>  -12.4766    1.0000 </r>
       <r>  -12.3632    1.0000 </r>
       <r>  -12.3004    1.0000 </r>
       <r>   -2.4753    1.0000 </r>
       <r>   -1.8623    1.0000 </r>
       <r>   -1.2446    1.0000 </r>
       <r>   -1.1924    1.0000 </r>
       <r>   -1.1645    1.0000 </r>
       <r>   -1.0435    1.0000 </r>
       <r>   -0.9817    1.0000 </r>
       <r>   -0.8320    1.0000 </r>
       <r>   -0.8195    1.0000 </r>
       <r>   -0.8085    1.0000 </r>
       <r>   -0.7872    1.0000 </r>
       <r>   -0.7366    1.0000 </r>
       <r>   -0.7295    1.0000 </r>
       <r>   -0.7159    1.0000 </r>
       <r>   -0.6838    1.0000 </r>
       <r>   -0.6622    1.0000 </r>
       <r>   -0.6417    1.0000 </r>
       <r>   -0.6275    1.0000 </r>
       <r>   -0.5390    1.0000 </r>
       <r>   -0.4466    1.0000 </r>
       <r>   -0.3313    1.0000 </r>
       <r>   -0.2966    1.0000 </r>
       <r>   -0.2813    1.0000 </r>
       <r>   -0.2623    1.0000 </r>
       <r>   -0.0202    1.0000 </r>
       <r>    0.1381    1.0000 </r>
       <r>    0.3704    1.0000 </r>
       <r>    0.3773    1.0000 </r>
       <r>    0.3825    1.0000 </r>
       <r>    0.5169    1.0000 </r>
       <r>    0.6299    1.0000 </r>
       <r>    0.7317    1.0000 </r>
       <r>    1.1782    1.0000 </r>
       <r>    1.4556    1.0000 </r>
       <r>    1.5263    1.0000 </r>
       <r>    1.7193    1.0000 </r>
       <r>    1.7504    1.0000 </r>
       <r>    1.7923    1.0000 </r>
       <r>    1.8493    1.0000 </r>
       <r>    1.8913    1.0000 </r>
       <r>    1.9248    1.0000 </r>
       <r>    2.0113    1.0000 </r>
       <r>    2.1438    1.0000 </r>
       <r>    2.2881    1.0000 </r>
       <r>    2.7998    0.3113 </r>
       <r>    4.2844    0.0000 </r>
       <r>    5.1562    0.0000 </r>
       <r>    6.0188    0.0000 </r>
       <r>    6.5949    0.0000 </r>
       <r>    7.0032    0.0000 </r>
       <r>    7.4020    0.0000 </r>
       <r>    7.5611    0.0000 </r>
       <r>    8.1087    0.0000 </r>
       <r>    8.2390    0.0000 </r>
       <r>    8.5760    0.0000 </r>
       <r>    8.6479    0.0000 </r>
       <r>    8.6521    0.0000 </r>
       <r>    9.0652    0.0000 </r>
       <r>    9.2009    0.0000 </r>
       <r>    9.3417    0.0000 </r>
       <r>    9.3719    0.0000 </r>
       <r>    9.4563    0.0000 </r>
       <r>    9.6020    0.0000 </r>
       <r>    9.6969    0.0000 </r>
      </set>
      <set comment="kpoint 2">
       <r>  -32.0637    1.0000 </r>
       <r>  -31.5025    1.0000 </r>
       <r>  -31.4384    1.0000 </r>
       <r>  -30.5130    1.0000 </r>
       <r>  -15.0574    1.0000 </r>
       <r>  -14.7443    1.0000 </r>
       <r>  -14.6104    1.0000 </r>
       <r>  -14.4623    1.0000 </r>
       <r>  -14.1345    1.0000 </r>
       <r>  -14.0979    1.0000 </r>
       <r>  -14.0587    1.0000 </r>
       <r>  -13.9112    1.0000 </r>
       <r>  -13.7473    1.0000 </r>
       <r>  -13.4946    1.0000 </r>
       <r>  -13.4015    1.0000 </r>
       <r>  -13.3554    1.0000 </r>
       <r>  -13.3489    1.0000 </r>
       <r>  -13.1770    1.0000 </r>
       <r>  -13.1554    1.0000 </r>
       <r>  -13.1414    1.0000 </r>
       <r>  -13.0359    1.0000 </r>
       <r>  -12.3505    1.0000 </r>
       <r>  -12.3340    1.0000 </r>
       <r>  -12.2803    1.0000 </r>
       <r>   -2.5249    1.0000 </r>
       <r>   -1.9225    1.0000 </r>
       <r>   -1.8680    1.0000 </r>
       <r>   -1.6452    1.0000 </r>
       <r>   -1.5936    1.0000 </r>
       <r>   -1.4968    1.0000 </r>
       <r>   -1.3499    1.0000 </r>
       <r>   -1.2112    1.0000 </r>
       <r>   -1.1163    1.0000 </r>
       <r>   -1.0950    1.0000 </r>
       <r>   -1.0333    1.0000 </r>
       <r>   -0.9818    1.0000 </r>
       <r>   -0.9677    1.0000 </r>
       <r>   -0.9103    1.0000 </r>
       <r>   -0.8255    1.0000 </r>
       <r>   -0.6676    1.0000 </r>
       <r>   -0.6220    1.0000 </r>
       <r>   -0.5277    1.0000 </r>
       <r>   -0.4641    1.0000 </r>
       <r>   -0.4470    1.0000 </r>
       <r>   -0.4314    1.0000 </r>
       <r>   -0.3445    1.0000 </r>
       <r>   -0.2801    1.0000 </r>
       <r>   -0.2699    1.0000 </r>
       <r>    0.0175    1.0000 </r>
       <r>    0.2432    1.0000 </r>
       <r>    0.6964    1.0000 </r>
       <r>    0.7251    1.0000 </r>
       <r>    0.7694    1.0000 </r>
       <r>    0.8573    1.0000 </r>
       <r>    0.9183    1.0000 </r>
       <r>    1.0531    1.0000 </r>
       <r>    1.2696    1.0000 </r>
       <r>    1.2863    1.0000 </r>
       <r>    1.4203    1.0000 </r>
       <r>    1.5695    1.0000 </r>
       <r>    1.6865    1.0000 </r>
       <r>    1.7617    1.0000 </r>
       <r>    1.8160    1.0000 </r>
       <r>    2.0095    1.0000 </r>
       <r>    2.0396    1.0000 </r>
       <r>    2.0655    1.0000 </r>
       <r>    2.5472    1.0000 </r>
       <r>    3.0595    0.0000 </r>
       <r>    3.2818    0.0000 </r>
       <r>    4.8204    0.0000 </r>
       <r>    5.6381    0.0000 </r>
       <r>    6.2052    0.0000 </r>
       <r>    6.8520    0.0000 </r>
       <r>    7.3528    0.0000 </r>
       <r>    7.7281    0.0000 </r>
       <r>    7.7823    0.0000 </r>
       <r>    8.3156    0.0000 </r>
       <r>    8.3840    0.0000 </r>
       <r>    8.4909    0.0000 </r>
       <r>    8.6219    0.0000 </r>
       <r>    8.6287    0.0000 </r>
       <r>    8.7344    0.0000 </r>
       <r>    9.3348    0.0000 </r>
       <r>    9.4381    0.0000 </r>
       <r>    9.5028    0.0000 </r>
       <r>    9.5826    0.0000 </r>
       <r>    9.7664    0.0000 </r>
       <r>    9.9246    0.0000 </r>
      </set>
      <set comment="kpoint 3">
       <r>  -32.0568    1.0000 </r>
       <r>  -31.4951    1.0000 </r>
       <r>  -31.4310    1.0000 </r>
       <r>  -30.5053    1.0000 </r>
       <r>  -15.1175    1.0000 </r>
       <r>  -14.5826    1.0000 </r>
       <r>  -14.5697    1.0000 </r>
       <r>  -14.4728    1.0000 </r>
       <r>  -14.3353    1.0000 </r>
       <r>  -14.1701    1.0000 </r>
       <r>  -14.0869    1.0000 </r>
       <r>  -14.0532    1.0000 </r>
       <r>  -13.8979    1.0000 </r>
       <r>  -13.4973    1.0000 </r>
       <r>  -13.4291    1.0000 </r>
       <r>  -13.3777    1.0000 </r>
       <r>  -13.3362    1.0000 </r>
       <r>  -13.1571    1.0000 </r>
       <r>  -13.0645    1.0000 </r>
       <r>  -12.9256    1.0000 </r>
       <r>  -12.8505    1.0000 </r>
       <r>  -12.3298    1.0000 </r>
       <r>  -12.3201    1.0000 </r>
       <r>  -12.1100    1.0000 </r>
       <r>   -2.9641    1.0000 </r>
       <r>   -2.7249    1.0000 </r>
       <r>   -2.4595    1.0000 </r>
       <r>   -2.2880    1.0000 </r>
       <r>   -2.0817    1.0000 </r>
       <r>   -1.7909    1.0000 </r>
       <r>   -1.7151    1.0000 </r>
       <r>   -1.3442    1.0000 </r>
       <r>   -1.3072    1.0000 </r>
       <r>   -1.2917    1.0000 </r>
       <r>   -1.2794    1.0000 </r>
       <r>   -1.1955    1.0000 </r>
       <r>   -1.0484    1.0000 </r>
       <r>   -1.0458    1.0000 </r>
       <r>   -0.8239    1.0000 </r>
       <r>   -0.7009    1.0000 </r>
       <r>   -0.6780    1.0000 </r>
       <r>   -0.5796    1.0000 </r>
       <r>   -0.4767    1.0000 </r>
       <r>   -0.4650    1.0000 </r>
       <r>   -0.3631    1.0000 </r>
       <r>   -0.3201    1.0000 </r>
       <r>   -0.2670    1.0000 </r>
       <r>   -0.1375    1.0000 </r>
       <r>    0.1487    1.0000 </r>
       <r>    0.2817    1.0000 </r>
       <r>    0.7984    1.0000 </r>
       <r>    0.8184    1.0000 </r>
       <r>    0.8891    1.0000 </r>
       <r>    0.9453    1.0000 </r>
       <r>    1.0140    1.0000 </r>
       <r>    1.1995    1.0000 </r>
       <r>    1.2309    1.0000 </r>
       <r>    1.3649    1.0000 </r>
       <r>    1.5212    1.0000 </r>
       <r>    1.6139    1.0000 </r>
       <r>    1.7052    1.0000 </r>
       <r>    1.7911    1.0000 </r>
       <r>    1.8829    1.0000 </r>
       <r>    2.0039    1.0000 </r>
       <r>    2.2097    1.0000 </r>
       <r>    2.3378    1.0000 </r>
       <r>    2.9962    0.0000 </r>
       <r>    3.9203    0.0000 </r>
       <r>    4.2424    0.0000 </r>
       <r>    5.5023    0.0000 </r>
       <r>    6.1182    0.0000 </r>
       <r>    6.5921    0.0000 </r>
       <r>    6.7455    0.0000 </r>
       <r>    7.3404    0.0000 </r>
       <r>    7.8654    0.0000 </r>
       <r>    7.9981    0.0000 </r>
       <r>    8.1932    0.0000 </r>
       <r>    8.5996    0.0000 </r>
       <r>    8.6590    0.0000 </r>
       <r>    8.8522    0.0000 </r>
       <r>    8.9637    0.0000 </r>
       <r>    9.4560    0.0000 </r>
       <r>    9.6163    0.0000 </r>
       <r>    9.9430    0.0000 </r>
       <r>    9.9619    0.0000 </r>
       <r>   10.1300    0.0000 </r>
       <r>   10.1403    0.0000 </r>
       <r>   10.3375    0.0000 </r>
      </set>
      <set comment="kpoint 4">
       <r>  -32.0637    1.0000 </r>
       <r>  -31.5026    1.0000 </r>
       <r>  -31.4385    1.0000 </r>
       <r>  -30.5130    1.0000 </r>
       <r>  -15.0207    1.0000 </r>
       <r>  -14.7477    1.0000 </r>
       <r>  -14.6771    1.0000 </r>
       <r>  -14.5411    1.0000 </r>
       <r>  -14.1876    1.0000 </r>
       <r>  -14.0691    1.0000 </r>
       <r>  -13.9622    1.0000 </r>
       <r>  -13.8691    1.0000 </r>
       <r>  -13.6261    1.0000 </r>
       <r>  -13.4819    1.0000 </r>
       <r>  -13.4407    1.0000 </r>
       <r>  -13.4397    1.0000 </r>
       <r>  -13.3767    1.0000 </r>
       <r>  -13.2924    1.0000 </r>
       <r>  -13.1944    1.0000 </r>
       <r>  -13.0697    1.0000 </r>
       <r>  -12.9517    1.0000 </r>
       <r>  -12.4642    1.0000 </r>
       <r>  -12.3575    1.0000 </r>
       <r>  -12.1895    1.0000 </r>
       <r>   -2.4919    1.0000 </r>
       <r>   -1.9647    1.0000 </r>
       <r>   -1.7847    1.0000 </r>
       <r>   -1.6093    1.0000 </r>
       <r>   -1.3570    1.0000 </r>
       <r>   -1.2843    1.0000 </r>
       <r>   -1.2158    1.0000 </r>
       <r>   -1.1396    1.0000 </r>
       <r>   -1.1007    1.0000 </r>
       <r>   -1.0960    1.0000 </r>
       <r>   -1.0498    1.0000 </r>
       <r>   -0.8407    1.0000 </r>
       <r>   -0.8346    1.0000 </r>
       <r>   -0.7546    1.0000 </r>
       <r>   -0.7087    1.0000 </r>
       <r>   -0.6490    1.0000 </r>
       <r>   -0.6394    1.0000 </r>
       <r>   -0.6291    1.0000 </r>
       <r>   -0.5051    1.0000 </r>
       <r>   -0.4728    1.0000 </r>
       <r>   -0.3869    1.0000 </r>
       <r>   -0.3122    1.0000 </r>
       <r>   -0.2708    1.0000 </r>
       <r>   -0.1243    1.0000 </r>
       <r>    0.1093    1.0000 </r>
       <r>    0.2911    1.0000 </r>
       <r>    0.4559    1.0000 </r>
       <r>    0.5614    1.0000 </r>
       <r>    0.6650    1.0000 </r>
       <r>    0.6708    1.0000 </r>
       <r>    0.8421    1.0000 </r>
       <r>    0.8970    1.0000 </r>
       <r>    1.1760    1.0000 </r>
       <r>    1.3025    1.0000 </r>
       <r>    1.5086    1.0000 </r>
       <r>    1.6130    1.0000 </r>
       <r>    1.6328    1.0000 </r>
       <r>    1.7490    1.0000 </r>
       <r>    1.8150    1.0000 </r>
       <r>    1.8813    1.0000 </r>
       <r>    1.9144    1.0000 </r>
       <r>    2.0575    1.0000 </r>
       <r>    2.1846    1.0000 </r>
       <r>    2.4500    1.0000 </r>
       <r>    3.6643    0.0000 </r>
       <r>    4.7821    0.0000 </r>
       <r>    5.5941    0.0000 </r>
       <r>    6.1814    0.0000 </r>
       <r>    7.0390    0.0000 </r>
       <r>    7.3992    0.0000 </r>
       <r>    7.6754    0.0000 </r>
       <r>    7.8570    0.0000 </r>
       <r>    8.1173    0.0000 </r>
       <r>    8.2506    0.0000 </r>
       <r>    8.6040    0.0000 </r>
       <r>    8.6189    0.0000 </r>
       <r>    8.7271    0.0000 </r>
       <r>    9.1120    0.0000 </r>
       <r>    9.3737    0.0000 </r>
       <r>    9.3907    0.0000 </r>
       <r>    9.5334    0.0000 </r>
       <r>    9.7253    0.0000 </r>
       <r>    9.9495    0.0000 </r>
       <r>   10.0473    0.0000 </r>
      </set>
      <set comment="kpoint 5">
       <r>  -32.0595    1.0000 </r>
       <r>  -31.4981    1.0000 </r>
       <r>  -31.4340    1.0000 </r>
       <r>  -30.5084    1.0000 </r>
       <r>  -14.9803    1.0000 </r>
       <r>  -14.6859    1.0000 </r>
       <r>  -14.6522    1.0000 </r>
       <r>  -14.4758    1.0000 </r>
       <r>  -14.2160    1.0000 </r>
       <r>  -14.1365    1.0000 </r>
       <r>  -13.9940    1.0000 </r>
       <r>  -13.9147    1.0000 </r>
       <r>  -13.7149    1.0000 </r>
       <r>  -13.5119    1.0000 </r>
       <r>  -13.4871    1.0000 </r>
       <r>  -13.4469    1.0000 </r>
       <r>  -13.3824    1.0000 </r>
       <r>  -13.2441    1.0000 </r>
       <r>  -13.1494    1.0000 </r>
       <r>  -13.0312    1.0000 </r>
       <r>  -12.9428    1.0000 </r>
       <r>  -12.4492    1.0000 </r>
       <r>  -12.3443    1.0000 </r>
       <r>  -12.1785    1.0000 </r>
       <r>   -2.5227    1.0000 </r>
       <r>   -1.9890    1.0000 </r>
       <r>   -1.8666    1.0000 </r>
       <r>   -1.7981    1.0000 </r>
       <r>   -1.7035    1.0000 </r>
       <r>   -1.5972    1.0000 </r>
       <r>   -1.5497    1.0000 </r>
       <r>   -1.4896    1.0000 </r>
       <r>   -1.3594    1.0000 </r>
       <r>   -1.2788    1.0000 </r>
       <r>   -1.1928    1.0000 </r>
       <r>   -1.1281    1.0000 </r>
       <r>   -1.1058    1.0000 </r>
       <r>   -1.0321    1.0000 </r>
       <r>   -1.0278    1.0000 </r>
       <r>   -0.9666    1.0000 </r>
       <r>   -0.9288    1.0000 </r>
       <r>   -0.8936    1.0000 </r>
       <r>   -0.7083    1.0000 </r>
       <r>   -0.4930    1.0000 </r>
       <r>   -0.4045    1.0000 </r>
       <r>   -0.3405    1.0000 </r>
       <r>   -0.1439    1.0000 </r>
       <r>    0.1566    1.0000 </r>
       <r>    0.4039    1.0000 </r>
       <r>    0.5887    1.0000 </r>
       <r>    0.6712    1.0000 </r>
       <r>    0.7666    1.0000 </r>
       <r>    0.8951    1.0000 </r>
       <r>    1.0158    1.0000 </r>
       <r>    1.1719    1.0000 </r>
       <r>    1.2467    1.0000 </r>
       <r>    1.2847    1.0000 </r>
       <r>    1.3528    1.0000 </r>
       <r>    1.4225    1.0000 </r>
       <r>    1.4268    1.0000 </r>
       <r>    1.5064    1.0000 </r>
       <r>    1.6611    1.0000 </r>
       <r>    1.8071    1.0000 </r>
       <r>    1.9986    1.0000 </r>
       <r>    2.2369    1.0000 </r>
       <r>    2.6018    1.0000 </r>
       <r>    2.7753    0.5792 </r>
       <r>    3.0936    0.0000 </r>
       <r>    3.8581    0.0000 </r>
       <r>    5.2190    0.0000 </r>
       <r>    5.8501    0.0000 </r>
       <r>    6.0946    0.0000 </r>
       <r>    7.0377    0.0000 </r>
       <r>    7.6048    0.0000 </r>
       <r>    7.6896    0.0000 </r>
       <r>    7.9002    0.0000 </r>
       <r>    8.0337    0.0000 </r>
       <r>    8.2586    0.0000 </r>
       <r>    8.4608    0.0000 </r>
       <r>    8.5947    0.0000 </r>
       <r>    8.7464    0.0000 </r>
       <r>    9.0453    0.0000 </r>
       <r>    9.2472    0.0000 </r>
       <r>    9.4802    0.0000 </r>
       <r>    9.8729    0.0000 </r>
       <r>    9.9368    0.0000 </r>
       <r>   10.1470    0.0000 </r>
       <r>   10.2823    0.0000 </r>
      </set>
      <set comment="kpoint 6">
       <r>  -32.0526    1.0000 </r>
       <r>  -31.4909    1.0000 </r>
       <r>  -31.4268    1.0000 </r>
       <r>  -30.5009    1.0000 </r>
       <r>  -15.0284    1.0000 </r>
       <r>  -14.5121    1.0000 </r>
       <r>  -14.4924    1.0000 </r>
       <r>  -14.3867    1.0000 </r>
       <r>  -14.3134    1.0000 </r>
       <r>  -14.1736    1.0000 </r>
       <r>  -14.1278    1.0000 </r>
       <r>  -13.9813    1.0000 </r>
       <r>  -13.8568    1.0000 </r>
       <r>  -13.5447    1.0000 </r>
       <r>  -13.4973    1.0000 </r>
       <r>  -13.4077    1.0000 </r>
       <r>  -13.3770    1.0000 </r>
       <r>  -13.1871    1.0000 </r>
       <r>  -13.0931    1.0000 </r>
       <r>  -13.0057    1.0000 </r>
       <r>  -12.9761    1.0000 </r>
       <r>  -12.3995    1.0000 </r>
       <r>  -12.3294    1.0000 </r>
       <r>  -12.2025    1.0000 </r>
       <r>   -2.9211    1.0000 </r>
       <r>   -2.7128    1.0000 </r>
       <r>   -2.4965    1.0000 </r>
       <r>   -2.2924    1.0000 </r>
       <r>   -1.9806    1.0000 </r>
       <r>   -1.8696    1.0000 </r>
       <r>   -1.7409    1.0000 </r>
       <r>   -1.6735    1.0000 </r>
       <r>   -1.5864    1.0000 </r>
       <r>   -1.4393    1.0000 </r>
       <r>   -1.4032    1.0000 </r>
       <r>   -1.3138    1.0000 </r>
       <r>   -1.2672    1.0000 </r>
       <r>   -1.2487    1.0000 </r>
       <r>   -1.1120    1.0000 </r>
       <r>   -1.0777    1.0000 </r>
       <r>   -1.0101    1.0000 </r>
       <r>   -0.9311    1.0000 </r>
       <r>   -0.7165    1.0000 </r>
       <r>   -0.4919    1.0000 </r>
       <r>   -0.4600    1.0000 </r>
       <r>   -0.3304    1.0000 </r>
       <r>    0.1197    1.0000 </r>
       <r>    0.2995    1.0000 </r>
       <r>    0.5201    1.0000 </r>
       <r>    0.6924    1.0000 </r>
       <r>    0.7888    1.0000 </r>
       <r>    1.0055    1.0000 </r>
       <r>    1.0500    1.0000 </r>
       <r>    1.1262    1.0000 </r>
       <r>    1.2693    1.0000 </r>
       <r>    1.3153    1.0000 </r>
       <r>    1.3570    1.0000 </r>
       <r>    1.4854    1.0000 </r>
       <r>    1.5126    1.0000 </r>
       <r>    1.6476    1.0000 </r>
       <r>    1.7046    1.0000 </r>
       <r>    1.8801    1.0000 </r>
       <r>    1.9369    1.0000 </r>
       <r>    2.0911    1.0000 </r>
       <r>    2.3793    1.0000 </r>
       <r>    2.9487    0.0000 </r>
       <r>    3.2142    0.0000 </r>
       <r>    4.0070    0.0000 </r>
       <r>    4.4020    0.0000 </r>
       <r>    5.3233    0.0000 </r>
       <r>    5.8109    0.0000 </r>
       <r>    6.2489    0.0000 </r>
       <r>    7.0615    0.0000 </r>
       <r>    7.4214    0.0000 </r>
       <r>    7.7274    0.0000 </r>
       <r>    8.2295    0.0000 </r>
       <r>    8.5153    0.0000 </r>
       <r>    8.5785    0.0000 </r>
       <r>    8.7206    0.0000 </r>
       <r>    8.9141    0.0000 </r>
       <r>    9.0974    0.0000 </r>
       <r>    9.3626    0.0000 </r>
       <r>    9.6942    0.0000 </r>
       <r>    9.7222    0.0000 </r>
       <r>   10.1427    0.0000 </r>
       <r>   10.1937    0.0000 </r>
       <r>   10.3486    0.0000 </r>
       <r>   10.5611    0.0000 </r>
      </set>
      <set comment="kpoint 7">
       <r>  -32.0568    1.0000 </r>
       <r>  -31.4952    1.0000 </r>
       <r>  -31.4311    1.0000 </r>
       <r>  -30.5052    1.0000 </r>
       <r>  -14.9714    1.0000 </r>
       <r>  -14.8706    1.0000 </r>
       <r>  -14.6762    1.0000 </r>
       <r>  -14.5857    1.0000 </r>
       <r>  -14.2330    1.0000 </r>
       <r>  -14.1394    1.0000 </r>
       <r>  -13.9510    1.0000 </r>
       <r>  -13.9128    1.0000 </r>
       <r>  -13.6587    1.0000 </r>
       <r>  -13.5118    1.0000 </r>
       <r>  -13.4765    1.0000 </r>
       <r>  -13.4220    1.0000 </r>
       <r>  -13.3849    1.0000 </r>
       <r>  -13.3576    1.0000 </r>
       <r>  -13.3115    1.0000 </r>
       <r>  -12.8358    1.0000 </r>
       <r>  -12.6850    1.0000 </r>
       <r>  -12.4440    1.0000 </r>
       <r>  -12.4298    1.0000 </r>
       <r>  -11.9858    1.0000 </r>
       <r>   -2.9424    1.0000 </r>
       <r>   -2.4727    1.0000 </r>
       <r>   -2.3875    1.0000 </r>
       <r>   -1.8468    1.0000 </r>
       <r>   -1.7450    1.0000 </r>
       <r>   -1.5073    1.0000 </r>
       <r>   -1.3884    1.0000 </r>
       <r>   -1.3526    1.0000 </r>
       <r>   -1.2864    1.0000 </r>
       <r>   -1.2471    1.0000 </r>
       <r>   -1.1870    1.0000 </r>
       <r>   -1.1221    1.0000 </r>
       <r>   -0.9221    1.0000 </r>
       <r>   -0.7972    1.0000 </r>
       <r>   -0.7817    1.0000 </r>
       <r>   -0.6720    1.0000 </r>
       <r>   -0.6436    1.0000 </r>
       <r>   -0.5479    1.0000 </r>
       <r>   -0.4624    1.0000 </r>
       <r>   -0.3645    1.0000 </r>
       <r>   -0.2562    1.0000 </r>
       <r>   -0.2557    1.0000 </r>
       <r>   -0.2392    1.0000 </r>
       <r>   -0.2379    1.0000 </r>
       <r>    0.0963    1.0000 </r>
       <r>    0.1083    1.0000 </r>
       <r>    0.4553    1.0000 </r>
       <r>    0.7899    1.0000 </r>
       <r>    0.8235    1.0000 </r>
       <r>    0.8836    1.0000 </r>
       <r>    1.0307    1.0000 </r>
       <r>    1.1372    1.0000 </r>
       <r>    1.2162    1.0000 </r>
       <r>    1.2629    1.0000 </r>
       <r>    1.4232    1.0000 </r>
       <r>    1.4573    1.0000 </r>
       <r>    1.5441    1.0000 </r>
       <r>    1.6651    1.0000 </r>
       <r>    1.8594    1.0000 </r>
       <r>    1.8915    1.0000 </r>
       <r>    1.9579    1.0000 </r>
       <r>    2.0176    1.0000 </r>
       <r>    2.1514    1.0000 </r>
       <r>    2.8238    0.1208 </r>
       <r>    5.0666    0.0000 </r>
       <r>    5.8009    0.0000 </r>
       <r>    6.3357    0.0000 </r>
       <r>    6.4885    0.0000 </r>
       <r>    7.0862    0.0000 </r>
       <r>    7.2853    0.0000 </r>
       <r>    7.3373    0.0000 </r>
       <r>    8.1489    0.0000 </r>
       <r>    8.2285    0.0000 </r>
       <r>    8.4184    0.0000 </r>
       <r>    8.5323    0.0000 </r>
       <r>    8.7573    0.0000 </r>
       <r>    8.9766    0.0000 </r>
       <r>    9.4339    0.0000 </r>
       <r>    9.4513    0.0000 </r>
       <r>    9.7282    0.0000 </r>
       <r>    9.7695    0.0000 </r>
       <r>   10.3774    0.0000 </r>
       <r>   10.4232    0.0000 </r>
       <r>   10.5391    0.0000 </r>
      </set>
      <set comment="kpoint 8">
       <r>  -32.0526    1.0000 </r>
       <r>  -31.4910    1.0000 </r>
       <r>  -31.4269    1.0000 </r>
       <r>  -30.5008    1.0000 </r>
       <r>  -14.8428    1.0000 </r>
       <r>  -14.8252    1.0000 </r>
       <r>  -14.6056    1.0000 </r>
       <r>  -14.4858    1.0000 </r>
       <r>  -14.2893    1.0000 </r>
       <r>  -14.1240    1.0000 </r>
       <r>  -13.8741    1.0000 </r>
       <r>  -13.8611    1.0000 </r>
       <r>  -13.6863    1.0000 </r>
       <r>  -13.5446    1.0000 </r>
       <r>  -13.4928    1.0000 </r>
       <r>  -13.4662    1.0000 </r>
       <r>  -13.4612    1.0000 </r>
       <r>  -13.3790    1.0000 </r>
       <r>  -13.2938    1.0000 </r>
       <r>  -12.9640    1.0000 </r>
       <r>  -12.7817    1.0000 </r>
       <r>  -12.5370    1.0000 </r>
       <r>  -12.3968    1.0000 </r>
       <r>  -12.0825    1.0000 </r>
       <r>   -2.9107    1.0000 </r>
       <r>   -2.5173    1.0000 </r>
       <r>   -2.4020    1.0000 </r>
       <r>   -1.8701    1.0000 </r>
       <r>   -1.8576    1.0000 </r>
       <r>   -1.6548    1.0000 </r>
       <r>   -1.6145    1.0000 </r>
       <r>   -1.5511    1.0000 </r>
       <r>   -1.4842    1.0000 </r>
       <r>   -1.4673    1.0000 </r>
       <r>   -1.4118    1.0000 </r>
       <r>   -1.3579    1.0000 </r>
       <r>   -1.3390    1.0000 </r>
       <r>   -1.2862    1.0000 </r>
       <r>   -1.1088    1.0000 </r>
       <r>   -1.0606    1.0000 </r>
       <r>   -1.0189    1.0000 </r>
       <r>   -0.8962    1.0000 </r>
       <r>   -0.8059    1.0000 </r>
       <r>   -0.4184    1.0000 </r>
       <r>   -0.2762    1.0000 </r>
       <r>   -0.0981    1.0000 </r>
       <r>   -0.0742    1.0000 </r>
       <r>    0.0728    1.0000 </r>
       <r>    0.4971    1.0000 </r>
       <r>    0.5716    1.0000 </r>
       <r>    0.9129    1.0000 </r>
       <r>    1.0247    1.0000 </r>
       <r>    1.0370    1.0000 </r>
       <r>    1.1846    1.0000 </r>
       <r>    1.2035    1.0000 </r>
       <r>    1.2467    1.0000 </r>
       <r>    1.3013    1.0000 </r>
       <r>    1.3437    1.0000 </r>
       <r>    1.4316    1.0000 </r>
       <r>    1.5008    1.0000 </r>
       <r>    1.5880    1.0000 </r>
       <r>    1.8122    1.0000 </r>
       <r>    1.9108    1.0000 </r>
       <r>    2.0524    1.0000 </r>
       <r>    2.2314    1.0000 </r>
       <r>    2.5927    1.0000 </r>
       <r>    2.9658    0.0000 </r>
       <r>    3.3652    0.0000 </r>
       <r>    4.9666    0.0000 </r>
       <r>    5.6412    0.0000 </r>
       <r>    5.7521    0.0000 </r>
       <r>    5.9781    0.0000 </r>
       <r>    7.2076    0.0000 </r>
       <r>    7.3622    0.0000 </r>
       <r>    8.0669    0.0000 </r>
       <r>    8.3096    0.0000 </r>
       <r>    8.4586    0.0000 </r>
       <r>    8.5177    0.0000 </r>
       <r>    8.7530    0.0000 </r>
       <r>    9.0059    0.0000 </r>
       <r>    9.0644    0.0000 </r>
       <r>    9.3676    0.0000 </r>
       <r>    9.4496    0.0000 </r>
       <r>    9.6693    0.0000 </r>
       <r>    9.8996    0.0000 </r>
       <r>   10.2400    0.0000 </r>
       <r>   10.3368    0.0000 </r>
       <r>   10.5434    0.0000 </r>
      </set>
      <set comment="kpoint 9">
       <r>  -32.0458    1.0000 </r>
       <r>  -31.4842    1.0000 </r>
       <r>  -31.4201    1.0000 </r>
       <r>  -30.4938    1.0000 </r>
       <r>  -14.8742    1.0000 </r>
       <r>  -14.5115    1.0000 </r>
       <r>  -14.4715    1.0000 </r>
       <r>  -14.2746    1.0000 </r>
       <r>  -14.1917    1.0000 </r>
       <r>  -13.9992    1.0000 </r>
       <r>  -13.9897    1.0000 </r>
       <r>  -13.8647    1.0000 </r>
       <r>  -13.7280    1.0000 </r>
       <r>  -13.6055    1.0000 </r>
       <r>  -13.5688    1.0000 </r>
       <r>  -13.5093    1.0000 </r>
       <r>  -13.4633    1.0000 </r>
       <r>  -13.4403    1.0000 </r>
       <r>  -13.3069    1.0000 </r>
       <r>  -13.2336    1.0000 </r>
       <r>  -12.9336    1.0000 </r>
       <r>  -12.5535    1.0000 </r>
       <r>  -12.4458    1.0000 </r>
       <r>  -12.2487    1.0000 </r>
       <r>   -2.9118    1.0000 </r>
       <r>   -2.8635    1.0000 </r>
       <r>   -2.7720    1.0000 </r>
       <r>   -2.6158    1.0000 </r>
       <r>   -2.2250    1.0000 </r>
       <r>   -2.2075    1.0000 </r>
       <r>   -1.9074    1.0000 </r>
       <r>   -1.8208    1.0000 </r>
       <r>   -1.7334    1.0000 </r>
       <r>   -1.5967    1.0000 </r>
       <r>   -1.5404    1.0000 </r>
       <r>   -1.4445    1.0000 </r>
       <r>   -1.4218    1.0000 </r>
       <r>   -1.3502    1.0000 </r>
       <r>   -1.3239    1.0000 </r>
       <r>   -1.2768    1.0000 </r>
       <r>   -1.1366    1.0000 </r>
       <r>   -0.9510    1.0000 </r>
       <r>   -0.8198    1.0000 </r>
       <r>   -0.4493    1.0000 </r>
       <r>   -0.2462    1.0000 </r>
       <r>   -0.0287    1.0000 </r>
       <r>    0.2171    1.0000 </r>
       <r>    0.6196    1.0000 </r>
       <r>    0.8497    1.0000 </r>
       <r>    1.0001    1.0000 </r>
       <r>    1.1356    1.0000 </r>
       <r>    1.2131    1.0000 </r>
       <r>    1.2425    1.0000 </r>
       <r>    1.3066    1.0000 </r>
       <r>    1.3444    1.0000 </r>
       <r>    1.3707    1.0000 </r>
       <r>    1.4817    1.0000 </r>
       <r>    1.5309    1.0000 </r>
       <r>    1.5716    1.0000 </r>
       <r>    1.5956    1.0000 </r>
       <r>    1.8472    1.0000 </r>
       <r>    1.9141    1.0000 </r>
       <r>    2.0511    1.0000 </r>
       <r>    2.3617    1.0000 </r>
       <r>    2.5134    1.0000 </r>
       <r>    2.9119    0.0001 </r>
       <r>    4.0430    0.0000 </r>
       <r>    4.1773    0.0000 </r>
       <r>    4.4226    0.0000 </r>
       <r>    4.7574    0.0000 </r>
       <r>    5.1700    0.0000 </r>
       <r>    5.8738    0.0000 </r>
       <r>    7.8858    0.0000 </r>
       <r>    8.1517    0.0000 </r>
       <r>    8.4364    0.0000 </r>
       <r>    8.5752    0.0000 </r>
       <r>    8.6272    0.0000 </r>
       <r>    8.7778    0.0000 </r>
       <r>    8.8067    0.0000 </r>
       <r>    9.1632    0.0000 </r>
       <r>    9.3053    0.0000 </r>
       <r>    9.3832    0.0000 </r>
       <r>    9.6698    0.0000 </r>
       <r>    9.8052    0.0000 </r>
       <r>   10.0583    0.0000 </r>
       <r>   10.2204    0.0000 </r>
       <r>   10.4525    0.0000 </r>
       <r>   10.7357    0.0000 </r>
      </set>
     </set>
     <set comment="spin 2">
      <set comment="kpoint 1">
       <r>  -32.0682    1.0000 </r>
       <r>  -31.5076    1.0000 </r>
       <r>  -31.4436    1.0000 </r>
       <r>  -30.5181    1.0000 </r>
       <r>  -15.0905    1.0000 </r>
       <r>  -14.7071    1.0000 </r>
       <r>  -14.5974    1.0000 </r>
       <r>  -14.4812    1.0000 </r>
       <r>  -14.1048    1.0000 </r>
       <r>  -13.9696    1.0000 </r>
       <r>  -13.8265    1.0000 </r>
       <r>  -13.7447    1.0000 </r>
       <r>  -13.5556    1.0000 </r>
       <r>  -13.4528    1.0000 </r>
       <r>  -13.4389    1.0000 </r>
       <r>  -13.3890    1.0000 </r>
       <r>  -13.3727    1.0000 </r>
       <r>  -13.3676    1.0000 </r>
       <r>  -13.2105    1.0000 </r>
       <r>  -13.1900    1.0000 </r>
       <r>  -13.0495    1.0000 </r>
       <r>  -12.4771    1.0000 </r>
       <r>  -12.3635    1.0000 </r>
       <r>  -12.2969    1.0000 </r>
       <r>   -2.3183    1.0000 </r>
       <r>   -1.7812    1.0000 </r>
       <r>   -1.2079    1.0000 </r>
       <r>   -1.1256    1.0000 </r>
       <r>   -1.1174    1.0000 </r>
       <r>   -1.0000    1.0000 </r>
       <r>   -0.9841    1.0000 </r>
       <r>   -0.7786    1.0000 </r>
       <r>   -0.7771    1.0000 </r>
       <r>   -0.7709    1.0000 </r>
       <r>   -0.7373    1.0000 </r>
       <r>   -0.6887    1.0000 </r>
       <r>   -0.6779    1.0000 </r>
       <r>   -0.6741    1.0000 </r>
       <r>   -0.6256    1.0000 </r>
       <r>   -0.6137    1.0000 </r>
       <r>   -0.5893    1.0000 </r>
       <r>   -0.5739    1.0000 </r>
       <r>   -0.5146    1.0000 </r>
       <r>   -0.4419    1.0000 </r>
       <r>   -0.3190    1.0000 </r>
       <r>   -0.2792    1.0000 </r>
       <r>   -0.2605    1.0000 </r>
       <r>   -0.2487    1.0000 </r>
       <r>   -0.0175    1.0000 </r>
       <r>    0.1821    1.0000 </r>
       <r>    0.4023    1.0000 </r>
       <r>    0.5209    1.0000 </r>
       <r>    0.5499    1.0000 </r>
       <r>    0.6669    1.0000 </r>
       <r>    0.7167    1.0000 </r>
       <r>    0.8736    1.0000 </r>
       <r>    1.2258    1.0000 </r>
       <r>    1.4738    1.0000 </r>
       <r>    1.6292    1.0000 </r>
       <r>    1.7883    1.0000 </r>
       <r>    1.8261    1.0000 </r>
       <r>    1.8897    1.0000 </r>
       <r>    1.9396    1.0000 </r>
       <r>    1.9509    1.0000 </r>
       <r>    1.9710    1.0000 </r>
       <r>    2.0419    1.0000 </r>
       <r>    2.1783    1.0000 </r>
       <r>    2.3193    1.0000 </r>
       <r>    2.8241    0.1193 </r>
       <r>    4.3087    0.0000 </r>
       <r>    5.1648    0.0000 </r>
       <r>    6.0447    0.0000 </r>
       <r>    6.5969    0.0000 </r>
       <r>    7.0078    0.0000 </r>
       <r>    7.4082    0.0000 </r>
       <r>    7.5642    0.0000 </r>
       <r>    8.1155    0.0000 </r>
       <r>    8.2444    0.0000 </r>
       <r>    8.5852    0.0000 </r>
       <r>    8.6527    0.0000 </r>
       <r>    8.6553    0.0000 </r>
       <r>    9.0653    0.0000 </r>
       <r>    9.2073    0.0000 </r>
       <r>    9.3429    0.0000 </r>
       <r>    9.3752    0.0000 </r>
       <r>    9.4577    0.0000 </r>
       <r>    9.6021    0.0000 </r>
       <r>    9.6967    0.0000 </r>
      </set>
      <set comment="kpoint 2">
       <r>  -32.0639    1.0000 </r>
       <r>  -31.5030    1.0000 </r>
       <r>  -31.4390    1.0000 </r>
       <r>  -30.5133    1.0000 </r>
       <r>  -15.0519    1.0000 </r>
       <r>  -14.7101    1.0000 </r>
       <r>  -14.5576    1.0000 </r>
       <r>  -14.4553    1.0000 </r>
       <r>  -14.1163    1.0000 </r>
       <r>  -14.0980    1.0000 </r>
       <r>  -14.0425    1.0000 </r>
       <r>  -13.8865    1.0000 </r>
       <r>  -13.7184    1.0000 </r>
       <r>  -13.4768    1.0000 </r>
       <r>  -13.3602    1.0000 </r>
       <r>  -13.3558    1.0000 </r>
       <r>  -13.3237    1.0000 </r>
       <r>  -13.1778    1.0000 </r>
       <r>  -13.1480    1.0000 </r>
       <r>  -13.1278    1.0000 </r>
       <r>  -13.0047    1.0000 </r>
       <r>  -12.3509    1.0000 </r>
       <r>  -12.3272    1.0000 </r>
       <r>  -12.2757    1.0000 </r>
       <r>   -2.4120    1.0000 </r>
       <r>   -1.8628    1.0000 </r>
       <r>   -1.6982    1.0000 </r>
       <r>   -1.5703    1.0000 </r>
       <r>   -1.4765    1.0000 </r>
       <r>   -1.4253    1.0000 </r>
       <r>   -1.2773    1.0000 </r>
       <r>   -1.1646    1.0000 </r>
       <r>   -1.0608    1.0000 </r>
       <r>   -1.0570    1.0000 </r>
       <r>   -0.9830    1.0000 </r>
       <r>   -0.9674    1.0000 </r>
       <r>   -0.9319    1.0000 </r>
       <r>   -0.8971    1.0000 </r>
       <r>   -0.7750    1.0000 </r>
       <r>   -0.6359    1.0000 </r>
       <r>   -0.5507    1.0000 </r>
       <r>   -0.5191    1.0000 </r>
       <r>   -0.4475    1.0000 </r>
       <r>   -0.4050    1.0000 </r>
       <r>   -0.3932    1.0000 </r>
       <r>   -0.3309    1.0000 </r>
       <r>   -0.2775    1.0000 </r>
       <r>   -0.2586    1.0000 </r>
       <r>    0.0265    1.0000 </r>
       <r>    0.3028    1.0000 </r>
       <r>    0.7608    1.0000 </r>
       <r>    0.8264    1.0000 </r>
       <r>    0.8688    1.0000 </r>
       <r>    0.9308    1.0000 </r>
       <r>    0.9949    1.0000 </r>
       <r>    1.0989    1.0000 </r>
       <r>    1.3061    1.0000 </r>
       <r>    1.3354    1.0000 </r>
       <r>    1.4411    1.0000 </r>
       <r>    1.5745    1.0000 </r>
       <r>    1.7194    1.0000 </r>
       <r>    1.8266    1.0000 </r>
       <r>    1.8512    1.0000 </r>
       <r>    2.0632    1.0000 </r>
       <r>    2.0767    1.0000 </r>
       <r>    2.1993    1.0000 </r>
       <r>    2.8133    0.1913 </r>
       <r>    3.0417    0.0000 </r>
       <r>    3.3846    0.0000 </r>
       <r>    4.8385    0.0000 </r>
       <r>    5.6502    0.0000 </r>
       <r>    6.2247    0.0000 </r>
       <r>    6.8602    0.0000 </r>
       <r>    7.3545    0.0000 </r>
       <r>    7.7386    0.0000 </r>
       <r>    7.7876    0.0000 </r>
       <r>    8.3222    0.0000 </r>
       <r>    8.3853    0.0000 </r>
       <r>    8.4928    0.0000 </r>
       <r>    8.6285    0.0000 </r>
       <r>    8.6317    0.0000 </r>
       <r>    8.7404    0.0000 </r>
       <r>    9.3402    0.0000 </r>
       <r>    9.4446    0.0000 </r>
       <r>    9.5039    0.0000 </r>
       <r>    9.5881    0.0000 </r>
       <r>    9.7676    0.0000 </r>
       <r>    9.9269    0.0000 </r>
      </set>
      <set comment="kpoint 3">
       <r>  -32.0570    1.0000 </r>
       <r>  -31.4956    1.0000 </r>
       <r>  -31.4316    1.0000 </r>
       <r>  -30.5056    1.0000 </r>
       <r>  -15.1114    1.0000 </r>
       <r>  -14.5525    1.0000 </r>
       <r>  -14.5474    1.0000 </r>
       <r>  -14.4417    1.0000 </r>
       <r>  -14.3114    1.0000 </r>
       <r>  -14.1462    1.0000 </r>
       <r>  -14.0871    1.0000 </r>
       <r>  -14.0355    1.0000 </r>
       <r>  -13.8776    1.0000 </r>
       <r>  -13.4707    1.0000 </r>
       <r>  -13.4213    1.0000 </r>
       <r>  -13.3366    1.0000 </r>
       <r>  -13.3324    1.0000 </r>
       <r>  -13.1579    1.0000 </r>
       <r>  -13.0418    1.0000 </r>
       <r>  -12.9091    1.0000 </r>
       <r>  -12.8335    1.0000 </r>
       <r>  -12.3302    1.0000 </r>
       <r>  -12.3163    1.0000 </r>
       <r>  -12.0966    1.0000 </r>
       <r>   -2.9021    1.0000 </r>
       <r>   -2.6015    1.0000 </r>
       <r>   -2.3320    1.0000 </r>
       <r>   -2.0554    1.0000 </r>
       <r>   -2.0360    1.0000 </r>
       <r>   -1.7012    1.0000 </r>
       <r>   -1.6628    1.0000 </r>
       <r>   -1.2950    1.0000 </r>
       <r>   -1.2802    1.0000 </r>
       <r>   -1.2453    1.0000 </r>
       <r>   -1.2207    1.0000 </r>
       <r>   -1.1900    1.0000 </r>
       <r>   -1.0514    1.0000 </r>
       <r>   -0.9748    1.0000 </r>
       <r>   -0.7769    1.0000 </r>
       <r>   -0.6814    1.0000 </r>
       <r>   -0.6478    1.0000 </r>
       <r>   -0.5163    1.0000 </r>
       <r>   -0.4704    1.0000 </r>
       <r>   -0.4423    1.0000 </r>
       <r>   -0.3480    1.0000 </r>
       <r>   -0.3166    1.0000 </r>
       <r>   -0.2109    1.0000 </r>
       <r>   -0.1305    1.0000 </r>
       <r>    0.1616    1.0000 </r>
       <r>    0.3719    1.0000 </r>
       <r>    0.8266    1.0000 </r>
       <r>    0.8353    1.0000 </r>
       <r>    0.9495    1.0000 </r>
       <r>    1.0005    1.0000 </r>
       <r>    1.1043    1.0000 </r>
       <r>    1.2297    1.0000 </r>
       <r>    1.3382    1.0000 </r>
       <r>    1.4024    1.0000 </r>
       <r>    1.5628    1.0000 </r>
       <r>    1.6331    1.0000 </r>
       <r>    1.7412    1.0000 </r>
       <r>    1.8109    1.0000 </r>
       <r>    1.9253    1.0000 </r>
       <r>    2.0531    1.0000 </r>
       <r>    2.2948    1.0000 </r>
       <r>    2.3771    1.0000 </r>
       <r>    3.3211    0.0000 </r>
       <r>    3.9264    0.0000 </r>
       <r>    4.3514    0.0000 </r>
       <r>    5.5233    0.0000 </r>
       <r>    6.1440    0.0000 </r>
       <r>    6.6021    0.0000 </r>
       <r>    6.7589    0.0000 </r>
       <r>    7.3542    0.0000 </r>
       <r>    7.8689    0.0000 </r>
       <r>    8.0179    0.0000 </r>
       <r>    8.1983    0.0000 </r>
       <r>    8.6023    0.0000 </r>
       <r>    8.6586    0.0000 </r>
       <r>    8.8592    0.0000 </r>
       <r>    8.9685    0.0000 </r>
       <r>    9.4628    0.0000 </r>
       <r>    9.6163    0.0000 </r>
       <r>    9.9427    0.0000 </r>
       <r>    9.9642    0.0000 </r>
       <r>   10.1349    0.0000 </r>
       <r>   10.1457    0.0000 </r>
       <r>   10.3425    0.0000 </r>
      </set>
      <set comment="kpoint 4">
       <r>  -32.0639    1.0000 </r>
       <r>  -31.5030    1.0000 </r>
       <r>  -31.4390    1.0000 </r>
       <r>  -30.5133    1.0000 </r>
       <r>  -15.0119    1.0000 </r>
       <r>  -14.6995    1.0000 </r>
       <r>  -14.6454    1.0000 </r>
       <r>  -14.5310    1.0000 </r>
       <r>  -14.1821    1.0000 </r>
       <r>  -14.0455    1.0000 </r>
       <r>  -13.9627    1.0000 </r>
       <r>  -13.8339    1.0000 </r>
       <r>  -13.5963    1.0000 </r>
       <r>  -13.4697    1.0000 </r>
       <r>  -13.4413    1.0000 </r>
       <r>  -13.3813    1.0000 </r>
       <r>  -13.3773    1.0000 </r>
       <r>  -13.2698    1.0000 </r>
       <r>  -13.1729    1.0000 </r>
       <r>  -13.0559    1.0000 </r>
       <r>  -12.9448    1.0000 </r>
       <r>  -12.4647    1.0000 </r>
       <r>  -12.3534    1.0000 </r>
       <r>  -12.1831    1.0000 </r>
       <r>   -2.3298    1.0000 </r>
       <r>   -1.9560    1.0000 </r>
       <r>   -1.7148    1.0000 </r>
       <r>   -1.4770    1.0000 </r>
       <r>   -1.3175    1.0000 </r>
       <r>   -1.2471    1.0000 </r>
       <r>   -1.1598    1.0000 </r>
       <r>   -1.1013    1.0000 </r>
       <r>   -1.0692    1.0000 </r>
       <r>   -1.0530    1.0000 </r>
       <r>   -1.0107    1.0000 </r>
       <r>   -0.8322    1.0000 </r>
       <r>   -0.7901    1.0000 </r>
       <r>   -0.7076    1.0000 </r>
       <r>   -0.6727    1.0000 </r>
       <r>   -0.6110    1.0000 </r>
       <r>   -0.5806    1.0000 </r>
       <r>   -0.5697    1.0000 </r>
       <r>   -0.4618    1.0000 </r>
       <r>   -0.4328    1.0000 </r>
       <r>   -0.3665    1.0000 </r>
       <r>   -0.2933    1.0000 </r>
       <r>   -0.2324    1.0000 </r>
       <r>   -0.0587    1.0000 </r>
       <r>    0.1421    1.0000 </r>
       <r>    0.3157    1.0000 </r>
       <r>    0.5367    1.0000 </r>
       <r>    0.6680    1.0000 </r>
       <r>    0.6808    1.0000 </r>
       <r>    0.7884    1.0000 </r>
       <r>    0.9635    1.0000 </r>
       <r>    1.0445    1.0000 </r>
       <r>    1.1935    1.0000 </r>
       <r>    1.3419    1.0000 </r>
       <r>    1.5408    1.0000 </r>
       <r>    1.6713    1.0000 </r>
       <r>    1.6845    1.0000 </r>
       <r>    1.8583    1.0000 </r>
       <r>    1.8609    1.0000 </r>
       <r>    1.9262    1.0000 </r>
       <r>    1.9379    1.0000 </r>
       <r>    2.2161    1.0000 </r>
       <r>    2.2342    1.0000 </r>
       <r>    2.5336    1.0000 </r>
       <r>    3.6825    0.0000 </r>
       <r>    4.8010    0.0000 </r>
       <r>    5.6054    0.0000 </r>
       <r>    6.2017    0.0000 </r>
       <r>    7.0427    0.0000 </r>
       <r>    7.4036    0.0000 </r>
       <r>    7.6817    0.0000 </r>
       <r>    7.8648    0.0000 </r>
       <r>    8.1209    0.0000 </r>
       <r>    8.2545    0.0000 </r>
       <r>    8.6070    0.0000 </r>
       <r>    8.6247    0.0000 </r>
       <r>    8.7334    0.0000 </r>
       <r>    9.1188    0.0000 </r>
       <r>    9.3745    0.0000 </r>
       <r>    9.4006    0.0000 </r>
       <r>    9.5348    0.0000 </r>
       <r>    9.7282    0.0000 </r>
       <r>    9.9546    0.0000 </r>
       <r>   10.0348    0.0000 </r>
      </set>
      <set comment="kpoint 5">
       <r>  -32.0597    1.0000 </r>
       <r>  -31.4986    1.0000 </r>
       <r>  -31.4346    1.0000 </r>
       <r>  -30.5086    1.0000 </r>
       <r>  -14.9758    1.0000 </r>
       <r>  -14.6496    1.0000 </r>
       <r>  -14.6098    1.0000 </r>
       <r>  -14.4643    1.0000 </r>
       <r>  -14.2097    1.0000 </r>
       <r>  -14.1177    1.0000 </r>
       <r>  -13.9790    1.0000 </r>
       <r>  -13.8877    1.0000 </r>
       <r>  -13.6928    1.0000 </r>
       <r>  -13.5072    1.0000 </r>
       <r>  -13.4578    1.0000 </r>
       <r>  -13.4139    1.0000 </r>
       <r>  -13.3765    1.0000 </r>
       <r>  -13.2338    1.0000 </r>
       <r>  -13.1191    1.0000 </r>
       <r>  -13.0182    1.0000 </r>
       <r>  -12.9348    1.0000 </r>
       <r>  -12.4450    1.0000 </r>
       <r>  -12.3413    1.0000 </r>
       <r>  -12.1717    1.0000 </r>
       <r>   -2.4033    1.0000 </r>
       <r>   -1.9591    1.0000 </r>
       <r>   -1.7796    1.0000 </r>
       <r>   -1.7091    1.0000 </r>
       <r>   -1.6293    1.0000 </r>
       <r>   -1.5151    1.0000 </r>
       <r>   -1.4283    1.0000 </r>
       <r>   -1.3647    1.0000 </r>
       <r>   -1.2791    1.0000 </r>
       <r>   -1.2455    1.0000 </r>
       <r>   -1.1446    1.0000 </r>
       <r>   -1.0926    1.0000 </r>
       <r>   -1.0537    1.0000 </r>
       <r>   -1.0005    1.0000 </r>
       <r>   -0.9740    1.0000 </r>
       <r>   -0.9638    1.0000 </r>
       <r>   -0.9055    1.0000 </r>
       <r>   -0.8634    1.0000 </r>
       <r>   -0.6715    1.0000 </r>
       <r>   -0.4358    1.0000 </r>
       <r>   -0.3812    1.0000 </r>
       <r>   -0.3136    1.0000 </r>
       <r>   -0.1340    1.0000 </r>
       <r>    0.2016    1.0000 </r>
       <r>    0.4342    1.0000 </r>
       <r>    0.5968    1.0000 </r>
       <r>    0.6949    1.0000 </r>
       <r>    0.7861    1.0000 </r>
       <r>    1.0110    1.0000 </r>
       <r>    1.0644    1.0000 </r>
       <r>    1.2425    1.0000 </r>
       <r>    1.2817    1.0000 </r>
       <r>    1.3301    1.0000 </r>
       <r>    1.4268    1.0000 </r>
       <r>    1.4411    1.0000 </r>
       <r>    1.4974    1.0000 </r>
       <r>    1.5426    1.0000 </r>
       <r>    1.6981    1.0000 </r>
       <r>    1.8306    1.0000 </r>
       <r>    2.0471    1.0000 </r>
       <r>    2.2740    1.0000 </r>
       <r>    2.8524    0.0239 </r>
       <r>    2.9241    0.0000 </r>
       <r>    3.1884    0.0000 </r>
       <r>    3.8778    0.0000 </r>
       <r>    5.2350    0.0000 </r>
       <r>    5.8644    0.0000 </r>
       <r>    6.1093    0.0000 </r>
       <r>    7.0430    0.0000 </r>
       <r>    7.6092    0.0000 </r>
       <r>    7.6930    0.0000 </r>
       <r>    7.9034    0.0000 </r>
       <r>    8.0405    0.0000 </r>
       <r>    8.2655    0.0000 </r>
       <r>    8.4645    0.0000 </r>
       <r>    8.6011    0.0000 </r>
       <r>    8.7496    0.0000 </r>
       <r>    9.0506    0.0000 </r>
       <r>    9.2503    0.0000 </r>
       <r>    9.4841    0.0000 </r>
       <r>    9.8769    0.0000 </r>
       <r>    9.9386    0.0000 </r>
       <r>   10.1542    0.0000 </r>
       <r>   10.2994    0.0000 </r>
      </set>
      <set comment="kpoint 6">
       <r>  -32.0528    1.0000 </r>
       <r>  -31.4914    1.0000 </r>
       <r>  -31.4274    1.0000 </r>
       <r>  -30.5012    1.0000 </r>
       <r>  -15.0234    1.0000 </r>
       <r>  -14.4845    1.0000 </r>
       <r>  -14.4622    1.0000 </r>
       <r>  -14.3609    1.0000 </r>
       <r>  -14.2890    1.0000 </r>
       <r>  -14.1637    1.0000 </r>
       <r>  -14.1144    1.0000 </r>
       <r>  -13.9614    1.0000 </r>
       <r>  -13.8357    1.0000 </r>
       <r>  -13.5354    1.0000 </r>
       <r>  -13.4753    1.0000 </r>
       <r>  -13.4077    1.0000 </r>
       <r>  -13.3350    1.0000 </r>
       <r>  -13.1843    1.0000 </r>
       <r>  -13.0668    1.0000 </r>
       <r>  -12.9907    1.0000 </r>
       <r>  -12.9621    1.0000 </r>
       <r>  -12.3953    1.0000 </r>
       <r>  -12.3276    1.0000 </r>
       <r>  -12.1924    1.0000 </r>
       <r>   -2.8551    1.0000 </r>
       <r>   -2.5874    1.0000 </r>
       <r>   -2.3978    1.0000 </r>
       <r>   -2.0388    1.0000 </r>
       <r>   -1.9447    1.0000 </r>
       <r>   -1.8688    1.0000 </r>
       <r>   -1.6474    1.0000 </r>
       <r>   -1.6291    1.0000 </r>
       <r>   -1.5220    1.0000 </r>
       <r>   -1.3388    1.0000 </r>
       <r>   -1.3267    1.0000 </r>
       <r>   -1.2897    1.0000 </r>
       <r>   -1.2432    1.0000 </r>
       <r>   -1.2104    1.0000 </r>
       <r>   -1.0821    1.0000 </r>
       <r>   -1.0609    1.0000 </r>
       <r>   -0.9383    1.0000 </r>
       <r>   -0.9186    1.0000 </r>
       <r>   -0.6791    1.0000 </r>
       <r>   -0.4766    1.0000 </r>
       <r>   -0.3936    1.0000 </r>
       <r>   -0.3086    1.0000 </r>
       <r>    0.1328    1.0000 </r>
       <r>    0.3136    1.0000 </r>
       <r>    0.5465    1.0000 </r>
       <r>    0.7221    1.0000 </r>
       <r>    0.8195    1.0000 </r>
       <r>    1.0271    1.0000 </r>
       <r>    1.1061    1.0000 </r>
       <r>    1.1573    1.0000 </r>
       <r>    1.3149    1.0000 </r>
       <r>    1.3689    1.0000 </r>
       <r>    1.4344    1.0000 </r>
       <r>    1.5024    1.0000 </r>
       <r>    1.5407    1.0000 </r>
       <r>    1.6809    1.0000 </r>
       <r>    1.7510    1.0000 </r>
       <r>    1.9092    1.0000 </r>
       <r>    1.9877    1.0000 </r>
       <r>    2.1414    1.0000 </r>
       <r>    2.4127    1.0000 </r>
       <r>    3.1262    0.0000 </r>
       <r>    3.4455    0.0000 </r>
       <r>    4.1388    0.0000 </r>
       <r>    4.4354    0.0000 </r>
       <r>    5.3415    0.0000 </r>
       <r>    5.8255    0.0000 </r>
       <r>    6.2634    0.0000 </r>
       <r>    7.0693    0.0000 </r>
       <r>    7.4254    0.0000 </r>
       <r>    7.7403    0.0000 </r>
       <r>    8.2315    0.0000 </r>
       <r>    8.5225    0.0000 </r>
       <r>    8.5854    0.0000 </r>
       <r>    8.7213    0.0000 </r>
       <r>    8.9246    0.0000 </r>
       <r>    9.1032    0.0000 </r>
       <r>    9.3684    0.0000 </r>
       <r>    9.6981    0.0000 </r>
       <r>    9.7262    0.0000 </r>
       <r>   10.1467    0.0000 </r>
       <r>   10.1958    0.0000 </r>
       <r>   10.3537    0.0000 </r>
       <r>   10.5634    0.0000 </r>
      </set>
      <set comment="kpoint 7">
       <r>  -32.0570    1.0000 </r>
       <r>  -31.4957    1.0000 </r>
       <r>  -31.4317    1.0000 </r>
       <r>  -30.5055    1.0000 </r>
       <r>  -14.9379    1.0000 </r>
       <r>  -14.8663    1.0000 </r>
       <r>  -14.6513    1.0000 </r>
       <r>  -14.5681    1.0000 </r>
       <r>  -14.2137    1.0000 </r>
       <r>  -14.1174    1.0000 </r>
       <r>  -13.9516    1.0000 </r>
       <r>  -13.8715    1.0000 </r>
       <r>  -13.6144    1.0000 </r>
       <r>  -13.4864    1.0000 </r>
       <r>  -13.4651    1.0000 </r>
       <r>  -13.4226    1.0000 </r>
       <r>  -13.3583    1.0000 </r>
       <r>  -13.3506    1.0000 </r>
       <r>  -13.2981    1.0000 </r>
       <r>  -12.8189    1.0000 </r>
       <r>  -12.6746    1.0000 </r>
       <r>  -12.4445    1.0000 </r>
       <r>  -12.4236    1.0000 </r>
       <r>  -11.9748    1.0000 </r>
       <r>   -2.9116    1.0000 </r>
       <r>   -2.3562    1.0000 </r>
       <r>   -2.2156    1.0000 </r>
[...]
       <r>     1.8918     9.1402    62.4739 </r>
       <r>     2.0488     9.0944    63.9013 </r>
       <r>     2.2058     4.9350    64.6759 </r>
       <r>     2.3627     3.5525    65.2335 </r>
       <r>     2.5197     2.5355    65.6315 </r>
       <r>     2.6766     2.8338    66.0763 </r>
       <r>     2.8336     1.5288    66.3162 </r>
       <r>     2.9906     3.1943    66.8176 </r>
       <r>     3.1475     2.1435    67.1540 </r>
       <r>     3.3045     1.4726    67.3852 </r>
       <r>     3.4614     1.1105    67.5595 </r>
       <r>     3.6184     0.0528    67.5678 </r>
       <r>     3.7753     0.4696    67.6415 </r>
       <r>     3.9323     1.3328    67.8507 </r>
       <r>     4.0893     2.1249    68.1842 </r>
       <r>     4.2462     1.4066    68.4050 </r>
       <r>     4.4032     1.2980    68.6087 </r>
       <r>     4.5601     1.2187    68.8000 </r>
       <r>     4.7171     0.1472    68.8231 </r>
       <r>     4.8740     1.8604    69.1151 </r>
       <r>     5.0310     1.0958    69.2871 </r>
       <r>     5.1880     1.5733    69.5340 </r>
       <r>     5.3449     1.9280    69.8367 </r>
       <r>     5.5019     0.5308    69.9200 </r>
       <r>     5.6588     1.8234    70.2062 </r>
       <r>     5.8158     2.5775    70.6107 </r>
       <r>     5.9728     2.9504    71.0738 </r>
       <r>     6.1297     2.0249    71.3916 </r>
       <r>     6.2867     2.2372    71.7428 </r>
       <r>     6.4436     0.6708    71.8481 </r>
       <r>     6.6006     0.9046    71.9901 </r>
       <r>     6.7575     0.6432    72.0910 </r>
       <r>     6.9145     0.6767    72.1972 </r>
       <r>     7.0715     2.3253    72.5622 </r>
       <r>     7.2284     1.7702    72.8401 </r>
       <r>     7.3854     3.2786    73.3547 </r>
       <r>     7.5423     1.9328    73.6580 </r>
       <r>     7.6993     2.4854    74.0481 </r>
       <r>     7.8563     3.0008    74.5191 </r>
       <r>     8.0132     2.9909    74.9886 </r>
       <r>     8.1702     3.8801    75.5976 </r>
       <r>     8.3271     5.1062    76.3991 </r>
       <r>     8.4841     4.6234    77.1247 </r>
       <r>     8.6410     9.1502    78.5609 </r>
       <r>     8.7980     7.2537    79.6995 </r>
       <r>     8.9550     2.9781    80.1669 </r>
       <r>     9.1119     4.8897    80.9344 </r>
       <r>     9.2689     2.8671    81.3844 </r>
       <r>     9.4258     6.8642    82.4618 </r>
       <r>     9.5828     5.0876    83.2603 </r>
       <r>     9.7398     5.6341    84.1446 </r>
       <r>     9.8967     4.2209    84.8071 </r>
       <r>    10.0537     4.2878    85.4802 </r>
       <r>    10.2106     5.0644    86.2751 </r>
       <r>    10.3676     5.0147    87.0622 </r>
       <r>    10.5245     3.0148    87.5354 </r>
       <r>    10.6815     2.0046    87.8500 </r>
       <r>    10.8385     0.9539    87.9997 </r>
       <r>    10.9954     0.0019    88.0000 </r>
       <r>    11.1524     0.0000    88.0000 </r>
       <r>    11.3093     0.0000    88.0000 </r>
       <r>    11.4663     0.0000    88.0000 </r>
       <r>    11.6232     0.0000    88.0000 </r>
       <r>    11.7802     0.0000    88.0000 </r>
       <r>    11.9372     0.0000    88.0000 </r>
       <r>    12.0941     0.0000    88.0000 </r>
       <r>    12.2511     0.0000    88.0000 </r>
       <r>    12.4080     0.0000    88.0000 </r>
       <r>    12.5650     0.0000    88.0000 </r>
       <r>    12.7220     0.0000    88.0000 </r>
       <r>    12.8789     0.0000    88.0000 </r>
      </set>
      <set comment="spin 2">
       <r>   -34.2085     0.0000     0.0000 </r>
       <r>   -34.0516     0.0000     0.0000 </r>
       <r>   -33.8946     0.0000     0.0000 </r>
       <r>   -33.7377     0.0000     0.0000 </r>
       <r>   -33.5807     0.0000     0.0000 </r>
       <r>   -33.4237     0.0000     0.0000 </r>
       <r>   -33.2668     0.0000     0.0000 </r>
       <r>   -33.1098     0.0000     0.0000 </r>
       <r>   -32.9529     0.0000     0.0000 </r>
       <r>   -32.7959     0.0000     0.0000 </r>
       <r>   -32.6390     0.0000     0.0000 </r>
       <r>   -32.4820     0.0000     0.0000 </r>
       <r>   -32.3250     0.0000     0.0000 </r>
       <r>   -32.1681     0.0056     0.0009 </r>
       <r>   -32.0111     5.6900     0.8940 </r>
       <r>   -31.8542     0.6755     1.0000 </r>
       <r>   -31.6972     0.0000     1.0000 </r>
       <r>   -31.5402     0.6586     1.1034 </r>
       <r>   -31.3833    11.4817     2.9055 </r>
       <r>   -31.2263     0.6020     3.0000 </r>
       <r>   -31.0694     0.0000     3.0000 </r>
       <r>   -30.9124     0.0000     3.0000 </r>
       <r>   -30.7555     0.0000     3.0000 </r>
       <r>   -30.5985     0.0286     3.0045 </r>
       <r>   -30.4415     6.0879     3.9600 </r>
       <r>   -30.2846     0.2546     4.0000 </r>
       <r>   -30.1276     0.0000     4.0000 </r>
       <r>   -29.9707     0.0000     4.0000 </r>
       <r>   -29.8137     0.0000     4.0000 </r>
       <r>   -29.6567     0.0000     4.0000 </r>
       <r>   -29.4998     0.0000     4.0000 </r>
       <r>   -29.3428     0.0000     4.0000 </r>
       <r>   -29.1859     0.0000     4.0000 </r>
       <r>   -29.0289     0.0000     4.0000 </r>
       <r>   -28.8720     0.0000     4.0000 </r>
       <r>   -28.7150     0.0000     4.0000 </r>
       <r>   -28.5580     0.0000     4.0000 </r>
       <r>   -28.4011     0.0000     4.0000 </r>
       <r>   -28.2441     0.0000     4.0000 </r>
       <r>   -28.0872     0.0000     4.0000 </r>
       <r>   -27.9302     0.0000     4.0000 </r>
       <r>   -27.7732     0.0000     4.0000 </r>
       <r>   -27.6163     0.0000     4.0000 </r>
       <r>   -27.4593     0.0000     4.0000 </r>
       <r>   -27.3024     0.0000     4.0000 </r>
       <r>   -27.1454     0.0000     4.0000 </r>
       <r>   -26.9885     0.0000     4.0000 </r>
       <r>   -26.8315     0.0000     4.0000 </r>
       <r>   -26.6745     0.0000     4.0000 </r>
       <r>   -26.5176     0.0000     4.0000 </r>
       <r>   -26.3606     0.0000     4.0000 </r>
       <r>   -26.2037     0.0000     4.0000 </r>
       <r>   -26.0467     0.0000     4.0000 </r>
       <r>   -25.8898     0.0000     4.0000 </r>
       <r>   -25.7328     0.0000     4.0000 </r>
       <r>   -25.5758     0.0000     4.0000 </r>
       <r>   -25.4189     0.0000     4.0000 </r>
       <r>   -25.2619     0.0000     4.0000 </r>
       <r>   -25.1050     0.0000     4.0000 </r>
       <r>   -24.9480     0.0000     4.0000 </r>
       <r>   -24.7910     0.0000     4.0000 </r>
       <r>   -24.6341     0.0000     4.0000 </r>
       <r>   -24.4771     0.0000     4.0000 </r>
       <r>   -24.3202     0.0000     4.0000 </r>
       <r>   -24.1632     0.0000     4.0000 </r>
       <r>   -24.0063     0.0000     4.0000 </r>
       <r>   -23.8493     0.0000     4.0000 </r>
       <r>   -23.6923     0.0000     4.0000 </r>
       <r>   -23.5354     0.0000     4.0000 </r>
       <r>   -23.3784     0.0000     4.0000 </r>
       <r>   -23.2215     0.0000     4.0000 </r>
       <r>   -23.0645     0.0000     4.0000 </r>
       <r>   -22.9075     0.0000     4.0000 </r>
       <r>   -22.7506     0.0000     4.0000 </r>
       <r>   -22.5936     0.0000     4.0000 </r>
       <r>   -22.4367     0.0000     4.0000 </r>
       <r>   -22.2797     0.0000     4.0000 </r>
       <r>   -22.1228     0.0000     4.0000 </r>
       <r>   -21.9658     0.0000     4.0000 </r>
       <r>   -21.8088     0.0000     4.0000 </r>
       <r>   -21.6519     0.0000     4.0000 </r>
       <r>   -21.4949     0.0000     4.0000 </r>
       <r>   -21.3380     0.0000     4.0000 </r>
       <r>   -21.1810     0.0000     4.0000 </r>
       <r>   -21.0240     0.0000     4.0000 </r>
       <r>   -20.8671     0.0000     4.0000 </r>
       <r>   -20.7101     0.0000     4.0000 </r>
       <r>   -20.5532     0.0000     4.0000 </r>
       <r>   -20.3962     0.0000     4.0000 </r>
       <r>   -20.2393     0.0000     4.0000 </r>
       <r>   -20.0823     0.0000     4.0000 </r>
       <r>   -19.9253     0.0000     4.0000 </r>
       <r>   -19.7684     0.0000     4.0000 </r>
       <r>   -19.6114     0.0000     4.0000 </r>
       <r>   -19.4545     0.0000     4.0000 </r>
       <r>   -19.2975     0.0000     4.0000 </r>
       <r>   -19.1406     0.0000     4.0000 </r>
       <r>   -18.9836     0.0000     4.0000 </r>
       <r>   -18.8266     0.0000     4.0000 </r>
       <r>   -18.6697     0.0000     4.0000 </r>
       <r>   -18.5127     0.0000     4.0000 </r>
       <r>   -18.3558     0.0000     4.0000 </r>
       <r>   -18.1988     0.0000     4.0000 </r>
       <r>   -18.0418     0.0000     4.0000 </r>
       <r>   -17.8849     0.0000     4.0000 </r>
       <r>   -17.7279     0.0000     4.0000 </r>
       <r>   -17.5710     0.0000     4.0000 </r>
       <r>   -17.4140     0.0000     4.0000 </r>
       <r>   -17.2571     0.0000     4.0000 </r>
       <r>   -17.1001     0.0000     4.0000 </r>
       <r>   -16.9431     0.0000     4.0000 </r>
       <r>   -16.7862     0.0000     4.0000 </r>
       <r>   -16.6292     0.0000     4.0000 </r>
       <r>   -16.4723     0.0000     4.0000 </r>
       <r>   -16.3153     0.0000     4.0000 </r>
       <r>   -16.1583     0.0000     4.0000 </r>
       <r>   -16.0014     0.0000     4.0000 </r>
       <r>   -15.8444     0.0000     4.0000 </r>
       <r>   -15.6875     0.0000     4.0000 </r>
       <r>   -15.5305     0.0000     4.0000 </r>
       <r>   -15.3736     0.0000     4.0000 </r>
       <r>   -15.2166     0.0008     4.0001 </r>
       <r>   -15.0596     1.0996     4.1727 </r>
       <r>   -14.9027     3.4373     4.7122 </r>
       <r>   -14.7457     3.4419     5.2525 </r>
       <r>   -14.5888     4.8714     6.0171 </r>
       <r>   -14.4318     9.1407     7.4518 </r>
       <r>   -14.2748     4.4273     8.1467 </r>
       <r>   -14.1179     8.0814     9.4151 </r>
       <r>   -13.9609     8.1694    10.6974 </r>
       <r>   -13.8040     8.7463    12.0702 </r>
       <r>   -13.6470     4.3021    12.7454 </r>
       <r>   -13.4901     8.9666    14.1528 </r>
       <r>   -13.3331    18.7826    17.1009 </r>
       <r>   -13.1761     8.9562    18.5066 </r>
       <r>   -13.0192     6.3209    19.4987 </r>
       <r>   -12.8622     7.0290    20.6020 </r>
       <r>   -12.7053     2.0901    20.9301 </r>
       <r>   -12.5483     1.3872    21.1478 </r>
       <r>   -12.3913     6.0423    22.0962 </r>
       <r>   -12.2344     7.2565    23.2351 </r>
       <r>   -12.0774     3.6568    23.8091 </r>
       <r>   -11.9205     1.1845    23.9950 </r>
       <r>   -11.7635     0.0318    24.0000 </r>
       <r>   -11.6066     0.0000    24.0000 </r>
       <r>   -11.4496     0.0000    24.0000 </r>
       <r>   -11.2926     0.0000    24.0000 </r>
       <r>   -11.1357     0.0000    24.0000 </r>
       <r>   -10.9787     0.0000    24.0000 </r>
       <r>   -10.8218     0.0000    24.0000 </r>
       <r>   -10.6648     0.0000    24.0000 </r>
       <r>   -10.5079     0.0000    24.0000 </r>
       <r>   -10.3509     0.0000    24.0000 </r>
       <r>   -10.1939     0.0000    24.0000 </r>
       <r>   -10.0370     0.0000    24.0000 </r>
       <r>    -9.8800     0.0000    24.0000 </r>
       <r>    -9.7231     0.0000    24.0000 </r>
       <r>    -9.5661     0.0000    24.0000 </r>
       <r>    -9.4091     0.0000    24.0000 </r>
       <r>    -9.2522     0.0000    24.0000 </r>
       <r>    -9.0952     0.0000    24.0000 </r>
       <r>    -8.9383     0.0000    24.0000 </r>
       <r>    -8.7813     0.0000    24.0000 </r>
       <r>    -8.6244     0.0000    24.0000 </r>
       <r>    -8.4674     0.0000    24.0000 </r>
       <r>    -8.3104     0.0000    24.0000 </r>
       <r>    -8.1535     0.0000    24.0000 </r>
       <r>    -7.9965     0.0000    24.0000 </r>
       <r>    -7.8396     0.0000    24.0000 </r>
       <r>    -7.6826     0.0000    24.0000 </r>
       <r>    -7.5256     0.0000    24.0000 </r>
       <r>    -7.3687     0.0000    24.0000 </r>
       <r>    -7.2117     0.0000    24.0000 </r>
       <r>    -7.0548     0.0000    24.0000 </r>
       <r>    -6.8978     0.0000    24.0000 </r>
       <r>    -6.7409     0.0000    24.0000 </r>
       <r>    -6.5839     0.0000    24.0000 </r>
       <r>    -6.4269     0.0000    24.0000 </r>
       <r>    -6.2700     0.0000    24.0000 </r>
       <r>    -6.1130     0.0000    24.0000 </r>
       <r>    -5.9561     0.0000    24.0000 </r>
       <r>    -5.7991     0.0000    24.0000 </r>
       <r>    -5.6421     0.0000    24.0000 </r>
       <r>    -5.4852     0.0000    24.0000 </r>
       <r>    -5.3282     0.0000    24.0000 </r>
       <r>    -5.1713     0.0000    24.0000 </r>
       <r>    -5.0143     0.0000    24.0000 </r>
       <r>    -4.8574     0.0000    24.0000 </r>
       <r>    -4.7004     0.0000    24.0000 </r>
       <r>    -4.5434     0.0000    24.0000 </r>
       <r>    -4.3865     0.0000    24.0000 </r>
       <r>    -4.2295     0.0000    24.0000 </r>
       <r>    -4.0726     0.0000    24.0000 </r>
       <r>    -3.9156     0.0000    24.0000 </r>
       <r>    -3.7587     0.0000    24.0000 </r>
       <r>    -3.6017     0.0000    24.0000 </r>
       <r>    -3.4447     0.0000    24.0000 </r>
       <r>    -3.2878     0.0000    24.0000 </r>
       <r>    -3.1308     0.0000    24.0000 </r>
       <r>    -2.9739     0.0393    24.0062 </r>
       <r>    -2.8169     4.3608    24.6906 </r>
       <r>    -2.6599     1.1987    24.8788 </r>
       <r>    -2.5030     2.8333    25.3235 </r>
       <r>    -2.3460     4.3614    26.0081 </r>
       <r>    -2.1891     2.6212    26.4195 </r>
       <r>    -2.0321     1.8794    26.7145 </r>
       <r>    -1.8752     5.9543    27.6490 </r>
       <r>    -1.7182     6.6270    28.6892 </r>
       <r>    -1.5612     9.6738    30.2076 </r>
       <r>    -1.4043    11.1491    31.9575 </r>
       <r>    -1.2473    16.9402    34.6164 </r>
       <r>    -1.0904    12.0368    36.5057 </r>
       <r>    -0.9334    15.3715    38.9184 </r>
       <r>    -0.7764     9.5815    40.4223 </r>
       <r>    -0.6195     9.1628    41.8605 </r>
       <r>    -0.4625     7.5094    43.0391 </r>
       <r>    -0.3056    11.8107    44.8929 </r>
       <r>    -0.1486     8.7593    46.2678 </r>
       <r>     0.0083     4.6325    46.9949 </r>
       <r>     0.1653     4.3705    47.6808 </r>
       <r>     0.3223     4.3536    48.3642 </r>
       <r>     0.4792     2.5158    48.7591 </r>
       <r>     0.6362     5.6061    49.6390 </r>
       <r>     0.7931     6.4081    50.6448 </r>
       <r>     0.9501     6.5701    51.6760 </r>
       <r>     1.1071    10.3529    53.3010 </r>
       <r>     1.2640    10.6032    54.9652 </r>
       <r>     1.4210    15.1081    57.3366 </r>
       <r>     1.5779    12.5307    59.3034 </r>
       <r>     1.7349     9.2731    60.7589 </r>
       <r>     1.8918     7.6253    61.9557 </r>
       <r>     2.0488     9.6672    63.4731 </r>
       <r>     2.2058     5.7107    64.3694 </r>
       <r>     2.3627     4.3901    65.0585 </r>
       <r>     2.5197     2.7417    65.4888 </r>
       <r>     2.6766     1.2218    65.6806 </r>
       <r>     2.8336     1.8078    65.9643 </r>
       <r>     2.9906     2.4985    66.3565 </r>
       <r>     3.1475     2.3747    66.7292 </r>
       <r>     3.3045     2.4025    67.1063 </r>
       <r>     3.4614     1.7215    67.3765 </r>
       <r>     3.6184     1.1866    67.5628 </r>
       <r>     3.7753     0.4919    67.6400 </r>
       <r>     3.9323     1.2456    67.8355 </r>
       <r>     4.0893     0.3663    67.8930 </r>
       <r>     4.2462     1.7852    68.1732 </r>
       <r>     4.4032     2.0342    68.4924 </r>
       <r>     4.5601     1.9591    68.7999 </r>
       <r>     4.7171     0.1368    68.8214 </r>
       <r>     4.8740     1.8131    69.1060 </r>
       <r>     5.0310     1.0642    69.2730 </r>
       <r>     5.1880     1.2043    69.4621 </r>
       <r>     5.3449     2.1917    69.8061 </r>
       <r>     5.5019     0.6109    69.9019 </r>
       <r>     5.6588     1.8542    70.1930 </r>
       <r>     5.8158     2.2831    70.5513 </r>
       <r>     5.9728     3.2018    71.0539 </r>
       <r>     6.1297     1.8480    71.3439 </r>
       <r>     6.2867     2.3965    71.7201 </r>
       <r>     6.4436     0.7938    71.8447 </r>
       <r>     6.6006     0.8632    71.9802 </r>
       <r>     6.7575     0.6289    72.0789 </r>
       <r>     6.9145     0.7412    72.1952 </r>
       <r>     7.0715     2.1751    72.5366 </r>
       <r>     7.2284     1.9052    72.8356 </r>
       <r>     7.3854     3.1063    73.3232 </r>
       <r>     7.5423     2.1162    73.6554 </r>
       <r>     7.6993     2.3009    74.0165 </r>
       <r>     7.8563     3.0797    74.4999 </r>
       <r>     8.0132     2.9093    74.9565 </r>
       <r>     8.1702     3.8240    75.5567 </r>
       <r>     8.3271     5.1157    76.3597 </r>
       <r>     8.4841     4.5884    77.0799 </r>
       <r>     8.6410     9.0605    78.5020 </r>
       <r>     8.7980     7.3731    79.6592 </r>
       <r>     8.9550     3.0914    80.1445 </r>
       <r>     9.1119     4.8782    80.9101 </r>
       <r>     9.2689     2.9567    81.3742 </r>
       <r>     9.4258     6.6976    82.4255 </r>
       <r>     9.5828     5.2806    83.2543 </r>
       <r>     9.7398     5.5628    84.1274 </r>
       <r>     9.8967     4.1896    84.7850 </r>
       <r>    10.0537     4.4615    85.4853 </r>
       <r>    10.2106     4.8303    86.2435 </r>
       <r>    10.3676     5.0356    87.0338 </r>
       <r>    10.5245     3.0910    87.5190 </r>
       <r>    10.6815     2.0989    87.8484 </r>
       <r>    10.8385     0.9633    87.9996 </r>
       <r>    10.9954     0.0024    88.0000 </r>
       <r>    11.1524     0.0000    88.0000 </r>
       <r>    11.3093     0.0000    88.0000 </r>
       <r>    11.4663     0.0000    88.0000 </r>
       <r>    11.6232     0.0000    88.0000 </r>
       <r>    11.7802     0.0000    88.0000 </r>
       <r>    11.9372     0.0000    88.0000 </r>
       <r>    12.0941     0.0000    88.0000 </r>
       <r>    12.2511     0.0000    88.0000 </r>
       <r>    12.4080     0.0000    88.0000 </r>
       <r>    12.5650     0.0000    88.0000 </r>
       <r>    12.7220     0.0000    88.0000 </r>
       <r>    12.8789     0.0000    88.0000 </r>
      </set>
     </set>
    </array>
   </total>
  </dos>
 </calculation>
 <structure name="finalpos" >
  <crystal>
   <varray name="basis" >
    <v>       4.00000000       0.00000000       0.00000000 </v>
    <v>       0.00000000       4.00000000       0.00000000 </v>
    <v>       0.00000000       0.00000000      16.00000000 </v>
   </varray>
   <i name="volume">    256.00000000 </i>
   <varray name="rec_basis" >
    <v>       0.25000000       0.00000000       0.00000000 </v>
    <v>       0.00000000       0.25000000       0.00000000 </v>
    <v>       0.00000000       0.00000000       0.06250000 </v>
   </varray>
  </crystal>
  <varray name="positions" >
   <v>       0.00000000       0.00000000       0.00000000 </v>
   <v>       0.00000000       0.00000000       0.25000000 </v>
   <v>       0.00000000       0.00000000       0.50000000 </v>
   <v>       0.00000000       0.00000000       0.75000000 </v>
   <v>       0.50000000       0.50000000       0.12500000 </v>
   <v>       0.50000000       0.50000000       0.37500000 </v>
   <v>       0.50000000       0.50000000       0.62500000 </v>
   <v>       0.50000000       0.50000000       0.87500000 </v>
   <v>       0.50000000       0.50000000       0.25000000 </v>
   <v>       0.50000000       0.50000000       0.50000000 </v>
   <v>       0.50000000       0.50000000       0.75000000 </v>
   <v>       0.00000000       0.50000000       0.37500000 </v>
   <v>       0.00000000       0.50000000       0.62500000 </v>
   <v>       0.00000000       0.50000000       0.87500000 </v>
   <v>       0.50000000       0.00000000       0.12500000 </v>
   <v>       0.50000000       0.00000000       0.87500000 </v>
  </varray>
 </structure>
</modeling>
