<?xml version="1.0" encoding="ISO-8859-1"?>
<modeling>
 <generator>
  <i name="program" type="string">vasp </i>
  <i name="version" type="string">5.3.5  </i>
  <i name="subversion" type="string">31Mar14 (build Jun 20 2014 13:15:13) complex                          parallel </i>
  <i name="platform" type="string">LinuxIFC </i>
  <i name="date" type="string">2025 12 16 </i>
  <i name="time" type="string">18:01:33 </i>
 </generator>
 <incar>
  <i type="string" name="PREC">accurate</i>
  <i type="int" name="IALGO">    68</i>
  <i type="logical" name="ADDGRID"> T  </i>
  <i type="int" name="NELM">   100</i>
  <i type="int" name="NELMIN">     4</i>
  <i type="int" name="IBRION">     2</i>
  <i name="EDIFF">      0.00000100</i>
  <i name="EDIFFG">     -0.02000000</i>
  <i type="int" name="NSW">    30</i>
  <i type="int" name="ISIF">     3</i>
  <i name="ENCUT">    600.00000000</i>
  <i type="logical" name="LREAL"> F  </i>
  <i type="int" name="ISMEAR">     0</i>
  <i name="SIGMA">      0.10000000</i>
  <i type="logical" name="LWAVE"> F  </i>
  <i type="logical" name="LCHARG"> F  </i>
  <i type="int" name="NELM">   100</i>
 </incar>
 <kpoints>
  <generation param="Auto">
   <i name="subdivisionlength">     20.00000000 </i>
   <v type="int" name="divisions">       4        4        3 </v>
   <v name="usershift">      0.00000000       0.00000000       0.00000000 </v>
   <v name="genvec1">      0.25000000       0.00000000       0.00000000 </v>
   <v name="genvec2">      0.00000000       0.25000000       0.00000000 </v>
   <v name="genvec3">      0.00000000       0.00000000       0.33333333 </v>
   <v name="shift">      0.00000000       0.00000000       0.00000000 </v>
  </generation>
  <varray name="kpointlist" >
   <v>       0.00000000       0.00000000       0.00000000 </v>
   <v>       0.25000000       0.00000000       0.00000000 </v>
   <v>       0.50000000       0.00000000       0.00000000 </v>
   <v>       0.00000000       0.25000000       0.00000000 </v>
   <v>       0.25000000       0.25000000       0.00000000 </v>
   <v>       0.50000000       0.25000000       0.00000000 </v>
   <v>      -0.25000000       0.25000000       0.00000000 </v>
   <v>       0.00000000       0.50000000       0.00000000 </v>
   <v>       0.25000000       0.50000000       0.00000000 </v>
   <v>       0.50000000       0.50000000       0.00000000 </v>
   <v>       0.00000000       0.00000000       0.33333333 </v>
   <v>       0.25000000       0.00000000       0.33333333 </v>
   <v>       0.50000000       0.00000000       0.33333333 </v>
   <v>      -0.25000000       0.00000000       0.33333333 </v>
   <v>       0.00000000       0.25000000       0.33333333 </v>
   <v>       0.25000000       0.25000000       0.33333333 </v>
   <v>       0.50000000       0.25000000       0.33333333 </v>
   <v>      -0.25000000       0.25000000       0.33333333 </v>
   <v>       0.00000000       0.50000000       0.33333333 </v>
   <v>       0.25000000       0.50000000       0.33333333 </v>
   <v>       0.50000000       0.50000000       0.33333333 </v>
   <v>      -0.25000000       0.50000000       0.33333333 </v>
   <v>       0.00000000      -0.25000000       0.33333333 </v>
   <v>       0.25000000      -0.25000000       0.33333333 </v>
   <v>       0.50000000      -0.25000000       0.33333333 </v>
   <v>      -0.25000000      -0.25000000       0.33333333 </v>
  </varray>
  <varray name="weights" >
   <v>       0.02083333 </v>
   <v>       0.04166667 </v>
   <v>       0.02083333 </v>
   <v>       0.04166667 </v>
   <v>       0.04166667 </v>
   <v>       0.04166667 </v>
   <v>       0.04166667 </v>
   <v>       0.02083333 </v>
   <v>       0.04166667 </v>
   <v>       0.02083333 </v>
   <v>       0.04166667 </v>
   <v>       0.04166667 </v>
   <v>       0.04166667 </v>
   <v>       0.04166667 </v>
   <v>       0.04166667 </v>
   <v>       0.04166667 </v>
   <v>       0.04166667 </v>
   <v>       0.04166667 </v>
   <v>       0.04166667 </v>
   <v>       0.04166667 </v>
   <v>       0.04166667 </v>
   <v>       0.04166667 </v>
   <v>       0.04166667 </v>
   <v>       0.04166667 </v>
   <v>       0.04166667 </v>
   <v>       0.04166667 </v>
  </varray>
 </kpoints>
 <parameters>
  <separator name="general" >
   <i type="string" name="SYSTEM">unknown system</i>
   <i type="logical" name="LCOMPAT"> F  </i>
  </separator>
  <separator name="electronic" >
   <i type="string" name="PREC">accura</i>
   <i name="ENMAX">    600.00000000</i>
   <i name="ENAUG">    644.87300000</i>
   <i name="EDIFF">      0.00000100</i>
   <i type="int" name="IALGO">    68</i>
   <i type="int" name="IWAVPR">    11</i>
   <i type="int" name="NBANDS">    44</i>
   <i name="NELECT">     64.00000000</i>
   <i type="int" name="TURBO">     0</i>
   <i type="int" name="IRESTART">     0</i>
   <i type="int" name="NREBOOT">     0</i>
   <i type="int" name="NMIN">     0</i>
   <i name="EREF">      0.00000000</i>
   <separator name="electronic smearing" >
    <i type="int" name="ISMEAR">     0</i>
    <i name="SIGMA">      0.10000000</i>
    <i name="KSPACING">      0.50000000</i>
    <i type="logical" name="KGAMMA"> T  </i>
   </separator>
   <separator name="electronic projectors" >
    <i type="logical" name="LREAL"> F  </i>
    <v name="ROPT">      0.00000000      0.00000000      0.00000000      0.00000000</v>
    <i type="int" name="LMAXPAW">  -100</i>
    <i type="int" name="LMAXMIX">     2</i>
    <i type="logical" name="NLSPLINE"> F  </i>
   </separator>
   <separator name="electronic startup" >
    <i type="int" name="ISTART">     0</i>
    <i type="int" name="ICHARG">     2</i>
    <i type="int" name="INIWAV">     1</i>
   </separator>
   <separator name="electronic spin" >
    <i type="int" name="ISPIN">     1</i>
    <i type="logical" name="LNONCOLLINEAR"> F  </i>
    <v name="MAGMOM">      1.00000000      1.00000000      1.00000000      1.00000000      1.00000000      1.00000000      1.00000000      1.00000000      1.00000000      1.00000000      1.00000000      1.00000000      1.00000000      1.00000000      1.00000000      1.00000000</v>
    <i name="NUPDOWN">     -1.00000000</i>
    <i type="logical" name="LSORBIT"> F  </i>
    <v name="SAXIS">      0.00000000      0.00000000      1.00000000</v>
    <i type="logical" name="LSPIRAL"> F  </i>
    <v name="QSPIRAL">      0.00000000      0.00000000      0.00000000</v>
    <i type="logical" name="LZEROZ"> F  </i>
   </separator>
   <separator name="electronic exchange-correlation" >
    <i type="logical" name="LASPH"> F  </i>
    <i type="logical" name="LMETAGGA"> F  </i>
   </separator>
   <separator name="electronic convergence" >
    <i type="int" name="NELM">   100</i>
    <i type="int" name="NELMDL">     0</i>
    <i type="int" name="NELMIN">     4</i>
    <i name="ENINI">    600.00000000</i>
    <separator name="electronic convergence detail" >
     <i type="logical" name="LDIAG"> T  </i>
     <i type="logical" name="LSUBROT"> F  </i>
     <i name="WEIMIN">      0.00100000</i>
     <i name="EBREAK">      0.00000001</i>
     <i name="DEPER">      0.30000000</i>
     <i type="int" name="NRMM">     4</i>
     <i name="TIME">      0.40000000</i>
    </separator>
   </separator>
   <separator name="electronic mixer" >
    <i name="AMIX">      0.40000000</i>
    <i name="BMIX">      1.00000000</i>
    <i name="AMIN">      0.10000000</i>
    <i name="AMIX_MAG">      1.60000000</i>
    <i name="BMIX_MAG">      1.00000000</i>
    <separator name="electronic mixer details" >
     <i type="int" name="IMIX">     4</i>
     <i type="int" name="MAXMIX">   -45</i>
     <i name="WC">    100.00000000</i>
     <i type="int" name="INIMIX">     1</i>
     <i type="int" name="MIXPRE">     1</i>
     <i type="int" name="MREMOVE">     5</i>
    </separator>
   </separator>
   <separator name="electronic dipolcorrection" >
    <i type="logical" name="LDIPOL"> F  </i>
    <i type="logical" name="LMONO"> F  </i>
    <i type="int" name="IDIPOL">     0</i>
    <i name="EPSILON">      1.00000000</i>
    <v name="DIPOL">   -100.00000000   -100.00000000   -100.00000000</v>
    <i name="EFIELD">      0.00000000</i>
   </separator>
  </separator>
  <separator name="grids" >
   <i type="int" name="NGX">    40</i>
   <i type="int" name="NGY">    48</i>
   <i type="int" name="NGZ">    50</i>
   <i type="int" name="NGXF">    80</i>
   <i type="int" name="NGYF">    96</i>
   <i type="int" name="NGZF">   100</i>
   <i type="logical" name="ADDGRID"> T  </i>
  </separator>
  <separator name="ionic" >
   <i type="int" name="NSW">    30</i>
   <i type="int" name="IBRION">     2</i>
   <i type="int" name="ISIF">     3</i>
   <i name="PSTRESS">      0.00000000</i>
   <i name="EDIFFG">     -0.02000000</i>
   <i type="int" name="NFREE">     1</i>
   <i name="POTIM">      0.50000000</i>
   <i name="SMASS">     -3.00000000</i>
   <i name="SCALEE">      1.00000000</i>
  </separator>
  <separator name="ionic md" >
   <i name="TEBEG">      0.00010000</i>
   <i name="TEEND">      0.00010000</i>
   <i type="int" name="NBLOCK">     1</i>
   <i type="int" name="KBLOCK">    30</i>
   <i type="int" name="NPACO">   256</i>
   <i name="APACO">     16.00000000</i>
  </separator>
  <separator name="symmetry" >
   <i type="int" name="ISYM">     2</i>
   <i name="SYMPREC">      0.00001000</i>
  </separator>
  <separator name="dos" >
   <i type="logical" name="LORBIT"> F  </i>
   <v name="RWIGS">     -1.00000000     -1.00000000     -1.00000000     -1.00000000</v>
   <i type="int" name="NEDOS">   301</i>
   <i name="EMIN">     10.00000000</i>
   <i name="EMAX">    -10.00000000</i>
   <i name="EFERMI">      0.00000000</i>
  </separator>
  <separator name="writing" >
   <i type="int" name="NWRITE">     2</i>
   <i type="logical" name="LWAVE"> F  </i>
   <i type="logical" name="LCHARG"> F  </i>
   <i type="logical" name="LPARD"> F  </i>
   <i type="logical" name="LVTOT"> F  </i>
   <i type="logical" name="LVHAR"> F  </i>
   <i type="logical" name="LELF"> F  </i>
   <i type="logical" name="LOPTICS"> F  </i>
   <v name="STM">      0.00000000      0.00000000      0.00000000      0.00000000      0.00000000      0.00000000      0.00000000</v>
  </separator>
  <separator name="performance" >
   <i type="int" name="NPAR">     4</i>
   <i type="int" name="NSIM">     4</i>
   <i type="int" name="NBLK">    -1</i>
   <i type="logical" name="LPLANE"> T  </i>
   <i type="logical" name="LSCALAPACK"> T  </i>
   <i type="logical" name="LSCAAWARE"> F  </i>
   <i type="logical" name="LSCALU"> F  </i>
   <i type="logical" name="LASYNC"> F  </i>
   <i type="logical" name="LORBITALREAL"> F  </i>
  </separator>
  <separator name="miscellaneous" >
   <i type="int" name="IDIOT">     3</i>
   <i type="logical" name="LMUSIC"> F  </i>
   <v name="POMASS">     28.08500000     26.98100000     12.01100000     14.00100000</v>
   <v name="DARWINR">      0.00000000      0.00000000      0.00000000      0.00000000</v>
   <v name="DARWINV">      1.00000000      1.00000000      1.00000000      1.00000000</v>
   <i type="logical" name="LCORR"> T  </i>
  </separator>
  <i type="logical" name="GGA_COMPAT"> T  </i>
  <i type="logical" name="LBERRY"> F  </i>
  <i type="int" name="ICORELEVEL">     0</i>
  <i type="logical" name="LDAU"> F  </i>
  <i type="int" name="I_CONSTRAINED_M">     0</i>
  <separator name="electronic exchange-correlation" >
   <i type="string" name="GGA">--</i>
   <i type="int" name="VOSKOWN">     0</i>
   <i type="logical" name="LHFCALC"> F  </i>
   <i type="string" name="PRECFOCK"></i>
   <i type="logical" name="LSYMGRAD"> F  </i>
   <i type="logical" name="LHFONE"> F  </i>
   <i type="logical" name="LRHFCALC"> F  </i>
   <i type="logical" name="LTHOMAS"> F  </i>
   <i type="logical" name="LMODELHF"> F  </i>
   <i name="ENCUT4O">     -1.00000000</i>
   <i type="int" name="EXXOEP">     0</i>
   <i type="int" name="FOURORBIT">     0</i>
   <i name="AEXX">      0.00000000</i>
   <i name="HFALPHA">      0.00000000</i>
   <i name="MCALPHA">      0.00000000</i>
   <i name="ALDAX">      1.00000000</i>
   <i name="AGGAX">      1.00000000</i>
   <i name="ALDAC">      1.00000000</i>
   <i name="AGGAC">      1.00000000</i>
   <i type="int" name="NKREDX">     1</i>
   <i type="int" name="NKREDY">     1</i>
   <i type="int" name="NKREDZ">     1</i>
   <i type="logical" name="SHIFTRED"> F  </i>
   <i type="logical" name="ODDONLY"> F  </i>
   <i type="logical" name="EVENONLY"> F  </i>
   <i type="int" name="LMAXFOCK">     0</i>
   <i type="int" name="NMAXFOCKAE">     0</i>
   <i type="logical" name="LFOCKAEDFT"> F  </i>
   <i name="HFSCREEN">      0.00000000</i>
   <i name="HFSCREENC">      0.00000000</i>
   <i type="int" name="NBANDSGWLOW">     0</i>
  </separator>
  <separator name="vdW DFT" >
   <i type="logical" name="LUSE_VDW"> F  </i>
   <i name="Zab_VDW">     -0.84910000</i>
   <i name="PARAM1">      0.12340000</i>
   <i name="PARAM2">      1.00000000</i>
   <i name="PARAM3">      0.00000000</i>
  </separator>
  <separator name="model GW" >
   <i type="int" name="MODEL_GW">     0</i>
   <i name="MODEL_EPS0">      6.39651879</i>
   <i name="MODEL_ALPHA">      1.00000000</i>
  </separator>
  <separator name="linear response parameters" >
   <i type="logical" name="LEPSILON"> F  </i>
   <i type="logical" name="LRPA"> F  </i>
   <i type="logical" name="LNABLA"> F  </i>
   <i type="logical" name="LVEL"> F  </i>
   <i type="int" name="KINTER">     0</i>
   <i name="CSHIFT">      0.10000000</i>
   <i name="OMEGAMAX">     -1.00000000</i>
   <i name="DEG_THRESHOLD">      0.00200000</i>
  </separator>
  <separator name="orbital magnetization" >
   <i type="logical" name="NUCIND"> F  </i>
   <v name="MAGPOS">      0.00000000      0.00000000      0.00000000</v>
   <i type="logical" name="LNICSALL"> T  </i>
   <i type="logical" name="ORBITALMAG"> F  </i>
   <i type="logical" name="LMAGBLOCH"> F  </i>
   <i type="logical" name="LCHIMAG"> F  </i>
   <i type="logical" name="LGAUGE"> T  </i>
   <i type="int" name="MAGATOM">     0</i>
   <v name="MAGDIPOL">      0.00000000      0.00000000      0.00000000</v>
   <v name="AVECCONST">      0.00000000      0.00000000      0.00000000</v>
  </separator>
  <separator name="response functions" >
   <i type="logical" name="LADDER"> F  </i>
   <i type="logical" name="LFXC"> F  </i>
   <i type="logical" name="LHARTREE"> T  </i>
   <i type="int" name="IBSE">     0</i>
   <i type="logical" name="LTCTE"> F  </i>
   <i type="logical" name="LTETE"> F  </i>
   <i type="logical" name="LTRIPLET"> F  </i>
   <i type="logical" name="LFXCEPS"> F  </i>
   <i type="logical" name="LFXHEG"> F  </i>
   <i type="logical" name="L2ORDER"> F  </i>
   <i type="logical" name="LUSEW"> F  </i>
   <i name="ENCUTGW">     -2.00000000</i>
   <i name="ENCUTGWSOFT">     -2.00000000</i>
   <i name="ENCUTLF">     -1.00000000</i>
   <i type="int" name="LMAXMP2">    -1</i>
   <i name="SCISSOR">      0.00000000</i>
   <i type="int" name="NOMEGA">     0</i>
   <i type="int" name="NOMEGAR">     0</i>
   <i type="int" name="NBANDSGW">    -1</i>
   <i type="int" name="NBANDSO">    -1</i>
   <i type="int" name="NBANDSV">    -1</i>
   <i type="int" name="NELM">   100</i>
   <i type="int" name="DIM">     3</i>
   <i type="int" name="ANTIRES">     0</i>
   <i name="OMEGAMAX">    -30.00000000</i>
   <i name="OMEGAMIN">    -30.00000000</i>
   <i name="OMEGATL">   -200.00000000</i>
   <i type="int" name="OMEGAGRID">     0</i>
   <i name="CSHIFT">     -0.10000000</i>
   <i type="logical" name="SELFENERGY"> F  </i>
   <i type="logical" name="LSPECTRAL"> F  </i>
   <i type="logical" name="ODDONLYGW"> F  </i>
   <i type="logical" name="EVENONLYGW"> F  </i>
   <i type="int" name="NKREDLFX">     1</i>
   <i type="int" name="NKREDLFY">     1</i>
   <i type="int" name="NKREDLFZ">     1</i>
   <i type="int" name="MAXMEM">  1800</i>
   <i type="int" name="TELESCOPE">     0</i>
   <i type="int" name="TAUPAR">     1</i>
  </separator>
  <separator name="External order field" >
   <i name="OFIELD_KAPPA">      0.00000000</i>
   <v name="OFIELD_K">      0.00000000      0.00000000      0.00000000</v>
   <i name="OFIELD_Q6_NEAR">      0.00000000</i>
   <i name="OFIELD_Q6_FAR">      0.00000000</i>
   <i name="OFIELD_A">      0.00000000</i>
  </separator>
 </parameters>
 <atominfo>
  <atoms>      16 </atoms>
  <types>       4 </types>
  <array name="atoms" >
   <dimension dim="1">ion</dimension>
   <field type="string">element</field>
   <field type="int">atomtype</field>
   <set>
    <rc><c>Si</c><c>   1</c></rc>
    <rc><c>Si</c><c>   1</c></rc>
    <rc><c>Si</c><c>   1</c></rc>
    <rc><c>Si</c><c>   1</c></rc>
    <rc><c>Al</c><c>   2</c></rc>
    <rc><c>Al</c><c>   2</c></rc>
    <rc><c>Al</c><c>   2</c></rc>
    <rc><c>Al</c><c>   2</c></rc>
    <rc><c>C </c><c>   3</c></rc>
    <rc><c>C </c><c>   3</c></rc>
    <rc><c>C </c><c>   3</c></rc>
    <rc><c>C </c><c>   3</c></rc>
    <rc><c>N </c><c>   4</c></rc>
    <rc><c>N </c><c>   4</c></rc>
    <rc><c>N </c><c>   4</c></rc>
    <rc><c>N </c><c>   4</c></rc>
   </set>
  </array>
  <array name="atomtypes" >
   <dimension dim="1">type</dimension>
   <field type="int">atomspertype</field>
   <field type="string">element</field>
   <field>mass</field>
   <field>valence</field>
   <field type="string">pseudopotential</field>
   <set>
    <rc><c>   4</c><c>Si</c><c>     28.08500000</c><c>      4.00000000</c><c>  PAW_PBE Si 05Jan2001                  </c></rc>
    <rc><c>   4</c><c>Al</c><c>     26.98100000</c><c>      3.00000000</c><c>  PAW_PBE Al 04Jan2001                  </c></rc>
    <rc><c>   4</c><c>C </c><c>     12.01100000</c><c>      4.00000000</c><c>  PAW_PBE C 08Apr2002                   </c></rc>
    <rc><c>   4</c><c>N </c><c>     14.00100000</c><c>      5.00000000</c><c>  PAW_PBE N_s 07Sep2000                 </c></rc>
   </set>
  </array>
 </atominfo>
 <structure name="initialpos" >
  <crystal>
   <varray name="basis" >
    <v>       5.04634891      -0.00334231       0.00184782 </v>
    <v>      -0.00356598       5.42242143       0.00912743 </v>
    <v>       0.00228198       0.01056086       6.23366352 </v>
   </varray>
   <i name="volume">    170.57383451 </i>
   <varray name="rec_basis" >
    <v>       0.19816318       0.00013044      -0.00007276 </v>
    <v>       0.00012226       0.18442006      -0.00031248 </v>
    <v>      -0.00005892      -0.00027007       0.16041979 </v>
   </varray>
  </crystal>
  <varray name="positions" >
   <v>       0.98550790       0.83107209       0.74965689 </v>
   <v>       0.50741051       0.16219675       0.74616576 </v>
   <v>       0.51111745       0.16703412       0.25362459 </v>
   <v>       0.50706667       0.67312505       0.50054192 </v>
   <v>       0.99298127       0.32813456       0.99792647 </v>
   <v>       0.99385162       0.83944018       0.25121586 </v>
   <v>       0.98371552       0.33529866       0.50112814 </v>
   <v>       0.50466477       0.66478724       0.99956282 </v>
   <v>       0.38513576       0.33948031       0.49644876 </v>
   <v>       0.86642579       0.14759383       0.75129985 </v>
   <v>       0.89432718       0.67002769       0.99373646 </v>
   <v>       0.86645253       0.67786562       0.50809803 </v>
   <v>       0.38739239       0.30476398       0.00308947 </v>
   <v>       0.38880976       0.84883112       0.26195374 </v>
   <v>       0.36525605       0.84118348       0.73742465 </v>
   <v>       0.85988483       0.16916531       0.24812658 </v>
  </varray>
 </structure>
 <calculation>
  <scstep>
   <time name="dav">    0.79    0.79</time>
   <time name="total">    0.87    0.88</time>
   <energy>
    <i name="alphaZ">     63.76473769 </i>
    <i name="ewald">  -2269.39299646 </i>
    <i name="hartreedc">   -359.47849406 </i>
    <i name="XCdc">     -5.52362762 </i>
    <i name="pawpsdc">   1871.13760811 </i>
    <i name="pawaedc">  -1679.96522576 </i>
    <i name="eentropy">     -0.00631238 </i>
    <i name="bandstr">    440.89636354 </i>
    <i name="atom">   2273.20978491 </i>
    <i name="e_fr_energy">    334.64183797 </i>
    <i name="e_wo_entrp">    334.64815035 </i>
    <i name="e_0_energy">    334.64499416 </i>
   </energy>
  </scstep>
  <scstep>
   <time name="dav">    0.93    0.93</time>
   <time name="total">    0.93    0.94</time>
   <energy>
    <i name="e_fr_energy">   -101.26584932 </i>
    <i name="e_wo_entrp">   -101.26584932 </i>
    <i name="e_0_energy">   -101.26584932 </i>
   </energy>
  </scstep>
  <scstep>
   <time name="dav">    0.94    0.94</time>
   <time name="total">    0.94    0.96</time>
   <energy>
    <i name="e_fr_energy">   -134.07758524 </i>
    <i name="e_wo_entrp">   -134.07758524 </i>
    <i name="e_0_energy">   -134.07758524 </i>
   </energy>
  </scstep>
  <scstep>
   <time name="dav">    0.92    0.92</time>
   <time name="total">    0.92    0.94</time>
   <energy>
    <i name="e_fr_energy">   -134.93791289 </i>
    <i name="e_wo_entrp">   -134.93791289 </i>
    <i name="e_0_energy">   -134.93791289 </i>
   </energy>
  </scstep>
  <scstep>
   <time name="dav">    0.94    0.94</time>
   <time name="total">    1.06    1.07</time>
   <energy>
    <i name="e_fr_energy">   -134.96689785 </i>
    <i name="e_wo_entrp">   -134.96689785 </i>
    <i name="e_0_energy">   -134.96689785 </i>
   </energy>
  </scstep>
  <scstep>
   <time name="diag">    0.18    0.18</time>
   <time name="diis">    0.57    0.57</time>
   <time name="orth">    0.03    0.03</time>
   <time name="total">    0.98    0.99</time>
   <energy>
    <i name="e_fr_energy">   -116.99286714 </i>
    <i name="e_wo_entrp">   -116.99286714 </i>
    <i name="e_0_energy">   -116.99286714 </i>
   </energy>
  </scstep>
  <scstep>
   <time name="diag">    0.18    0.18</time>
   <time name="diis">    0.60    0.60</time>
   <time name="orth">    0.03    0.03</time>
   <time name="total">    1.00    1.01</time>
   <energy>
    <i name="e_fr_energy">   -116.84508775 </i>
    <i name="e_wo_entrp">   -116.84508775 </i>
    <i name="e_0_energy">   -116.84508775 </i>
   </energy>
  </scstep>
  <scstep>
   <time name="diag">    0.18    0.18</time>
   <time name="diis">    0.58    0.58</time>
   <time name="orth">    0.03    0.03</time>
   <time name="total">    0.98    1.00</time>
   <energy>
    <i name="e_fr_energy">   -117.10833256 </i>
    <i name="e_wo_entrp">   -117.10833256 </i>
    <i name="e_0_energy">   -117.10833256 </i>
   </energy>
  </scstep>
  <scstep>
   <time name="diag">    0.18    0.18</time>
   <time name="diis">    0.58    0.58</time>
   <time name="orth">    0.04    0.04</time>
   <time name="total">    0.99    1.00</time>
   <energy>
    <i name="e_fr_energy">   -116.71487377 </i>
    <i name="e_wo_entrp">   -116.71487377 </i>
    <i name="e_0_energy">   -116.71487377 </i>
   </energy>
  </scstep>
  <scstep>
   <time name="diag">    0.18    0.18</time>
   <time name="diis">    0.58    0.58</time>
   <time name="orth">    0.03    0.03</time>
   <time name="total">    0.98    1.00</time>
   <energy>
    <i name="e_fr_energy">   -116.72142746 </i>
    <i name="e_wo_entrp">   -116.72142746 </i>
    <i name="e_0_energy">   -116.72142746 </i>
   </energy>
  </scstep>
  <scstep>
   <time name="diag">    0.18    0.18</time>
   <time name="diis">    0.55    0.55</time>
   <time name="orth">    0.03    0.03</time>
   <time name="total">    0.95    0.97</time>
   <energy>
    <i name="e_fr_energy">   -116.72071781 </i>
    <i name="e_wo_entrp">   -116.72071781 </i>
    <i name="e_0_energy">   -116.72071781 </i>
   </energy>
  </scstep>
  <scstep>
   <time name="diag">    0.18    0.18</time>
   <time name="diis">    0.57    0.57</time>
   <time name="orth">    0.03    0.03</time>
   <time name="total">    0.97    0.99</time>
   <energy>
    <i name="e_fr_energy">   -116.71990588 </i>
    <i name="e_wo_entrp">   -116.71990588 </i>
    <i name="e_0_energy">   -116.71990588 </i>
   </energy>
  </scstep>
  <scstep>
   <time name="diag">    0.18    0.18</time>
   <time name="diis">    0.55    0.55</time>
   <time name="orth">    0.03    0.03</time>
   <time name="total">    0.95    0.96</time>
   <energy>
    <i name="e_fr_energy">   -116.71992573 </i>
    <i name="e_wo_entrp">   -116.71992573 </i>
    <i name="e_0_energy">   -116.71992573 </i>
   </energy>
  </scstep>
  <scstep>
   <time name="diag">    0.18    0.18</time>
   <time name="diis">    0.56    0.57</time>
   <time name="orth">    0.03    0.03</time>
   <time name="total">    0.97    0.98</time>
   <energy>
    <i name="e_fr_energy">   -116.71992300 </i>
    <i name="e_wo_entrp">   -116.71992300 </i>
    <i name="e_0_energy">   -116.71992300 </i>
   </energy>
  </scstep>
  <scstep>
   <time name="diag">    0.18    0.18</time>
   <time name="diis">    0.45    0.45</time>
   <time name="orth">    0.03    0.03</time>
   <time name="total">    0.74    0.76</time>
   <energy>
    <i name="alphaZ">     63.76473769 </i>
    <i name="ewald">  -2269.39299646 </i>
    <i name="hartreedc">   -467.85411182 </i>
    <i name="XCdc">      4.08618312 </i>
    <i name="pawpsdc">  10202.23285353 </i>
    <i name="pawaedc"> -10015.25419884 </i>
    <i name="eentropy">      0.00000000 </i>
    <i name="bandstr">     92.48782413 </i>
    <i name="atom">   2273.20978491 </i>
    <i name="e_fr_energy">   -116.71992374 </i>
    <i name="e_wo_entrp">   -116.71992374 </i>
    <i name="e_0_energy">   -116.71992374 </i>
   </energy>
  </scstep>
  <structure>
   <crystal>
    <varray name="basis" >
     <v>       5.04634891      -0.00334231       0.00184782 </v>
     <v>      -0.00356598       5.42242143       0.00912743 </v>
     <v>       0.00228198       0.01056086       6.23366352 </v>
    </varray>
    <i name="volume">    170.57383451 </i>
    <varray name="rec_basis" >
     <v>       0.19816318       0.00013044      -0.00007276 </v>
     <v>       0.00012226       0.18442006      -0.00031248 </v>
     <v>      -0.00005892      -0.00027007       0.16041979 </v>
    </varray>
   </crystal>
   <varray name="positions" >
    <v>       0.98550790       0.83107209       0.74965689 </v>
    <v>       0.50741051       0.16219675       0.74616576 </v>
    <v>       0.51111745       0.16703412       0.25362459 </v>
    <v>       0.50706667       0.67312505       0.50054192 </v>
    <v>       0.99298127       0.32813456       0.99792647 </v>
    <v>       0.99385162       0.83944018       0.25121586 </v>
    <v>       0.98371552       0.33529866       0.50112814 </v>
    <v>       0.50466477       0.66478724       0.99956282 </v>
    <v>       0.38513576       0.33948031       0.49644876 </v>
    <v>       0.86642579       0.14759383       0.75129985 </v>
    <v>       0.89432718       0.67002769       0.99373646 </v>
    <v>       0.86645253       0.67786562       0.50809803 </v>
    <v>       0.38739239       0.30476398       0.00308947 </v>
    <v>       0.38880976       0.84883112       0.26195374 </v>
    <v>       0.36525605       0.84118348       0.73742465 </v>
    <v>       0.85988483       0.16916531       0.24812658 </v>
   </varray>
  </structure>
  <varray name="forces" >
   <v>       0.00354831       0.00119992       0.01605963 </v>
   <v>       0.00761709       0.00069545      -0.00393430 </v>
   <v>       0.00735085       0.00187292      -0.00086078 </v>
   <v>       0.00515582      -0.00158544       0.00480703 </v>
   <v>       0.00468487       0.00389318       0.00316152 </v>
   <v>      -0.00076213      -0.00839688       0.00920974 </v>
   <v>      -0.00686602      -0.00538194      -0.00317471 </v>
   <v>       0.00789114       0.00512111       0.00058983 </v>
   <v>      -0.00481714       0.00234361      -0.00351227 </v>
   <v>      -0.00193306       0.00239830       0.00057669 </v>
   <v>       0.00631449       0.00036691       0.00174808 </v>
   <v>      -0.00023847      -0.00404904      -0.01058713 </v>
   <v>      -0.00377987       0.00365104      -0.00864116 </v>
   <v>      -0.00572162      -0.00194468      -0.00494911 </v>
   <v>      -0.01372193       0.00222267       0.00278900 </v>
   <v>      -0.00472233      -0.00240714      -0.00328206 </v>
  </varray>
  <varray name="stress" >
   <v>      -0.32158659      -0.01310814       0.05737495 </v>
   <v>      -0.01310799      -0.10050370       0.31770598 </v>
   <v>       0.05737499       0.31770591      -0.17777319 </v>
  </varray>
  <energy>
   <i name="e_fr_energy">   -116.71992374 </i>
   <i name="e_wo_entrp">   -116.71992374 </i>
   <i name="e_0_energy">      0.00000000 </i>
  </energy>
  <time name="totalsc">   16.58   16.83</time>
  <eigenvalues>
   <array>
    <dimension dim="1">band</dimension>
    <dimension dim="2">kpoint</dimension>
    <dimension dim="3">spin</dimension>
    <field>eigene</field>
    <field>occ</field>
    <set>
     <set comment="spin 1">
      <set comment="kpoint 1">
       <r>   -9.2950    1.0000 </r>
       <r>   -7.9739    1.0000 </r>
       <r>   -7.6020    1.0000 </r>
       <r>   -6.9365    1.0000 </r>
       <r>   -4.3949    1.0000 </r>
       <r>   -3.6643    1.0000 </r>
       <r>   -2.9295    1.0000 </r>
       <r>   -2.1157    1.0000 </r>
       <r>   -0.3882    1.0000 </r>
       <r>   -0.2618    1.0000 </r>
       <r>    0.4250    1.0000 </r>
       <r>    1.3141    1.0000 </r>
       <r>    1.3856    1.0000 </r>
       <r>    1.7418    1.0000 </r>
       <r>    2.1315    1.0000 </r>
       <r>    2.3629    1.0000 </r>
       <r>    2.6014    1.0000 </r>
       <r>    3.1364    1.0000 </r>
       <r>    3.5333    1.0000 </r>
       <r>    3.7083    1.0000 </r>
       <r>    3.9683    1.0000 </r>
       <r>    4.1885    1.0000 </r>
       <r>    4.5183    1.0000 </r>
       <r>    4.8941    1.0000 </r>
       <r>    5.3114    1.0000 </r>
       <r>    5.3616    1.0000 </r>
       <r>    5.7203    1.0000 </r>
       <r>    5.9758    1.0000 </r>
       <r>    6.9142    1.0000 </r>
       <r>    7.0906    1.0000 </r>
       <r>    7.8178    1.0000 </r>
       <r>    7.8300    1.0000 </r>
       <r>   10.7071    0.0000 </r>
       <r>   10.7812    0.0000 </r>
       <r>   11.2371    0.0000 </r>
       <r>   11.7046    0.0000 </r>
       <r>   12.3122    0.0000 </r>
       <r>   13.3308    0.0000 </r>
       <r>   13.6264    0.0000 </r>
       <r>   14.1346    0.0000 </r>
       <r>   14.3604    0.0000 </r>
       <r>   14.5797    0.0000 </r>
       <r>   14.8366    0.0000 </r>
       <r>   15.2462    0.0000 </r>
      </set>
      <set comment="kpoint 2">
       <r>   -9.1704    1.0000 </r>
       <r>   -7.9089    1.0000 </r>
       <r>   -7.5750    1.0000 </r>
       <r>   -7.1158    1.0000 </r>
       <r>   -4.5597    1.0000 </r>
       <r>   -3.8536    1.0000 </r>
       <r>   -2.8387    1.0000 </r>
       <r>   -2.1365    1.0000 </r>
       <r>   -0.6393    1.0000 </r>
       <r>   -0.1249    1.0000 </r>
       <r>    0.6406    1.0000 </r>
       <r>    0.9591    1.0000 </r>
       <r>    1.4078    1.0000 </r>
       <r>    1.7057    1.0000 </r>
       <r>    1.9722    1.0000 </r>
       <r>    2.0734    1.0000 </r>
       <r>    2.9738    1.0000 </r>
       <r>    3.0863    1.0000 </r>
       <r>    3.7317    1.0000 </r>
       <r>    4.0240    1.0000 </r>
       <r>    4.2503    1.0000 </r>
       <r>    4.4870    1.0000 </r>
       <r>    4.9148    1.0000 </r>
       <r>    5.1158    1.0000 </r>
       <r>    5.3368    1.0000 </r>
       <r>    5.5644    1.0000 </r>
       <r>    5.6626    1.0000 </r>
       <r>    5.9276    1.0000 </r>
       <r>    6.4016    1.0000 </r>
       <r>    7.0532    1.0000 </r>
       <r>    7.7462    1.0000 </r>
       <r>    7.8014    1.0000 </r>
       <r>   10.5180    0.0000 </r>
       <r>   11.2784    0.0000 </r>
       <r>   11.7882    0.0000 </r>
       <r>   11.9198    0.0000 </r>
       <r>   12.4005    0.0000 </r>
       <r>   12.8834    0.0000 </r>
       <r>   13.8409    0.0000 </r>
       <r>   13.9855    0.0000 </r>
       <r>   14.1613    0.0000 </r>
       <r>   14.4900    0.0000 </r>
       <r>   15.0602    0.0000 </r>
       <r>   15.4787    0.0000 </r>
      </set>
      <set comment="kpoint 3">
       <r>   -9.0180    1.0000 </r>
       <r>   -7.8428    1.0000 </r>
       <r>   -7.5473    1.0000 </r>
       <r>   -7.3234    1.0000 </r>
       <r>   -4.8021    1.0000 </r>
       <r>   -3.8532    1.0000 </r>
       <r>   -2.7495    1.0000 </r>
       <r>   -2.1528    1.0000 </r>
       <r>   -0.8712    1.0000 </r>
       <r>   -0.4660    1.0000 </r>
       <r>    0.5850    1.0000 </r>
       <r>    0.8854    1.0000 </r>
       <r>    1.5037    1.0000 </r>
       <r>    1.8888    1.0000 </r>
       <r>    2.0047    1.0000 </r>
       <r>    2.8228    1.0000 </r>
       <r>    2.8358    1.0000 </r>
       <r>    3.1002    1.0000 </r>
       <r>    3.8711    1.0000 </r>
       <r>    3.9164    1.0000 </r>
       <r>    4.3761    1.0000 </r>
       <r>    4.5731    1.0000 </r>
       <r>    5.0026    1.0000 </r>
       <r>    5.1200    1.0000 </r>
       <r>    5.2167    1.0000 </r>
       <r>    5.4677    1.0000 </r>
       <r>    5.8749    1.0000 </r>
       <r>    6.0623    1.0000 </r>
       <r>    6.6031    1.0000 </r>
       <r>    7.1890    1.0000 </r>
       <r>    7.7010    1.0000 </r>
       <r>    7.7752    1.0000 </r>
       <r>   10.5092    0.0000 </r>
       <r>   11.6198    0.0000 </r>
       <r>   11.8586    0.0000 </r>
       <r>   12.0182    0.0000 </r>
       <r>   12.5147    0.0000 </r>
       <r>   12.9913    0.0000 </r>
       <r>   13.3074    0.0000 </r>
       <r>   13.5913    0.0000 </r>
       <r>   14.2490    0.0000 </r>
       <r>   14.6616    0.0000 </r>
       <r>   14.7625    0.0000 </r>
       <r>   15.1049    0.0000 </r>
      </set>
      <set comment="kpoint 4">
       <r>   -9.1607    1.0000 </r>
       <r>   -8.0437    1.0000 </r>
       <r>   -7.6923    1.0000 </r>
       <r>   -6.9344    1.0000 </r>
       <r>   -4.4942    1.0000 </r>
       <r>   -3.7457    1.0000 </r>
       <r>   -2.7983    1.0000 </r>
       <r>   -2.2386    1.0000 </r>
       <r>   -0.4186    1.0000 </r>
       <r>   -0.1713    1.0000 </r>
       <r>    0.3610    1.0000 </r>
       <r>    1.1388    1.0000 </r>
       <r>    1.3617    1.0000 </r>
       <r>    2.0900    1.0000 </r>
       <r>    2.2799    1.0000 </r>
       <r>    2.5996    1.0000 </r>
       <r>    2.7454    1.0000 </r>
       <r>    3.2036    1.0000 </r>
       <r>    3.4325    1.0000 </r>
       <r>    3.5695    1.0000 </r>
       <r>    4.0223    1.0000 </r>
       <r>    4.1540    1.0000 </r>
       <r>    4.3673    1.0000 </r>
       <r>    4.9671    1.0000 </r>
       <r>    5.2743    1.0000 </r>
       <r>    5.5954    1.0000 </r>
       <r>    5.8546    1.0000 </r>
       <r>    6.1804    1.0000 </r>
       <r>    6.8643    1.0000 </r>
       <r>    7.0884    1.0000 </r>
       <r>    7.2629    1.0000 </r>
       <r>    7.7608    1.0000 </r>
       <r>   10.9190    0.0000 </r>
       <r>   11.1177    0.0000 </r>
       <r>   11.4751    0.0000 </r>
       <r>   11.9454    0.0000 </r>
       <r>   12.1134    0.0000 </r>
       <r>   12.6373    0.0000 </r>
       <r>   12.8495    0.0000 </r>
       <r>   13.7452    0.0000 </r>
       <r>   14.3359    0.0000 </r>
       <r>   14.8080    0.0000 </r>
       <r>   15.1623    0.0000 </r>
       <r>   15.3073    0.0000 </r>
      </set>
      <set comment="kpoint 5">
       <r>   -9.0405    1.0000 </r>
       <r>   -7.9725    1.0000 </r>
       <r>   -7.6609    1.0000 </r>
       <r>   -7.0989    1.0000 </r>
       <r>   -4.5583    1.0000 </r>
       <r>   -4.0084    1.0000 </r>
       <r>   -2.8440    1.0000 </r>
       <r>   -2.2656    1.0000 </r>
       <r>   -0.6613    1.0000 </r>
       <r>   -0.1461    1.0000 </r>
       <r>    0.4764    1.0000 </r>
       <r>    1.0320    1.0000 </r>
       <r>    1.4942    1.0000 </r>
       <r>    1.9856    1.0000 </r>
       <r>    2.2261    1.0000 </r>
       <r>    2.4273    1.0000 </r>
       <r>    2.8733    1.0000 </r>
       <r>    3.3514    1.0000 </r>
       <r>    3.5746    1.0000 </r>
       <r>    4.0664    1.0000 </r>
       <r>    4.1770    1.0000 </r>
       <r>    4.4438    1.0000 </r>
       <r>    4.6880    1.0000 </r>
       <r>    5.1648    1.0000 </r>
       <r>    5.3185    1.0000 </r>
       <r>    5.7915    1.0000 </r>
       <r>    5.7968    1.0000 </r>
       <r>    6.1461    1.0000 </r>
       <r>    6.4871    1.0000 </r>
       <r>    7.0768    1.0000 </r>
       <r>    7.2159    1.0000 </r>
       <r>    7.6665    1.0000 </r>
       <r>   10.5612    0.0000 </r>
       <r>   10.9332    0.0000 </r>
       <r>   11.5480    0.0000 </r>
       <r>   12.1531    0.0000 </r>
       <r>   12.2642    0.0000 </r>
       <r>   12.7037    0.0000 </r>
       <r>   13.2221    0.0000 </r>
       <r>   13.7772    0.0000 </r>
       <r>   14.1520    0.0000 </r>
       <r>   14.5196    0.0000 </r>
       <r>   14.9180    0.0000 </r>
       <r>   15.2255    0.0000 </r>
      </set>
      <set comment="kpoint 6">
       <r>   -8.8968    1.0000 </r>
       <r>   -7.8844    1.0000 </r>
       <r>   -7.6314    1.0000 </r>
       <r>   -7.3019    1.0000 </r>
       <r>   -4.7117    1.0000 </r>
       <r>   -4.0869    1.0000 </r>
       <r>   -2.9677    1.0000 </r>
       <r>   -2.2199    1.0000 </r>
       <r>   -0.8398    1.0000 </r>
       <r>   -0.3854    1.0000 </r>
       <r>    0.4754    1.0000 </r>
       <r>    0.9044    1.0000 </r>
       <r>    1.5146    1.0000 </r>
       <r>    1.8574    1.0000 </r>
       <r>    2.5845    1.0000 </r>
       <r>    2.7433    1.0000 </r>
       <r>    3.0667    1.0000 </r>
       <r>    3.5180    1.0000 </r>
       <r>    3.8957    1.0000 </r>
       <r>    4.1806    1.0000 </r>
       <r>    4.3576    1.0000 </r>
       <r>    4.7665    1.0000 </r>
       <r>    4.9099    1.0000 </r>
       <r>    5.1357    1.0000 </r>
       <r>    5.2930    1.0000 </r>
       <r>    5.4561    1.0000 </r>
       <r>    5.6973    1.0000 </r>
       <r>    6.1136    1.0000 </r>
       <r>    6.5281    1.0000 </r>
       <r>    7.0003    1.0000 </r>
       <r>    7.3119    1.0000 </r>
       <r>    7.5961    1.0000 </r>
       <r>   10.6824    0.0000 </r>
       <r>   10.8930    0.0000 </r>
       <r>   11.7326    0.0000 </r>
       <r>   11.8469    0.0000 </r>
       <r>   12.4296    0.0000 </r>
       <r>   12.6508    0.0000 </r>
       <r>   13.0240    0.0000 </r>
       <r>   13.5651    0.0000 </r>
       <r>   13.8254    0.0000 </r>
       <r>   14.3678    0.0000 </r>
       <r>   14.4583    0.0000 </r>
       <r>   14.8305    0.0000 </r>
      </set>
      <set comment="kpoint 7">
       <r>   -9.0423    1.0000 </r>
       <r>   -7.9675    1.0000 </r>
       <r>   -7.6611    1.0000 </r>
       <r>   -7.1032    1.0000 </r>
       <r>   -4.4996    1.0000 </r>
       <r>   -4.0811    1.0000 </r>
       <r>   -2.8642    1.0000 </r>
       <r>   -2.2254    1.0000 </r>
       <r>   -0.6396    1.0000 </r>
       <r>   -0.1877    1.0000 </r>
       <r>    0.5903    1.0000 </r>
       <r>    0.9595    1.0000 </r>
       <r>    1.4149    1.0000 </r>
       <r>    1.9019    1.0000 </r>
       <r>    2.1440    1.0000 </r>
       <r>    2.5019    1.0000 </r>
       <r>    2.9957    1.0000 </r>
       <r>    3.3469    1.0000 </r>
       <r>    3.6582    1.0000 </r>
       <r>    4.0218    1.0000 </r>
       <r>    4.3139    1.0000 </r>
       <r>    4.5186    1.0000 </r>
       <r>    4.7985    1.0000 </r>
       <r>    5.0232    1.0000 </r>
       <r>    5.3418    1.0000 </r>
       <r>    5.5365    1.0000 </r>
       <r>    5.7510    1.0000 </r>
       <r>    6.1603    1.0000 </r>
       <r>    6.4430    1.0000 </r>
       <r>    7.1164    1.0000 </r>
       <r>    7.2746    1.0000 </r>
       <r>    7.6640    1.0000 </r>
       <r>   10.7859    0.0000 </r>
       <r>   10.8436    0.0000 </r>
       <r>   11.7021    0.0000 </r>
       <r>   11.9479    0.0000 </r>
       <r>   12.0683    0.0000 </r>
       <r>   12.6187    0.0000 </r>
       <r>   12.9674    0.0000 </r>
       <r>   13.8437    0.0000 </r>
       <r>   14.2245    0.0000 </r>
       <r>   14.6876    0.0000 </r>
       <r>   15.0347    0.0000 </r>
       <r>   15.4286    0.0000 </r>
      </set>
      <set comment="kpoint 8">
       <r>   -8.9667    1.0000 </r>
       <r>   -8.2277    1.0000 </r>
       <r>   -7.7303    1.0000 </r>
       <r>   -6.9327    1.0000 </r>
       <r>   -4.5756    1.0000 </r>
       <r>   -3.7312    1.0000 </r>
       <r>   -2.7322    1.0000 </r>
       <r>   -2.4961    1.0000 </r>
       <r>   -0.4863    1.0000 </r>
       <r>    0.0076    1.0000 </r>
       <r>    0.4920    1.0000 </r>
       <r>    0.9927    1.0000 </r>
       <r>    1.9104    1.0000 </r>
       <r>    2.0640    1.0000 </r>
       <r>    2.1634    1.0000 </r>
       <r>    2.4877    1.0000 </r>
       <r>    2.7038    1.0000 </r>
       <r>    3.0025    1.0000 </r>
       <r>    3.4903    1.0000 </r>
       <r>    3.9121    1.0000 </r>
       <r>    3.9943    1.0000 </r>
       <r>    4.2755    1.0000 </r>
       <r>    4.5230    1.0000 </r>
       <r>    4.9890    1.0000 </r>
       <r>    5.2689    1.0000 </r>
       <r>    5.4396    1.0000 </r>
       <r>    6.1624    1.0000 </r>
       <r>    6.3091    1.0000 </r>
       <r>    6.4074    1.0000 </r>
       <r>    6.8759    1.0000 </r>
       <r>    7.5755    1.0000 </r>
       <r>    7.8447    1.0000 </r>
       <r>   10.3080    0.0000 </r>
       <r>   10.7385    0.0000 </r>
       <r>   11.7834    0.0000 </r>
       <r>   11.9107    0.0000 </r>
       <r>   12.3355    0.0000 </r>
       <r>   12.6903    0.0000 </r>
       <r>   13.4605    0.0000 </r>
       <r>   13.8722    0.0000 </r>
       <r>   13.9152    0.0000 </r>
       <r>   14.1947    0.0000 </r>
       <r>   14.5453    0.0000 </r>
       <r>   15.1184    0.0000 </r>
      </set>
      <set comment="kpoint 9">
       <r>   -8.8568    1.0000 </r>
       <r>   -8.1396    1.0000 </r>
       <r>   -7.6958    1.0000 </r>
       <r>   -7.0875    1.0000 </r>
       <r>   -4.5197    1.0000 </r>
       <r>   -4.1079    1.0000 </r>
       <r>   -2.9989    1.0000 </r>
       <r>   -2.3674    1.0000 </r>
       <r>   -0.8375    1.0000 </r>
       <r>    0.0076    1.0000 </r>
       <r>    0.6282    1.0000 </r>
       <r>    1.2466    1.0000 </r>
       <r>    1.5220    1.0000 </r>
       <r>    1.7648    1.0000 </r>
       <r>    2.3483    1.0000 </r>
       <r>    2.7190    1.0000 </r>
       <r>    3.0723    1.0000 </r>
       <r>    3.2617    1.0000 </r>
       <r>    3.9086    1.0000 </r>
       <r>    4.0962    1.0000 </r>
       <r>    4.2653    1.0000 </r>
       <r>    4.5257    1.0000 </r>
       <r>    4.5722    1.0000 </r>
       <r>    4.8515    1.0000 </r>
       <r>    5.3479    1.0000 </r>
       <r>    5.7988    1.0000 </r>
       <r>    5.9691    1.0000 </r>
       <r>    6.1878    1.0000 </r>
       <r>    6.4746    1.0000 </r>
       <r>    6.8130    1.0000 </r>
       <r>    7.4382    1.0000 </r>
       <r>    7.6708    1.0000 </r>
       <r>   10.1093    0.0000 </r>
       <r>   10.5793    0.0000 </r>
       <r>   11.3268    0.0000 </r>
       <r>   11.6930    0.0000 </r>
       <r>   12.1679    0.0000 </r>
       <r>   12.5401    0.0000 </r>
       <r>   13.3234    0.0000 </r>
       <r>   13.8412    0.0000 </r>
       <r>   14.1418    0.0000 </r>
       <r>   14.3877    0.0000 </r>
       <r>   14.7087    0.0000 </r>
       <r>   15.0686    0.0000 </r>
      </set>
      <set comment="kpoint 10">
       <r>   -8.7261    1.0000 </r>
       <r>   -8.0294    1.0000 </r>
       <r>   -7.6629    1.0000 </r>
       <r>   -7.2811    1.0000 </r>
       <r>   -4.5741    1.0000 </r>
       <r>   -4.2766    1.0000 </r>
       <r>   -3.2752    1.0000 </r>
       <r>   -2.1904    1.0000 </r>
       <r>   -1.0769    1.0000 </r>
       <r>   -0.3769    1.0000 </r>
       <r>    0.6814    1.0000 </r>
       <r>    1.1921    1.0000 </r>
       <r>    1.4912    1.0000 </r>
       <r>    1.9029    1.0000 </r>
       <r>    2.6386    1.0000 </r>
       <r>    3.0592    1.0000 </r>
       <r>    3.1956    1.0000 </r>
       <r>    3.5173    1.0000 </r>
       <r>    4.1564    1.0000 </r>
       <r>    4.3351    1.0000 </r>
       <r>    4.5540    1.0000 </r>
       <r>    4.7538    1.0000 </r>
       <r>    4.8910    1.0000 </r>
       <r>    5.1611    1.0000 </r>
       <r>    5.3366    1.0000 </r>
       <r>    5.4587    1.0000 </r>
       <r>    5.9077    1.0000 </r>
       <r>    5.9744    1.0000 </r>
       <r>    6.3763    1.0000 </r>
       <r>    6.5909    1.0000 </r>
       <r>    7.2908    1.0000 </r>
       <r>    7.5067    1.0000 </r>
       <r>   10.1050    0.0000 </r>
       <r>   10.5894    0.0000 </r>
       <r>   11.3629    0.0000 </r>
       <r>   11.7261    0.0000 </r>
       <r>   12.2028    0.0000 </r>
       <r>   12.6533    0.0000 </r>
       <r>   13.0947    0.0000 </r>
       <r>   13.2509    0.0000 </r>
       <r>   13.5434    0.0000 </r>
       <r>   14.0485    0.0000 </r>
       <r>   14.2242    0.0000 </r>
       <r>   14.7592    0.0000 </r>
      </set>
      <set comment="kpoint 11">
       <r>   -9.0702    1.0000 </r>
       <r>   -8.4467    1.0000 </r>
       <r>   -7.3800    1.0000 </r>
       <r>   -6.9699    1.0000 </r>
       <r>   -4.4846    1.0000 </r>
       <r>   -3.4752    1.0000 </r>
       <r>   -2.9542    1.0000 </r>
       <r>   -2.3118    1.0000 </r>
       <r>   -0.1249    1.0000 </r>
       <r>    0.0133    1.0000 </r>
       <r>    0.6597    1.0000 </r>
       <r>    0.9693    1.0000 </r>
       <r>    1.0714    1.0000 </r>
       <r>    1.9843    1.0000 </r>
       <r>    2.4656    1.0000 </r>
       <r>    2.7326    1.0000 </r>
       <r>    2.7652    1.0000 </r>
       <r>    3.1579    1.0000 </r>
       <r>    3.3176    1.0000 </r>
       <r>    3.6298    1.0000 </r>
       <r>    3.9383    1.0000 </r>
       <r>    4.1858    1.0000 </r>
       <r>    4.3712    1.0000 </r>
       <r>    4.6263    1.0000 </r>
       <r>    4.8086    1.0000 </r>
       <r>    5.1846    1.0000 </r>
       <r>    5.7911    1.0000 </r>
       <r>    6.3432    1.0000 </r>
       <r>    6.4741    1.0000 </r>
       <r>    6.7481    1.0000 </r>
       <r>    7.0944    1.0000 </r>
       <r>    7.7009    1.0000 </r>
       <r>   10.7047    0.0000 </r>
       <r>   11.3185    0.0000 </r>
       <r>   11.7584    0.0000 </r>
       <r>   12.7286    0.0000 </r>
       <r>   13.0696    0.0000 </r>
       <r>   13.1881    0.0000 </r>
       <r>   13.8854    0.0000 </r>
       <r>   14.1042    0.0000 </r>
       <r>   14.5471    0.0000 </r>
       <r>   14.9942    0.0000 </r>
       <r>   15.1179    0.0000 </r>
       <r>   15.7953    0.0000 </r>
      </set>
      <set comment="kpoint 12">
       <r>   -8.9508    1.0000 </r>
       <r>   -8.3599    1.0000 </r>
       <r>   -7.3709    1.0000 </r>
       <r>   -7.1249    1.0000 </r>
       <r>   -4.6641    1.0000 </r>
       <r>   -3.7454    1.0000 </r>
       <r>   -2.9579    1.0000 </r>
       <r>   -2.2680    1.0000 </r>
       <r>   -0.4143    1.0000 </r>
       <r>    0.4121    1.0000 </r>
       <r>    0.7805    1.0000 </r>
       <r>    1.1442    1.0000 </r>
       <r>    1.1987    1.0000 </r>
       <r>    1.6779    1.0000 </r>
       <r>    2.0332    1.0000 </r>
       <r>    2.3873    1.0000 </r>
       <r>    2.7210    1.0000 </r>
       <r>    3.3532    1.0000 </r>
       <r>    3.6619    1.0000 </r>
       <r>    3.8692    1.0000 </r>
       <r>    4.0393    1.0000 </r>
       <r>    4.4590    1.0000 </r>
       <r>    4.6512    1.0000 </r>
       <r>    4.8802    1.0000 </r>
       <r>    4.9416    1.0000 </r>
       <r>    5.4415    1.0000 </r>
       <r>    5.7699    1.0000 </r>
       <r>    6.0074    1.0000 </r>
       <r>    6.2615    1.0000 </r>
       <r>    6.7667    1.0000 </r>
       <r>    7.0832    1.0000 </r>
       <r>    7.6281    1.0000 </r>
       <r>   11.3592    0.0000 </r>
       <r>   11.7196    0.0000 </r>
       <r>   12.1111    0.0000 </r>
       <r>   12.6844    0.0000 </r>
       <r>   13.0098    0.0000 </r>
       <r>   13.2441    0.0000 </r>
       <r>   13.5808    0.0000 </r>
       <r>   13.9687    0.0000 </r>
       <r>   14.2071    0.0000 </r>
       <r>   14.4629    0.0000 </r>
       <r>   14.6764    0.0000 </r>
       <r>   15.0328    0.0000 </r>
      </set>
      <set comment="kpoint 13">
       <r>   -8.8048    1.0000 </r>
       <r>   -8.2583    1.0000 </r>
       <r>   -7.4062    1.0000 </r>
       <r>   -7.2770    1.0000 </r>
       <r>   -4.8825    1.0000 </r>
       <r>   -3.9005    1.0000 </r>
       <r>   -2.9366    1.0000 </r>
       <r>   -2.1374    1.0000 </r>
       <r>   -0.8093    1.0000 </r>
       <r>    0.0857    1.0000 </r>
       <r>    0.8743    1.0000 </r>
       <r>    1.3314    1.0000 </r>
       <r>    1.4542    1.0000 </r>
       <r>    1.7302    1.0000 </r>
       <r>    2.4420    1.0000 </r>
       <r>    2.7197    1.0000 </r>
       <r>    2.8362    1.0000 </r>
       <r>    3.1671    1.0000 </r>
       <r>    3.3731    1.0000 </r>
       <r>    3.7240    1.0000 </r>
       <r>    4.0254    1.0000 </r>
       <r>    4.3389    1.0000 </r>
       <r>    4.6866    1.0000 </r>
       <r>    5.0441    1.0000 </r>
       <r>    5.2254    1.0000 </r>
       <r>    5.5341    1.0000 </r>
       <r>    5.8321    1.0000 </r>
       <r>    5.9825    1.0000 </r>
       <r>    6.5406    1.0000 </r>
       <r>    6.7994    1.0000 </r>
       <r>    7.1925    1.0000 </r>
       <r>    7.5530    1.0000 </r>
       <r>   11.5951    0.0000 </r>
       <r>   12.1789    0.0000 </r>
       <r>   12.4364    0.0000 </r>
       <r>   12.6941    0.0000 </r>
       <r>   13.0143    0.0000 </r>
       <r>   13.1336    0.0000 </r>
       <r>   13.3648    0.0000 </r>
       <r>   13.5260    0.0000 </r>
       <r>   13.8402    0.0000 </r>
       <r>   14.3229    0.0000 </r>
       <r>   14.4227    0.0000 </r>
       <r>   14.6947    0.0000 </r>
      </set>
      <set comment="kpoint 14">
       <r>   -8.9501    1.0000 </r>
       <r>   -8.3612    1.0000 </r>
       <r>   -7.3625    1.0000 </r>
       <r>   -7.1355    1.0000 </r>
       <r>   -4.6402    1.0000 </r>
       <r>   -3.7768    1.0000 </r>
       <r>   -2.9583    1.0000 </r>
       <r>   -2.2584    1.0000 </r>
       <r>   -0.4068    1.0000 </r>
       <r>    0.4007    1.0000 </r>
       <r>    0.7622    1.0000 </r>
       <r>    1.1167    1.0000 </r>
       <r>    1.2192    1.0000 </r>
       <r>    1.6992    1.0000 </r>
       <r>    2.0897    1.0000 </r>
       <r>    2.3390    1.0000 </r>
       <r>    2.7876    1.0000 </r>
       <r>    3.4206    1.0000 </r>
       <r>    3.6783    1.0000 </r>
       <r>    3.8603    1.0000 </r>
       <r>    3.9157    1.0000 </r>
       <r>    4.3216    1.0000 </r>
       <r>    4.5463    1.0000 </r>
       <r>    4.8924    1.0000 </r>
       <r>    5.1676    1.0000 </r>
       <r>    5.4003    1.0000 </r>
       <r>    5.7287    1.0000 </r>
       <r>    5.9929    1.0000 </r>
       <r>    6.3390    1.0000 </r>
       <r>    6.8822    1.0000 </r>
       <r>    6.9911    1.0000 </r>
       <r>    7.6183    1.0000 </r>
       <r>   11.4215    0.0000 </r>
       <r>   11.6647    0.0000 </r>
       <r>   12.1806    0.0000 </r>
       <r>   12.6064    0.0000 </r>
       <r>   12.9533    0.0000 </r>
       <r>   13.2051    0.0000 </r>
       <r>   13.6715    0.0000 </r>
       <r>   13.9636    0.0000 </r>
       <r>   14.2126    0.0000 </r>
       <r>   14.5057    0.0000 </r>
       <r>   14.7015    0.0000 </r>
       <r>   14.9824    0.0000 </r>
      </set>
      <set comment="kpoint 15">
       <r>   -8.9581    1.0000 </r>
       <r>   -8.3779    1.0000 </r>
       <r>   -7.5830    1.0000 </r>
       <r>   -6.9760    1.0000 </r>
       <r>   -4.6700    1.0000 </r>
       <r>   -3.5648    1.0000 </r>
       <r>   -2.8149    1.0000 </r>
       <r>   -2.3255    1.0000 </r>
       <r>   -0.1111    1.0000 </r>
       <r>    0.2549    1.0000 </r>
       <r>    0.5070    1.0000 </r>
       <r>    1.0446    1.0000 </r>
       <r>    1.4912    1.0000 </r>
       <r>    1.8671    1.0000 </r>
       <r>    2.2999    1.0000 </r>
       <r>    2.5940    1.0000 </r>
       <r>    2.8639    1.0000 </r>
       <r>    3.0099    1.0000 </r>
       <r>    3.1886    1.0000 </r>
       <r>    3.6653    1.0000 </r>
       <r>    3.8556    1.0000 </r>
       <r>    4.2374    1.0000 </r>
       <r>    4.5855    1.0000 </r>
       <r>    4.7851    1.0000 </r>
       <r>    5.0915    1.0000 </r>
       <r>    5.4325    1.0000 </r>
       <r>    5.6511    1.0000 </r>
       <r>    6.1483    1.0000 </r>
       <r>    6.2883    1.0000 </r>
       <r>    6.9133    1.0000 </r>
       <r>    7.2349    1.0000 </r>
       <r>    7.4992    1.0000 </r>
       <r>   11.1515    0.0000 </r>
       <r>   11.4572    0.0000 </r>
       <r>   11.8735    0.0000 </r>
       <r>   12.1265    0.0000 </r>
       <r>   12.9674    0.0000 </r>
       <r>   13.2438    0.0000 </r>
       <r>   13.3242    0.0000 </r>
       <r>   14.0256    0.0000 </r>
       <r>   14.2361    0.0000 </r>
       <r>   14.7187    0.0000 </r>
       <r>   15.0616    0.0000 </r>
       <r>   15.3857    0.0000 </r>
      </set>
      <set comment="kpoint 16">
       <r>   -8.8422    1.0000 </r>
       <r>   -8.2958    1.0000 </r>
       <r>   -7.5562    1.0000 </r>
       <r>   -7.1149    1.0000 </r>
       <r>   -4.7245    1.0000 </r>
       <r>   -3.9152    1.0000 </r>
       <r>   -2.9174    1.0000 </r>
       <r>   -2.4179    1.0000 </r>
       <r>   -0.1992    1.0000 </r>
       <r>    0.1576    1.0000 </r>
       <r>    0.7856    1.0000 </r>
       <r>    1.1710    1.0000 </r>
       <r>    1.5888    1.0000 </r>
       <r>    1.9727    1.0000 </r>
       <r>    2.1964    1.0000 </r>
       <r>    2.5233    1.0000 </r>
       <r>    2.9350    1.0000 </r>
       <r>    3.2308    1.0000 </r>
       <r>    3.4800    1.0000 </r>
       <r>    3.7605    1.0000 </r>
       <r>    4.1151    1.0000 </r>
       <r>    4.2697    1.0000 </r>
       <r>    4.5301    1.0000 </r>
       <r>    4.8135    1.0000 </r>
       <r>    4.9498    1.0000 </r>
       <r>    5.3174    1.0000 </r>
       <r>    5.8638    1.0000 </r>
       <r>    6.3240    1.0000 </r>
       <r>    6.4730    1.0000 </r>
       <r>    6.7343    1.0000 </r>
       <r>    7.1734    1.0000 </r>
       <r>    7.3554    1.0000 </r>
       <r>   11.0948    0.0000 </r>
       <r>   11.5977    0.0000 </r>
       <r>   11.9757    0.0000 </r>
       <r>   12.2685    0.0000 </r>
       <r>   12.9258    0.0000 </r>
       <r>   13.3144    0.0000 </r>
       <r>   13.5396    0.0000 </r>
       <r>   13.8747    0.0000 </r>
       <r>   13.9844    0.0000 </r>
       <r>   14.4332    0.0000 </r>
       <r>   14.7438    0.0000 </r>
       <r>   15.3377    0.0000 </r>
      </set>
      <set comment="kpoint 17">
       <r>   -8.7030    1.0000 </r>
       <r>   -8.2016    1.0000 </r>
       <r>   -7.5270    1.0000 </r>
       <r>   -7.2928    1.0000 </r>
       <r>   -4.7927    1.0000 </r>
       <r>   -4.1704    1.0000 </r>
       <r>   -3.0609    1.0000 </r>
       <r>   -2.4578    1.0000 </r>
       <r>   -0.4589    1.0000 </r>
       <r>    0.0968    1.0000 </r>
       <r>    0.9412    1.0000 </r>
       <r>    1.3031    1.0000 </r>
       <r>    1.8142    1.0000 </r>
       <r>    2.1105    1.0000 </r>
       <r>    2.2931    1.0000 </r>
       <r>    2.4312    1.0000 </r>
       <r>    3.0468    1.0000 </r>
       <r>    3.0960    1.0000 </r>
       <r>    3.7207    1.0000 </r>
       <r>    4.0014    1.0000 </r>
       <r>    4.1313    1.0000 </r>
       <r>    4.5300    1.0000 </r>
       <r>    4.7112    1.0000 </r>
       <r>    4.9337    1.0000 </r>
       <r>    5.1407    1.0000 </r>
       <r>    5.4140    1.0000 </r>
       <r>    5.7133    1.0000 </r>
       <r>    6.0061    1.0000 </r>
       <r>    6.4452    1.0000 </r>
       <r>    6.6116    1.0000 </r>
       <r>    7.2281    1.0000 </r>
       <r>    7.2679    1.0000 </r>
       <r>   11.1486    0.0000 </r>
       <r>   11.7928    0.0000 </r>
       <r>   12.2174    0.0000 </r>
       <r>   12.3735    0.0000 </r>
       <r>   12.5170    0.0000 </r>
       <r>   12.8725    0.0000 </r>
       <r>   13.1990    0.0000 </r>
       <r>   13.8001    0.0000 </r>
       <r>   13.9208    0.0000 </r>
       <r>   14.2481    0.0000 </r>
       <r>   14.7604    0.0000 </r>
       <r>   14.9372    0.0000 </r>
      </set>
      <set comment="kpoint 18">
       <r>   -8.8429    1.0000 </r>
       <r>   -8.2983    1.0000 </r>
       <r>   -7.5475    1.0000 </r>
       <r>   -7.1207    1.0000 </r>
       <r>   -4.6949    1.0000 </r>
       <r>   -3.9565    1.0000 </r>
       <r>   -2.9395    1.0000 </r>
       <r>   -2.3879    1.0000 </r>
       <r>   -0.1679    1.0000 </r>
       <r>    0.1131    1.0000 </r>
       <r>    0.9205    1.0000 </r>
       <r>    1.0894    1.0000 </r>
       <r>    1.6244    1.0000 </r>
       <r>    1.8967    1.0000 </r>
       <r>    2.1783    1.0000 </r>
       <r>    2.4088    1.0000 </r>
       <r>    2.9134    1.0000 </r>
       <r>    3.3051    1.0000 </r>
       <r>    3.5043    1.0000 </r>
       <r>    3.7601    1.0000 </r>
       <r>    4.1054    1.0000 </r>
       <r>    4.2770    1.0000 </r>
       <r>    4.6475    1.0000 </r>
       <r>    4.8915    1.0000 </r>
       <r>    5.0349    1.0000 </r>
       <r>    5.4630    1.0000 </r>
       <r>    5.7019    1.0000 </r>
       <r>    6.1399    1.0000 </r>
       <r>    6.4380    1.0000 </r>
       <r>    6.5582    1.0000 </r>
       <r>    7.3010    1.0000 </r>
       <r>    7.4135    1.0000 </r>
       <r>   11.1623    0.0000 </r>
       <r>   11.6580    0.0000 </r>
       <r>   12.0622    0.0000 </r>
       <r>   12.2588    0.0000 </r>
       <r>   12.5961    0.0000 </r>
       <r>   13.0922    0.0000 </r>
       <r>   13.5855    0.0000 </r>
       <r>   13.9236    0.0000 </r>
       <r>   13.9690    0.0000 </r>
       <r>   14.3719    0.0000 </r>
       <r>   14.4360    0.0000 </r>
       <r>   14.8671    0.0000 </r>
      </set>
      <set comment="kpoint 19">
       <r>   -8.7882    1.0000 </r>
       <r>   -8.3649    1.0000 </r>
       <r>   -7.7452    1.0000 </r>
       <r>   -7.0298    1.0000 </r>
       <r>   -4.8123    1.0000 </r>
       <r>   -3.6518    1.0000 </r>
       <r>   -2.6886    1.0000 </r>
       <r>   -2.3609    1.0000 </r>
       <r>   -0.0665    1.0000 </r>
       <r>    0.2011    1.0000 </r>
       <r>    0.6616    1.0000 </r>
       <r>    1.1840    1.0000 </r>
       <r>    1.8119    1.0000 </r>
       <r>    1.9008    1.0000 </r>
       <r>    2.1567    1.0000 </r>
       <r>    2.4796    1.0000 </r>
       <r>    2.7204    1.0000 </r>
       <r>    2.9812    1.0000 </r>
       <r>    3.1980    1.0000 </r>
       <r>    3.6676    1.0000 </r>
       <r>    3.8549    1.0000 </r>
       <r>    4.0478    1.0000 </r>
       <r>    4.6142    1.0000 </r>
       <r>    4.9919    1.0000 </r>
       <r>    5.1123    1.0000 </r>
       <r>    5.6846    1.0000 </r>
       <r>    6.0592    1.0000 </r>
       <r>    6.2355    1.0000 </r>
       <r>    6.3868    1.0000 </r>
       <r>    6.6812    1.0000 </r>
       <r>    6.7888    1.0000 </r>
       <r>    7.4578    1.0000 </r>
       <r>   11.0566    0.0000 </r>
       <r>   11.5949    0.0000 </r>
       <r>   12.3572    0.0000 </r>
       <r>   12.7681    0.0000 </r>
       <r>   12.9468    0.0000 </r>
       <r>   13.0847    0.0000 </r>
       <r>   13.2659    0.0000 </r>
       <r>   13.5508    0.0000 </r>
       <r>   13.8789    0.0000 </r>
       <r>   14.2420    0.0000 </r>
       <r>   14.4145    0.0000 </r>
       <r>   15.0746    0.0000 </r>
      </set>
      <set comment="kpoint 20">
       <r>   -8.6815    1.0000 </r>
       <r>   -8.2805    1.0000 </r>
       <r>   -7.7045    1.0000 </r>
       <r>   -7.1464    1.0000 </r>
       <r>   -4.7718    1.0000 </r>
       <r>   -4.0563    1.0000 </r>
       <r>   -2.8770    1.0000 </r>
       <r>   -2.6020    1.0000 </r>
       <r>   -0.1351    1.0000 </r>
       <r>    0.1659    1.0000 </r>
       <r>    0.7482    1.0000 </r>
       <r>    1.4090    1.0000 </r>
       <r>    1.8349    1.0000 </r>
       <r>    2.1306    1.0000 </r>
       <r>    2.3705    1.0000 </r>
       <r>    2.6925    1.0000 </r>
       <r>    2.8293    1.0000 </r>
       <r>    3.2163    1.0000 </r>
       <r>    3.5269    1.0000 </r>
       <r>    3.7610    1.0000 </r>
       <r>    4.0625    1.0000 </r>
       <r>    4.2118    1.0000 </r>
       <r>    4.2936    1.0000 </r>
       <r>    4.4757    1.0000 </r>
       <r>    5.4097    1.0000 </r>
       <r>    5.6548    1.0000 </r>
       <r>    5.9482    1.0000 </r>
       <r>    6.2410    1.0000 </r>
       <r>    6.4660    1.0000 </r>
       <r>    6.5950    1.0000 </r>
       <r>    6.9318    1.0000 </r>
       <r>    7.3434    1.0000 </r>
       <r>   10.8208    0.0000 </r>
       <r>   11.3176    0.0000 </r>
       <r>   12.1424    0.0000 </r>
       <r>   12.5753    0.0000 </r>
       <r>   12.7539    0.0000 </r>
       <r>   12.9254    0.0000 </r>
       <r>   13.3339    0.0000 </r>
       <r>   13.4652    0.0000 </r>
       <r>   14.1064    0.0000 </r>
       <r>   14.2860    0.0000 </r>
       <r>   14.4995    0.0000 </r>
       <r>   14.7913    0.0000 </r>
      </set>
      <set comment="kpoint 21">
       <r>   -8.5544    1.0000 </r>
       <r>   -8.1793    1.0000 </r>
       <r>   -7.6596    1.0000 </r>
       <r>   -7.3089    1.0000 </r>
       <r>   -4.6694    1.0000 </r>
       <r>   -4.3910    1.0000 </r>
       <r>   -3.2534    1.0000 </r>
       <r>   -2.7138    1.0000 </r>
       <r>   -0.2271    1.0000 </r>
       <r>    0.1816    1.0000 </r>
       <r>    1.1365    1.0000 </r>
       <r>    1.4903    1.0000 </r>
       <r>    1.6638    1.0000 </r>
       <r>    1.8838    1.0000 </r>
       <r>    2.4378    1.0000 </r>
       <r>    2.9220    1.0000 </r>
       <r>    3.0670    1.0000 </r>
       <r>    3.2538    1.0000 </r>
       <r>    3.8737    1.0000 </r>
       <r>    4.1207    1.0000 </r>
       <r>    4.3658    1.0000 </r>
       <r>    4.4670    1.0000 </r>
       <r>    4.7013    1.0000 </r>
       <r>    4.9684    1.0000 </r>
       <r>    5.2459    1.0000 </r>
       <r>    5.3481    1.0000 </r>
       <r>    5.6716    1.0000 </r>
       <r>    6.0124    1.0000 </r>
       <r>    6.2728    1.0000 </r>
       <r>    6.4090    1.0000 </r>
       <r>    6.7562    1.0000 </r>
       <r>    7.1592    1.0000 </r>
       <r>   10.8448    0.0000 </r>
       <r>   11.2794    0.0000 </r>
       <r>   12.0727    0.0000 </r>
       <r>   12.3555    0.0000 </r>
       <r>   12.5342    0.0000 </r>
       <r>   12.9162    0.0000 </r>
       <r>   13.2483    0.0000 </r>
       <r>   13.4791    0.0000 </r>
       <r>   13.8733    0.0000 </r>
       <r>   14.0475    0.0000 </r>
       <r>   14.7303    0.0000 </r>
       <r>   14.8538    0.0000 </r>
      </set>
      <set comment="kpoint 22">
       <r>   -8.6801    1.0000 </r>
       <r>   -8.2833    1.0000 </r>
       <r>   -7.7031    1.0000 </r>
       <r>   -7.1470    1.0000 </r>
       <r>   -4.7701    1.0000 </r>
       <r>   -4.0504    1.0000 </r>
       <r>   -2.8920    1.0000 </r>
       <r>   -2.6040    1.0000 </r>
       <r>   -0.1192    1.0000 </r>
       <r>    0.1925    1.0000 </r>
       <r>    0.7453    1.0000 </r>
       <r>    1.3678    1.0000 </r>
       <r>    1.8155    1.0000 </r>
       <r>    2.1660    1.0000 </r>
       <r>    2.3596    1.0000 </r>
       <r>    2.6473    1.0000 </r>
       <r>    2.8745    1.0000 </r>
       <r>    3.2562    1.0000 </r>
       <r>    3.5719    1.0000 </r>
       <r>    3.7470    1.0000 </r>
       <r>    3.9585    1.0000 </r>
       <r>    4.1838    1.0000 </r>
       <r>    4.2808    1.0000 </r>
       <r>    4.5206    1.0000 </r>
       <r>    5.4690    1.0000 </r>
       <r>    5.7033    1.0000 </r>
       <r>    5.9862    1.0000 </r>
       <r>    6.0872    1.0000 </r>
       <r>    6.4722    1.0000 </r>
       <r>    6.5820    1.0000 </r>
       <r>    6.9783    1.0000 </r>
       <r>    7.3515    1.0000 </r>
       <r>   10.8245    0.0000 </r>
       <r>   11.2968    0.0000 </r>
       <r>   12.1361    0.0000 </r>
       <r>   12.5555    0.0000 </r>
       <r>   12.7993    0.0000 </r>
       <r>   13.1069    0.0000 </r>
       <r>   13.2020    0.0000 </r>
       <r>   13.3111    0.0000 </r>
       <r>   14.2532    0.0000 </r>
       <r>   14.3323    0.0000 </r>
       <r>   14.4092    0.0000 </r>
       <r>   14.9516    0.0000 </r>
      </set>
      <set comment="kpoint 23">
       <r>   -8.9446    1.0000 </r>
       <r>   -8.4169    1.0000 </r>
       <r>   -7.5257    1.0000 </r>
       <r>   -7.0108    1.0000 </r>
       <r>   -4.6197    1.0000 </r>
       <r>   -3.7277    1.0000 </r>
       <r>   -2.6482    1.0000 </r>
       <r>   -2.3377    1.0000 </r>
       <r>   -0.1400    1.0000 </r>
       <r>    0.1206    1.0000 </r>
       <r>    0.6891    1.0000 </r>
       <r>    1.0198    1.0000 </r>
       <r>    1.5196    1.0000 </r>
       <r>    1.7786    1.0000 </r>
       <r>    2.2315    1.0000 </r>
       <r>    2.6182    1.0000 </r>
       <r>    2.7903    1.0000 </r>
       <r>    2.9933    1.0000 </r>
       <r>    3.3597    1.0000 </r>
       <r>    3.5993    1.0000 </r>
       <r>    3.9694    1.0000 </r>
       <r>    4.2341    1.0000 </r>
       <r>    4.5202    1.0000 </r>
       <r>    4.8513    1.0000 </r>
       <r>    5.1478    1.0000 </r>
       <r>    5.3655    1.0000 </r>
       <r>    5.5858    1.0000 </r>
       <r>    6.1536    1.0000 </r>
       <r>    6.3483    1.0000 </r>
       <r>    6.8893    1.0000 </r>
       <r>    7.2529    1.0000 </r>
       <r>    7.4636    1.0000 </r>
       <r>   11.1615    0.0000 </r>
       <r>   11.4320    0.0000 </r>
       <r>   11.8481    0.0000 </r>
       <r>   12.1147    0.0000 </r>
       <r>   12.9606    0.0000 </r>
       <r>   13.2313    0.0000 </r>
       <r>   13.3735    0.0000 </r>
       <r>   13.9742    0.0000 </r>
       <r>   14.2819    0.0000 </r>
       <r>   14.7142    0.0000 </r>
       <r>   15.0463    0.0000 </r>
       <r>   15.3972    0.0000 </r>
      </set>
      <set comment="kpoint 24">
       <r>   -8.8313    1.0000 </r>
       <r>   -8.3309    1.0000 </r>
       <r>   -7.4979    1.0000 </r>
       <r>   -7.1496    1.0000 </r>
       <r>   -4.6251    1.0000 </r>
       <r>   -4.1183    1.0000 </r>
       <r>   -2.6974    1.0000 </r>
       <r>   -2.5161    1.0000 </r>
       <r>   -0.2643    1.0000 </r>
       <r>    0.2650    1.0000 </r>
       <r>    0.7171    1.0000 </r>
       <r>    1.2301    1.0000 </r>
       <r>    1.6002    1.0000 </r>
       <r>    1.8461    1.0000 </r>
       <r>    2.1828    1.0000 </r>
       <r>    2.5190    1.0000 </r>
       <r>    2.8701    1.0000 </r>
       <r>    3.1114    1.0000 </r>
       <r>    3.6460    1.0000 </r>
       <r>    3.8176    1.0000 </r>
       <r>    4.1431    1.0000 </r>
       <r>    4.3294    1.0000 </r>
       <r>    4.6077    1.0000 </r>
       <r>    4.8354    1.0000 </r>
       <r>    5.1233    1.0000 </r>
       <r>    5.3366    1.0000 </r>
       <r>    5.6777    1.0000 </r>
       <r>    6.1828    1.0000 </r>
       <r>    6.3331    1.0000 </r>
       <r>    6.7527    1.0000 </r>
       <r>    7.2011    1.0000 </r>
       <r>    7.4378    1.0000 </r>
       <r>   11.1578    0.0000 </r>
       <r>   11.7288    0.0000 </r>
       <r>   12.0114    0.0000 </r>
       <r>   12.1650    0.0000 </r>
       <r>   12.7348    0.0000 </r>
       <r>   13.2153    0.0000 </r>
       <r>   13.3465    0.0000 </r>
       <r>   13.6225    0.0000 </r>
       <r>   14.0522    0.0000 </r>
       <r>   14.3656    0.0000 </r>
       <r>   14.6875    0.0000 </r>
       <r>   15.1364    0.0000 </r>
      </set>
      <set comment="kpoint 25">
       <r>   -8.6924    1.0000 </r>
       <r>   -8.2295    1.0000 </r>
       <r>   -7.4701    1.0000 </r>
       <r>   -7.3343    1.0000 </r>
       <r>   -4.7265    1.0000 </r>
       <r>   -4.2800    1.0000 </r>
       <r>   -2.9802    1.0000 </r>
       <r>   -2.4881    1.0000 </r>
       <r>   -0.4850    1.0000 </r>
       <r>    0.1312    1.0000 </r>
       <r>    0.9599    1.0000 </r>
       <r>    1.2884    1.0000 </r>
       <r>    1.7180    1.0000 </r>
       <r>    2.1714    1.0000 </r>
       <r>    2.2729    1.0000 </r>
       <r>    2.5226    1.0000 </r>
       <r>    2.9636    1.0000 </r>
       <r>    3.0999    1.0000 </r>
       <r>    3.7696    1.0000 </r>
       <r>    3.9672    1.0000 </r>
       <r>    4.2729    1.0000 </r>
       <r>    4.5006    1.0000 </r>
       <r>    4.6216    1.0000 </r>
       <r>    4.8520    1.0000 </r>
       <r>    5.1018    1.0000 </r>
       <r>    5.4929    1.0000 </r>
       <r>    5.7773    1.0000 </r>
       <r>    5.8996    1.0000 </r>
       <r>    6.4357    1.0000 </r>
       <r>    6.7521    1.0000 </r>
       <r>    7.0388    1.0000 </r>
       <r>    7.4131    1.0000 </r>
       <r>   11.1692    0.0000 </r>
       <r>   11.9107    0.0000 </r>
       <r>   12.0937    0.0000 </r>
       <r>   12.3298    0.0000 </r>
       <r>   12.5940    0.0000 </r>
       <r>   12.9151    0.0000 </r>
       <r>   13.1135    0.0000 </r>
       <r>   13.6827    0.0000 </r>
       <r>   13.8874    0.0000 </r>
       <r>   14.3150    0.0000 </r>
       <r>   14.6458    0.0000 </r>
       <r>   15.0009    0.0000 </r>
      </set>
      <set comment="kpoint 26">
       <r>   -8.8287    1.0000 </r>
       <r>   -8.3329    1.0000 </r>
       <r>   -7.4966    1.0000 </r>
       <r>   -7.1553    1.0000 </r>
       <r>   -4.6218    1.0000 </r>
       <r>   -4.1092    1.0000 </r>
       <r>   -2.7217    1.0000 </r>
       <r>   -2.4976    1.0000 </r>
       <r>   -0.2889    1.0000 </r>
       <r>    0.3082    1.0000 </r>
       <r>    0.6215    1.0000 </r>
       <r>    1.2293    1.0000 </r>
       <r>    1.6221    1.0000 </r>
       <r>    1.9966    1.0000 </r>
       <r>    2.2096    1.0000 </r>
       <r>    2.5368    1.0000 </r>
       <r>    2.9516    1.0000 </r>
       <r>    3.1590    1.0000 </r>
       <r>    3.4978    1.0000 </r>
       <r>    3.7075    1.0000 </r>
       <r>    4.0472    1.0000 </r>
       <r>    4.3113    1.0000 </r>
       <r>    4.4824    1.0000 </r>
       <r>    4.8159    1.0000 </r>
       <r>    4.9645    1.0000 </r>
       <r>    5.5408    1.0000 </r>
       <r>    5.8142    1.0000 </r>
       <r>    6.1344    1.0000 </r>
       <r>    6.4800    1.0000 </r>
       <r>    6.8483    1.0000 </r>
       <r>    7.1361    1.0000 </r>
       <r>    7.3940    1.0000 </r>
       <r>   11.1481    0.0000 </r>
       <r>   11.6070    0.0000 </r>
       <r>   11.8452    0.0000 </r>
       <r>   12.1900    0.0000 </r>
       <r>   13.0846    0.0000 </r>
       <r>   13.3416    0.0000 </r>
       <r>   13.4784    0.0000 </r>
       <r>   13.8979    0.0000 </r>
       <r>   14.0270    0.0000 </r>
       <r>   14.3880    0.0000 </r>
       <r>   14.5262    0.0000 </r>
       <r>   14.9272    0.0000 </r>
      </set>
     </set>
    </set>
   </array>
  </eigenvalues>
  <separator name="orbital magnetization" >
   <v name="MAGDIPOLOUT">      0.00000000      0.00000000      0.00000000</v>
  </separator>
  <dos>
   <i name="efermi">      8.31290534 </i>
   <total>
    <array>
     <dimension dim="1">gridpoints</dimension>
     <dimension dim="2">spin</dimension>
     <field>energy</field>
     <field>total</field>
     <field>integrated</field>
     <set>
      <set comment="spin 1">
       <r>   -10.5495     0.0000     0.0000 </r>
       <r>   -10.4575     0.0000     0.0000 </r>
       <r>   -10.3655     0.0000     0.0000 </r>
       <r>   -10.2735     0.0000     0.0000 </r>
       <r>   -10.1815     0.0000     0.0000 </r>
       <r>   -10.0895     0.0000     0.0000 </r>
       <r>    -9.9975     0.0000     0.0000 </r>
       <r>    -9.9055     0.0000     0.0000 </r>
       <r>    -9.8135     0.0000     0.0000 </r>
       <r>    -9.7215     0.0000     0.0000 </r>
       <r>    -9.6295     0.0000     0.0000 </r>
       <r>    -9.5375     0.0001     0.0000 </r>
       <r>    -9.4455     0.0075     0.0007 </r>
       <r>    -9.3535     0.0920     0.0092 </r>
       <r>    -9.2615     0.3735     0.0435 </r>
       <r>    -9.1695     0.9763     0.1333 </r>
       <r>    -9.0775     1.8470     0.3033 </r>
       <r>    -8.9855     2.9981     0.5791 </r>
       <r>    -8.8935     4.0068     0.9477 </r>
       <r>    -8.8015     4.2965     1.3430 </r>
       <r>    -8.7095     3.4903     1.6641 </r>
       <r>    -8.6175     2.3112     1.8767 </r>
       <r>    -8.5255     1.2193     1.9889 </r>
       <r>    -8.4335     1.8122     2.1556 </r>
       <r>    -8.3415     4.0928     2.5321 </r>
       <r>    -8.2495     5.0783     2.9993 </r>
       <r>    -8.1575     3.5189     3.3230 </r>
       <r>    -8.0655     1.9462     3.5021 </r>
       <r>    -7.9735     1.9995     3.6860 </r>
       <r>    -7.8815     2.1371     3.8826 </r>
       <r>    -7.7895     1.8605     4.0538 </r>
       <r>    -7.6975     3.5310     4.3786 </r>
       <r>    -7.6055     5.2893     4.8652 </r>
       <r>    -7.5135     5.1679     5.3407 </r>
       <r>    -7.4215     4.1441     5.7219 </r>
       <r>    -7.3296     4.0665     6.0960 </r>
       <r>    -7.2376     3.9790     6.4621 </r>
       <r>    -7.1456     4.6569     6.8905 </r>
       <r>    -7.0536     5.7061     7.4155 </r>
       <r>    -6.9616     3.8703     7.7715 </r>
       <r>    -6.8696     1.9941     7.9550 </r>
       <r>    -6.7776     0.4597     7.9973 </r>
       <r>    -6.6856     0.0294     8.0000 </r>
       <r>    -6.5936     0.0004     8.0000 </r>
       <r>    -6.5016     0.0000     8.0000 </r>
       <r>    -6.4096     0.0000     8.0000 </r>
       <r>    -6.3176     0.0000     8.0000 </r>
       <r>    -6.2256     0.0000     8.0000 </r>
       <r>    -6.1336     0.0000     8.0000 </r>
       <r>    -6.0416     0.0000     8.0000 </r>
       <r>    -5.9496     0.0000     8.0000 </r>
       <r>    -5.8576     0.0000     8.0000 </r>
       <r>    -5.7656     0.0000     8.0000 </r>
       <r>    -5.6736     0.0000     8.0000 </r>
       <r>    -5.5816     0.0000     8.0000 </r>
       <r>    -5.4896     0.0000     8.0000 </r>
       <r>    -5.3976     0.0000     8.0000 </r>
       <r>    -5.3056     0.0000     8.0000 </r>
       <r>    -5.2136     0.0000     8.0000 </r>
       <r>    -5.1216     0.0003     8.0000 </r>
       <r>    -5.0296     0.0185     8.0017 </r>
       <r>    -4.9376     0.2641     8.0260 </r>
       <r>    -4.8456     1.3729     8.1523 </r>
       <r>    -4.7536     3.5196     8.4761 </r>
       <r>    -4.6616     5.2865     8.9625 </r>
       <r>    -4.5696     5.2916     9.4493 </r>
       <r>    -4.4776     3.9328     9.8111 </r>
       <r>    -4.3856     2.1993    10.0134 </r>
       <r>    -4.2936     1.2628    10.1296 </r>
       <r>    -4.2016     1.3642    10.2551 </r>
       <r>    -4.1096     2.7238    10.5057 </r>
       <r>    -4.0176     3.5850    10.8355 </r>
       <r>    -3.9256     2.6974    11.0836 </r>
       <r>    -3.8336     2.3571    11.3005 </r>
       <r>    -3.7416     2.5748    11.5374 </r>
       <r>    -3.6497     2.3238    11.7511 </r>
       <r>    -3.5577     1.3617    11.8764 </r>
       <r>    -3.4657     0.8637    11.9559 </r>
       <r>    -3.3737     0.4855    12.0005 </r>
       <r>    -3.2817     0.5145    12.0479 </r>
       <r>    -3.1897     0.6589    12.1085 </r>
       <r>    -3.0977     0.6815    12.1712 </r>
       <r>    -3.0057     2.4743    12.3988 </r>
       <r>    -2.9137     5.2866    12.8852 </r>
       <r>    -2.8217     5.2406    13.3673 </r>
       <r>    -2.7297     3.9519    13.7309 </r>
       <r>    -2.6377     3.3742    14.0413 </r>
       <r>    -2.5457     2.7547    14.2947 </r>
       <r>    -2.4537     3.0361    14.5740 </r>
       <r>    -2.3617     3.7597    14.9199 </r>
       <r>    -2.2697     4.4815    15.3322 </r>
       <r>    -2.1777     4.0911    15.7086 </r>
       <r>    -2.0857     2.4034    15.9297 </r>
       <r>    -1.9937     0.6984    15.9939 </r>
       <r>    -1.9017     0.0647    15.9999 </r>
       <r>    -1.8097     0.0015    16.0000 </r>
       <r>    -1.7177     0.0000    16.0000 </r>
       <r>    -1.6257     0.0000    16.0000 </r>
       <r>    -1.5337     0.0000    16.0000 </r>
       <r>    -1.4417     0.0000    16.0000 </r>
       <r>    -1.3497     0.0000    16.0000 </r>
       <r>    -1.2577     0.0024    16.0002 </r>
       <r>    -1.1657     0.0449    16.0044 </r>
       <r>    -1.0737     0.1890    16.0217 </r>
       <r>    -0.9817     0.2485    16.0446 </r>
       <r>    -0.8897     0.6880    16.1079 </r>
       <r>    -0.7977     1.5256    16.2483 </r>
       <r>    -0.7057     1.3585    16.3732 </r>
       <r>    -0.6137     1.4803    16.5094 </r>
       <r>    -0.5217     1.5929    16.6560 </r>
       <r>    -0.4297     2.8008    16.9136 </r>
       <r>    -0.3377     3.2605    17.2136 </r>
       <r>    -0.2457     3.1588    17.5042 </r>
       <r>    -0.1537     4.9475    17.9594 </r>
       <r>    -0.0617     5.0042    18.4197 </r>
       <r>     0.0303     3.2607    18.7197 </r>
       <r>     0.1222     3.7987    19.0692 </r>
       <r>     0.2142     4.3887    19.4729 </r>
       <r>     0.3062     3.1726    19.7648 </r>
       <r>     0.3982     2.5693    20.0012 </r>
       <r>     0.4902     2.8542    20.2637 </r>
       <r>     0.5822     3.0509    20.5444 </r>
       <r>     0.6742     4.1574    20.9269 </r>
       <r>     0.7662     4.4449    21.3358 </r>
       <r>     0.8582     3.5460    21.6620 </r>
       <r>     0.9502     4.1612    22.0449 </r>
       <r>     1.0422     4.9096    22.4965 </r>
       <r>     1.1342     5.0024    22.9567 </r>
       <r>     1.2262     5.4194    23.4553 </r>
       <r>     1.3182     4.8348    23.9001 </r>
       <r>     1.4102     4.6452    24.3274 </r>
       <r>     1.5022     5.1333    24.7997 </r>
       <r>     1.5942     4.8040    25.2416 </r>
       <r>     1.6862     4.5908    25.6640 </r>
       <r>     1.7782     5.3100    26.1525 </r>
       <r>     1.8702     6.3038    26.7324 </r>
       <r>     1.9622     6.2185    27.3045 </r>
       <r>     2.0542     5.4915    27.8097 </r>
       <r>     2.1462     6.2527    28.3850 </r>
       <r>     2.2382     6.7205    29.0032 </r>
       <r>     2.3302     5.8030    29.5371 </r>
       <r>     2.4222     6.0217    30.0911 </r>
       <r>     2.5142     6.2437    30.6655 </r>
       <r>     2.6062     5.5773    31.1786 </r>
       <r>     2.6982     5.6246    31.6960 </r>
       <r>     2.7902     6.5425    32.2979 </r>
       <r>     2.8822     6.4580    32.8920 </r>
       <r>     2.9742     6.6127    33.5004 </r>
       <r>     3.0662     7.0292    34.1471 </r>
       <r>     3.1582     7.0566    34.7963 </r>
       <r>     3.2502     6.4607    35.3906 </r>
       <r>     3.3422     5.4559    35.8926 </r>
       <r>     3.4342     4.7000    36.3249 </r>
       <r>     3.5262     4.9713    36.7823 </r>
       <r>     3.6182     5.9070    37.3257 </r>
       <r>     3.7102     6.9559    37.9657 </r>
       <r>     3.8022     6.9227    38.6025 </r>
       <r>     3.8941     6.7219    39.2209 </r>
       <r>     3.9861     7.6092    39.9210 </r>
       <r>     4.0781     8.2822    40.6829 </r>
       <r>     4.1701     8.2826    41.4449 </r>
       <r>     4.2621     8.6674    42.2423 </r>
       <r>     4.3541     8.5763    43.0313 </r>
       <r>     4.4461     7.1415    43.6883 </r>
       <r>     4.5381     8.1761    44.4404 </r>
       <r>     4.6301     7.9118    45.1683 </r>
       <r>     4.7221     6.0021    45.7205 </r>
       <r>     4.8141     6.0989    46.2816 </r>
       <r>     4.9061     7.7300    46.9927 </r>
       <r>     4.9981     7.5093    47.6836 </r>
       <r>     5.0901     6.4807    48.2798 </r>
       <r>     5.1821     6.6162    48.8884 </r>
       <r>     5.2741     6.1557    49.4547 </r>
       <r>     5.3661     7.1971    50.1169 </r>
       <r>     5.4581     7.3951    50.7972 </r>
       <r>     5.5501     6.0256    51.3515 </r>
       <r>     5.6421     5.6639    51.8726 </r>
       <r>     5.7341     7.2320    52.5379 </r>
       <r>     5.8261     7.2243    53.2025 </r>
       <r>     5.9181     5.9557    53.7505 </r>
       <r>     6.0101     5.9782    54.3004 </r>
       <r>     6.1021     5.9822    54.8508 </r>
       <r>     6.1941     6.4230    55.4417 </r>
       <r>     6.2861     6.0526    55.9985 </r>
       <r>     6.3781     6.5220    56.5985 </r>
       <r>     6.4701     7.7876    57.3150 </r>
       <r>     6.5621     6.6915    57.9306 </r>
       <r>     6.6541     4.2563    58.3221 </r>
       <r>     6.7461     4.1325    58.7023 </r>
       <r>     6.8381     5.2452    59.1848 </r>
       <r>     6.9301     4.8471    59.6308 </r>
       <r>     7.0221     4.4783    60.0428 </r>
       <r>     7.1141     5.2957    60.5299 </r>
       <r>     7.2061     6.1065    61.0917 </r>
       <r>     7.2981     6.3562    61.6765 </r>
       <r>     7.3901     5.6026    62.1919 </r>
       <r>     7.4821     4.7598    62.6298 </r>
       <r>     7.5741     3.7116    62.9713 </r>
       <r>     7.6660     3.8536    63.3258 </r>
       <r>     7.7580     3.7685    63.6725 </r>
       <r>     7.8500     2.5400    63.9061 </r>
       <r>     7.9420     0.9054    63.9894 </r>
       <r>     8.0340     0.1111    63.9997 </r>
       <r>     8.1260     0.0036    64.0000 </r>
       <r>     8.2180     0.0000    64.0000 </r>
       <r>     8.3100     0.0000    64.0000 </r>
       <r>     8.4020     0.0000    64.0000 </r>
       <r>     8.4940     0.0000    64.0000 </r>
       <r>     8.5860     0.0000    64.0000 </r>
       <r>     8.6780     0.0000    64.0000 </r>
       <r>     8.7700     0.0000    64.0000 </r>
       <r>     8.8620     0.0000    64.0000 </r>
       <r>     8.9540     0.0000    64.0000 </r>
       <r>     9.0460     0.0000    64.0000 </r>
       <r>     9.1380     0.0000    64.0000 </r>
       <r>     9.2300     0.0000    64.0000 </r>
       <r>     9.3220     0.0000    64.0000 </r>
       <r>     9.4140     0.0000    64.0000 </r>
       <r>     9.5060     0.0000    64.0000 </r>
       <r>     9.5980     0.0000    64.0000 </r>
       <r>     9.6900     0.0000    64.0000 </r>
       <r>     9.7820     0.0000    64.0000 </r>
       <r>     9.8740     0.0006    64.0001 </r>
       <r>     9.9660     0.0298    64.0028 </r>
       <r>    10.0580     0.2961    64.0300 </r>
       <r>    10.1500     0.6631    64.0910 </r>
       <r>    10.2420     0.4092    64.1287 </r>
       <r>    10.3340     0.2585    64.1525 </r>
       <r>    10.4260     0.3181    64.1817 </r>
       <r>    10.5180     1.0423    64.2776 </r>
       <r>    10.6100     1.8837    64.4509 </r>
       <r>    10.7020     2.0758    64.6419 </r>
       <r>    10.7940     2.8160    64.9010 </r>
       <r>    10.8860     3.3281    65.2071 </r>
       <r>    10.9780     2.3465    65.4230 </r>
       <r>    11.0700     2.1214    65.6182 </r>
       <r>    11.1620     4.0853    65.9940 </r>
       <r>    11.2540     4.3955    66.3984 </r>
       <r>    11.3459     4.0443    66.7704 </r>
       <r>    11.4379     3.4257    67.0856 </r>
       <r>    11.5299     2.8520    67.3480 </r>
       <r>    11.6219     3.7431    67.6923 </r>
       <r>    11.7139     5.1385    68.1651 </r>
       <r>    11.8059     5.3640    68.6585 </r>
       <r>    11.8979     4.9158    69.1108 </r>
       <r>    11.9899     4.4983    69.5246 </r>
       <r>    12.0819     5.2848    70.0108 </r>
       <r>    12.1739     7.1524    70.6688 </r>
       <r>    12.2659     6.0113    71.2218 </r>
       <r>    12.3579     4.4062    71.6272 </r>
       <r>    12.4499     3.7611    71.9732 </r>
       <r>    12.5419     4.0144    72.3425 </r>
       <r>    12.6339     5.4304    72.8421 </r>
       <r>    12.7259     5.4515    73.3436 </r>
       <r>    12.8179     4.3646    73.7452 </r>
       <r>    12.9099     4.8779    74.1939 </r>
       <r>    13.0019     6.3205    74.7754 </r>
       <r>    13.0939     6.0031    75.3276 </r>
       <r>    13.1859     6.1852    75.8967 </r>
       <r>    13.2779     7.3536    76.5732 </r>
       <r>    13.3699     6.7346    77.1927 </r>
       <r>    13.4619     4.5060    77.6073 </r>
       <r>    13.5539     4.4225    78.0141 </r>
       <r>    13.6459     4.2529    78.4054 </r>
       <r>    13.7379     3.2552    78.7049 </r>
       <r>    13.8299     4.9654    79.1617 </r>
       <r>    13.9219     7.6198    79.8627 </r>
       <r>    14.0139     7.1326    80.5189 </r>
       <r>    14.1059     5.5432    81.0288 </r>
       <r>    14.1979     5.6395    81.5476 </r>
       <r>    14.2899     6.9520    82.1872 </r>
       <r>    14.3819     7.6175    82.8880 </r>
       <r>    14.4739     7.3528    83.5644 </r>
       <r>    14.5659     5.4137    84.0625 </r>
       <r>    14.6579     4.5820    84.4840 </r>
       <r>    14.7499     6.3214    85.0656 </r>
       <r>    14.8419     5.5843    85.5793 </r>
       <r>    14.9339     4.5503    85.9979 </r>
       <r>    15.0259     5.3241    86.4877 </r>
       <r>    15.1178     5.4057    86.9850 </r>
       <r>    15.2098     3.3351    87.2918 </r>
       <r>    15.3018     2.0201    87.4777 </r>
       <r>    15.3938     2.1547    87.6759 </r>
       <r>    15.4858     1.8232    87.8436 </r>
       <r>    15.5778     0.6979    87.9079 </r>
       <r>    15.6698     0.1268    87.9195 </r>
       <r>    15.7618     0.2571    87.9432 </r>
       <r>    15.8538     0.4331    87.9830 </r>
       <r>    15.9458     0.1696    87.9986 </r>
       <r>    16.0378     0.0148    88.0000 </r>
       <r>    16.1298     0.0003    88.0000 </r>
       <r>    16.2218     0.0000    88.0000 </r>
       <r>    16.3138     0.0000    88.0000 </r>
       <r>    16.4058     0.0000    88.0000 </r>
       <r>    16.4978     0.0000    88.0000 </r>
       <r>    16.5898     0.0000    88.0000 </r>
       <r>    16.6818     0.0000    88.0000 </r>
       <r>    16.7738     0.0000    88.0000 </r>
       <r>    16.8658     0.0000    88.0000 </r>
       <r>    16.9578     0.0000    88.0000 </r>
       <r>    17.0498     0.0000    88.0000 </r>
      </set>
     </set>
    </array>
   </total>
  </dos>
 </calculation>
 <structure name="finalpos" >
  <crystal>
   <varray name="basis" >
    <v>       5.04634891      -0.00334231       0.00184782 </v>
    <v>      -0.00356598       5.42242143       0.00912743 </v>
    <v>       0.00228198       0.01056086       6.23366352 </v>
   </varray>
   <i name="volume">    170.57383451 </i>
   <varray name="rec_basis" >
    <v>       0.19816318       0.00013044      -0.00007276 </v>
    <v>       0.00012226       0.18442006      -0.00031248 </v>
    <v>      -0.00005892      -0.00027007       0.16041979 </v>
   </varray>
  </crystal>
  <varray name="positions" >
   <v>       0.98550790       0.83107209       0.74965689 </v>
   <v>       0.50741051       0.16219675       0.74616576 </v>
   <v>       0.51111745       0.16703412       0.25362459 </v>
   <v>       0.50706667       0.67312505       0.50054192 </v>
   <v>       0.99298127       0.32813456       0.99792647 </v>
   <v>       0.99385162       0.83944018       0.25121586 </v>
   <v>       0.98371552       0.33529866       0.50112814 </v>
   <v>       0.50466477       0.66478724       0.99956282 </v>
   <v>       0.38513576       0.33948031       0.49644876 </v>
   <v>       0.86642579       0.14759383       0.75129985 </v>
   <v>       0.89432718       0.67002769       0.99373646 </v>
   <v>       0.86645253       0.67786562       0.50809803 </v>
   <v>       0.38739239       0.30476398       0.00308947 </v>
   <v>       0.38880976       0.84883112       0.26195374 </v>
   <v>       0.36525605       0.84118348       0.73742465 </v>
   <v>       0.85988483       0.16916531       0.24812658 </v>
  </varray>
 </structure>
</modeling>
