<?xml version="1.0" encoding="ISO-8859-1"?>
<modeling>
 <generator>
  <i name="program" type="string">vasp </i>
  <i name="version" type="string">5.3.5  </i>
  <i name="subversion" type="string">31Mar14 (build Jun 20 2014 13:15:13) complex                          parallel </i>
  <i name="platform" type="string">LinuxIFC </i>
  <i name="date" type="string">2025 11 21 </i>
  <i name="time" type="string">12:58:53 </i>
 </generator>
 <incar>
  <i type="string" name="PREC">accurate</i>
  <i type="int" name="IALGO">    68</i>
  <i type="logical" name="ADDGRID"> T  </i>
  <i type="int" name="NELM">   100</i>
  <i type="int" name="NELMIN">     4</i>
  <i type="int" name="IBRION">     2</i>
  <i name="EDIFF">      0.00000100</i>
  <i name="EDIFFG">     -0.02000000</i>
  <i type="int" name="NSW">    30</i>
  <i type="int" name="ISIF">     3</i>
  <i name="ENCUT">    500.00000000</i>
  <i type="logical" name="LREAL"> F  </i>
  <i type="int" name="ISMEAR">     1</i>
  <i name="SIGMA">      0.30000000</i>
  <i type="logical" name="LWAVE"> F  </i>
  <i type="logical" name="LCHARG"> F  </i>
  <i type="int" name="NELM">   100</i>
 </incar>
 <kpoints>
  <generation param="Auto">
   <i name="subdivisionlength">     70.00000000 </i>
   <v type="int" name="divisions">      26       15        9 </v>
   <v name="usershift">      0.00000000       0.00000000       0.00000000 </v>
   <v name="genvec1">      0.03846154       0.00000000       0.00000000 </v>
   <v name="genvec2">      0.00000000       0.06666667       0.00000000 </v>
   <v name="genvec3">      0.00000000       0.00000000       0.11111111 </v>
   <v name="shift">      0.00000000       0.00000000       0.00000000 </v>
  </generation>
  <varray name="kpointlist" >
   <v>       0.00000000       0.00000000       0.00000000 </v>
   <v>       0.03846154       0.00000000       0.00000000 </v>
   <v>       0.07692308       0.00000000       0.00000000 </v>
   <v>       0.11538462       0.00000000       0.00000000 </v>
   <v>       0.15384615       0.00000000       0.00000000 </v>
   <v>       0.19230769       0.00000000       0.00000000 </v>
   <v>       0.23076923       0.00000000       0.00000000 </v>
   <v>       0.26923077       0.00000000       0.00000000 </v>
   <v>       0.30769231       0.00000000       0.00000000 </v>
   <v>       0.34615385       0.00000000       0.00000000 </v>
   <v>       0.38461538       0.00000000       0.00000000 </v>
   <v>       0.42307692       0.00000000       0.00000000 </v>
   <v>       0.46153846       0.00000000       0.00000000 </v>
   <v>       0.50000000       0.00000000       0.00000000 </v>
   <v>       0.00000000       0.06666667       0.00000000 </v>
   <v>       0.03846154       0.06666667       0.00000000 </v>
   <v>       0.07692308       0.06666667       0.00000000 </v>
   <v>       0.11538462       0.06666667       0.00000000 </v>
   <v>       0.15384615       0.06666667       0.00000000 </v>
   <v>       0.19230769       0.06666667       0.00000000 </v>
   <v>       0.23076923       0.06666667       0.00000000 </v>
   <v>       0.26923077       0.06666667       0.00000000 </v>
   <v>       0.30769231       0.06666667       0.00000000 </v>
   <v>       0.34615385       0.06666667       0.00000000 </v>
   <v>       0.38461538       0.06666667       0.00000000 </v>
   <v>       0.42307692       0.06666667       0.00000000 </v>
   <v>       0.46153846       0.06666667       0.00000000 </v>
   <v>       0.50000000       0.06666667       0.00000000 </v>
   <v>      -0.46153846       0.06666667       0.00000000 </v>
   <v>      -0.42307692       0.06666667       0.00000000 </v>
   <v>      -0.38461538       0.06666667       0.00000000 </v>
   <v>      -0.34615385       0.06666667       0.00000000 </v>
   <v>      -0.30769231       0.06666667       0.00000000 </v>
   <v>      -0.26923077       0.06666667       0.00000000 </v>
   <v>      -0.23076923       0.06666667       0.00000000 </v>
   <v>      -0.19230769       0.06666667       0.00000000 </v>
   <v>      -0.15384615       0.06666667       0.00000000 </v>
   <v>      -0.11538462       0.06666667       0.00000000 </v>
   <v>      -0.07692308       0.06666667       0.00000000 </v>
   <v>      -0.03846154       0.06666667       0.00000000 </v>
   <v>       0.00000000       0.13333333       0.00000000 </v>
   <v>       0.03846154       0.13333333       0.00000000 </v>
   <v>       0.07692308       0.13333333       0.00000000 </v>
   <v>       0.11538462       0.13333333       0.00000000 </v>
   <v>       0.15384615       0.13333333       0.00000000 </v>
   <v>       0.19230769       0.13333333       0.00000000 </v>
   <v>       0.23076923       0.13333333       0.00000000 </v>
   <v>       0.26923077       0.13333333       0.00000000 </v>
   <v>       0.30769231       0.13333333       0.00000000 </v>
   <v>       0.34615385       0.13333333       0.00000000 </v>
   <v>       0.38461538       0.13333333       0.00000000 </v>
   <v>       0.42307692       0.13333333       0.00000000 </v>
   <v>       0.46153846       0.13333333       0.00000000 </v>
   <v>       0.50000000       0.13333333       0.00000000 </v>
   <v>      -0.46153846       0.13333333       0.00000000 </v>
   <v>      -0.42307692       0.13333333       0.00000000 </v>
   <v>      -0.38461538       0.13333333       0.00000000 </v>
   <v>      -0.34615385       0.13333333       0.00000000 </v>
   <v>      -0.30769231       0.13333333       0.00000000 </v>
   <v>      -0.26923077       0.13333333       0.00000000 </v>
   <v>      -0.23076923       0.13333333       0.00000000 </v>
   <v>      -0.19230769       0.13333333       0.00000000 </v>
   <v>      -0.15384615       0.13333333       0.00000000 </v>
   <v>      -0.11538462       0.13333333       0.00000000 </v>
   <v>      -0.07692308       0.13333333       0.00000000 </v>
   <v>      -0.03846154       0.13333333       0.00000000 </v>
   <v>       0.00000000       0.20000000       0.00000000 </v>
   <v>       0.03846154       0.20000000       0.00000000 </v>
   <v>       0.07692308       0.20000000       0.00000000 </v>
   <v>       0.11538462       0.20000000       0.00000000 </v>
   <v>       0.15384615       0.20000000       0.00000000 </v>
   <v>       0.19230769       0.20000000       0.00000000 </v>
   <v>       0.23076923       0.20000000       0.00000000 </v>
   <v>       0.26923077       0.20000000       0.00000000 </v>
   <v>       0.30769231       0.20000000       0.00000000 </v>
   <v>       0.34615385       0.20000000       0.00000000 </v>
   <v>       0.38461538       0.20000000       0.00000000 </v>
   <v>       0.42307692       0.20000000       0.00000000 </v>
   <v>       0.46153846       0.20000000       0.00000000 </v>
   <v>       0.50000000       0.20000000       0.00000000 </v>
   <v>      -0.46153846       0.20000000       0.00000000 </v>
   <v>      -0.42307692       0.20000000       0.00000000 </v>
   <v>      -0.38461538       0.20000000       0.00000000 </v>
   <v>      -0.34615385       0.20000000       0.00000000 </v>
   <v>      -0.30769231       0.20000000       0.00000000 </v>
   <v>      -0.26923077       0.20000000       0.00000000 </v>
   <v>      -0.23076923       0.20000000       0.00000000 </v>
   <v>      -0.19230769       0.20000000       0.00000000 </v>
   <v>      -0.15384615       0.20000000       0.00000000 </v>
   <v>      -0.11538462       0.20000000       0.00000000 </v>
   <v>      -0.07692308       0.20000000       0.00000000 </v>
   <v>      -0.03846154       0.20000000       0.00000000 </v>
   <v>       0.00000000       0.26666667       0.00000000 </v>
   <v>       0.03846154       0.26666667       0.00000000 </v>
   <v>       0.07692308       0.26666667       0.00000000 </v>
   <v>       0.11538462       0.26666667       0.00000000 </v>
   <v>       0.15384615       0.26666667       0.00000000 </v>
   <v>       0.19230769       0.26666667       0.00000000 </v>
   <v>       0.23076923       0.26666667       0.00000000 </v>
   <v>       0.26923077       0.26666667       0.00000000 </v>
   <v>       0.30769231       0.26666667       0.00000000 </v>
   <v>       0.34615385       0.26666667       0.00000000 </v>
   <v>       0.38461538       0.26666667       0.00000000 </v>
   <v>       0.42307692       0.26666667       0.00000000 </v>
   <v>       0.46153846       0.26666667       0.00000000 </v>
   <v>       0.50000000       0.26666667       0.00000000 </v>
   <v>      -0.46153846       0.26666667       0.00000000 </v>
   <v>      -0.42307692       0.26666667       0.00000000 </v>
   <v>      -0.38461538       0.26666667       0.00000000 </v>
   <v>      -0.34615385       0.26666667       0.00000000 </v>
   <v>      -0.30769231       0.26666667       0.00000000 </v>
   <v>      -0.26923077       0.26666667       0.00000000 </v>
   <v>      -0.23076923       0.26666667       0.00000000 </v>
   <v>      -0.19230769       0.26666667       0.00000000 </v>
   <v>      -0.15384615       0.26666667       0.00000000 </v>
   <v>      -0.11538462       0.26666667       0.00000000 </v>
   <v>      -0.07692308       0.26666667       0.00000000 </v>
   <v>      -0.03846154       0.26666667       0.00000000 </v>
   <v>       0.00000000       0.33333333       0.00000000 </v>
   <v>       0.03846154       0.33333333       0.00000000 </v>
   <v>       0.07692308       0.33333333       0.00000000 </v>
   <v>       0.11538462       0.33333333       0.00000000 </v>
   <v>       0.15384615       0.33333333       0.00000000 </v>
   <v>       0.19230769       0.33333333       0.00000000 </v>
   <v>       0.23076923       0.33333333       0.00000000 </v>
   <v>       0.26923077       0.33333333       0.00000000 </v>
   <v>       0.30769231       0.33333333       0.00000000 </v>
   <v>       0.34615385       0.33333333       0.00000000 </v>
   <v>       0.38461538       0.33333333       0.00000000 </v>
   <v>       0.42307692       0.33333333       0.00000000 </v>
   <v>       0.46153846       0.33333333       0.00000000 </v>
   <v>       0.50000000       0.33333333       0.00000000 </v>
   <v>      -0.46153846       0.33333333       0.00000000 </v>
   <v>      -0.42307692       0.33333333       0.00000000 </v>
   <v>      -0.38461538       0.33333333       0.00000000 </v>
   <v>      -0.34615385       0.33333333       0.00000000 </v>
   <v>      -0.30769231       0.33333333       0.00000000 </v>
   <v>      -0.26923077       0.33333333       0.00000000 </v>
   <v>      -0.23076923       0.33333333       0.00000000 </v>
   <v>      -0.19230769       0.33333333       0.00000000 </v>
   <v>      -0.15384615       0.33333333       0.00000000 </v>
   <v>      -0.11538462       0.33333333       0.00000000 </v>
   <v>      -0.07692308       0.33333333       0.00000000 </v>
   <v>      -0.03846154       0.33333333       0.00000000 </v>
   <v>       0.00000000       0.40000000       0.00000000 </v>
   <v>       0.03846154       0.40000000       0.00000000 </v>
   <v>       0.07692308       0.40000000       0.00000000 </v>
   <v>       0.11538462       0.40000000       0.00000000 </v>
   <v>       0.15384615       0.40000000       0.00000000 </v>
   <v>       0.19230769       0.40000000       0.00000000 </v>
   <v>       0.23076923       0.40000000       0.00000000 </v>
   <v>       0.26923077       0.40000000       0.00000000 </v>
   <v>       0.30769231       0.40000000       0.00000000 </v>
   <v>       0.34615385       0.40000000       0.00000000 </v>
   <v>       0.38461538       0.40000000       0.00000000 </v>
   <v>       0.42307692       0.40000000       0.00000000 </v>
   <v>       0.46153846       0.40000000       0.00000000 </v>
   <v>       0.50000000       0.40000000       0.00000000 </v>
   <v>      -0.46153846       0.40000000       0.00000000 </v>
   <v>      -0.42307692       0.40000000       0.00000000 </v>
   <v>      -0.38461538       0.40000000       0.00000000 </v>
   <v>      -0.34615385       0.40000000       0.00000000 </v>
   <v>      -0.30769231       0.40000000       0.00000000 </v>
   <v>      -0.26923077       0.40000000       0.00000000 </v>
   <v>      -0.23076923       0.40000000       0.00000000 </v>
   <v>      -0.19230769       0.40000000       0.00000000 </v>
   <v>      -0.15384615       0.40000000       0.00000000 </v>
   <v>      -0.11538462       0.40000000       0.00000000 </v>
   <v>      -0.07692308       0.40000000       0.00000000 </v>
   <v>      -0.03846154       0.40000000       0.00000000 </v>
   <v>       0.00000000       0.46666667       0.00000000 </v>
   <v>       0.03846154       0.46666667       0.00000000 </v>
   <v>       0.07692308       0.46666667       0.00000000 </v>
   <v>       0.11538462       0.46666667       0.00000000 </v>
   <v>       0.15384615       0.46666667       0.00000000 </v>
   <v>       0.19230769       0.46666667       0.00000000 </v>
   <v>       0.23076923       0.46666667       0.00000000 </v>
   <v>       0.26923077       0.46666667       0.00000000 </v>
   <v>       0.30769231       0.46666667       0.00000000 </v>
   <v>       0.34615385       0.46666667       0.00000000 </v>
   <v>       0.38461538       0.46666667       0.00000000 </v>
   <v>       0.42307692       0.46666667       0.00000000 </v>
   <v>       0.46153846       0.46666667       0.00000000 </v>
   <v>       0.50000000       0.46666667       0.00000000 </v>
   <v>      -0.46153846       0.46666667       0.00000000 </v>
   <v>      -0.42307692       0.46666667       0.00000000 </v>
   <v>      -0.38461538       0.46666667       0.00000000 </v>
   <v>      -0.34615385       0.46666667       0.00000000 </v>
   <v>      -0.30769231       0.46666667       0.00000000 </v>
   <v>      -0.26923077       0.46666667       0.00000000 </v>
   <v>      -0.23076923       0.46666667       0.00000000 </v>
   <v>      -0.19230769       0.46666667       0.00000000 </v>
   <v>      -0.15384615       0.46666667       0.00000000 </v>
   <v>      -0.11538462       0.46666667       0.00000000 </v>
   <v>      -0.07692308       0.46666667       0.00000000 </v>
   <v>      -0.03846154       0.46666667       0.00000000 </v>
   <v>       0.00000000       0.00000000       0.11111111 </v>
   <v>       0.03846154       0.00000000       0.11111111 </v>
   <v>       0.07692308       0.00000000       0.11111111 </v>
   <v>       0.11538462       0.00000000       0.11111111 </v>
   <v>       0.15384615       0.00000000       0.11111111 </v>
   <v>       0.19230769       0.00000000       0.11111111 </v>
   <v>       0.23076923       0.00000000       0.11111111 </v>
   <v>       0.26923077       0.00000000       0.11111111 </v>
   <v>       0.30769231       0.00000000       0.11111111 </v>
   <v>       0.34615385       0.00000000       0.11111111 </v>
   <v>       0.38461538       0.00000000       0.11111111 </v>
   <v>       0.42307692       0.00000000       0.11111111 </v>
   <v>       0.46153846       0.00000000       0.11111111 </v>
   <v>       0.50000000       0.00000000       0.11111111 </v>
   <v>      -0.46153846       0.00000000       0.11111111 </v>
   <v>      -0.42307692       0.00000000       0.11111111 </v>
   <v>      -0.38461538       0.00000000       0.11111111 </v>
   <v>      -0.34615385       0.00000000       0.11111111 </v>
   <v>      -0.30769231       0.00000000       0.11111111 </v>
   <v>      -0.26923077       0.00000000       0.11111111 </v>
   <v>      -0.23076923       0.00000000       0.11111111 </v>
   <v>      -0.19230769       0.00000000       0.11111111 </v>
   <v>      -0.15384615       0.00000000       0.11111111 </v>
   <v>      -0.11538462       0.00000000       0.11111111 </v>
   <v>      -0.07692308       0.00000000       0.11111111 </v>
   <v>      -0.03846154       0.00000000       0.11111111 </v>
   <v>       0.00000000       0.06666667       0.11111111 </v>
   <v>       0.03846154       0.06666667       0.11111111 </v>
   <v>       0.07692308       0.06666667       0.11111111 </v>
   <v>       0.11538462       0.06666667       0.11111111 </v>
   <v>       0.15384615       0.06666667       0.11111111 </v>
   <v>       0.19230769       0.06666667       0.11111111 </v>
   <v>       0.23076923       0.06666667       0.11111111 </v>
   <v>       0.26923077       0.06666667       0.11111111 </v>
   <v>       0.30769231       0.06666667       0.11111111 </v>
   <v>       0.34615385       0.06666667       0.11111111 </v>
   <v>       0.38461538       0.06666667       0.11111111 </v>
   <v>       0.42307692       0.06666667       0.11111111 </v>
   <v>       0.46153846       0.06666667       0.11111111 </v>
   <v>       0.50000000       0.06666667       0.11111111 </v>
   <v>      -0.46153846       0.06666667       0.11111111 </v>
   <v>      -0.42307692       0.06666667       0.11111111 </v>
   <v>      -0.38461538       0.06666667       0.11111111 </v>
   <v>      -0.34615385       0.06666667       0.11111111 </v>
   <v>      -0.30769231       0.06666667       0.11111111 </v>
   <v>      -0.26923077       0.06666667       0.11111111 </v>
   <v>      -0.23076923       0.06666667       0.11111111 </v>
   <v>      -0.19230769       0.06666667       0.11111111 </v>
   <v>      -0.15384615       0.06666667       0.11111111 </v>
   <v>      -0.11538462       0.06666667       0.11111111 </v>
   <v>      -0.07692308       0.06666667       0.11111111 </v>
   <v>      -0.03846154       0.06666667       0.11111111 </v>
   <v>       0.00000000       0.13333333       0.11111111 </v>
   <v>       0.03846154       0.13333333       0.11111111 </v>
   <v>       0.07692308       0.13333333       0.11111111 </v>
   <v>       0.11538462       0.13333333       0.11111111 </v>
   <v>       0.15384615       0.13333333       0.11111111 </v>
   <v>       0.19230769       0.13333333       0.11111111 </v>
   <v>       0.23076923       0.13333333       0.11111111 </v>
   <v>       0.26923077       0.13333333       0.11111111 </v>
   <v>       0.30769231       0.13333333       0.11111111 </v>
   <v>       0.34615385       0.13333333       0.11111111 </v>
   <v>       0.38461538       0.13333333       0.11111111 </v>
   <v>       0.42307692       0.13333333       0.11111111 </v>
   <v>       0.46153846       0.13333333       0.11111111 </v>
   <v>       0.50000000       0.13333333       0.11111111 </v>
   <v>      -0.46153846       0.13333333       0.11111111 </v>
   <v>      -0.42307692       0.13333333       0.11111111 </v>
   <v>      -0.38461538       0.13333333       0.11111111 </v>
   <v>      -0.34615385       0.13333333       0.11111111 </v>
   <v>      -0.30769231       0.13333333       0.11111111 </v>
   <v>      -0.26923077       0.13333333       0.11111111 </v>
   <v>      -0.23076923       0.13333333       0.11111111 </v>
   <v>      -0.19230769       0.13333333       0.11111111 </v>
   <v>      -0.15384615       0.13333333       0.11111111 </v>
   <v>      -0.11538462       0.13333333       0.11111111 </v>
   <v>      -0.07692308       0.13333333       0.11111111 </v>
   <v>      -0.03846154       0.13333333       0.11111111 </v>
   <v>       0.00000000       0.20000000       0.11111111 </v>
   <v>       0.03846154       0.20000000       0.11111111 </v>
   <v>       0.07692308       0.20000000       0.11111111 </v>
   <v>       0.11538462       0.20000000       0.11111111 </v>
   <v>       0.15384615       0.20000000       0.11111111 </v>
   <v>       0.19230769       0.20000000       0.11111111 </v>
   <v>       0.23076923       0.20000000       0.11111111 </v>
   <v>       0.26923077       0.20000000       0.11111111 </v>
   <v>       0.30769231       0.20000000       0.11111111 </v>
   <v>       0.34615385       0.20000000       0.11111111 </v>
   <v>       0.38461538       0.20000000       0.11111111 </v>
   <v>       0.42307692       0.20000000       0.11111111 </v>
   <v>       0.46153846       0.20000000       0.11111111 </v>
   <v>       0.50000000       0.20000000       0.11111111 </v>
   <v>      -0.46153846       0.20000000       0.11111111 </v>
   <v>      -0.42307692       0.20000000       0.11111111 </v>
   <v>      -0.38461538       0.20000000       0.11111111 </v>
   <v>      -0.34615385       0.20000000       0.11111111 </v>
   <v>      -0.30769231       0.20000000       0.11111111 </v>
   <v>      -0.26923077       0.20000000       0.11111111 </v>
   <v>      -0.23076923       0.20000000       0.11111111 </v>
   <v>      -0.19230769       0.20000000       0.11111111 </v>
   <v>      -0.15384615       0.20000000       0.11111111 </v>
   <v>      -0.11538462       0.20000000       0.11111111 </v>
   <v>      -0.07692308       0.20000000       0.11111111 </v>
   <v>      -0.03846154       0.20000000       0.11111111 </v>
   <v>       0.00000000       0.26666667       0.11111111 </v>
   <v>       0.03846154       0.26666667       0.11111111 </v>
   <v>       0.07692308       0.26666667       0.11111111 </v>
   <v>       0.11538462       0.26666667       0.11111111 </v>
   <v>       0.15384615       0.26666667       0.11111111 </v>
   <v>       0.19230769       0.26666667       0.11111111 </v>
   <v>       0.23076923       0.26666667       0.11111111 </v>
   <v>       0.26923077       0.26666667       0.11111111 </v>
   <v>       0.30769231       0.26666667       0.11111111 </v>
   <v>       0.34615385       0.26666667       0.11111111 </v>
   <v>       0.38461538       0.26666667       0.11111111 </v>
   <v>       0.42307692       0.26666667       0.11111111 </v>
   <v>       0.46153846       0.26666667       0.11111111 </v>
   <v>       0.50000000       0.26666667       0.11111111 </v>
   <v>      -0.46153846       0.26666667       0.11111111 </v>
   <v>      -0.42307692       0.26666667       0.11111111 </v>
   <v>      -0.38461538       0.26666667       0.11111111 </v>
   <v>      -0.34615385       0.26666667       0.11111111 </v>
   <v>      -0.30769231       0.26666667       0.11111111 </v>
   <v>      -0.26923077       0.26666667       0.11111111 </v>
   <v>      -0.23076923       0.26666667       0.11111111 </v>
   <v>      -0.19230769       0.26666667       0.11111111 </v>
   <v>      -0.15384615       0.26666667       0.11111111 </v>
   <v>      -0.11538462       0.26666667       0.11111111 </v>
   <v>      -0.07692308       0.26666667       0.11111111 </v>
   <v>      -0.03846154       0.26666667       0.11111111 </v>
   <v>       0.00000000       0.33333333       0.11111111 </v>
   <v>       0.03846154       0.33333333       0.11111111 </v>
   <v>       0.07692308       0.33333333       0.11111111 </v>
   <v>       0.11538462       0.33333333       0.11111111 </v>
   <v>       0.15384615       0.33333333       0.11111111 </v>
   <v>       0.19230769       0.33333333       0.11111111 </v>
   <v>       0.23076923       0.33333333       0.11111111 </v>
   <v>       0.26923077       0.33333333       0.11111111 </v>
   <v>       0.30769231       0.33333333       0.11111111 </v>
   <v>       0.34615385       0.33333333       0.11111111 </v>
   <v>       0.38461538       0.33333333       0.11111111 </v>
   <v>       0.42307692       0.33333333       0.11111111 </v>
   <v>       0.46153846       0.33333333       0.11111111 </v>
   <v>       0.50000000       0.33333333       0.11111111 </v>
   <v>      -0.46153846       0.33333333       0.11111111 </v>
   <v>      -0.42307692       0.33333333       0.11111111 </v>
   <v>      -0.38461538       0.33333333       0.11111111 </v>
   <v>      -0.34615385       0.33333333       0.11111111 </v>
   <v>      -0.30769231       0.33333333       0.11111111 </v>
   <v>      -0.26923077       0.33333333       0.11111111 </v>
   <v>      -0.23076923       0.33333333       0.11111111 </v>
   <v>      -0.19230769       0.33333333       0.11111111 </v>
   <v>      -0.15384615       0.33333333       0.11111111 </v>
   <v>      -0.11538462       0.33333333       0.11111111 </v>
   <v>      -0.07692308       0.33333333       0.11111111 </v>
   <v>      -0.03846154       0.33333333       0.11111111 </v>
   <v>       0.00000000       0.40000000       0.11111111 </v>
   <v>       0.03846154       0.40000000       0.11111111 </v>
   <v>       0.07692308       0.40000000       0.11111111 </v>
   <v>       0.11538462       0.40000000       0.11111111 </v>
   <v>       0.15384615       0.40000000       0.11111111 </v>
   <v>       0.19230769       0.40000000       0.11111111 </v>
   <v>       0.23076923       0.40000000       0.11111111 </v>
   <v>       0.26923077       0.40000000       0.11111111 </v>
   <v>       0.30769231       0.40000000       0.11111111 </v>
   <v>       0.34615385       0.40000000       0.11111111 </v>
   <v>       0.38461538       0.40000000       0.11111111 </v>
   <v>       0.42307692       0.40000000       0.11111111 </v>
   <v>       0.46153846       0.40000000       0.11111111 </v>
   <v>       0.50000000       0.40000000       0.11111111 </v>
   <v>      -0.46153846       0.40000000       0.11111111 </v>
   <v>      -0.42307692       0.40000000       0.11111111 </v>
   <v>      -0.38461538       0.40000000       0.11111111 </v>
   <v>      -0.34615385       0.40000000       0.11111111 </v>
   <v>      -0.30769231       0.40000000       0.11111111 </v>
   <v>      -0.26923077       0.40000000       0.11111111 </v>
   <v>      -0.23076923       0.40000000       0.11111111 </v>
   <v>      -0.19230769       0.40000000       0.11111111 </v>
   <v>      -0.15384615       0.40000000       0.11111111 </v>
   <v>      -0.11538462       0.40000000       0.11111111 </v>
   <v>      -0.07692308       0.40000000       0.11111111 </v>
   <v>      -0.03846154       0.40000000       0.11111111 </v>
   <v>       0.00000000       0.46666667       0.11111111 </v>
   <v>       0.03846154       0.46666667       0.11111111 </v>
   <v>       0.07692308       0.46666667       0.11111111 </v>
   <v>       0.11538462       0.46666667       0.11111111 </v>
   <v>       0.15384615       0.46666667       0.11111111 </v>
   <v>       0.19230769       0.46666667       0.11111111 </v>
   <v>       0.23076923       0.46666667       0.11111111 </v>
   <v>       0.26923077       0.46666667       0.11111111 </v>
   <v>       0.30769231       0.46666667       0.11111111 </v>
   <v>       0.34615385       0.46666667       0.11111111 </v>
   <v>       0.38461538       0.46666667       0.11111111 </v>
   <v>       0.42307692       0.46666667       0.11111111 </v>
   <v>       0.46153846       0.46666667       0.11111111 </v>
   <v>       0.50000000       0.46666667       0.11111111 </v>
   <v>      -0.46153846       0.46666667       0.11111111 </v>
   <v>      -0.42307692       0.46666667       0.11111111 </v>
   <v>      -0.38461538       0.46666667       0.11111111 </v>
   <v>      -0.34615385       0.46666667       0.11111111 </v>
   <v>      -0.30769231       0.46666667       0.11111111 </v>
   <v>      -0.26923077       0.46666667       0.11111111 </v>
   <v>      -0.23076923       0.46666667       0.11111111 </v>
   <v>      -0.19230769       0.46666667       0.11111111 </v>
   <v>      -0.15384615       0.46666667       0.11111111 </v>
   <v>      -0.11538462       0.46666667       0.11111111 </v>
   <v>      -0.07692308       0.46666667       0.11111111 </v>
   <v>      -0.03846154       0.46666667       0.11111111 </v>
   <v>       0.00000000      -0.46666667       0.11111111 </v>
   <v>       0.03846154      -0.46666667       0.11111111 </v>
   <v>       0.07692308      -0.46666667       0.11111111 </v>
   <v>       0.11538462      -0.46666667       0.11111111 </v>
   <v>       0.15384615      -0.46666667       0.11111111 </v>
   <v>       0.19230769      -0.46666667       0.11111111 </v>
   <v>       0.23076923      -0.46666667       0.11111111 </v>
   <v>       0.26923077      -0.46666667       0.11111111 </v>
   <v>       0.30769231      -0.46666667       0.11111111 </v>
   <v>       0.34615385      -0.46666667       0.11111111 </v>
   <v>       0.38461538      -0.46666667       0.11111111 </v>
   <v>       0.42307692      -0.46666667       0.11111111 </v>
   <v>       0.46153846      -0.46666667       0.11111111 </v>
   <v>       0.50000000      -0.46666667       0.11111111 </v>
   <v>      -0.46153846      -0.46666667       0.11111111 </v>
   <v>      -0.42307692      -0.46666667       0.11111111 </v>
   <v>      -0.38461538      -0.46666667       0.11111111 </v>
   <v>      -0.34615385      -0.46666667       0.11111111 </v>
   <v>      -0.30769231      -0.46666667       0.11111111 </v>
   <v>      -0.26923077      -0.46666667       0.11111111 </v>
   <v>      -0.23076923      -0.46666667       0.11111111 </v>
   <v>      -0.19230769      -0.46666667       0.11111111 </v>
   <v>      -0.15384615      -0.46666667       0.11111111 </v>
   <v>      -0.11538462      -0.46666667       0.11111111 </v>
   <v>      -0.07692308      -0.46666667       0.11111111 </v>
   <v>      -0.03846154      -0.46666667       0.11111111 </v>
   <v>       0.00000000      -0.40000000       0.11111111 </v>
   <v>       0.03846154      -0.40000000       0.11111111 </v>
   <v>       0.07692308      -0.40000000       0.11111111 </v>
   <v>       0.11538462      -0.40000000       0.11111111 </v>
   <v>       0.15384615      -0.40000000       0.11111111 </v>
   <v>       0.19230769      -0.40000000       0.11111111 </v>
   <v>       0.23076923      -0.40000000       0.11111111 </v>
   <v>       0.26923077      -0.40000000       0.11111111 </v>
   <v>       0.30769231      -0.40000000       0.11111111 </v>
   <v>       0.34615385      -0.40000000       0.11111111 </v>
   <v>       0.38461538      -0.40000000       0.11111111 </v>
   <v>       0.42307692      -0.40000000       0.11111111 </v>
   <v>       0.46153846      -0.40000000       0.11111111 </v>
   <v>       0.50000000      -0.40000000       0.11111111 </v>
   <v>      -0.46153846      -0.40000000       0.11111111 </v>
   <v>      -0.42307692      -0.40000000       0.11111111 </v>
   <v>      -0.38461538      -0.40000000       0.11111111 </v>
   <v>      -0.34615385      -0.40000000       0.11111111 </v>
   <v>      -0.30769231      -0.40000000       0.11111111 </v>
   <v>      -0.26923077      -0.40000000       0.11111111 </v>
   <v>      -0.23076923      -0.40000000       0.11111111 </v>
   <v>      -0.19230769      -0.40000000       0.11111111 </v>
   <v>      -0.15384615      -0.40000000       0.11111111 </v>
   <v>      -0.11538462      -0.40000000       0.11111111 </v>
   <v>      -0.07692308      -0.40000000       0.11111111 </v>
   <v>      -0.03846154      -0.40000000       0.11111111 </v>
   <v>       0.00000000      -0.33333333       0.11111111 </v>
   <v>       0.03846154      -0.33333333       0.11111111 </v>
   <v>       0.07692308      -0.33333333       0.11111111 </v>
   <v>       0.11538462      -0.33333333       0.11111111 </v>
   <v>       0.15384615      -0.33333333       0.11111111 </v>
   <v>       0.19230769      -0.33333333       0.11111111 </v>
   <v>       0.23076923      -0.33333333       0.11111111 </v>
   <v>       0.26923077      -0.33333333       0.11111111 </v>
   <v>       0.30769231      -0.33333333       0.11111111 </v>
   <v>       0.34615385      -0.33333333       0.11111111 </v>
   <v>       0.38461538      -0.33333333       0.11111111 </v>
   <v>       0.42307692      -0.33333333       0.11111111 </v>
   <v>       0.46153846      -0.33333333       0.11111111 </v>
   <v>       0.50000000      -0.33333333       0.11111111 </v>
   <v>      -0.46153846      -0.33333333       0.11111111 </v>
   <v>      -0.42307692      -0.33333333       0.11111111 </v>
   <v>      -0.38461538      -0.33333333       0.11111111 </v>
   <v>      -0.34615385      -0.33333333       0.11111111 </v>
   <v>      -0.30769231      -0.33333333       0.11111111 </v>
   <v>      -0.26923077      -0.33333333       0.11111111 </v>
   <v>      -0.23076923      -0.33333333       0.11111111 </v>
   <v>      -0.19230769      -0.33333333       0.11111111 </v>
   <v>      -0.15384615      -0.33333333       0.11111111 </v>
   <v>      -0.11538462      -0.33333333       0.11111111 </v>
   <v>      -0.07692308      -0.33333333       0.11111111 </v>
   <v>      -0.03846154      -0.33333333       0.11111111 </v>
   <v>       0.00000000      -0.26666667       0.11111111 </v>
   <v>       0.03846154      -0.26666667       0.11111111 </v>
   <v>       0.07692308      -0.26666667       0.11111111 </v>
   <v>       0.11538462      -0.26666667       0.11111111 </v>
   <v>       0.15384615      -0.26666667       0.11111111 </v>
   <v>       0.19230769      -0.26666667       0.11111111 </v>
   <v>       0.23076923      -0.26666667       0.11111111 </v>
   <v>       0.26923077      -0.26666667       0.11111111 </v>
   <v>       0.30769231      -0.26666667       0.11111111 </v>
   <v>       0.34615385      -0.26666667       0.11111111 </v>
   <v>       0.38461538      -0.26666667       0.11111111 </v>
   <v>       0.42307692      -0.26666667       0.11111111 </v>
   <v>       0.46153846      -0.26666667       0.11111111 </v>
   <v>       0.50000000      -0.26666667       0.11111111 </v>
   <v>      -0.46153846      -0.26666667       0.11111111 </v>
   <v>      -0.42307692      -0.26666667       0.11111111 </v>
   <v>      -0.38461538      -0.26666667       0.11111111 </v>
   <v>      -0.34615385      -0.26666667       0.11111111 </v>
   <v>      -0.30769231      -0.26666667       0.11111111 </v>
   <v>      -0.26923077      -0.26666667       0.11111111 </v>
   <v>      -0.23076923      -0.26666667       0.11111111 </v>
   <v>      -0.19230769      -0.26666667       0.11111111 </v>
   <v>      -0.15384615      -0.26666667       0.11111111 </v>
   <v>      -0.11538462      -0.26666667       0.11111111 </v>
   <v>      -0.07692308      -0.26666667       0.11111111 </v>
   <v>      -0.03846154      -0.26666667       0.11111111 </v>
   <v>       0.00000000      -0.20000000       0.11111111 </v>
   <v>       0.03846154      -0.20000000       0.11111111 </v>
   <v>       0.07692308      -0.20000000       0.11111111 </v>
   <v>       0.11538462      -0.20000000       0.11111111 </v>
   <v>       0.15384615      -0.20000000       0.11111111 </v>
   <v>       0.19230769      -0.20000000       0.11111111 </v>
   <v>       0.23076923      -0.20000000       0.11111111 </v>
   <v>       0.26923077      -0.20000000       0.11111111 </v>
   <v>       0.30769231      -0.20000000       0.11111111 </v>
   <v>       0.34615385      -0.20000000       0.11111111 </v>
   <v>       0.38461538      -0.20000000       0.11111111 </v>
   <v>       0.42307692      -0.20000000       0.11111111 </v>
   <v>       0.46153846      -0.20000000       0.11111111 </v>
   <v>       0.50000000      -0.20000000       0.11111111 </v>
   <v>      -0.46153846      -0.20000000       0.11111111 </v>
   <v>      -0.42307692      -0.20000000       0.11111111 </v>
   <v>      -0.38461538      -0.20000000       0.11111111 </v>
   <v>      -0.34615385      -0.20000000       0.11111111 </v>
   <v>      -0.30769231      -0.20000000       0.11111111 </v>
   <v>      -0.26923077      -0.20000000       0.11111111 </v>
   <v>      -0.23076923      -0.20000000       0.11111111 </v>
   <v>      -0.19230769      -0.20000000       0.11111111 </v>
   <v>      -0.15384615      -0.20000000       0.11111111 </v>
   <v>      -0.11538462      -0.20000000       0.11111111 </v>
   <v>      -0.07692308      -0.20000000       0.11111111 </v>
   <v>      -0.03846154      -0.20000000       0.11111111 </v>
   <v>       0.00000000      -0.13333333       0.11111111 </v>
   <v>       0.03846154      -0.13333333       0.11111111 </v>
   <v>       0.07692308      -0.13333333       0.11111111 </v>
   <v>       0.11538462      -0.13333333       0.11111111 </v>
   <v>       0.15384615      -0.13333333       0.11111111 </v>
   <v>       0.19230769      -0.13333333       0.11111111 </v>
   <v>       0.23076923      -0.13333333       0.11111111 </v>
   <v>       0.26923077      -0.13333333       0.11111111 </v>
   <v>       0.30769231      -0.13333333       0.11111111 </v>
   <v>       0.34615385      -0.13333333       0.11111111 </v>
   <v>       0.38461538      -0.13333333       0.11111111 </v>
   <v>       0.42307692      -0.13333333       0.11111111 </v>
   <v>       0.46153846      -0.13333333       0.11111111 </v>
   <v>       0.50000000      -0.13333333       0.11111111 </v>
   <v>      -0.46153846      -0.13333333       0.11111111 </v>
   <v>      -0.42307692      -0.13333333       0.11111111 </v>
   <v>      -0.38461538      -0.13333333       0.11111111 </v>
   <v>      -0.34615385      -0.13333333       0.11111111 </v>
   <v>      -0.30769231      -0.13333333       0.11111111 </v>
   <v>      -0.26923077      -0.13333333       0.11111111 </v>
   <v>      -0.23076923      -0.13333333       0.11111111 </v>
   <v>      -0.19230769      -0.13333333       0.11111111 </v>
   <v>      -0.15384615      -0.13333333       0.11111111 </v>
   <v>      -0.11538462      -0.13333333       0.11111111 </v>
   <v>      -0.07692308      -0.13333333       0.11111111 </v>
   <v>      -0.03846154      -0.13333333       0.11111111 </v>
   <v>       0.00000000      -0.06666667       0.11111111 </v>
   <v>       0.03846154      -0.06666667       0.11111111 </v>
   <v>       0.07692308      -0.06666667       0.11111111 </v>
   <v>       0.11538462      -0.06666667       0.11111111 </v>
   <v>       0.15384615      -0.06666667       0.11111111 </v>
   <v>       0.19230769      -0.06666667       0.11111111 </v>
   <v>       0.23076923      -0.06666667       0.11111111 </v>
   <v>       0.26923077      -0.06666667       0.11111111 </v>
   <v>       0.30769231      -0.06666667       0.11111111 </v>
   <v>       0.34615385      -0.06666667       0.11111111 </v>
   <v>       0.38461538      -0.06666667       0.11111111 </v>
   <v>       0.42307692      -0.06666667       0.11111111 </v>
   <v>       0.46153846      -0.06666667       0.11111111 </v>
   <v>       0.50000000      -0.06666667       0.11111111 </v>
   <v>      -0.46153846      -0.06666667       0.11111111 </v>
   <v>      -0.42307692      -0.06666667       0.11111111 </v>
   <v>      -0.38461538      -0.06666667       0.11111111 </v>
   <v>      -0.34615385      -0.06666667       0.11111111 </v>
   <v>      -0.30769231      -0.06666667       0.11111111 </v>
   <v>      -0.26923077      -0.06666667       0.11111111 </v>
   <v>      -0.23076923      -0.06666667       0.11111111 </v>
   <v>      -0.19230769      -0.06666667       0.11111111 </v>
   <v>      -0.15384615      -0.06666667       0.11111111 </v>
   <v>      -0.11538462      -0.06666667       0.11111111 </v>
   <v>      -0.07692308      -0.06666667       0.11111111 </v>
   <v>      -0.03846154      -0.06666667       0.11111111 </v>
   <v>       0.00000000       0.00000000       0.22222222 </v>
   <v>       0.03846154       0.00000000       0.22222222 </v>
   <v>       0.07692308       0.00000000       0.22222222 </v>
   <v>       0.11538462       0.00000000       0.22222222 </v>
   <v>       0.15384615       0.00000000       0.22222222 </v>
   <v>       0.19230769       0.00000000       0.22222222 </v>
   <v>       0.23076923       0.00000000       0.22222222 </v>
   <v>       0.26923077       0.00000000       0.22222222 </v>
   <v>       0.30769231       0.00000000       0.22222222 </v>
   <v>       0.34615385       0.00000000       0.22222222 </v>
   <v>       0.38461538       0.00000000       0.22222222 </v>
   <v>       0.42307692       0.00000000       0.22222222 </v>
   <v>       0.46153846       0.00000000       0.22222222 </v>
   <v>       0.50000000       0.00000000       0.22222222 </v>
   <v>      -0.46153846       0.00000000       0.22222222 </v>
   <v>      -0.42307692       0.00000000       0.22222222 </v>
   <v>      -0.38461538       0.00000000       0.22222222 </v>
   <v>      -0.34615385       0.00000000       0.22222222 </v>
   <v>      -0.30769231       0.00000000       0.22222222 </v>
   <v>      -0.26923077       0.00000000       0.22222222 </v>
   <v>      -0.23076923       0.00000000       0.22222222 </v>
   <v>      -0.19230769       0.00000000       0.22222222 </v>
   <v>      -0.15384615       0.00000000       0.22222222 </v>
   <v>      -0.11538462       0.00000000       0.22222222 </v>
   <v>      -0.07692308       0.00000000       0.22222222 </v>
   <v>      -0.03846154       0.00000000       0.22222222 </v>
   <v>       0.00000000       0.06666667       0.22222222 </v>
   <v>       0.03846154       0.06666667       0.22222222 </v>
   <v>       0.07692308       0.06666667       0.22222222 </v>
   <v>       0.11538462       0.06666667       0.22222222 </v>
   <v>       0.15384615       0.06666667       0.22222222 </v>
   <v>       0.19230769       0.06666667       0.22222222 </v>
   <v>       0.23076923       0.06666667       0.22222222 </v>
   <v>       0.26923077       0.06666667       0.22222222 </v>
   <v>       0.30769231       0.06666667       0.22222222 </v>
   <v>       0.34615385       0.06666667       0.22222222 </v>
   <v>       0.38461538       0.06666667       0.22222222 </v>
   <v>       0.42307692       0.06666667       0.22222222 </v>
   <v>       0.46153846       0.06666667       0.22222222 </v>
   <v>       0.50000000       0.06666667       0.22222222 </v>
   <v>      -0.46153846       0.06666667       0.22222222 </v>
   <v>      -0.42307692       0.06666667       0.22222222 </v>
   <v>      -0.38461538       0.06666667       0.22222222 </v>
   <v>      -0.34615385       0.06666667       0.22222222 </v>
   <v>      -0.30769231       0.06666667       0.22222222 </v>
   <v>      -0.26923077       0.06666667       0.22222222 </v>
   <v>      -0.23076923       0.06666667       0.22222222 </v>
   <v>      -0.19230769       0.06666667       0.22222222 </v>
   <v>      -0.15384615       0.06666667       0.22222222 </v>
   <v>      -0.11538462       0.06666667       0.22222222 </v>
   <v>      -0.07692308       0.06666667       0.22222222 </v>
   <v>      -0.03846154       0.06666667       0.22222222 </v>
   <v>       0.00000000       0.13333333       0.22222222 </v>
   <v>       0.03846154       0.13333333       0.22222222 </v>
   <v>       0.07692308       0.13333333       0.22222222 </v>
   <v>       0.11538462       0.13333333       0.22222222 </v>
   <v>       0.15384615       0.13333333       0.22222222 </v>
   <v>       0.19230769       0.13333333       0.22222222 </v>
   <v>       0.23076923       0.13333333       0.22222222 </v>
   <v>       0.26923077       0.13333333       0.22222222 </v>
   <v>       0.30769231       0.13333333       0.22222222 </v>
   <v>       0.34615385       0.13333333       0.22222222 </v>
   <v>       0.38461538       0.13333333       0.22222222 </v>
   <v>       0.42307692       0.13333333       0.22222222 </v>
   <v>       0.46153846       0.13333333       0.22222222 </v>
   <v>       0.50000000       0.13333333       0.22222222 </v>
   <v>      -0.46153846       0.13333333       0.22222222 </v>
   <v>      -0.42307692       0.13333333       0.22222222 </v>
   <v>      -0.38461538       0.13333333       0.22222222 </v>
   <v>      -0.34615385       0.13333333       0.22222222 </v>
   <v>      -0.30769231       0.13333333       0.22222222 </v>
   <v>      -0.26923077       0.13333333       0.22222222 </v>
   <v>      -0.23076923       0.13333333       0.22222222 </v>
   <v>      -0.19230769       0.13333333       0.22222222 </v>
   <v>      -0.15384615       0.13333333       0.22222222 </v>
   <v>      -0.11538462       0.13333333       0.22222222 </v>
   <v>      -0.07692308       0.13333333       0.22222222 </v>
   <v>      -0.03846154       0.13333333       0.22222222 </v>
   <v>       0.00000000       0.20000000       0.22222222 </v>
   <v>       0.03846154       0.20000000       0.22222222 </v>
   <v>       0.07692308       0.20000000       0.22222222 </v>
   <v>       0.11538462       0.20000000       0.22222222 </v>
   <v>       0.15384615       0.20000000       0.22222222 </v>
   <v>       0.19230769       0.20000000       0.22222222 </v>
   <v>       0.23076923       0.20000000       0.22222222 </v>
   <v>       0.26923077       0.20000000       0.22222222 </v>
   <v>       0.30769231       0.20000000       0.22222222 </v>
   <v>       0.34615385       0.20000000       0.22222222 </v>
   <v>       0.38461538       0.20000000       0.22222222 </v>
   <v>       0.42307692       0.20000000       0.22222222 </v>
   <v>       0.46153846       0.20000000       0.22222222 </v>
   <v>       0.50000000       0.20000000       0.22222222 </v>
   <v>      -0.46153846       0.20000000       0.22222222 </v>
   <v>      -0.42307692       0.20000000       0.22222222 </v>
   <v>      -0.38461538       0.20000000       0.22222222 </v>
   <v>      -0.34615385       0.20000000       0.22222222 </v>
   <v>      -0.30769231       0.20000000       0.22222222 </v>
   <v>      -0.26923077       0.20000000       0.22222222 </v>
   <v>      -0.23076923       0.20000000       0.22222222 </v>
   <v>      -0.19230769       0.20000000       0.22222222 </v>
   <v>      -0.15384615       0.20000000       0.22222222 </v>
   <v>      -0.11538462       0.20000000       0.22222222 </v>
   <v>      -0.07692308       0.20000000       0.22222222 </v>
   <v>      -0.03846154       0.20000000       0.22222222 </v>
   <v>       0.00000000       0.26666667       0.22222222 </v>
   <v>       0.03846154       0.26666667       0.22222222 </v>
   <v>       0.07692308       0.26666667       0.22222222 </v>
   <v>       0.11538462       0.26666667       0.22222222 </v>
   <v>       0.15384615       0.26666667       0.22222222 </v>
   <v>       0.19230769       0.26666667       0.22222222 </v>
   <v>       0.23076923       0.26666667       0.22222222 </v>
   <v>       0.26923077       0.26666667       0.22222222 </v>
   <v>       0.30769231       0.26666667       0.22222222 </v>
   <v>       0.34615385       0.26666667       0.22222222 </v>
   <v>       0.38461538       0.26666667       0.22222222 </v>
   <v>       0.42307692       0.26666667       0.22222222 </v>
   <v>       0.46153846       0.26666667       0.22222222 </v>
   <v>       0.50000000       0.26666667       0.22222222 </v>
   <v>      -0.46153846       0.26666667       0.22222222 </v>
   <v>      -0.42307692       0.26666667       0.22222222 </v>
   <v>      -0.38461538       0.26666667       0.22222222 </v>
   <v>      -0.34615385       0.26666667       0.22222222 </v>
   <v>      -0.30769231       0.26666667       0.22222222 </v>
   <v>      -0.26923077       0.26666667       0.22222222 </v>
   <v>      -0.23076923       0.26666667       0.22222222 </v>
   <v>      -0.19230769       0.26666667       0.22222222 </v>
   <v>      -0.15384615       0.26666667       0.22222222 </v>
   <v>      -0.11538462       0.26666667       0.22222222 </v>
   <v>      -0.07692308       0.26666667       0.22222222 </v>
   <v>      -0.03846154       0.26666667       0.22222222 </v>
   <v>       0.00000000       0.33333333       0.22222222 </v>
   <v>       0.03846154       0.33333333       0.22222222 </v>
   <v>       0.07692308       0.33333333       0.22222222 </v>
   <v>       0.11538462       0.33333333       0.22222222 </v>
   <v>       0.15384615       0.33333333       0.22222222 </v>
   <v>       0.19230769       0.33333333       0.22222222 </v>
   <v>       0.23076923       0.33333333       0.22222222 </v>
   <v>       0.26923077       0.33333333       0.22222222 </v>
   <v>       0.30769231       0.33333333       0.22222222 </v>
   <v>       0.34615385       0.33333333       0.22222222 </v>
   <v>       0.38461538       0.33333333       0.22222222 </v>
   <v>       0.42307692       0.33333333       0.22222222 </v>
   <v>       0.46153846       0.33333333       0.22222222 </v>
   <v>       0.50000000       0.33333333       0.22222222 </v>
   <v>      -0.46153846       0.33333333       0.22222222 </v>
   <v>      -0.42307692       0.33333333       0.22222222 </v>
   <v>      -0.38461538       0.33333333       0.22222222 </v>
   <v>      -0.34615385       0.33333333       0.22222222 </v>
   <v>      -0.30769231       0.33333333       0.22222222 </v>
   <v>      -0.26923077       0.33333333       0.22222222 </v>
   <v>      -0.23076923       0.33333333       0.22222222 </v>
   <v>      -0.19230769       0.33333333       0.22222222 </v>
   <v>      -0.15384615       0.33333333       0.22222222 </v>
   <v>      -0.11538462       0.33333333       0.22222222 </v>
   <v>      -0.07692308       0.33333333       0.22222222 </v>
   <v>      -0.03846154       0.33333333       0.22222222 </v>
   <v>       0.00000000       0.40000000       0.22222222 </v>
   <v>       0.03846154       0.40000000       0.22222222 </v>
   <v>       0.07692308       0.40000000       0.22222222 </v>
   <v>       0.11538462       0.40000000       0.22222222 </v>
   <v>       0.15384615       0.40000000       0.22222222 </v>
   <v>       0.19230769       0.40000000       0.22222222 </v>
   <v>       0.23076923       0.40000000       0.22222222 </v>
   <v>       0.26923077       0.40000000       0.22222222 </v>
   <v>       0.30769231       0.40000000       0.22222222 </v>
   <v>       0.34615385       0.40000000       0.22222222 </v>
   <v>       0.38461538       0.40000000       0.22222222 </v>
   <v>       0.42307692       0.40000000       0.22222222 </v>
   <v>       0.46153846       0.40000000       0.22222222 </v>
   <v>       0.50000000       0.40000000       0.22222222 </v>
   <v>      -0.46153846       0.40000000       0.22222222 </v>
   <v>      -0.42307692       0.40000000       0.22222222 </v>
   <v>      -0.38461538       0.40000000       0.22222222 </v>
   <v>      -0.34615385       0.40000000       0.22222222 </v>
   <v>      -0.30769231       0.40000000       0.22222222 </v>
   <v>      -0.26923077       0.40000000       0.22222222 </v>
   <v>      -0.23076923       0.40000000       0.22222222 </v>
   <v>      -0.19230769       0.40000000       0.22222222 </v>
   <v>      -0.15384615       0.40000000       0.22222222 </v>
   <v>      -0.11538462       0.40000000       0.22222222 </v>
   <v>      -0.07692308       0.40000000       0.22222222 </v>
   <v>      -0.03846154       0.40000000       0.22222222 </v>
   <v>       0.00000000       0.46666667       0.22222222 </v>
   <v>       0.03846154       0.46666667       0.22222222 </v>
   <v>       0.07692308       0.46666667       0.22222222 </v>
   <v>       0.11538462       0.46666667       0.22222222 </v>
   <v>       0.15384615       0.46666667       0.22222222 </v>
   <v>       0.19230769       0.46666667       0.22222222 </v>
   <v>       0.23076923       0.46666667       0.22222222 </v>
   <v>       0.26923077       0.46666667       0.22222222 </v>
   <v>       0.30769231       0.46666667       0.22222222 </v>
   <v>       0.34615385       0.46666667       0.22222222 </v>
   <v>       0.38461538       0.46666667       0.22222222 </v>
   <v>       0.42307692       0.46666667       0.22222222 </v>
   <v>       0.46153846       0.46666667       0.22222222 </v>
   <v>       0.50000000       0.46666667       0.22222222 </v>
   <v>      -0.46153846       0.46666667       0.22222222 </v>
   <v>      -0.42307692       0.46666667       0.22222222 </v>
   <v>      -0.38461538       0.46666667       0.22222222 </v>
   <v>      -0.34615385       0.46666667       0.22222222 </v>
   <v>      -0.30769231       0.46666667       0.22222222 </v>
   <v>      -0.26923077       0.46666667       0.22222222 </v>
   <v>      -0.23076923       0.46666667       0.22222222 </v>
   <v>      -0.19230769       0.46666667       0.22222222 </v>
   <v>      -0.15384615       0.46666667       0.22222222 </v>
   <v>      -0.11538462       0.46666667       0.22222222 </v>
   <v>      -0.07692308       0.46666667       0.22222222 </v>
   <v>      -0.03846154       0.46666667       0.22222222 </v>
   <v>       0.00000000      -0.46666667       0.22222222 </v>
   <v>       0.03846154      -0.46666667       0.22222222 </v>
   <v>       0.07692308      -0.46666667       0.22222222 </v>
   <v>       0.11538462      -0.46666667       0.22222222 </v>
   <v>       0.15384615      -0.46666667       0.22222222 </v>
   <v>       0.19230769      -0.46666667       0.22222222 </v>
   <v>       0.23076923      -0.46666667       0.22222222 </v>
   <v>       0.26923077      -0.46666667       0.22222222 </v>
   <v>       0.30769231      -0.46666667       0.22222222 </v>
   <v>       0.34615385      -0.46666667       0.22222222 </v>
   <v>       0.38461538      -0.46666667       0.22222222 </v>
   <v>       0.42307692      -0.46666667       0.22222222 </v>
   <v>       0.46153846      -0.46666667       0.22222222 </v>
   <v>       0.50000000      -0.46666667       0.22222222 </v>
   <v>      -0.46153846      -0.46666667       0.22222222 </v>
   <v>      -0.42307692      -0.46666667       0.22222222 </v>
   <v>      -0.38461538      -0.46666667       0.22222222 </v>
   <v>      -0.34615385      -0.46666667       0.22222222 </v>
   <v>      -0.30769231      -0.46666667       0.22222222 </v>
   <v>      -0.26923077      -0.46666667       0.22222222 </v>
   <v>      -0.23076923      -0.46666667       0.22222222 </v>
   <v>      -0.19230769      -0.46666667       0.22222222 </v>
   <v>      -0.15384615      -0.46666667       0.22222222 </v>
   <v>      -0.11538462      -0.46666667       0.22222222 </v>
   <v>      -0.07692308      -0.46666667       0.22222222 </v>
   <v>      -0.03846154      -0.46666667       0.22222222 </v>
   <v>       0.00000000      -0.40000000       0.22222222 </v>
   <v>       0.03846154      -0.40000000       0.22222222 </v>
   <v>       0.07692308      -0.40000000       0.22222222 </v>
   <v>       0.11538462      -0.40000000       0.22222222 </v>
   <v>       0.15384615      -0.40000000       0.22222222 </v>
   <v>       0.19230769      -0.40000000       0.22222222 </v>
   <v>       0.23076923      -0.40000000       0.22222222 </v>
   <v>       0.26923077      -0.40000000       0.22222222 </v>
   <v>       0.30769231      -0.40000000       0.22222222 </v>
   <v>       0.34615385      -0.40000000       0.22222222 </v>
   <v>       0.38461538      -0.40000000       0.22222222 </v>
   <v>       0.42307692      -0.40000000       0.22222222 </v>
   <v>       0.46153846      -0.40000000       0.22222222 </v>
   <v>       0.50000000      -0.40000000       0.22222222 </v>
   <v>      -0.46153846      -0.40000000       0.22222222 </v>
   <v>      -0.42307692      -0.40000000       0.22222222 </v>
   <v>      -0.38461538      -0.40000000       0.22222222 </v>
   <v>      -0.34615385      -0.40000000       0.22222222 </v>
   <v>      -0.30769231      -0.40000000       0.22222222 </v>
   <v>      -0.26923077      -0.40000000       0.22222222 </v>
   <v>      -0.23076923      -0.40000000       0.22222222 </v>
   <v>      -0.19230769      -0.40000000       0.22222222 </v>
   <v>      -0.15384615      -0.40000000       0.22222222 </v>
   <v>      -0.11538462      -0.40000000       0.22222222 </v>
   <v>      -0.07692308      -0.40000000       0.22222222 </v>
   <v>      -0.03846154      -0.40000000       0.22222222 </v>
   <v>       0.00000000      -0.33333333       0.22222222 </v>
   <v>       0.03846154      -0.33333333       0.22222222 </v>
   <v>       0.07692308      -0.33333333       0.22222222 </v>
   <v>       0.11538462      -0.33333333       0.22222222 </v>
   <v>       0.15384615      -0.33333333       0.22222222 </v>
   <v>       0.19230769      -0.33333333       0.22222222 </v>
   <v>       0.23076923      -0.33333333       0.22222222 </v>
   <v>       0.26923077      -0.33333333       0.22222222 </v>
   <v>       0.30769231      -0.33333333       0.22222222 </v>
   <v>       0.34615385      -0.33333333       0.22222222 </v>
   <v>       0.38461538      -0.33333333       0.22222222 </v>
   <v>       0.42307692      -0.33333333       0.22222222 </v>
   <v>       0.46153846      -0.33333333       0.22222222 </v>
   <v>       0.50000000      -0.33333333       0.22222222 </v>
   <v>      -0.46153846      -0.33333333       0.22222222 </v>
   <v>      -0.42307692      -0.33333333       0.22222222 </v>
   <v>      -0.38461538      -0.33333333       0.22222222 </v>
   <v>      -0.34615385      -0.33333333       0.22222222 </v>
   <v>      -0.30769231      -0.33333333       0.22222222 </v>
   <v>      -0.26923077      -0.33333333       0.22222222 </v>
   <v>      -0.23076923      -0.33333333       0.22222222 </v>
   <v>      -0.19230769      -0.33333333       0.22222222 </v>
   <v>      -0.15384615      -0.33333333       0.22222222 </v>
   <v>      -0.11538462      -0.33333333       0.22222222 </v>
   <v>      -0.07692308      -0.33333333       0.22222222 </v>
   <v>      -0.03846154      -0.33333333       0.22222222 </v>
   <v>       0.00000000      -0.26666667       0.22222222 </v>
   <v>       0.03846154      -0.26666667       0.22222222 </v>
   <v>       0.07692308      -0.26666667       0.22222222 </v>
   <v>       0.11538462      -0.26666667       0.22222222 </v>
   <v>       0.15384615      -0.26666667       0.22222222 </v>
   <v>       0.19230769      -0.26666667       0.22222222 </v>
   <v>       0.23076923      -0.26666667       0.22222222 </v>
   <v>       0.26923077      -0.26666667       0.22222222 </v>
   <v>       0.30769231      -0.26666667       0.22222222 </v>
   <v>       0.34615385      -0.26666667       0.22222222 </v>
   <v>       0.38461538      -0.26666667       0.22222222 </v>
   <v>       0.42307692      -0.26666667       0.22222222 </v>
   <v>       0.46153846      -0.26666667       0.22222222 </v>
   <v>       0.50000000      -0.26666667       0.22222222 </v>
   <v>      -0.46153846      -0.26666667       0.22222222 </v>
   <v>      -0.42307692      -0.26666667       0.22222222 </v>
   <v>      -0.38461538      -0.26666667       0.22222222 </v>
   <v>      -0.34615385      -0.26666667       0.22222222 </v>
   <v>      -0.30769231      -0.26666667       0.22222222 </v>
   <v>      -0.26923077      -0.26666667       0.22222222 </v>
   <v>      -0.23076923      -0.26666667       0.22222222 </v>
   <v>      -0.19230769      -0.26666667       0.22222222 </v>
   <v>      -0.15384615      -0.26666667       0.22222222 </v>
   <v>      -0.11538462      -0.26666667       0.22222222 </v>
   <v>      -0.07692308      -0.26666667       0.22222222 </v>
   <v>      -0.03846154      -0.26666667       0.22222222 </v>
   <v>       0.00000000      -0.20000000       0.22222222 </v>
   <v>       0.03846154      -0.20000000       0.22222222 </v>
   <v>       0.07692308      -0.20000000       0.22222222 </v>
   <v>       0.11538462      -0.20000000       0.22222222 </v>
   <v>       0.15384615      -0.20000000       0.22222222 </v>
   <v>       0.19230769      -0.20000000       0.22222222 </v>
   <v>       0.23076923      -0.20000000       0.22222222 </v>
   <v>       0.26923077      -0.20000000       0.22222222 </v>
   <v>       0.30769231      -0.20000000       0.22222222 </v>
   <v>       0.34615385      -0.20000000       0.22222222 </v>
   <v>       0.38461538      -0.20000000       0.22222222 </v>
   <v>       0.42307692      -0.20000000       0.22222222 </v>
   <v>       0.46153846      -0.20000000       0.22222222 </v>
   <v>       0.50000000      -0.20000000       0.22222222 </v>
   <v>      -0.46153846      -0.20000000       0.22222222 </v>
   <v>      -0.42307692      -0.20000000       0.22222222 </v>
   <v>      -0.38461538      -0.20000000       0.22222222 </v>
   <v>      -0.34615385      -0.20000000       0.22222222 </v>
   <v>      -0.30769231      -0.20000000       0.22222222 </v>
   <v>      -0.26923077      -0.20000000       0.22222222 </v>
   <v>      -0.23076923      -0.20000000       0.22222222 </v>
   <v>      -0.19230769      -0.20000000       0.22222222 </v>
   <v>      -0.15384615      -0.20000000       0.22222222 </v>
   <v>      -0.11538462      -0.20000000       0.22222222 </v>
   <v>      -0.07692308      -0.20000000       0.22222222 </v>
   <v>      -0.03846154      -0.20000000       0.22222222 </v>
   <v>       0.00000000      -0.13333333       0.22222222 </v>
   <v>       0.03846154      -0.13333333       0.22222222 </v>
   <v>       0.07692308      -0.13333333       0.22222222 </v>
   <v>       0.11538462      -0.13333333       0.22222222 </v>
   <v>       0.15384615      -0.13333333       0.22222222 </v>
   <v>       0.19230769      -0.13333333       0.22222222 </v>
   <v>       0.23076923      -0.13333333       0.22222222 </v>
   <v>       0.26923077      -0.13333333       0.22222222 </v>
   <v>       0.30769231      -0.13333333       0.22222222 </v>
   <v>       0.34615385      -0.13333333       0.22222222 </v>
   <v>       0.38461538      -0.13333333       0.22222222 </v>
   <v>       0.42307692      -0.13333333       0.22222222 </v>
   <v>       0.46153846      -0.13333333       0.22222222 </v>
   <v>       0.50000000      -0.13333333       0.22222222 </v>
   <v>      -0.46153846      -0.13333333       0.22222222 </v>
   <v>      -0.42307692      -0.13333333       0.22222222 </v>
   <v>      -0.38461538      -0.13333333       0.22222222 </v>
   <v>      -0.34615385      -0.13333333       0.22222222 </v>
   <v>      -0.30769231      -0.13333333       0.22222222 </v>
   <v>      -0.26923077      -0.13333333       0.22222222 </v>
   <v>      -0.23076923      -0.13333333       0.22222222 </v>
   <v>      -0.19230769      -0.13333333       0.22222222 </v>
   <v>      -0.15384615      -0.13333333       0.22222222 </v>
   <v>      -0.11538462      -0.13333333       0.22222222 </v>
   <v>      -0.07692308      -0.13333333       0.22222222 </v>
   <v>      -0.03846154      -0.13333333       0.22222222 </v>
   <v>       0.00000000      -0.06666667       0.22222222 </v>
   <v>       0.03846154      -0.06666667       0.22222222 </v>
   <v>       0.07692308      -0.06666667       0.22222222 </v>
   <v>       0.11538462      -0.06666667       0.22222222 </v>
   <v>       0.15384615      -0.06666667       0.22222222 </v>
   <v>       0.19230769      -0.06666667       0.22222222 </v>
   <v>       0.23076923      -0.06666667       0.22222222 </v>
   <v>       0.26923077      -0.06666667       0.22222222 </v>
   <v>       0.30769231      -0.06666667       0.22222222 </v>
   <v>       0.34615385      -0.06666667       0.22222222 </v>
   <v>       0.38461538      -0.06666667       0.22222222 </v>
   <v>       0.42307692      -0.06666667       0.22222222 </v>
   <v>       0.46153846      -0.06666667       0.22222222 </v>
   <v>       0.50000000      -0.06666667       0.22222222 </v>
   <v>      -0.46153846      -0.06666667       0.22222222 </v>
   <v>      -0.42307692      -0.06666667       0.22222222 </v>
   <v>      -0.38461538      -0.06666667       0.22222222 </v>
   <v>      -0.34615385      -0.06666667       0.22222222 </v>
   <v>      -0.30769231      -0.06666667       0.22222222 </v>
   <v>      -0.26923077      -0.06666667       0.22222222 </v>
   <v>      -0.23076923      -0.06666667       0.22222222 </v>
   <v>      -0.19230769      -0.06666667       0.22222222 </v>
   <v>      -0.15384615      -0.06666667       0.22222222 </v>
   <v>      -0.11538462      -0.06666667       0.22222222 </v>
   <v>      -0.07692308      -0.06666667       0.22222222 </v>
   <v>      -0.03846154      -0.06666667       0.22222222 </v>
   <v>       0.00000000       0.00000000       0.33333333 </v>
   <v>       0.03846154       0.00000000       0.33333333 </v>
   <v>       0.07692308       0.00000000       0.33333333 </v>
   <v>       0.11538462       0.00000000       0.33333333 </v>
   <v>       0.15384615       0.00000000       0.33333333 </v>
   <v>       0.19230769       0.00000000       0.33333333 </v>
   <v>       0.23076923       0.00000000       0.33333333 </v>
   <v>       0.26923077       0.00000000       0.33333333 </v>
   <v>       0.30769231       0.00000000       0.33333333 </v>
   <v>       0.34615385       0.00000000       0.33333333 </v>
   <v>       0.38461538       0.00000000       0.33333333 </v>
   <v>       0.42307692       0.00000000       0.33333333 </v>
   <v>       0.46153846       0.00000000       0.33333333 </v>
   <v>       0.50000000       0.00000000       0.33333333 </v>
   <v>      -0.46153846       0.00000000       0.33333333 </v>
   <v>      -0.42307692       0.00000000       0.33333333 </v>
   <v>      -0.38461538       0.00000000       0.33333333 </v>
   <v>      -0.34615385       0.00000000       0.33333333 </v>
   <v>      -0.30769231       0.00000000       0.33333333 </v>
   <v>      -0.26923077       0.00000000       0.33333333 </v>
   <v>      -0.23076923       0.00000000       0.33333333 </v>
   <v>      -0.19230769       0.00000000       0.33333333 </v>
   <v>      -0.15384615       0.00000000       0.33333333 </v>
   <v>      -0.11538462       0.00000000       0.33333333 </v>
   <v>      -0.07692308       0.00000000       0.33333333 </v>
   <v>      -0.03846154       0.00000000       0.33333333 </v>
   <v>       0.00000000       0.06666667       0.33333333 </v>
   <v>       0.03846154       0.06666667       0.33333333 </v>
   <v>       0.07692308       0.06666667       0.33333333 </v>
   <v>       0.11538462       0.06666667       0.33333333 </v>
   <v>       0.15384615       0.06666667       0.33333333 </v>
   <v>       0.19230769       0.06666667       0.33333333 </v>
   <v>       0.23076923       0.06666667       0.33333333 </v>
   <v>       0.26923077       0.06666667       0.33333333 </v>
   <v>       0.30769231       0.06666667       0.33333333 </v>
   <v>       0.34615385       0.06666667       0.33333333 </v>
   <v>       0.38461538       0.06666667       0.33333333 </v>
   <v>       0.42307692       0.06666667       0.33333333 </v>
   <v>       0.46153846       0.06666667       0.33333333 </v>
   <v>       0.50000000       0.06666667       0.33333333 </v>
   <v>      -0.46153846       0.06666667       0.33333333 </v>
   <v>      -0.42307692       0.06666667       0.33333333 </v>
   <v>      -0.38461538       0.06666667       0.33333333 </v>
   <v>      -0.34615385       0.06666667       0.33333333 </v>
   <v>      -0.30769231       0.06666667       0.33333333 </v>
   <v>      -0.26923077       0.06666667       0.33333333 </v>
   <v>      -0.23076923       0.06666667       0.33333333 </v>
   <v>      -0.19230769       0.06666667       0.33333333 </v>
   <v>      -0.15384615       0.06666667       0.33333333 </v>
   <v>      -0.11538462       0.06666667       0.33333333 </v>
   <v>      -0.07692308       0.06666667       0.33333333 </v>
   <v>      -0.03846154       0.06666667       0.33333333 </v>
   <v>       0.00000000       0.13333333       0.33333333 </v>
   <v>       0.03846154       0.13333333       0.33333333 </v>
   <v>       0.07692308       0.13333333       0.33333333 </v>
   <v>       0.11538462       0.13333333       0.33333333 </v>
   <v>       0.15384615       0.13333333       0.33333333 </v>
   <v>       0.19230769       0.13333333       0.33333333 </v>
   <v>       0.23076923       0.13333333       0.33333333 </v>
   <v>       0.26923077       0.13333333       0.33333333 </v>
   <v>       0.30769231       0.13333333       0.33333333 </v>
   <v>       0.34615385       0.13333333       0.33333333 </v>
   <v>       0.38461538       0.13333333       0.33333333 </v>
   <v>       0.42307692       0.13333333       0.33333333 </v>
   <v>       0.46153846       0.13333333       0.33333333 </v>
   <v>       0.50000000       0.13333333       0.33333333 </v>
   <v>      -0.46153846       0.13333333       0.33333333 </v>
   <v>      -0.42307692       0.13333333       0.33333333 </v>
   <v>      -0.38461538       0.13333333       0.33333333 </v>
   <v>      -0.34615385       0.13333333       0.33333333 </v>
   <v>      -0.30769231       0.13333333       0.33333333 </v>
   <v>      -0.26923077       0.13333333       0.33333333 </v>
   <v>      -0.23076923       0.13333333       0.33333333 </v>
   <v>      -0.19230769       0.13333333       0.33333333 </v>
   <v>      -0.15384615       0.13333333       0.33333333 </v>
   <v>      -0.11538462       0.13333333       0.33333333 </v>
   <v>      -0.07692308       0.13333333       0.33333333 </v>
   <v>      -0.03846154       0.13333333       0.33333333 </v>
   <v>       0.00000000       0.20000000       0.33333333 </v>
   <v>       0.03846154       0.20000000       0.33333333 </v>
   <v>       0.07692308       0.20000000       0.33333333 </v>
   <v>       0.11538462       0.20000000       0.33333333 </v>
   <v>       0.15384615       0.20000000       0.33333333 </v>
   <v>       0.19230769       0.20000000       0.33333333 </v>
   <v>       0.23076923       0.20000000       0.33333333 </v>
   <v>       0.26923077       0.20000000       0.33333333 </v>
   <v>       0.30769231       0.20000000       0.33333333 </v>
   <v>       0.34615385       0.20000000       0.33333333 </v>
   <v>       0.38461538       0.20000000       0.33333333 </v>
   <v>       0.42307692       0.20000000       0.33333333 </v>
   <v>       0.46153846       0.20000000       0.33333333 </v>
   <v>       0.50000000       0.20000000       0.33333333 </v>
   <v>      -0.46153846       0.20000000       0.33333333 </v>
   <v>      -0.42307692       0.20000000       0.33333333 </v>
   <v>      -0.38461538       0.20000000       0.33333333 </v>
   <v>      -0.34615385       0.20000000       0.33333333 </v>
   <v>      -0.30769231       0.20000000       0.33333333 </v>
   <v>      -0.26923077       0.20000000       0.33333333 </v>
   <v>      -0.23076923       0.20000000       0.33333333 </v>
   <v>      -0.19230769       0.20000000       0.33333333 </v>
   <v>      -0.15384615       0.20000000       0.33333333 </v>
   <v>      -0.11538462       0.20000000       0.33333333 </v>
   <v>      -0.07692308       0.20000000       0.33333333 </v>
   <v>      -0.03846154       0.20000000       0.33333333 </v>
   <v>       0.00000000       0.26666667       0.33333333 </v>
   <v>       0.03846154       0.26666667       0.33333333 </v>
   <v>       0.07692308       0.26666667       0.33333333 </v>
   <v>       0.11538462       0.26666667       0.33333333 </v>
   <v>       0.15384615       0.26666667       0.33333333 </v>
   <v>       0.19230769       0.26666667       0.33333333 </v>
   <v>       0.23076923       0.26666667       0.33333333 </v>
   <v>       0.26923077       0.26666667       0.33333333 </v>
   <v>       0.30769231       0.26666667       0.33333333 </v>
   <v>       0.34615385       0.26666667       0.33333333 </v>
   <v>       0.38461538       0.26666667       0.33333333 </v>
   <v>       0.42307692       0.26666667       0.33333333 </v>
   <v>       0.46153846       0.26666667       0.33333333 </v>
   <v>       0.50000000       0.26666667       0.33333333 </v>
   <v>      -0.46153846       0.26666667       0.33333333 </v>
   <v>      -0.42307692       0.26666667       0.33333333 </v>
   <v>      -0.38461538       0.26666667       0.33333333 </v>
   <v>      -0.34615385       0.26666667       0.33333333 </v>
   <v>      -0.30769231       0.26666667       0.33333333 </v>
   <v>      -0.26923077       0.26666667       0.33333333 </v>
   <v>      -0.23076923       0.26666667       0.33333333 </v>
   <v>      -0.19230769       0.26666667       0.33333333 </v>
   <v>      -0.15384615       0.26666667       0.33333333 </v>
   <v>      -0.11538462       0.26666667       0.33333333 </v>
   <v>      -0.07692308       0.26666667       0.33333333 </v>
   <v>      -0.03846154       0.26666667       0.33333333 </v>
   <v>       0.00000000       0.33333333       0.33333333 </v>
   <v>       0.03846154       0.33333333       0.33333333 </v>
   <v>       0.07692308       0.33333333       0.33333333 </v>
   <v>       0.11538462       0.33333333       0.33333333 </v>
   <v>       0.15384615       0.33333333       0.33333333 </v>
   <v>       0.19230769       0.33333333       0.33333333 </v>
   <v>       0.23076923       0.33333333       0.33333333 </v>
   <v>       0.26923077       0.33333333       0.33333333 </v>
   <v>       0.30769231       0.33333333       0.33333333 </v>
   <v>       0.34615385       0.33333333       0.33333333 </v>
   <v>       0.38461538       0.33333333       0.33333333 </v>
   <v>       0.42307692       0.33333333       0.33333333 </v>
   <v>       0.46153846       0.33333333       0.33333333 </v>
   <v>       0.50000000       0.33333333       0.33333333 </v>
   <v>      -0.46153846       0.33333333       0.33333333 </v>
   <v>      -0.42307692       0.33333333       0.33333333 </v>
   <v>      -0.38461538       0.33333333       0.33333333 </v>
   <v>      -0.34615385       0.33333333       0.33333333 </v>
   <v>      -0.30769231       0.33333333       0.33333333 </v>
   <v>      -0.26923077       0.33333333       0.33333333 </v>
   <v>      -0.23076923       0.33333333       0.33333333 </v>
   <v>      -0.19230769       0.33333333       0.33333333 </v>
   <v>      -0.15384615       0.33333333       0.33333333 </v>
   <v>      -0.11538462       0.33333333       0.33333333 </v>
   <v>      -0.07692308       0.33333333       0.33333333 </v>
   <v>      -0.03846154       0.33333333       0.33333333 </v>
   <v>       0.00000000       0.40000000       0.33333333 </v>
   <v>       0.03846154       0.40000000       0.33333333 </v>
   <v>       0.07692308       0.40000000       0.33333333 </v>
   <v>       0.11538462       0.40000000       0.33333333 </v>
   <v>       0.15384615       0.40000000       0.33333333 </v>
   <v>       0.19230769       0.40000000       0.33333333 </v>
   <v>       0.23076923       0.40000000       0.33333333 </v>
   <v>       0.26923077       0.40000000       0.33333333 </v>
   <v>       0.30769231       0.40000000       0.33333333 </v>
   <v>       0.34615385       0.40000000       0.33333333 </v>
   <v>       0.38461538       0.40000000       0.33333333 </v>
   <v>       0.42307692       0.40000000       0.33333333 </v>
   <v>       0.46153846       0.40000000       0.33333333 </v>
   <v>       0.50000000       0.40000000       0.33333333 </v>
   <v>      -0.46153846       0.40000000       0.33333333 </v>
   <v>      -0.42307692       0.40000000       0.33333333 </v>
   <v>      -0.38461538       0.40000000       0.33333333 </v>
   <v>      -0.34615385       0.40000000       0.33333333 </v>
   <v>      -0.30769231       0.40000000       0.33333333 </v>
   <v>      -0.26923077       0.40000000       0.33333333 </v>
   <v>      -0.23076923       0.40000000       0.33333333 </v>
   <v>      -0.19230769       0.40000000       0.33333333 </v>
   <v>      -0.15384615       0.40000000       0.33333333 </v>
   <v>      -0.11538462       0.40000000       0.33333333 </v>
   <v>      -0.07692308       0.40000000       0.33333333 </v>
   <v>      -0.03846154       0.40000000       0.33333333 </v>
   <v>       0.00000000       0.46666667       0.33333333 </v>
   <v>       0.03846154       0.46666667       0.33333333 </v>
   <v>       0.07692308       0.46666667       0.33333333 </v>
   <v>       0.11538462       0.46666667       0.33333333 </v>
   <v>       0.15384615       0.46666667       0.33333333 </v>
   <v>       0.19230769       0.46666667       0.33333333 </v>
   <v>       0.23076923       0.46666667       0.33333333 </v>
   <v>       0.26923077       0.46666667       0.33333333 </v>
   <v>       0.30769231       0.46666667       0.33333333 </v>
   <v>       0.34615385       0.46666667       0.33333333 </v>
   <v>       0.38461538       0.46666667       0.33333333 </v>
   <v>       0.42307692       0.46666667       0.33333333 </v>
   <v>       0.46153846       0.46666667       0.33333333 </v>
   <v>       0.50000000       0.46666667       0.33333333 </v>
   <v>      -0.46153846       0.46666667       0.33333333 </v>
   <v>      -0.42307692       0.46666667       0.33333333 </v>
   <v>      -0.38461538       0.46666667       0.33333333 </v>
   <v>      -0.34615385       0.46666667       0.33333333 </v>
   <v>      -0.30769231       0.46666667       0.33333333 </v>
   <v>      -0.26923077       0.46666667       0.33333333 </v>
   <v>      -0.23076923       0.46666667       0.33333333 </v>
   <v>      -0.19230769       0.46666667       0.33333333 </v>
   <v>      -0.15384615       0.46666667       0.33333333 </v>
   <v>      -0.11538462       0.46666667       0.33333333 </v>
   <v>      -0.07692308       0.46666667       0.33333333 </v>
   <v>      -0.03846154       0.46666667       0.33333333 </v>
   <v>       0.00000000      -0.46666667       0.33333333 </v>
   <v>       0.03846154      -0.46666667       0.33333333 </v>
   <v>       0.07692308      -0.46666667       0.33333333 </v>
   <v>       0.11538462      -0.46666667       0.33333333 </v>
   <v>       0.15384615      -0.46666667       0.33333333 </v>
   <v>       0.19230769      -0.46666667       0.33333333 </v>
   <v>       0.23076923      -0.46666667       0.33333333 </v>
   <v>       0.26923077      -0.46666667       0.33333333 </v>
   <v>       0.30769231      -0.46666667       0.33333333 </v>
   <v>       0.34615385      -0.46666667       0.33333333 </v>
   <v>       0.38461538      -0.46666667       0.33333333 </v>
   <v>       0.42307692      -0.46666667       0.33333333 </v>
   <v>       0.46153846      -0.46666667       0.33333333 </v>
   <v>       0.50000000      -0.46666667       0.33333333 </v>
   <v>      -0.46153846      -0.46666667       0.33333333 </v>
   <v>      -0.42307692      -0.46666667       0.33333333 </v>
   <v>      -0.38461538      -0.46666667       0.33333333 </v>
   <v>      -0.34615385      -0.46666667       0.33333333 </v>
   <v>      -0.30769231      -0.46666667       0.33333333 </v>
   <v>      -0.26923077      -0.46666667       0.33333333 </v>
   <v>      -0.23076923      -0.46666667       0.33333333 </v>
   <v>      -0.19230769      -0.46666667       0.33333333 </v>
   <v>      -0.15384615      -0.46666667       0.33333333 </v>
   <v>      -0.11538462      -0.46666667       0.33333333 </v>
   <v>      -0.07692308      -0.46666667       0.33333333 </v>
   <v>      -0.03846154      -0.46666667       0.33333333 </v>
   <v>       0.00000000      -0.40000000       0.33333333 </v>
   <v>       0.03846154      -0.40000000       0.33333333 </v>
   <v>       0.07692308      -0.40000000       0.33333333 </v>
   <v>       0.11538462      -0.40000000       0.33333333 </v>
   <v>       0.15384615      -0.40000000       0.33333333 </v>
   <v>       0.19230769      -0.40000000       0.33333333 </v>
   <v>       0.23076923      -0.40000000       0.33333333 </v>
   <v>       0.26923077      -0.40000000       0.33333333 </v>
   <v>       0.30769231      -0.40000000       0.33333333 </v>
   <v>       0.34615385      -0.40000000       0.33333333 </v>
   <v>       0.38461538      -0.40000000       0.33333333 </v>
   <v>       0.42307692      -0.40000000       0.33333333 </v>
   <v>       0.46153846      -0.40000000       0.33333333 </v>
   <v>       0.50000000      -0.40000000       0.33333333 </v>
   <v>      -0.46153846      -0.40000000       0.33333333 </v>
   <v>      -0.42307692      -0.40000000       0.33333333 </v>
   <v>      -0.38461538      -0.40000000       0.33333333 </v>
   <v>      -0.34615385      -0.40000000       0.33333333 </v>
   <v>      -0.30769231      -0.40000000       0.33333333 </v>
   <v>      -0.26923077      -0.40000000       0.33333333 </v>
   <v>      -0.23076923      -0.40000000       0.33333333 </v>
   <v>      -0.19230769      -0.40000000       0.33333333 </v>
   <v>      -0.15384615      -0.40000000       0.33333333 </v>
   <v>      -0.11538462      -0.40000000       0.33333333 </v>
   <v>      -0.07692308      -0.40000000       0.33333333 </v>
   <v>      -0.03846154      -0.40000000       0.33333333 </v>
   <v>       0.00000000      -0.33333333       0.33333333 </v>
   <v>       0.03846154      -0.33333333       0.33333333 </v>
   <v>       0.07692308      -0.33333333       0.33333333 </v>
   <v>       0.11538462      -0.33333333       0.33333333 </v>
   <v>       0.15384615      -0.33333333       0.33333333 </v>
   <v>       0.19230769      -0.33333333       0.33333333 </v>
[...]
       <r>    4.1009    1.0000 </r>
       <r>    4.1335    1.0000 </r>
       <r>    4.2361    1.0000 </r>
       <r>    4.2967    1.0000 </r>
       <r>    4.4962    1.0000 </r>
       <r>    4.5949    1.0000 </r>
       <r>    4.7372    1.0000 </r>
       <r>    4.9495    1.0000 </r>
       <r>    5.0416    1.0000 </r>
       <r>    5.1807    1.0000 </r>
       <r>    5.4087    1.0000 </r>
       <r>    8.0377    0.4462 </r>
       <r>    8.5217   -0.0195 </r>
       <r>    8.8952   -0.0001 </r>
       <r>   10.5301    0.0000 </r>
       <r>   12.0674    0.0000 </r>
       <r>   13.7735    0.0000 </r>
       <r>   14.2638    0.0000 </r>
       <r>   14.6301    0.0000 </r>
      </set>
      <set comment="kpoint 1755">
       <r>    0.6319    1.0000 </r>
       <r>    1.5578    1.0000 </r>
       <r>    2.1288    1.0000 </r>
       <r>    2.2365    1.0000 </r>
       <r>    2.3215    1.0000 </r>
       <r>    2.4910    1.0000 </r>
       <r>    2.5475    1.0000 </r>
       <r>    2.9536    1.0000 </r>
       <r>    3.0380    1.0000 </r>
       <r>    3.0802    1.0000 </r>
       <r>    3.1241    1.0000 </r>
       <r>    3.2195    1.0000 </r>
       <r>    3.5157    1.0000 </r>
       <r>    3.5463    1.0000 </r>
       <r>    3.6526    1.0000 </r>
       <r>    3.6610    1.0000 </r>
       <r>    3.6669    1.0000 </r>
       <r>    3.7127    1.0000 </r>
       <r>    3.8216    1.0000 </r>
       <r>    3.9365    1.0000 </r>
       <r>    3.9867    1.0000 </r>
       <r>    4.0249    1.0000 </r>
       <r>    4.1552    1.0000 </r>
       <r>    4.2211    1.0000 </r>
       <r>    4.3106    1.0000 </r>
       <r>    4.4649    1.0000 </r>
       <r>    4.5369    1.0000 </r>
       <r>    4.7076    1.0000 </r>
       <r>    4.8966    1.0000 </r>
       <r>    5.0534    1.0000 </r>
       <r>    5.2795    1.0000 </r>
       <r>    5.4674    1.0000 </r>
       <r>    8.0169    0.5046 </r>
       <r>    8.5205   -0.0197 </r>
       <r>    8.9115   -0.0001 </r>
       <r>   10.1256    0.0000 </r>
       <r>   11.7627    0.0000 </r>
       <r>   13.5251    0.0000 </r>
       <r>   13.9066    0.0000 </r>
       <r>   14.3799    0.0000 </r>
      </set>
      <set comment="kpoint 1756">
       <r>    0.5512    1.0000 </r>
       <r>    1.4181    1.0000 </r>
       <r>    2.0854    1.0000 </r>
       <r>    2.1991    1.0000 </r>
       <r>    2.2759    1.0000 </r>
       <r>    2.4089    1.0000 </r>
       <r>    2.5813    1.0000 </r>
       <r>    2.9801    1.0000 </r>
       <r>    3.0602    1.0000 </r>
       <r>    3.0838    1.0000 </r>
       <r>    3.1397    1.0000 </r>
       <r>    3.2489    1.0000 </r>
       <r>    3.4940    1.0000 </r>
       <r>    3.5267    1.0000 </r>
       <r>    3.6454    1.0000 </r>
       <r>    3.6960    1.0000 </r>
       <r>    3.7169    1.0000 </r>
       <r>    3.7894    1.0000 </r>
       <r>    3.8184    1.0000 </r>
       <r>    3.9225    1.0000 </r>
       <r>    3.9526    1.0000 </r>
       <r>    4.0483    1.0000 </r>
       <r>    4.1271    1.0000 </r>
       <r>    4.2638    1.0000 </r>
       <r>    4.3579    1.0000 </r>
       <r>    4.4223    1.0000 </r>
       <r>    4.4680    1.0000 </r>
       <r>    4.6518    1.0000 </r>
       <r>    4.8579    1.0000 </r>
       <r>    5.0690    1.0000 </r>
       <r>    5.3370    1.0000 </r>
       <r>    5.5315    1.0000 </r>
       <r>    8.0792    0.3327 </r>
       <r>    8.5667   -0.0134 </r>
       <r>    8.9860    0.0000 </r>
       <r>    9.7995    0.0000 </r>
       <r>   11.5540    0.0000 </r>
       <r>   13.1841    0.0000 </r>
       <r>   13.7356    0.0000 </r>
       <r>   14.2013    0.0000 </r>
      </set>
     </set>
    </set>
   </array>
  </eigenvalues>
  <separator name="orbital magnetization" >
   <v name="MAGDIPOLOUT">      0.00000000      0.00000000      0.00000000</v>
  </separator>
  <dos>
   <i name="efermi">      8.01852427 </i>
   <total>
    <array>
     <dimension dim="1">gridpoints</dimension>
     <dimension dim="2">spin</dimension>
     <field>energy</field>
     <field>total</field>
     <field>integrated</field>
     <set>
      <set comment="spin 1">
       <r>    -2.9019     0.0000     0.0000 </r>
       <r>    -2.8205     0.0000     0.0000 </r>
       <r>    -2.7392     0.0000     0.0000 </r>
       <r>    -2.6579     0.0000     0.0000 </r>
       <r>    -2.5765     0.0000     0.0000 </r>
       <r>    -2.4952     0.0000     0.0000 </r>
       <r>    -2.4138     0.0000     0.0000 </r>
       <r>    -2.3325     0.0000     0.0000 </r>
       <r>    -2.2511     0.0000     0.0000 </r>
       <r>    -2.1698     0.0000     0.0000 </r>
       <r>    -2.0884     0.0000     0.0000 </r>
       <r>    -2.0071     0.0000     0.0000 </r>
       <r>    -1.9257     0.0000     0.0000 </r>
       <r>    -1.8444     0.0000     0.0000 </r>
       <r>    -1.7630     0.0000     0.0000 </r>
       <r>    -1.6817     0.0000     0.0000 </r>
       <r>    -1.6003     0.0000     0.0000 </r>
       <r>    -1.5190     0.0000     0.0000 </r>
       <r>    -1.4376     0.0000     0.0000 </r>
       <r>    -1.3563     0.0000     0.0000 </r>
       <r>    -1.2749     0.0000     0.0000 </r>
       <r>    -1.1936     0.0000     0.0000 </r>
       <r>    -1.1122     0.0000     0.0000 </r>
       <r>    -1.0309     0.0000     0.0000 </r>
       <r>    -0.9496     0.0000     0.0000 </r>
       <r>    -0.8682     0.0000     0.0000 </r>
       <r>    -0.7869     0.0000     0.0000 </r>
       <r>    -0.7055     0.0000     0.0000 </r>
       <r>    -0.6242    -0.0001     0.0000 </r>
       <r>    -0.5428    -0.0005    -0.0001 </r>
       <r>    -0.4615    -0.0013    -0.0002 </r>
       <r>    -0.3801    -0.0031    -0.0004 </r>
       <r>    -0.2988    -0.0061    -0.0009 </r>
       <r>    -0.2174    -0.0093    -0.0017 </r>
       <r>    -0.1361    -0.0097    -0.0025 </r>
       <r>    -0.0547    -0.0015    -0.0026 </r>
       <r>     0.0266     0.0222    -0.0008 </r>
       <r>     0.1080     0.0660     0.0046 </r>
       <r>     0.1893     0.1298     0.0152 </r>
       <r>     0.2707     0.2079     0.0321 </r>
       <r>     0.3520     0.2919     0.0558 </r>
       <r>     0.4334     0.3739     0.0862 </r>
       <r>     0.5147     0.4477     0.1227 </r>
       <r>     0.5961     0.5089     0.1641 </r>
       <r>     0.6774     0.5559     0.2093 </r>
       <r>     0.7587     0.5905     0.2573 </r>
       <r>     0.8401     0.6187     0.3076 </r>
       <r>     0.9214     0.6485     0.3604 </r>
       <r>     1.0028     0.6863     0.4162 </r>
       <r>     1.0841     0.7315     0.4757 </r>
       <r>     1.1655     0.7739     0.5387 </r>
       <r>     1.2468     0.7958     0.6034 </r>
       <r>     1.3282     0.7863     0.6674 </r>
       <r>     1.4095     0.7642     0.7296 </r>
       <r>     1.4909     0.8024     0.7948 </r>
       <r>     1.5722     1.0331     0.8789 </r>
       <r>     1.6536     1.6162     1.0103 </r>
       <r>     1.7349     2.6759     1.2280 </r>
       <r>     1.8163     4.2463     1.5734 </r>
       <r>     1.8976     6.2709     2.0836 </r>
       <r>     1.9790     8.6508     2.7873 </r>
       <r>     2.0603    11.2719     3.7042 </r>
       <r>     2.1417    13.9572     4.8396 </r>
       <r>     2.2230    16.3924     6.1731 </r>
       <r>     2.3044    18.1503     7.6496 </r>
       <r>     2.3857    18.8700     9.1846 </r>
       <r>     2.4670    18.4730    10.6873 </r>
       <r>     2.5484    17.2449    12.0902 </r>
       <r>     2.6297    15.7207    13.3690 </r>
       <r>     2.7111    14.4606    14.5454 </r>
       <r>     2.7924    13.8372    15.6710 </r>
       <r>     2.8738    13.9138    16.8028 </r>
       <r>     2.9551    14.4627    17.9793 </r>
       <r>     3.0365    15.1339    19.2105 </r>
       <r>     3.1178    15.6982    20.4875 </r>
       <r>     3.1992    16.2167    21.8067 </r>
       <r>     3.2805    16.9979    23.1894 </r>
       <r>     3.3619    18.3337    24.6808 </r>
       <r>     3.4432    20.1713    26.3217 </r>
       <r>     3.5246    21.9795    28.1097 </r>
       <r>     3.6059    22.9825    29.9792 </r>
       <r>     3.6873    22.6571    31.8223 </r>
       <r>     3.7686    21.1215    33.5405 </r>
       <r>     3.8500    19.0871    35.0932 </r>
       <r>     3.9313    17.4104    36.5095 </r>
       <r>     4.0127    16.6123    37.8609 </r>
       <r>     4.0940    16.6976    39.2192 </r>
       <r>     4.1753    17.3001    40.6265 </r>
       <r>     4.2567    17.9551    42.0871 </r>
       <r>     4.3380    18.3067    43.5763 </r>
       <r>     4.4194    18.1950    45.0564 </r>
       <r>     4.5007    17.6562    46.4927 </r>
       <r>     4.5821    16.8797    47.8659 </r>
       <r>     4.6634    16.1417    49.1789 </r>
       <r>     4.7448    15.7117    50.4570 </r>
       <r>     4.8261    15.7398    51.7374 </r>
       <r>     4.9075    16.1700    53.0528 </r>
       <r>     4.9888    16.7459    54.4151 </r>
       <r>     5.0702    17.1207    55.8078 </r>
       <r>     5.1515    16.9887    57.1898 </r>
       <r>     5.2329    16.1544    58.5039 </r>
       <r>     5.3142    14.5466    59.6872 </r>
       <r>     5.3956    12.2462    60.6834 </r>
       <r>     5.4769     9.5222    61.4581 </r>
       <r>     5.5583     6.7920    62.0106 </r>
       <r>     5.6396     4.4735    62.3745 </r>
       <r>     5.7210     2.8168    62.6036 </r>
       <r>     5.8023     1.8365    62.7530 </r>
       <r>     5.8836     1.3737    62.8648 </r>
       <r>     5.9650     1.2199    62.9640 </r>
       <r>     6.0463     1.2135    63.0627 </r>
       <r>     6.1277     1.2667    63.1658 </r>
       <r>     6.2090     1.3403    63.2748 </r>
       <r>     6.2904     1.4090    63.3894 </r>
       <r>     6.3717     1.4489    63.5073 </r>
       <r>     6.4531     1.4481    63.6251 </r>
       <r>     6.5344     1.4179    63.7404 </r>
       <r>     6.6158     1.3869    63.8532 </r>
       <r>     6.6971     1.3816    63.9656 </r>
       <r>     6.7785     1.4086    64.0802 </r>
       <r>     6.8598     1.4531    64.1984 </r>
       <r>     6.9412     1.4910    64.3197 </r>
       <r>     7.0225     1.5059    64.4422 </r>
       <r>     7.1039     1.4970    64.5640 </r>
       <r>     7.1852     1.4768    64.6841 </r>
       <r>     7.2666     1.4627    64.8031 </r>
       <r>     7.3479     1.4692    64.9226 </r>
       <r>     7.4293     1.5015    65.0448 </r>
       <r>     7.5106     1.5519    65.1710 </r>
       <r>     7.5919     1.6038    65.3015 </r>
       <r>     7.6733     1.6415    65.4350 </r>
       <r>     7.7546     1.6577    65.5699 </r>
       <r>     7.8360     1.6535    65.7044 </r>
       <r>     7.9173     1.6347    65.8373 </r>
       <r>     7.9987     1.6101    65.9683 </r>
       <r>     8.0800     1.5927    66.0979 </r>
       <r>     8.1614     1.5956    66.2277 </r>
       <r>     8.2427     1.6222    66.3596 </r>
       <r>     8.3241     1.6608    66.4947 </r>
       <r>     8.4054     1.6913    66.6323 </r>
       <r>     8.4868     1.6975    66.7704 </r>
       <r>     8.5681     1.6751    66.9067 </r>
       <r>     8.6495     1.6318    67.0394 </r>
       <r>     8.7308     1.5835    67.1682 </r>
       <r>     8.8122     1.5488    67.2942 </r>
       <r>     8.8935     1.5426    67.4197 </r>
       <r>     8.9749     1.5675    67.5472 </r>
       <r>     9.0562     1.6115    67.6783 </r>
       <r>     9.1376     1.6530    67.8128 </r>
       <r>     9.2189     1.6720    67.9488 </r>
       <r>     9.3002     1.6603    68.0838 </r>
       <r>     9.3816     1.6246    68.2160 </r>
       <r>     9.4629     1.5823    68.3447 </r>
       <r>     9.5443     1.5522    68.4710 </r>
       <r>     9.6256     1.5448    68.5967 </r>
       <r>     9.7070     1.5580    68.7234 </r>
       <r>     9.7883     1.5798    68.8519 </r>
       <r>     9.8697     1.5959    68.9817 </r>
       <r>     9.9510     1.5960    69.1116 </r>
       <r>    10.0324     1.5761    69.2398 </r>
       <r>    10.1137     1.5385    69.3649 </r>
       <r>    10.1951     1.4912    69.4862 </r>
       <r>    10.2764     1.4447    69.6038 </r>
       <r>    10.3578     1.4074    69.7182 </r>
       <r>    10.4391     1.3805    69.8306 </r>
       <r>    10.5205     1.3600    69.9412 </r>
       <r>    10.6018     1.3409    70.0503 </r>
       <r>    10.6832     1.3204    70.1577 </r>
       <r>    10.7645     1.2971    70.2632 </r>
       <r>    10.8459     1.2715    70.3666 </r>
       <r>    10.9272     1.2496    70.4683 </r>
       <r>    11.0085     1.2470    70.5697 </r>
       <r>    11.0899     1.2867    70.6744 </r>
       <r>    11.1712     1.3847    70.7870 </r>
       <r>    11.2526     1.5358    70.9120 </r>
       <r>    11.3339     1.7100    71.0511 </r>
       <r>    11.4153     1.8678    71.2030 </r>
       <r>    11.4966     1.9811    71.3642 </r>
       <r>    11.5780     2.0424    71.5303 </r>
       <r>    11.6593     2.0597    71.6979 </r>
       <r>    11.7407     2.0458    71.8643 </r>
       <r>    11.8220     2.0134    72.0281 </r>
       <r>    11.9034     1.9765    72.1888 </r>
       <r>    11.9847     1.9487    72.3474 </r>
       <r>    12.0661     1.9374    72.5050 </r>
       <r>    12.1474     1.9381    72.6626 </r>
       <r>    12.2288     1.9368    72.8202 </r>
       <r>    12.3101     1.9213    72.9765 </r>
       <r>    12.3915     1.8907    73.1303 </r>
       <r>    12.4728     1.8569    73.2813 </r>
       <r>    12.5542     1.8345    73.4306 </r>
       <r>    12.6355     1.8301    73.5794 </r>
       <r>    12.7168     1.8381    73.7290 </r>
       <r>    12.7982     1.8453    73.8791 </r>
       <r>    12.8795     1.8399    74.0287 </r>
       <r>    12.9609     1.8187    74.1767 </r>
       <r>    13.0422     1.7882    74.3222 </r>
       <r>    13.1236     1.7599    74.4653 </r>
       <r>    13.2049     1.7428    74.6071 </r>
       <r>    13.2863     1.7393    74.7486 </r>
       <r>    13.3676     1.7462    74.8906 </r>
       <r>    13.4490     1.7577    75.0336 </r>
       <r>    13.5303     1.7670    75.1773 </r>
       <r>    13.6117     1.7675    75.3211 </r>
       <r>    13.6930     1.7562    75.4640 </r>
       <r>    13.7744     1.7367    75.6053 </r>
       <r>    13.8557     1.7203    75.7452 </r>
       <r>    13.9371     1.7230    75.8854 </r>
       <r>    14.0184     1.7589    76.0285 </r>
       <r>    14.0998     1.8305    76.1774 </r>
       <r>    14.1811     1.9218    76.3337 </r>
       <r>    14.2625     2.0013    76.4965 </r>
       <r>    14.3438     2.0389    76.6624 </r>
       <r>    14.4251     2.0254    76.8271 </r>
       <r>    14.5065     1.9779    76.9880 </r>
       <r>    14.5878     1.9239    77.1445 </r>
       <r>    14.6692     1.8813    77.2976 </r>
       <r>    14.7505     1.8489    77.4480 </r>
       <r>    14.8319     1.8137    77.5955 </r>
       <r>    14.9132     1.7636    77.7390 </r>
       <r>    14.9946     1.6952    77.8769 </r>
       <r>    15.0759     1.6133    78.0081 </r>
       <r>    15.1573     1.5256    78.1322 </r>
       <r>    15.2386     1.4386    78.2492 </r>
       <r>    15.3200     1.3557    78.3595 </r>
       <r>    15.4013     1.2785    78.4635 </r>
       <r>    15.4827     1.2079    78.5618 </r>
       <r>    15.5640     1.1436    78.6548 </r>
       <r>    15.6454     1.0848    78.7431 </r>
       <r>    15.7267     1.0303    78.8269 </r>
       <r>    15.8081     0.9783    78.9065 </r>
       <r>    15.8894     0.9257    78.9818 </r>
       <r>    15.9708     0.8708    79.0526 </r>
       <r>    16.0521     0.8148    79.1189 </r>
       <r>    16.1334     0.7614    79.1808 </r>
       <r>    16.2148     0.7146    79.2390 </r>
       <r>    16.2961     0.6762    79.2940 </r>
       <r>    16.3775     0.6460    79.3465 </r>
       <r>    16.4588     0.6225    79.3972 </r>
       <r>    16.5402     0.6037    79.4463 </r>
       <r>    16.6215     0.5873    79.4940 </r>
       <r>    16.7029     0.5704    79.5404 </r>
       <r>    16.7842     0.5501    79.5852 </r>
       <r>    16.8656     0.5249    79.6279 </r>
       <r>    16.9469     0.4949    79.6681 </r>
       <r>    17.0283     0.4611    79.7057 </r>
       <r>    17.1096     0.4236    79.7401 </r>
       <r>    17.1910     0.3821    79.7712 </r>
       <r>    17.2723     0.3376    79.7987 </r>
       <r>    17.3537     0.2947    79.8226 </r>
       <r>    17.4350     0.2604    79.8438 </r>
       <r>    17.5164     0.2392    79.8633 </r>
       <r>    17.5977     0.2299    79.8820 </r>
       <r>    17.6791     0.2252    79.9003 </r>
       <r>    17.7604     0.2166    79.9179 </r>
       <r>    17.8417     0.1996    79.9342 </r>
       <r>    17.9231     0.1756    79.9484 </r>
       <r>    18.0044     0.1498    79.9606 </r>
       <r>    18.0858     0.1267    79.9709 </r>
       <r>    18.1671     0.1075    79.9797 </r>
       <r>    18.2485     0.0897    79.9870 </r>
       <r>    18.3298     0.0704    79.9927 </r>
       <r>    18.4112     0.0494    79.9967 </r>
       <r>    18.4925     0.0295    79.9991 </r>
       <r>    18.5739     0.0138    80.0003 </r>
       <r>    18.6552     0.0040    80.0006 </r>
       <r>    18.7366    -0.0007    80.0005 </r>
       <r>    18.8179    -0.0021    80.0004 </r>
       <r>    18.8993    -0.0019    80.0002 </r>
       <r>    18.9806    -0.0013    80.0001 </r>
       <r>    19.0620    -0.0007    80.0000 </r>
       <r>    19.1433    -0.0003    80.0000 </r>
       <r>    19.2247    -0.0001    80.0000 </r>
       <r>    19.3060     0.0000    80.0000 </r>
       <r>    19.3874     0.0000    80.0000 </r>
       <r>    19.4687     0.0000    80.0000 </r>
       <r>    19.5500     0.0000    80.0000 </r>
       <r>    19.6314     0.0000    80.0000 </r>
       <r>    19.7127     0.0000    80.0000 </r>
       <r>    19.7941     0.0000    80.0000 </r>
       <r>    19.8754     0.0000    80.0000 </r>
       <r>    19.9568     0.0000    80.0000 </r>
       <r>    20.0381     0.0000    80.0000 </r>
       <r>    20.1195     0.0000    80.0000 </r>
       <r>    20.2008     0.0000    80.0000 </r>
       <r>    20.2822     0.0000    80.0000 </r>
       <r>    20.3635     0.0000    80.0000 </r>
       <r>    20.4449     0.0000    80.0000 </r>
       <r>    20.5262     0.0000    80.0000 </r>
       <r>    20.6076     0.0000    80.0000 </r>
       <r>    20.6889     0.0000    80.0000 </r>
       <r>    20.7703     0.0000    80.0000 </r>
       <r>    20.8516     0.0000    80.0000 </r>
       <r>    20.9330     0.0000    80.0000 </r>
       <r>    21.0143     0.0000    80.0000 </r>
       <r>    21.0957     0.0000    80.0000 </r>
       <r>    21.1770     0.0000    80.0000 </r>
       <r>    21.2583     0.0000    80.0000 </r>
       <r>    21.3397     0.0000    80.0000 </r>
       <r>    21.4210     0.0000    80.0000 </r>
       <r>    21.5024     0.0000    80.0000 </r>
      </set>
     </set>
    </array>
   </total>
  </dos>
 </calculation>
 <structure name="finalpos" >
  <crystal>
   <varray name="basis" >
    <v>       0.00000000      -2.06672358      -2.06672358 </v>
    <v>       2.07634287       4.14347995      -2.07675637 </v>
    <v>       6.22907825      -2.07677297       4.14349655 </v>
   </varray>
   <i name="volume">    106.77055898 </i>
   <varray name="rec_basis" >
    <v>       0.12040345      -0.20173724      -0.28212041 </v>
    <v>       0.12040377       0.12057428      -0.12057428 </v>
    <v>       0.12040313      -0.04019111       0.04019111 </v>
   </varray>
  </crystal>
  <varray name="positions" >
   <v>       0.83314761       0.49920109       0.16709414 </v>
   <v>       0.66652977       0.99934616       0.33371339 </v>
   <v>       0.50000000       0.50000000       0.50000000 </v>
   <v>       0.33347023       0.00065384       0.66628661 </v>
   <v>       0.16685239       0.50079891       0.83290586 </v>
   <v>       0.00000000       0.00000000       0.00000000 </v>
  </varray>
 </structure>
</modeling>
