<?xml version="1.0" encoding="ISO-8859-1"?>
<modeling>
 <generator>
  <i name="program" type="string">vasp </i>
  <i name="version" type="string">5.3.5  </i>
  <i name="subversion" type="string">31Mar14 (build Jun 20 2014 13:15:13) complex                          parallel </i>
  <i name="platform" type="string">LinuxIFC </i>
  <i name="date" type="string">2025 11 27 </i>
  <i name="time" type="string">21:35:26 </i>
 </generator>
 <incar>
  <i type="string" name="PREC">accurate</i>
  <i type="int" name="IALGO">    68</i>
  <i type="logical" name="ADDGRID"> T  </i>
  <i type="int" name="NELM">   200</i>
  <i type="int" name="NELMIN">     4</i>
  <i type="int" name="IBRION">     2</i>
  <i name="EDIFF">      0.00000100</i>
  <i name="EDIFFG">     -0.02000000</i>
  <i type="int" name="NSW">    30</i>
  <i type="int" name="ISIF">     3</i>
  <i name="ENCUT">    500.00000000</i>
  <i type="logical" name="LREAL"> F  </i>
  <i type="int" name="ISMEAR">     1</i>
  <i name="SIGMA">      0.30000000</i>
  <i type="logical" name="LWAVE"> F  </i>
  <i type="logical" name="LCHARG"> F  </i>
  <i type="int" name="NELM">   200</i>
 </incar>
 <kpoints>
  <generation param="Auto">
   <i name="subdivisionlength">     70.00000000 </i>
   <v type="int" name="divisions">      25       14       10 </v>
   <v name="usershift">      0.00000000       0.00000000       0.00000000 </v>
   <v name="genvec1">      0.04000000       0.00000000       0.00000000 </v>
   <v name="genvec2">      0.00000000       0.07142857       0.00000000 </v>
   <v name="genvec3">      0.00000000       0.00000000       0.10000000 </v>
   <v name="shift">      0.00000000       0.00000000       0.00000000 </v>
  </generation>
  <varray name="kpointlist" >
   <v>       0.00000000       0.00000000       0.00000000 </v>
   <v>       0.04000000       0.00000000       0.00000000 </v>
   <v>       0.08000000       0.00000000       0.00000000 </v>
   <v>       0.12000000       0.00000000       0.00000000 </v>
   <v>       0.16000000       0.00000000       0.00000000 </v>
   <v>       0.20000000       0.00000000       0.00000000 </v>
   <v>       0.24000000       0.00000000       0.00000000 </v>
   <v>       0.28000000       0.00000000       0.00000000 </v>
   <v>       0.32000000       0.00000000       0.00000000 </v>
   <v>       0.36000000       0.00000000       0.00000000 </v>
   <v>       0.40000000       0.00000000       0.00000000 </v>
   <v>       0.44000000       0.00000000       0.00000000 </v>
   <v>       0.48000000       0.00000000       0.00000000 </v>
   <v>       0.00000000       0.07142857       0.00000000 </v>
   <v>       0.04000000       0.07142857       0.00000000 </v>
   <v>       0.08000000       0.07142857       0.00000000 </v>
   <v>       0.12000000       0.07142857       0.00000000 </v>
   <v>       0.16000000       0.07142857       0.00000000 </v>
   <v>       0.20000000       0.07142857       0.00000000 </v>
   <v>       0.24000000       0.07142857       0.00000000 </v>
   <v>       0.28000000       0.07142857       0.00000000 </v>
   <v>       0.32000000       0.07142857       0.00000000 </v>
   <v>       0.36000000       0.07142857       0.00000000 </v>
   <v>       0.40000000       0.07142857       0.00000000 </v>
   <v>       0.44000000       0.07142857       0.00000000 </v>
   <v>       0.48000000       0.07142857       0.00000000 </v>
   <v>       0.00000000       0.14285714       0.00000000 </v>
   <v>       0.04000000       0.14285714       0.00000000 </v>
   <v>       0.08000000       0.14285714       0.00000000 </v>
   <v>       0.12000000       0.14285714       0.00000000 </v>
   <v>       0.16000000       0.14285714       0.00000000 </v>
   <v>       0.20000000       0.14285714       0.00000000 </v>
   <v>       0.24000000       0.14285714       0.00000000 </v>
   <v>       0.28000000       0.14285714       0.00000000 </v>
   <v>       0.32000000       0.14285714       0.00000000 </v>
   <v>       0.36000000       0.14285714       0.00000000 </v>
   <v>       0.40000000       0.14285714       0.00000000 </v>
   <v>       0.44000000       0.14285714       0.00000000 </v>
   <v>       0.48000000       0.14285714       0.00000000 </v>
   <v>       0.00000000       0.21428571       0.00000000 </v>
   <v>       0.04000000       0.21428571       0.00000000 </v>
   <v>       0.08000000       0.21428571       0.00000000 </v>
   <v>       0.12000000       0.21428571       0.00000000 </v>
   <v>       0.16000000       0.21428571       0.00000000 </v>
   <v>       0.20000000       0.21428571       0.00000000 </v>
   <v>       0.24000000       0.21428571       0.00000000 </v>
   <v>       0.28000000       0.21428571       0.00000000 </v>
   <v>       0.32000000       0.21428571       0.00000000 </v>
   <v>       0.36000000       0.21428571       0.00000000 </v>
   <v>       0.40000000       0.21428571       0.00000000 </v>
   <v>       0.44000000       0.21428571       0.00000000 </v>
   <v>       0.48000000       0.21428571       0.00000000 </v>
   <v>       0.00000000       0.28571429       0.00000000 </v>
   <v>       0.04000000       0.28571429       0.00000000 </v>
   <v>       0.08000000       0.28571429       0.00000000 </v>
   <v>       0.12000000       0.28571429       0.00000000 </v>
   <v>       0.16000000       0.28571429       0.00000000 </v>
   <v>       0.20000000       0.28571429       0.00000000 </v>
   <v>       0.24000000       0.28571429       0.00000000 </v>
   <v>       0.28000000       0.28571429       0.00000000 </v>
   <v>       0.32000000       0.28571429       0.00000000 </v>
   <v>       0.36000000       0.28571429       0.00000000 </v>
   <v>       0.40000000       0.28571429       0.00000000 </v>
   <v>       0.44000000       0.28571429       0.00000000 </v>
   <v>       0.48000000       0.28571429       0.00000000 </v>
   <v>       0.00000000       0.35714286       0.00000000 </v>
   <v>       0.04000000       0.35714286       0.00000000 </v>
   <v>       0.08000000       0.35714286       0.00000000 </v>
   <v>       0.12000000       0.35714286       0.00000000 </v>
   <v>       0.16000000       0.35714286       0.00000000 </v>
   <v>       0.20000000       0.35714286       0.00000000 </v>
   <v>       0.24000000       0.35714286       0.00000000 </v>
   <v>       0.28000000       0.35714286       0.00000000 </v>
   <v>       0.32000000       0.35714286       0.00000000 </v>
   <v>       0.36000000       0.35714286       0.00000000 </v>
   <v>       0.40000000       0.35714286       0.00000000 </v>
   <v>       0.44000000       0.35714286       0.00000000 </v>
   <v>       0.48000000       0.35714286       0.00000000 </v>
   <v>       0.00000000       0.42857143       0.00000000 </v>
   <v>       0.04000000       0.42857143       0.00000000 </v>
   <v>       0.08000000       0.42857143       0.00000000 </v>
   <v>       0.12000000       0.42857143       0.00000000 </v>
   <v>       0.16000000       0.42857143       0.00000000 </v>
   <v>       0.20000000       0.42857143       0.00000000 </v>
   <v>       0.24000000       0.42857143       0.00000000 </v>
   <v>       0.28000000       0.42857143       0.00000000 </v>
   <v>       0.32000000       0.42857143       0.00000000 </v>
   <v>       0.36000000       0.42857143       0.00000000 </v>
   <v>       0.40000000       0.42857143       0.00000000 </v>
   <v>       0.44000000       0.42857143       0.00000000 </v>
   <v>       0.48000000       0.42857143       0.00000000 </v>
   <v>       0.00000000       0.50000000       0.00000000 </v>
   <v>       0.04000000       0.50000000       0.00000000 </v>
   <v>       0.08000000       0.50000000       0.00000000 </v>
   <v>       0.12000000       0.50000000       0.00000000 </v>
   <v>       0.16000000       0.50000000       0.00000000 </v>
   <v>       0.20000000       0.50000000       0.00000000 </v>
   <v>       0.24000000       0.50000000       0.00000000 </v>
   <v>       0.28000000       0.50000000       0.00000000 </v>
   <v>       0.32000000       0.50000000       0.00000000 </v>
   <v>       0.36000000       0.50000000       0.00000000 </v>
   <v>       0.40000000       0.50000000       0.00000000 </v>
   <v>       0.44000000       0.50000000       0.00000000 </v>
   <v>       0.48000000       0.50000000       0.00000000 </v>
   <v>       0.00000000       0.00000000       0.10000000 </v>
   <v>       0.04000000       0.00000000       0.10000000 </v>
   <v>       0.08000000       0.00000000       0.10000000 </v>
   <v>       0.12000000       0.00000000       0.10000000 </v>
   <v>       0.16000000       0.00000000       0.10000000 </v>
   <v>       0.20000000       0.00000000       0.10000000 </v>
   <v>       0.24000000       0.00000000       0.10000000 </v>
   <v>       0.28000000       0.00000000       0.10000000 </v>
   <v>       0.32000000       0.00000000       0.10000000 </v>
   <v>       0.36000000       0.00000000       0.10000000 </v>
   <v>       0.40000000       0.00000000       0.10000000 </v>
   <v>       0.44000000       0.00000000       0.10000000 </v>
   <v>       0.48000000       0.00000000       0.10000000 </v>
   <v>       0.00000000       0.07142857       0.10000000 </v>
   <v>       0.04000000       0.07142857       0.10000000 </v>
   <v>       0.08000000       0.07142857       0.10000000 </v>
   <v>       0.12000000       0.07142857       0.10000000 </v>
   <v>       0.16000000       0.07142857       0.10000000 </v>
   <v>       0.20000000       0.07142857       0.10000000 </v>
   <v>       0.24000000       0.07142857       0.10000000 </v>
   <v>       0.28000000       0.07142857       0.10000000 </v>
   <v>       0.32000000       0.07142857       0.10000000 </v>
   <v>       0.36000000       0.07142857       0.10000000 </v>
   <v>       0.40000000       0.07142857       0.10000000 </v>
   <v>       0.44000000       0.07142857       0.10000000 </v>
   <v>       0.48000000       0.07142857       0.10000000 </v>
   <v>       0.00000000       0.14285714       0.10000000 </v>
   <v>       0.04000000       0.14285714       0.10000000 </v>
   <v>       0.08000000       0.14285714       0.10000000 </v>
   <v>       0.12000000       0.14285714       0.10000000 </v>
   <v>       0.16000000       0.14285714       0.10000000 </v>
   <v>       0.20000000       0.14285714       0.10000000 </v>
   <v>       0.24000000       0.14285714       0.10000000 </v>
   <v>       0.28000000       0.14285714       0.10000000 </v>
   <v>       0.32000000       0.14285714       0.10000000 </v>
   <v>       0.36000000       0.14285714       0.10000000 </v>
   <v>       0.40000000       0.14285714       0.10000000 </v>
   <v>       0.44000000       0.14285714       0.10000000 </v>
   <v>       0.48000000       0.14285714       0.10000000 </v>
   <v>       0.00000000       0.21428571       0.10000000 </v>
   <v>       0.04000000       0.21428571       0.10000000 </v>
   <v>       0.08000000       0.21428571       0.10000000 </v>
   <v>       0.12000000       0.21428571       0.10000000 </v>
   <v>       0.16000000       0.21428571       0.10000000 </v>
   <v>       0.20000000       0.21428571       0.10000000 </v>
   <v>       0.24000000       0.21428571       0.10000000 </v>
   <v>       0.28000000       0.21428571       0.10000000 </v>
   <v>       0.32000000       0.21428571       0.10000000 </v>
   <v>       0.36000000       0.21428571       0.10000000 </v>
   <v>       0.40000000       0.21428571       0.10000000 </v>
   <v>       0.44000000       0.21428571       0.10000000 </v>
   <v>       0.48000000       0.21428571       0.10000000 </v>
   <v>       0.00000000       0.28571429       0.10000000 </v>
   <v>       0.04000000       0.28571429       0.10000000 </v>
   <v>       0.08000000       0.28571429       0.10000000 </v>
   <v>       0.12000000       0.28571429       0.10000000 </v>
   <v>       0.16000000       0.28571429       0.10000000 </v>
   <v>       0.20000000       0.28571429       0.10000000 </v>
   <v>       0.24000000       0.28571429       0.10000000 </v>
   <v>       0.28000000       0.28571429       0.10000000 </v>
   <v>       0.32000000       0.28571429       0.10000000 </v>
   <v>       0.36000000       0.28571429       0.10000000 </v>
   <v>       0.40000000       0.28571429       0.10000000 </v>
   <v>       0.44000000       0.28571429       0.10000000 </v>
   <v>       0.48000000       0.28571429       0.10000000 </v>
   <v>       0.00000000       0.35714286       0.10000000 </v>
   <v>       0.04000000       0.35714286       0.10000000 </v>
   <v>       0.08000000       0.35714286       0.10000000 </v>
   <v>       0.12000000       0.35714286       0.10000000 </v>
   <v>       0.16000000       0.35714286       0.10000000 </v>
   <v>       0.20000000       0.35714286       0.10000000 </v>
   <v>       0.24000000       0.35714286       0.10000000 </v>
   <v>       0.28000000       0.35714286       0.10000000 </v>
   <v>       0.32000000       0.35714286       0.10000000 </v>
   <v>       0.36000000       0.35714286       0.10000000 </v>
   <v>       0.40000000       0.35714286       0.10000000 </v>
   <v>       0.44000000       0.35714286       0.10000000 </v>
   <v>       0.48000000       0.35714286       0.10000000 </v>
   <v>       0.00000000       0.42857143       0.10000000 </v>
   <v>       0.04000000       0.42857143       0.10000000 </v>
   <v>       0.08000000       0.42857143       0.10000000 </v>
   <v>       0.12000000       0.42857143       0.10000000 </v>
   <v>       0.16000000       0.42857143       0.10000000 </v>
   <v>       0.20000000       0.42857143       0.10000000 </v>
   <v>       0.24000000       0.42857143       0.10000000 </v>
   <v>       0.28000000       0.42857143       0.10000000 </v>
   <v>       0.32000000       0.42857143       0.10000000 </v>
   <v>       0.36000000       0.42857143       0.10000000 </v>
   <v>       0.40000000       0.42857143       0.10000000 </v>
   <v>       0.44000000       0.42857143       0.10000000 </v>
   <v>       0.48000000       0.42857143       0.10000000 </v>
   <v>       0.00000000       0.50000000       0.10000000 </v>
   <v>       0.04000000       0.50000000       0.10000000 </v>
   <v>       0.08000000       0.50000000       0.10000000 </v>
   <v>       0.12000000       0.50000000       0.10000000 </v>
   <v>       0.16000000       0.50000000       0.10000000 </v>
   <v>       0.20000000       0.50000000       0.10000000 </v>
   <v>       0.24000000       0.50000000       0.10000000 </v>
   <v>       0.28000000       0.50000000       0.10000000 </v>
   <v>       0.32000000       0.50000000       0.10000000 </v>
   <v>       0.36000000       0.50000000       0.10000000 </v>
   <v>       0.40000000       0.50000000       0.10000000 </v>
   <v>       0.44000000       0.50000000       0.10000000 </v>
   <v>       0.48000000       0.50000000       0.10000000 </v>
   <v>       0.00000000      -0.42857143       0.10000000 </v>
   <v>       0.04000000      -0.42857143       0.10000000 </v>
   <v>       0.08000000      -0.42857143       0.10000000 </v>
   <v>       0.12000000      -0.42857143       0.10000000 </v>
   <v>       0.16000000      -0.42857143       0.10000000 </v>
   <v>       0.20000000      -0.42857143       0.10000000 </v>
   <v>       0.24000000      -0.42857143       0.10000000 </v>
   <v>       0.28000000      -0.42857143       0.10000000 </v>
   <v>       0.32000000      -0.42857143       0.10000000 </v>
   <v>       0.36000000      -0.42857143       0.10000000 </v>
   <v>       0.40000000      -0.42857143       0.10000000 </v>
   <v>       0.44000000      -0.42857143       0.10000000 </v>
   <v>       0.48000000      -0.42857143       0.10000000 </v>
   <v>       0.00000000      -0.35714286       0.10000000 </v>
   <v>       0.04000000      -0.35714286       0.10000000 </v>
   <v>       0.08000000      -0.35714286       0.10000000 </v>
   <v>       0.12000000      -0.35714286       0.10000000 </v>
   <v>       0.16000000      -0.35714286       0.10000000 </v>
   <v>       0.20000000      -0.35714286       0.10000000 </v>
   <v>       0.24000000      -0.35714286       0.10000000 </v>
   <v>       0.28000000      -0.35714286       0.10000000 </v>
   <v>       0.32000000      -0.35714286       0.10000000 </v>
   <v>       0.36000000      -0.35714286       0.10000000 </v>
   <v>       0.40000000      -0.35714286       0.10000000 </v>
   <v>       0.44000000      -0.35714286       0.10000000 </v>
   <v>       0.48000000      -0.35714286       0.10000000 </v>
   <v>       0.00000000      -0.28571429       0.10000000 </v>
   <v>       0.04000000      -0.28571429       0.10000000 </v>
   <v>       0.08000000      -0.28571429       0.10000000 </v>
   <v>       0.12000000      -0.28571429       0.10000000 </v>
   <v>       0.16000000      -0.28571429       0.10000000 </v>
   <v>       0.20000000      -0.28571429       0.10000000 </v>
   <v>       0.24000000      -0.28571429       0.10000000 </v>
   <v>       0.28000000      -0.28571429       0.10000000 </v>
   <v>       0.32000000      -0.28571429       0.10000000 </v>
   <v>       0.36000000      -0.28571429       0.10000000 </v>
   <v>       0.40000000      -0.28571429       0.10000000 </v>
   <v>       0.44000000      -0.28571429       0.10000000 </v>
   <v>       0.48000000      -0.28571429       0.10000000 </v>
   <v>       0.00000000      -0.21428571       0.10000000 </v>
   <v>       0.04000000      -0.21428571       0.10000000 </v>
   <v>       0.08000000      -0.21428571       0.10000000 </v>
   <v>       0.12000000      -0.21428571       0.10000000 </v>
   <v>       0.16000000      -0.21428571       0.10000000 </v>
   <v>       0.20000000      -0.21428571       0.10000000 </v>
   <v>       0.24000000      -0.21428571       0.10000000 </v>
   <v>       0.28000000      -0.21428571       0.10000000 </v>
   <v>       0.32000000      -0.21428571       0.10000000 </v>
   <v>       0.36000000      -0.21428571       0.10000000 </v>
   <v>       0.40000000      -0.21428571       0.10000000 </v>
   <v>       0.44000000      -0.21428571       0.10000000 </v>
   <v>       0.48000000      -0.21428571       0.10000000 </v>
   <v>       0.00000000      -0.14285714       0.10000000 </v>
   <v>       0.04000000      -0.14285714       0.10000000 </v>
   <v>       0.08000000      -0.14285714       0.10000000 </v>
   <v>       0.12000000      -0.14285714       0.10000000 </v>
   <v>       0.16000000      -0.14285714       0.10000000 </v>
   <v>       0.20000000      -0.14285714       0.10000000 </v>
   <v>       0.24000000      -0.14285714       0.10000000 </v>
   <v>       0.28000000      -0.14285714       0.10000000 </v>
   <v>       0.32000000      -0.14285714       0.10000000 </v>
   <v>       0.36000000      -0.14285714       0.10000000 </v>
   <v>       0.40000000      -0.14285714       0.10000000 </v>
   <v>       0.44000000      -0.14285714       0.10000000 </v>
   <v>       0.48000000      -0.14285714       0.10000000 </v>
   <v>       0.00000000      -0.07142857       0.10000000 </v>
   <v>       0.04000000      -0.07142857       0.10000000 </v>
   <v>       0.08000000      -0.07142857       0.10000000 </v>
   <v>       0.12000000      -0.07142857       0.10000000 </v>
   <v>       0.16000000      -0.07142857       0.10000000 </v>
   <v>       0.20000000      -0.07142857       0.10000000 </v>
   <v>       0.24000000      -0.07142857       0.10000000 </v>
   <v>       0.28000000      -0.07142857       0.10000000 </v>
   <v>       0.32000000      -0.07142857       0.10000000 </v>
   <v>       0.36000000      -0.07142857       0.10000000 </v>
   <v>       0.40000000      -0.07142857       0.10000000 </v>
   <v>       0.44000000      -0.07142857       0.10000000 </v>
   <v>       0.48000000      -0.07142857       0.10000000 </v>
   <v>       0.00000000       0.00000000       0.20000000 </v>
   <v>       0.04000000       0.00000000       0.20000000 </v>
   <v>       0.08000000       0.00000000       0.20000000 </v>
   <v>       0.12000000       0.00000000       0.20000000 </v>
   <v>       0.16000000       0.00000000       0.20000000 </v>
   <v>       0.20000000       0.00000000       0.20000000 </v>
   <v>       0.24000000       0.00000000       0.20000000 </v>
   <v>       0.28000000       0.00000000       0.20000000 </v>
   <v>       0.32000000       0.00000000       0.20000000 </v>
   <v>       0.36000000       0.00000000       0.20000000 </v>
   <v>       0.40000000       0.00000000       0.20000000 </v>
   <v>       0.44000000       0.00000000       0.20000000 </v>
   <v>       0.48000000       0.00000000       0.20000000 </v>
   <v>       0.00000000       0.07142857       0.20000000 </v>
   <v>       0.04000000       0.07142857       0.20000000 </v>
   <v>       0.08000000       0.07142857       0.20000000 </v>
   <v>       0.12000000       0.07142857       0.20000000 </v>
   <v>       0.16000000       0.07142857       0.20000000 </v>
   <v>       0.20000000       0.07142857       0.20000000 </v>
   <v>       0.24000000       0.07142857       0.20000000 </v>
   <v>       0.28000000       0.07142857       0.20000000 </v>
   <v>       0.32000000       0.07142857       0.20000000 </v>
   <v>       0.36000000       0.07142857       0.20000000 </v>
   <v>       0.40000000       0.07142857       0.20000000 </v>
   <v>       0.44000000       0.07142857       0.20000000 </v>
   <v>       0.48000000       0.07142857       0.20000000 </v>
   <v>       0.00000000       0.14285714       0.20000000 </v>
   <v>       0.04000000       0.14285714       0.20000000 </v>
   <v>       0.08000000       0.14285714       0.20000000 </v>
   <v>       0.12000000       0.14285714       0.20000000 </v>
   <v>       0.16000000       0.14285714       0.20000000 </v>
   <v>       0.20000000       0.14285714       0.20000000 </v>
   <v>       0.24000000       0.14285714       0.20000000 </v>
   <v>       0.28000000       0.14285714       0.20000000 </v>
   <v>       0.32000000       0.14285714       0.20000000 </v>
   <v>       0.36000000       0.14285714       0.20000000 </v>
   <v>       0.40000000       0.14285714       0.20000000 </v>
   <v>       0.44000000       0.14285714       0.20000000 </v>
   <v>       0.48000000       0.14285714       0.20000000 </v>
   <v>       0.00000000       0.21428571       0.20000000 </v>
   <v>       0.04000000       0.21428571       0.20000000 </v>
   <v>       0.08000000       0.21428571       0.20000000 </v>
   <v>       0.12000000       0.21428571       0.20000000 </v>
   <v>       0.16000000       0.21428571       0.20000000 </v>
   <v>       0.20000000       0.21428571       0.20000000 </v>
   <v>       0.24000000       0.21428571       0.20000000 </v>
   <v>       0.28000000       0.21428571       0.20000000 </v>
   <v>       0.32000000       0.21428571       0.20000000 </v>
   <v>       0.36000000       0.21428571       0.20000000 </v>
   <v>       0.40000000       0.21428571       0.20000000 </v>
   <v>       0.44000000       0.21428571       0.20000000 </v>
   <v>       0.48000000       0.21428571       0.20000000 </v>
   <v>       0.00000000       0.28571429       0.20000000 </v>
   <v>       0.04000000       0.28571429       0.20000000 </v>
   <v>       0.08000000       0.28571429       0.20000000 </v>
   <v>       0.12000000       0.28571429       0.20000000 </v>
   <v>       0.16000000       0.28571429       0.20000000 </v>
   <v>       0.20000000       0.28571429       0.20000000 </v>
   <v>       0.24000000       0.28571429       0.20000000 </v>
   <v>       0.28000000       0.28571429       0.20000000 </v>
   <v>       0.32000000       0.28571429       0.20000000 </v>
   <v>       0.36000000       0.28571429       0.20000000 </v>
   <v>       0.40000000       0.28571429       0.20000000 </v>
   <v>       0.44000000       0.28571429       0.20000000 </v>
   <v>       0.48000000       0.28571429       0.20000000 </v>
   <v>       0.00000000       0.35714286       0.20000000 </v>
   <v>       0.04000000       0.35714286       0.20000000 </v>
   <v>       0.08000000       0.35714286       0.20000000 </v>
   <v>       0.12000000       0.35714286       0.20000000 </v>
   <v>       0.16000000       0.35714286       0.20000000 </v>
   <v>       0.20000000       0.35714286       0.20000000 </v>
   <v>       0.24000000       0.35714286       0.20000000 </v>
   <v>       0.28000000       0.35714286       0.20000000 </v>
   <v>       0.32000000       0.35714286       0.20000000 </v>
   <v>       0.36000000       0.35714286       0.20000000 </v>
   <v>       0.40000000       0.35714286       0.20000000 </v>
   <v>       0.44000000       0.35714286       0.20000000 </v>
   <v>       0.48000000       0.35714286       0.20000000 </v>
   <v>       0.00000000       0.42857143       0.20000000 </v>
   <v>       0.04000000       0.42857143       0.20000000 </v>
   <v>       0.08000000       0.42857143       0.20000000 </v>
   <v>       0.12000000       0.42857143       0.20000000 </v>
   <v>       0.16000000       0.42857143       0.20000000 </v>
   <v>       0.20000000       0.42857143       0.20000000 </v>
   <v>       0.24000000       0.42857143       0.20000000 </v>
   <v>       0.28000000       0.42857143       0.20000000 </v>
   <v>       0.32000000       0.42857143       0.20000000 </v>
   <v>       0.36000000       0.42857143       0.20000000 </v>
   <v>       0.40000000       0.42857143       0.20000000 </v>
   <v>       0.44000000       0.42857143       0.20000000 </v>
   <v>       0.48000000       0.42857143       0.20000000 </v>
   <v>       0.00000000       0.50000000       0.20000000 </v>
   <v>       0.04000000       0.50000000       0.20000000 </v>
   <v>       0.08000000       0.50000000       0.20000000 </v>
   <v>       0.12000000       0.50000000       0.20000000 </v>
   <v>       0.16000000       0.50000000       0.20000000 </v>
   <v>       0.20000000       0.50000000       0.20000000 </v>
   <v>       0.24000000       0.50000000       0.20000000 </v>
   <v>       0.28000000       0.50000000       0.20000000 </v>
   <v>       0.32000000       0.50000000       0.20000000 </v>
   <v>       0.36000000       0.50000000       0.20000000 </v>
   <v>       0.40000000       0.50000000       0.20000000 </v>
   <v>       0.44000000       0.50000000       0.20000000 </v>
   <v>       0.48000000       0.50000000       0.20000000 </v>
   <v>       0.00000000      -0.42857143       0.20000000 </v>
   <v>       0.04000000      -0.42857143       0.20000000 </v>
   <v>       0.08000000      -0.42857143       0.20000000 </v>
   <v>       0.12000000      -0.42857143       0.20000000 </v>
   <v>       0.16000000      -0.42857143       0.20000000 </v>
   <v>       0.20000000      -0.42857143       0.20000000 </v>
   <v>       0.24000000      -0.42857143       0.20000000 </v>
   <v>       0.28000000      -0.42857143       0.20000000 </v>
   <v>       0.32000000      -0.42857143       0.20000000 </v>
   <v>       0.36000000      -0.42857143       0.20000000 </v>
   <v>       0.40000000      -0.42857143       0.20000000 </v>
   <v>       0.44000000      -0.42857143       0.20000000 </v>
   <v>       0.48000000      -0.42857143       0.20000000 </v>
   <v>       0.00000000      -0.35714286       0.20000000 </v>
   <v>       0.04000000      -0.35714286       0.20000000 </v>
   <v>       0.08000000      -0.35714286       0.20000000 </v>
   <v>       0.12000000      -0.35714286       0.20000000 </v>
   <v>       0.16000000      -0.35714286       0.20000000 </v>
   <v>       0.20000000      -0.35714286       0.20000000 </v>
   <v>       0.24000000      -0.35714286       0.20000000 </v>
   <v>       0.28000000      -0.35714286       0.20000000 </v>
   <v>       0.32000000      -0.35714286       0.20000000 </v>
   <v>       0.36000000      -0.35714286       0.20000000 </v>
   <v>       0.40000000      -0.35714286       0.20000000 </v>
   <v>       0.44000000      -0.35714286       0.20000000 </v>
   <v>       0.48000000      -0.35714286       0.20000000 </v>
   <v>       0.00000000      -0.28571429       0.20000000 </v>
   <v>       0.04000000      -0.28571429       0.20000000 </v>
   <v>       0.08000000      -0.28571429       0.20000000 </v>
   <v>       0.12000000      -0.28571429       0.20000000 </v>
   <v>       0.16000000      -0.28571429       0.20000000 </v>
   <v>       0.20000000      -0.28571429       0.20000000 </v>
   <v>       0.24000000      -0.28571429       0.20000000 </v>
   <v>       0.28000000      -0.28571429       0.20000000 </v>
   <v>       0.32000000      -0.28571429       0.20000000 </v>
   <v>       0.36000000      -0.28571429       0.20000000 </v>
   <v>       0.40000000      -0.28571429       0.20000000 </v>
   <v>       0.44000000      -0.28571429       0.20000000 </v>
   <v>       0.48000000      -0.28571429       0.20000000 </v>
   <v>       0.00000000      -0.21428571       0.20000000 </v>
   <v>       0.04000000      -0.21428571       0.20000000 </v>
   <v>       0.08000000      -0.21428571       0.20000000 </v>
   <v>       0.12000000      -0.21428571       0.20000000 </v>
   <v>       0.16000000      -0.21428571       0.20000000 </v>
   <v>       0.20000000      -0.21428571       0.20000000 </v>
   <v>       0.24000000      -0.21428571       0.20000000 </v>
   <v>       0.28000000      -0.21428571       0.20000000 </v>
   <v>       0.32000000      -0.21428571       0.20000000 </v>
   <v>       0.36000000      -0.21428571       0.20000000 </v>
   <v>       0.40000000      -0.21428571       0.20000000 </v>
   <v>       0.44000000      -0.21428571       0.20000000 </v>
   <v>       0.48000000      -0.21428571       0.20000000 </v>
   <v>       0.00000000      -0.14285714       0.20000000 </v>
   <v>       0.04000000      -0.14285714       0.20000000 </v>
   <v>       0.08000000      -0.14285714       0.20000000 </v>
   <v>       0.12000000      -0.14285714       0.20000000 </v>
   <v>       0.16000000      -0.14285714       0.20000000 </v>
   <v>       0.20000000      -0.14285714       0.20000000 </v>
   <v>       0.24000000      -0.14285714       0.20000000 </v>
   <v>       0.28000000      -0.14285714       0.20000000 </v>
   <v>       0.32000000      -0.14285714       0.20000000 </v>
   <v>       0.36000000      -0.14285714       0.20000000 </v>
   <v>       0.40000000      -0.14285714       0.20000000 </v>
   <v>       0.44000000      -0.14285714       0.20000000 </v>
   <v>       0.48000000      -0.14285714       0.20000000 </v>
   <v>       0.00000000      -0.07142857       0.20000000 </v>
   <v>       0.04000000      -0.07142857       0.20000000 </v>
   <v>       0.08000000      -0.07142857       0.20000000 </v>
   <v>       0.12000000      -0.07142857       0.20000000 </v>
   <v>       0.16000000      -0.07142857       0.20000000 </v>
   <v>       0.20000000      -0.07142857       0.20000000 </v>
   <v>       0.24000000      -0.07142857       0.20000000 </v>
   <v>       0.28000000      -0.07142857       0.20000000 </v>
   <v>       0.32000000      -0.07142857       0.20000000 </v>
   <v>       0.36000000      -0.07142857       0.20000000 </v>
   <v>       0.40000000      -0.07142857       0.20000000 </v>
   <v>       0.44000000      -0.07142857       0.20000000 </v>
   <v>       0.48000000      -0.07142857       0.20000000 </v>
   <v>       0.00000000       0.00000000       0.30000000 </v>
   <v>       0.04000000       0.00000000       0.30000000 </v>
   <v>       0.08000000       0.00000000       0.30000000 </v>
   <v>       0.12000000       0.00000000       0.30000000 </v>
   <v>       0.16000000       0.00000000       0.30000000 </v>
   <v>       0.20000000       0.00000000       0.30000000 </v>
   <v>       0.24000000       0.00000000       0.30000000 </v>
   <v>       0.28000000       0.00000000       0.30000000 </v>
   <v>       0.32000000       0.00000000       0.30000000 </v>
   <v>       0.36000000       0.00000000       0.30000000 </v>
   <v>       0.40000000       0.00000000       0.30000000 </v>
   <v>       0.44000000       0.00000000       0.30000000 </v>
   <v>       0.48000000       0.00000000       0.30000000 </v>
   <v>       0.00000000       0.07142857       0.30000000 </v>
   <v>       0.04000000       0.07142857       0.30000000 </v>
   <v>       0.08000000       0.07142857       0.30000000 </v>
   <v>       0.12000000       0.07142857       0.30000000 </v>
   <v>       0.16000000       0.07142857       0.30000000 </v>
   <v>       0.20000000       0.07142857       0.30000000 </v>
   <v>       0.24000000       0.07142857       0.30000000 </v>
   <v>       0.28000000       0.07142857       0.30000000 </v>
   <v>       0.32000000       0.07142857       0.30000000 </v>
   <v>       0.36000000       0.07142857       0.30000000 </v>
   <v>       0.40000000       0.07142857       0.30000000 </v>
   <v>       0.44000000       0.07142857       0.30000000 </v>
   <v>       0.48000000       0.07142857       0.30000000 </v>
   <v>       0.00000000       0.14285714       0.30000000 </v>
   <v>       0.04000000       0.14285714       0.30000000 </v>
   <v>       0.08000000       0.14285714       0.30000000 </v>
   <v>       0.12000000       0.14285714       0.30000000 </v>
   <v>       0.16000000       0.14285714       0.30000000 </v>
   <v>       0.20000000       0.14285714       0.30000000 </v>
   <v>       0.24000000       0.14285714       0.30000000 </v>
   <v>       0.28000000       0.14285714       0.30000000 </v>
   <v>       0.32000000       0.14285714       0.30000000 </v>
   <v>       0.36000000       0.14285714       0.30000000 </v>
   <v>       0.40000000       0.14285714       0.30000000 </v>
   <v>       0.44000000       0.14285714       0.30000000 </v>
   <v>       0.48000000       0.14285714       0.30000000 </v>
   <v>       0.00000000       0.21428571       0.30000000 </v>
   <v>       0.04000000       0.21428571       0.30000000 </v>
   <v>       0.08000000       0.21428571       0.30000000 </v>
   <v>       0.12000000       0.21428571       0.30000000 </v>
   <v>       0.16000000       0.21428571       0.30000000 </v>
   <v>       0.20000000       0.21428571       0.30000000 </v>
   <v>       0.24000000       0.21428571       0.30000000 </v>
   <v>       0.28000000       0.21428571       0.30000000 </v>
   <v>       0.32000000       0.21428571       0.30000000 </v>
   <v>       0.36000000       0.21428571       0.30000000 </v>
   <v>       0.40000000       0.21428571       0.30000000 </v>
   <v>       0.44000000       0.21428571       0.30000000 </v>
   <v>       0.48000000       0.21428571       0.30000000 </v>
   <v>       0.00000000       0.28571429       0.30000000 </v>
   <v>       0.04000000       0.28571429       0.30000000 </v>
   <v>       0.08000000       0.28571429       0.30000000 </v>
   <v>       0.12000000       0.28571429       0.30000000 </v>
   <v>       0.16000000       0.28571429       0.30000000 </v>
   <v>       0.20000000       0.28571429       0.30000000 </v>
   <v>       0.24000000       0.28571429       0.30000000 </v>
   <v>       0.28000000       0.28571429       0.30000000 </v>
   <v>       0.32000000       0.28571429       0.30000000 </v>
   <v>       0.36000000       0.28571429       0.30000000 </v>
   <v>       0.40000000       0.28571429       0.30000000 </v>
   <v>       0.44000000       0.28571429       0.30000000 </v>
   <v>       0.48000000       0.28571429       0.30000000 </v>
   <v>       0.00000000       0.35714286       0.30000000 </v>
   <v>       0.04000000       0.35714286       0.30000000 </v>
   <v>       0.08000000       0.35714286       0.30000000 </v>
   <v>       0.12000000       0.35714286       0.30000000 </v>
   <v>       0.16000000       0.35714286       0.30000000 </v>
   <v>       0.20000000       0.35714286       0.30000000 </v>
   <v>       0.24000000       0.35714286       0.30000000 </v>
   <v>       0.28000000       0.35714286       0.30000000 </v>
   <v>       0.32000000       0.35714286       0.30000000 </v>
   <v>       0.36000000       0.35714286       0.30000000 </v>
   <v>       0.40000000       0.35714286       0.30000000 </v>
   <v>       0.44000000       0.35714286       0.30000000 </v>
   <v>       0.48000000       0.35714286       0.30000000 </v>
   <v>       0.00000000       0.42857143       0.30000000 </v>
   <v>       0.04000000       0.42857143       0.30000000 </v>
   <v>       0.08000000       0.42857143       0.30000000 </v>
   <v>       0.12000000       0.42857143       0.30000000 </v>
   <v>       0.16000000       0.42857143       0.30000000 </v>
   <v>       0.20000000       0.42857143       0.30000000 </v>
   <v>       0.24000000       0.42857143       0.30000000 </v>
   <v>       0.28000000       0.42857143       0.30000000 </v>
   <v>       0.32000000       0.42857143       0.30000000 </v>
   <v>       0.36000000       0.42857143       0.30000000 </v>
   <v>       0.40000000       0.42857143       0.30000000 </v>
   <v>       0.44000000       0.42857143       0.30000000 </v>
   <v>       0.48000000       0.42857143       0.30000000 </v>
   <v>       0.00000000       0.50000000       0.30000000 </v>
   <v>       0.04000000       0.50000000       0.30000000 </v>
   <v>       0.08000000       0.50000000       0.30000000 </v>
   <v>       0.12000000       0.50000000       0.30000000 </v>
   <v>       0.16000000       0.50000000       0.30000000 </v>
   <v>       0.20000000       0.50000000       0.30000000 </v>
   <v>       0.24000000       0.50000000       0.30000000 </v>
   <v>       0.28000000       0.50000000       0.30000000 </v>
   <v>       0.32000000       0.50000000       0.30000000 </v>
   <v>       0.36000000       0.50000000       0.30000000 </v>
   <v>       0.40000000       0.50000000       0.30000000 </v>
   <v>       0.44000000       0.50000000       0.30000000 </v>
   <v>       0.48000000       0.50000000       0.30000000 </v>
   <v>       0.00000000      -0.42857143       0.30000000 </v>
   <v>       0.04000000      -0.42857143       0.30000000 </v>
   <v>       0.08000000      -0.42857143       0.30000000 </v>
   <v>       0.12000000      -0.42857143       0.30000000 </v>
   <v>       0.16000000      -0.42857143       0.30000000 </v>
   <v>       0.20000000      -0.42857143       0.30000000 </v>
   <v>       0.24000000      -0.42857143       0.30000000 </v>
   <v>       0.28000000      -0.42857143       0.30000000 </v>
   <v>       0.32000000      -0.42857143       0.30000000 </v>
   <v>       0.36000000      -0.42857143       0.30000000 </v>
   <v>       0.40000000      -0.42857143       0.30000000 </v>
   <v>       0.44000000      -0.42857143       0.30000000 </v>
   <v>       0.48000000      -0.42857143       0.30000000 </v>
   <v>       0.00000000      -0.35714286       0.30000000 </v>
   <v>       0.04000000      -0.35714286       0.30000000 </v>
   <v>       0.08000000      -0.35714286       0.30000000 </v>
   <v>       0.12000000      -0.35714286       0.30000000 </v>
   <v>       0.16000000      -0.35714286       0.30000000 </v>
   <v>       0.20000000      -0.35714286       0.30000000 </v>
   <v>       0.24000000      -0.35714286       0.30000000 </v>
   <v>       0.28000000      -0.35714286       0.30000000 </v>
   <v>       0.32000000      -0.35714286       0.30000000 </v>
   <v>       0.36000000      -0.35714286       0.30000000 </v>
   <v>       0.40000000      -0.35714286       0.30000000 </v>
   <v>       0.44000000      -0.35714286       0.30000000 </v>
   <v>       0.48000000      -0.35714286       0.30000000 </v>
   <v>       0.00000000      -0.28571429       0.30000000 </v>
   <v>       0.04000000      -0.28571429       0.30000000 </v>
   <v>       0.08000000      -0.28571429       0.30000000 </v>
   <v>       0.12000000      -0.28571429       0.30000000 </v>
   <v>       0.16000000      -0.28571429       0.30000000 </v>
   <v>       0.20000000      -0.28571429       0.30000000 </v>
   <v>       0.24000000      -0.28571429       0.30000000 </v>
   <v>       0.28000000      -0.28571429       0.30000000 </v>
   <v>       0.32000000      -0.28571429       0.30000000 </v>
   <v>       0.36000000      -0.28571429       0.30000000 </v>
   <v>       0.40000000      -0.28571429       0.30000000 </v>
   <v>       0.44000000      -0.28571429       0.30000000 </v>
   <v>       0.48000000      -0.28571429       0.30000000 </v>
   <v>       0.00000000      -0.21428571       0.30000000 </v>
   <v>       0.04000000      -0.21428571       0.30000000 </v>
   <v>       0.08000000      -0.21428571       0.30000000 </v>
   <v>       0.12000000      -0.21428571       0.30000000 </v>
   <v>       0.16000000      -0.21428571       0.30000000 </v>
   <v>       0.20000000      -0.21428571       0.30000000 </v>
   <v>       0.24000000      -0.21428571       0.30000000 </v>
   <v>       0.28000000      -0.21428571       0.30000000 </v>
   <v>       0.32000000      -0.21428571       0.30000000 </v>
   <v>       0.36000000      -0.21428571       0.30000000 </v>
   <v>       0.40000000      -0.21428571       0.30000000 </v>
   <v>       0.44000000      -0.21428571       0.30000000 </v>
   <v>       0.48000000      -0.21428571       0.30000000 </v>
   <v>       0.00000000      -0.14285714       0.30000000 </v>
   <v>       0.04000000      -0.14285714       0.30000000 </v>
   <v>       0.08000000      -0.14285714       0.30000000 </v>
   <v>       0.12000000      -0.14285714       0.30000000 </v>
   <v>       0.16000000      -0.14285714       0.30000000 </v>
   <v>       0.20000000      -0.14285714       0.30000000 </v>
   <v>       0.24000000      -0.14285714       0.30000000 </v>
   <v>       0.28000000      -0.14285714       0.30000000 </v>
   <v>       0.32000000      -0.14285714       0.30000000 </v>
   <v>       0.36000000      -0.14285714       0.30000000 </v>
   <v>       0.40000000      -0.14285714       0.30000000 </v>
   <v>       0.44000000      -0.14285714       0.30000000 </v>
   <v>       0.48000000      -0.14285714       0.30000000 </v>
   <v>       0.00000000      -0.07142857       0.30000000 </v>
   <v>       0.04000000      -0.07142857       0.30000000 </v>
   <v>       0.08000000      -0.07142857       0.30000000 </v>
   <v>       0.12000000      -0.07142857       0.30000000 </v>
   <v>       0.16000000      -0.07142857       0.30000000 </v>
   <v>       0.20000000      -0.07142857       0.30000000 </v>
   <v>       0.24000000      -0.07142857       0.30000000 </v>
   <v>       0.28000000      -0.07142857       0.30000000 </v>
   <v>       0.32000000      -0.07142857       0.30000000 </v>
   <v>       0.36000000      -0.07142857       0.30000000 </v>
   <v>       0.40000000      -0.07142857       0.30000000 </v>
   <v>       0.44000000      -0.07142857       0.30000000 </v>
   <v>       0.48000000      -0.07142857       0.30000000 </v>
   <v>       0.00000000       0.00000000       0.40000000 </v>
   <v>       0.04000000       0.00000000       0.40000000 </v>
   <v>       0.08000000       0.00000000       0.40000000 </v>
   <v>       0.12000000       0.00000000       0.40000000 </v>
   <v>       0.16000000       0.00000000       0.40000000 </v>
   <v>       0.20000000       0.00000000       0.40000000 </v>
   <v>       0.24000000       0.00000000       0.40000000 </v>
   <v>       0.28000000       0.00000000       0.40000000 </v>
   <v>       0.32000000       0.00000000       0.40000000 </v>
   <v>       0.36000000       0.00000000       0.40000000 </v>
   <v>       0.40000000       0.00000000       0.40000000 </v>
   <v>       0.44000000       0.00000000       0.40000000 </v>
   <v>       0.48000000       0.00000000       0.40000000 </v>
   <v>       0.00000000       0.07142857       0.40000000 </v>
   <v>       0.04000000       0.07142857       0.40000000 </v>
   <v>       0.08000000       0.07142857       0.40000000 </v>
   <v>       0.12000000       0.07142857       0.40000000 </v>
   <v>       0.16000000       0.07142857       0.40000000 </v>
   <v>       0.20000000       0.07142857       0.40000000 </v>
   <v>       0.24000000       0.07142857       0.40000000 </v>
   <v>       0.28000000       0.07142857       0.40000000 </v>
   <v>       0.32000000       0.07142857       0.40000000 </v>
   <v>       0.36000000       0.07142857       0.40000000 </v>
   <v>       0.40000000       0.07142857       0.40000000 </v>
   <v>       0.44000000       0.07142857       0.40000000 </v>
   <v>       0.48000000       0.07142857       0.40000000 </v>
   <v>       0.00000000       0.14285714       0.40000000 </v>
   <v>       0.04000000       0.14285714       0.40000000 </v>
   <v>       0.08000000       0.14285714       0.40000000 </v>
   <v>       0.12000000       0.14285714       0.40000000 </v>
   <v>       0.16000000       0.14285714       0.40000000 </v>
   <v>       0.20000000       0.14285714       0.40000000 </v>
   <v>       0.24000000       0.14285714       0.40000000 </v>
   <v>       0.28000000       0.14285714       0.40000000 </v>
   <v>       0.32000000       0.14285714       0.40000000 </v>
   <v>       0.36000000       0.14285714       0.40000000 </v>
   <v>       0.40000000       0.14285714       0.40000000 </v>
   <v>       0.44000000       0.14285714       0.40000000 </v>
   <v>       0.48000000       0.14285714       0.40000000 </v>
   <v>       0.00000000       0.21428571       0.40000000 </v>
   <v>       0.04000000       0.21428571       0.40000000 </v>
   <v>       0.08000000       0.21428571       0.40000000 </v>
   <v>       0.12000000       0.21428571       0.40000000 </v>
   <v>       0.16000000       0.21428571       0.40000000 </v>
   <v>       0.20000000       0.21428571       0.40000000 </v>
   <v>       0.24000000       0.21428571       0.40000000 </v>
   <v>       0.28000000       0.21428571       0.40000000 </v>
   <v>       0.32000000       0.21428571       0.40000000 </v>
   <v>       0.36000000       0.21428571       0.40000000 </v>
   <v>       0.40000000       0.21428571       0.40000000 </v>
   <v>       0.44000000       0.21428571       0.40000000 </v>
   <v>       0.48000000       0.21428571       0.40000000 </v>
   <v>       0.00000000       0.28571429       0.40000000 </v>
   <v>       0.04000000       0.28571429       0.40000000 </v>
   <v>       0.08000000       0.28571429       0.40000000 </v>
   <v>       0.12000000       0.28571429       0.40000000 </v>
   <v>       0.16000000       0.28571429       0.40000000 </v>
   <v>       0.20000000       0.28571429       0.40000000 </v>
   <v>       0.24000000       0.28571429       0.40000000 </v>
   <v>       0.28000000       0.28571429       0.40000000 </v>
   <v>       0.32000000       0.28571429       0.40000000 </v>
   <v>       0.36000000       0.28571429       0.40000000 </v>
   <v>       0.40000000       0.28571429       0.40000000 </v>
   <v>       0.44000000       0.28571429       0.40000000 </v>
   <v>       0.48000000       0.28571429       0.40000000 </v>
   <v>       0.00000000       0.35714286       0.40000000 </v>
   <v>       0.04000000       0.35714286       0.40000000 </v>
   <v>       0.08000000       0.35714286       0.40000000 </v>
   <v>       0.12000000       0.35714286       0.40000000 </v>
   <v>       0.16000000       0.35714286       0.40000000 </v>
   <v>       0.20000000       0.35714286       0.40000000 </v>
   <v>       0.24000000       0.35714286       0.40000000 </v>
   <v>       0.28000000       0.35714286       0.40000000 </v>
   <v>       0.32000000       0.35714286       0.40000000 </v>
   <v>       0.36000000       0.35714286       0.40000000 </v>
   <v>       0.40000000       0.35714286       0.40000000 </v>
   <v>       0.44000000       0.35714286       0.40000000 </v>
   <v>       0.48000000       0.35714286       0.40000000 </v>
   <v>       0.00000000       0.42857143       0.40000000 </v>
   <v>       0.04000000       0.42857143       0.40000000 </v>
   <v>       0.08000000       0.42857143       0.40000000 </v>
   <v>       0.12000000       0.42857143       0.40000000 </v>
   <v>       0.16000000       0.42857143       0.40000000 </v>
   <v>       0.20000000       0.42857143       0.40000000 </v>
   <v>       0.24000000       0.42857143       0.40000000 </v>
   <v>       0.28000000       0.42857143       0.40000000 </v>
   <v>       0.32000000       0.42857143       0.40000000 </v>
   <v>       0.36000000       0.42857143       0.40000000 </v>
   <v>       0.40000000       0.42857143       0.40000000 </v>
   <v>       0.44000000       0.42857143       0.40000000 </v>
   <v>       0.48000000       0.42857143       0.40000000 </v>
   <v>       0.00000000       0.50000000       0.40000000 </v>
   <v>       0.04000000       0.50000000       0.40000000 </v>
   <v>       0.08000000       0.50000000       0.40000000 </v>
   <v>       0.12000000       0.50000000       0.40000000 </v>
   <v>       0.16000000       0.50000000       0.40000000 </v>
   <v>       0.20000000       0.50000000       0.40000000 </v>
   <v>       0.24000000       0.50000000       0.40000000 </v>
   <v>       0.28000000       0.50000000       0.40000000 </v>
   <v>       0.32000000       0.50000000       0.40000000 </v>
   <v>       0.36000000       0.50000000       0.40000000 </v>
   <v>       0.40000000       0.50000000       0.40000000 </v>
   <v>       0.44000000       0.50000000       0.40000000 </v>
   <v>       0.48000000       0.50000000       0.40000000 </v>
   <v>       0.00000000      -0.42857143       0.40000000 </v>
   <v>       0.04000000      -0.42857143       0.40000000 </v>
   <v>       0.08000000      -0.42857143       0.40000000 </v>
   <v>       0.12000000      -0.42857143       0.40000000 </v>
   <v>       0.16000000      -0.42857143       0.40000000 </v>
   <v>       0.20000000      -0.42857143       0.40000000 </v>
   <v>       0.24000000      -0.42857143       0.40000000 </v>
   <v>       0.28000000      -0.42857143       0.40000000 </v>
   <v>       0.32000000      -0.42857143       0.40000000 </v>
   <v>       0.36000000      -0.42857143       0.40000000 </v>
   <v>       0.40000000      -0.42857143       0.40000000 </v>
   <v>       0.44000000      -0.42857143       0.40000000 </v>
   <v>       0.48000000      -0.42857143       0.40000000 </v>
   <v>       0.00000000      -0.35714286       0.40000000 </v>
   <v>       0.04000000      -0.35714286       0.40000000 </v>
   <v>       0.08000000      -0.35714286       0.40000000 </v>
   <v>       0.12000000      -0.35714286       0.40000000 </v>
   <v>       0.16000000      -0.35714286       0.40000000 </v>
   <v>       0.20000000      -0.35714286       0.40000000 </v>
   <v>       0.24000000      -0.35714286       0.40000000 </v>
   <v>       0.28000000      -0.35714286       0.40000000 </v>
   <v>       0.32000000      -0.35714286       0.40000000 </v>
   <v>       0.36000000      -0.35714286       0.40000000 </v>
   <v>       0.40000000      -0.35714286       0.40000000 </v>
   <v>       0.44000000      -0.35714286       0.40000000 </v>
   <v>       0.48000000      -0.35714286       0.40000000 </v>
   <v>       0.00000000      -0.28571429       0.40000000 </v>
   <v>       0.04000000      -0.28571429       0.40000000 </v>
   <v>       0.08000000      -0.28571429       0.40000000 </v>
   <v>       0.12000000      -0.28571429       0.40000000 </v>
   <v>       0.16000000      -0.28571429       0.40000000 </v>
   <v>       0.20000000      -0.28571429       0.40000000 </v>
   <v>       0.24000000      -0.28571429       0.40000000 </v>
   <v>       0.28000000      -0.28571429       0.40000000 </v>
   <v>       0.32000000      -0.28571429       0.40000000 </v>
   <v>       0.36000000      -0.28571429       0.40000000 </v>
   <v>       0.40000000      -0.28571429       0.40000000 </v>
   <v>       0.44000000      -0.28571429       0.40000000 </v>
   <v>       0.48000000      -0.28571429       0.40000000 </v>
   <v>       0.00000000      -0.21428571       0.40000000 </v>
   <v>       0.04000000      -0.21428571       0.40000000 </v>
   <v>       0.08000000      -0.21428571       0.40000000 </v>
   <v>       0.12000000      -0.21428571       0.40000000 </v>
   <v>       0.16000000      -0.21428571       0.40000000 </v>
   <v>       0.20000000      -0.21428571       0.40000000 </v>
   <v>       0.24000000      -0.21428571       0.40000000 </v>
   <v>       0.28000000      -0.21428571       0.40000000 </v>
   <v>       0.32000000      -0.21428571       0.40000000 </v>
   <v>       0.36000000      -0.21428571       0.40000000 </v>
   <v>       0.40000000      -0.21428571       0.40000000 </v>
   <v>       0.44000000      -0.21428571       0.40000000 </v>
   <v>       0.48000000      -0.21428571       0.40000000 </v>
   <v>       0.00000000      -0.14285714       0.40000000 </v>
   <v>       0.04000000      -0.14285714       0.40000000 </v>
   <v>       0.08000000      -0.14285714       0.40000000 </v>
   <v>       0.12000000      -0.14285714       0.40000000 </v>
   <v>       0.16000000      -0.14285714       0.40000000 </v>
   <v>       0.20000000      -0.14285714       0.40000000 </v>
   <v>       0.24000000      -0.14285714       0.40000000 </v>
   <v>       0.28000000      -0.14285714       0.40000000 </v>
   <v>       0.32000000      -0.14285714       0.40000000 </v>
   <v>       0.36000000      -0.14285714       0.40000000 </v>
   <v>       0.40000000      -0.14285714       0.40000000 </v>
   <v>       0.44000000      -0.14285714       0.40000000 </v>
   <v>       0.48000000      -0.14285714       0.40000000 </v>
   <v>       0.00000000      -0.07142857       0.40000000 </v>
   <v>       0.04000000      -0.07142857       0.40000000 </v>
   <v>       0.08000000      -0.07142857       0.40000000 </v>
   <v>       0.12000000      -0.07142857       0.40000000 </v>
   <v>       0.16000000      -0.07142857       0.40000000 </v>
   <v>       0.20000000      -0.07142857       0.40000000 </v>
   <v>       0.24000000      -0.07142857       0.40000000 </v>
   <v>       0.28000000      -0.07142857       0.40000000 </v>
   <v>       0.32000000      -0.07142857       0.40000000 </v>
   <v>       0.36000000      -0.07142857       0.40000000 </v>
   <v>       0.40000000      -0.07142857       0.40000000 </v>
   <v>       0.44000000      -0.07142857       0.40000000 </v>
   <v>       0.48000000      -0.07142857       0.40000000 </v>
   <v>       0.00000000       0.00000000       0.50000000 </v>
   <v>       0.04000000       0.00000000       0.50000000 </v>
   <v>       0.08000000       0.00000000       0.50000000 </v>
   <v>       0.12000000       0.00000000       0.50000000 </v>
   <v>       0.16000000       0.00000000       0.50000000 </v>
   <v>       0.20000000       0.00000000       0.50000000 </v>
   <v>       0.24000000       0.00000000       0.50000000 </v>
   <v>       0.28000000       0.00000000       0.50000000 </v>
   <v>       0.32000000       0.00000000       0.50000000 </v>
   <v>       0.36000000       0.00000000       0.50000000 </v>
   <v>       0.40000000       0.00000000       0.50000000 </v>
   <v>       0.44000000       0.00000000       0.50000000 </v>
   <v>       0.48000000       0.00000000       0.50000000 </v>
   <v>       0.00000000       0.07142857       0.50000000 </v>
   <v>       0.04000000       0.07142857       0.50000000 </v>
   <v>       0.08000000       0.07142857       0.50000000 </v>
   <v>       0.12000000       0.07142857       0.50000000 </v>
   <v>       0.16000000       0.07142857       0.50000000 </v>
   <v>       0.20000000       0.07142857       0.50000000 </v>
   <v>       0.24000000       0.07142857       0.50000000 </v>
   <v>       0.28000000       0.07142857       0.50000000 </v>
   <v>       0.32000000       0.07142857       0.50000000 </v>
   <v>       0.36000000       0.07142857       0.50000000 </v>
   <v>       0.40000000       0.07142857       0.50000000 </v>
   <v>       0.44000000       0.07142857       0.50000000 </v>
   <v>       0.48000000       0.07142857       0.50000000 </v>
   <v>       0.00000000       0.14285714       0.50000000 </v>
   <v>       0.04000000       0.14285714       0.50000000 </v>
   <v>       0.08000000       0.14285714       0.50000000 </v>
   <v>       0.12000000       0.14285714       0.50000000 </v>
   <v>       0.16000000       0.14285714       0.50000000 </v>
   <v>       0.20000000       0.14285714       0.50000000 </v>
   <v>       0.24000000       0.14285714       0.50000000 </v>
   <v>       0.28000000       0.14285714       0.50000000 </v>
   <v>       0.32000000       0.14285714       0.50000000 </v>
   <v>       0.36000000       0.14285714       0.50000000 </v>
   <v>       0.40000000       0.14285714       0.50000000 </v>
   <v>       0.44000000       0.14285714       0.50000000 </v>
   <v>       0.48000000       0.14285714       0.50000000 </v>
   <v>       0.00000000       0.21428571       0.50000000 </v>
   <v>       0.04000000       0.21428571       0.50000000 </v>
   <v>       0.08000000       0.21428571       0.50000000 </v>
   <v>       0.12000000       0.21428571       0.50000000 </v>
   <v>       0.16000000       0.21428571       0.50000000 </v>
   <v>       0.20000000       0.21428571       0.50000000 </v>
   <v>       0.24000000       0.21428571       0.50000000 </v>
   <v>       0.28000000       0.21428571       0.50000000 </v>
   <v>       0.32000000       0.21428571       0.50000000 </v>
   <v>       0.36000000       0.21428571       0.50000000 </v>
   <v>       0.40000000       0.21428571       0.50000000 </v>
   <v>       0.44000000       0.21428571       0.50000000 </v>
   <v>       0.48000000       0.21428571       0.50000000 </v>
   <v>       0.00000000       0.28571429       0.50000000 </v>
   <v>       0.04000000       0.28571429       0.50000000 </v>
   <v>       0.08000000       0.28571429       0.50000000 </v>
   <v>       0.12000000       0.28571429       0.50000000 </v>
   <v>       0.16000000       0.28571429       0.50000000 </v>
   <v>       0.20000000       0.28571429       0.50000000 </v>
   <v>       0.24000000       0.28571429       0.50000000 </v>
   <v>       0.28000000       0.28571429       0.50000000 </v>
   <v>       0.32000000       0.28571429       0.50000000 </v>
   <v>       0.36000000       0.28571429       0.50000000 </v>
   <v>       0.40000000       0.28571429       0.50000000 </v>
   <v>       0.44000000       0.28571429       0.50000000 </v>
   <v>       0.48000000       0.28571429       0.50000000 </v>
   <v>       0.00000000       0.35714286       0.50000000 </v>
   <v>       0.04000000       0.35714286       0.50000000 </v>
   <v>       0.08000000       0.35714286       0.50000000 </v>
   <v>       0.12000000       0.35714286       0.50000000 </v>
   <v>       0.16000000       0.35714286       0.50000000 </v>
   <v>       0.20000000       0.35714286       0.50000000 </v>
   <v>       0.24000000       0.35714286       0.50000000 </v>
   <v>       0.28000000       0.35714286       0.50000000 </v>
   <v>       0.32000000       0.35714286       0.50000000 </v>
   <v>       0.36000000       0.35714286       0.50000000 </v>
   <v>       0.40000000       0.35714286       0.50000000 </v>
   <v>       0.44000000       0.35714286       0.50000000 </v>
   <v>       0.48000000       0.35714286       0.50000000 </v>
   <v>       0.00000000       0.42857143       0.50000000 </v>
   <v>       0.04000000       0.42857143       0.50000000 </v>
   <v>       0.08000000       0.42857143       0.50000000 </v>
   <v>       0.12000000       0.42857143       0.50000000 </v>
   <v>       0.16000000       0.42857143       0.50000000 </v>
   <v>       0.20000000       0.42857143       0.50000000 </v>
   <v>       0.24000000       0.42857143       0.50000000 </v>
   <v>       0.28000000       0.42857143       0.50000000 </v>
   <v>       0.32000000       0.42857143       0.50000000 </v>
   <v>       0.36000000       0.42857143       0.50000000 </v>
   <v>       0.40000000       0.42857143       0.50000000 </v>
   <v>       0.44000000       0.42857143       0.50000000 </v>
   <v>       0.48000000       0.42857143       0.50000000 </v>
   <v>       0.00000000       0.50000000       0.50000000 </v>
   <v>       0.04000000       0.50000000       0.50000000 </v>
   <v>       0.08000000       0.50000000       0.50000000 </v>
   <v>       0.12000000       0.50000000       0.50000000 </v>
   <v>       0.16000000       0.50000000       0.50000000 </v>
   <v>       0.20000000       0.50000000       0.50000000 </v>
   <v>       0.24000000       0.50000000       0.50000000 </v>
   <v>       0.28000000       0.50000000       0.50000000 </v>
   <v>       0.32000000       0.50000000       0.50000000 </v>
   <v>       0.36000000       0.50000000       0.50000000 </v>
   <v>       0.40000000       0.50000000       0.50000000 </v>
   <v>       0.44000000       0.50000000       0.50000000 </v>
   <v>       0.48000000       0.50000000       0.50000000 </v>
  </varray>
  <varray name="weights" >
   <v>       0.00028571 </v>
   <v>       0.00057143 </v>
   <v>       0.00057143 </v>
   <v>       0.00057143 </v>
   <v>       0.00057143 </v>
   <v>       0.00057143 </v>
   <v>       0.00057143 </v>
   <v>       0.00057143 </v>
   <v>       0.00057143 </v>
   <v>       0.00057143 </v>
   <v>       0.00057143 </v>
   <v>       0.00057143 </v>
   <v>       0.00057143 </v>
   <v>       0.00057143 </v>
   <v>       0.00114286 </v>
   <v>       0.00114286 </v>
   <v>       0.00114286 </v>
   <v>       0.00114286 </v>
   <v>       0.00114286 </v>
   <v>       0.00114286 </v>
   <v>       0.00114286 </v>
   <v>       0.00114286 </v>
   <v>       0.00114286 </v>
   <v>       0.00114286 </v>
   <v>       0.00114286 </v>
   <v>       0.00114286 </v>
   <v>       0.00057143 </v>
   <v>       0.00114286 </v>
   <v>       0.00114286 </v>
   <v>       0.00114286 </v>
   <v>       0.00114286 </v>
   <v>       0.00114286 </v>
   <v>       0.00114286 </v>
   <v>       0.00114286 </v>
   <v>       0.00114286 </v>
   <v>       0.00114286 </v>
   <v>       0.00114286 </v>
   <v>       0.00114286 </v>
   <v>       0.00114286 </v>
   <v>       0.00057143 </v>
   <v>       0.00114286 </v>
   <v>       0.00114286 </v>
   <v>       0.00114286 </v>
   <v>       0.00114286 </v>
   <v>       0.00114286 </v>
   <v>       0.00114286 </v>
   <v>       0.00114286 </v>
   <v>       0.00114286 </v>
   <v>       0.00114286 </v>
   <v>       0.00114286 </v>
   <v>       0.00114286 </v>
   <v>       0.00114286 </v>
   <v>       0.00057143 </v>
   <v>       0.00114286 </v>
   <v>       0.00114286 </v>
   <v>       0.00114286 </v>
   <v>       0.00114286 </v>
   <v>       0.00114286 </v>
   <v>       0.00114286 </v>
   <v>       0.00114286 </v>
   <v>       0.00114286 </v>
   <v>       0.00114286 </v>
   <v>       0.00114286 </v>
   <v>       0.00114286 </v>
   <v>       0.00114286 </v>
   <v>       0.00057143 </v>
   <v>       0.00114286 </v>
   <v>       0.00114286 </v>
   <v>       0.00114286 </v>
   <v>       0.00114286 </v>
   <v>       0.00114286 </v>
   <v>       0.00114286 </v>
   <v>       0.00114286 </v>
   <v>       0.00114286 </v>
   <v>       0.00114286 </v>
   <v>       0.00114286 </v>
   <v>       0.00114286 </v>
   <v>       0.00114286 </v>
   <v>       0.00057143 </v>
   <v>       0.00114286 </v>
   <v>       0.00114286 </v>
   <v>       0.00114286 </v>
   <v>       0.00114286 </v>
   <v>       0.00114286 </v>
   <v>       0.00114286 </v>
   <v>       0.00114286 </v>
   <v>       0.00114286 </v>
   <v>       0.00114286 </v>
   <v>       0.00114286 </v>
   <v>       0.00114286 </v>
   <v>       0.00114286 </v>
   <v>       0.00028571 </v>
   <v>       0.00057143 </v>
   <v>       0.00057143 </v>
   <v>       0.00057143 </v>
   <v>       0.00057143 </v>
   <v>       0.00057143 </v>
   <v>       0.00057143 </v>
   <v>       0.00057143 </v>
   <v>       0.00057143 </v>
   <v>       0.00057143 </v>
   <v>       0.00057143 </v>
   <v>       0.00057143 </v>
   <v>       0.00057143 </v>
   <v>       0.00057143 </v>
   <v>       0.00114286 </v>
   <v>       0.00114286 </v>
   <v>       0.00114286 </v>
   <v>       0.00114286 </v>
   <v>       0.00114286 </v>
   <v>       0.00114286 </v>
   <v>       0.00114286 </v>
   <v>       0.00114286 </v>
   <v>       0.00114286 </v>
   <v>       0.00114286 </v>
   <v>       0.00114286 </v>
   <v>       0.00114286 </v>
   <v>       0.00057143 </v>
   <v>       0.00114286 </v>
   <v>       0.00114286 </v>
   <v>       0.00114286 </v>
   <v>       0.00114286 </v>
   <v>       0.00114286 </v>
   <v>       0.00114286 </v>
   <v>       0.00114286 </v>
   <v>       0.00114286 </v>
   <v>       0.00114286 </v>
   <v>       0.00114286 </v>
   <v>       0.00114286 </v>
   <v>       0.00114286 </v>
   <v>       0.00057143 </v>
   <v>       0.00114286 </v>
   <v>       0.00114286 </v>
   <v>       0.00114286 </v>
   <v>       0.00114286 </v>
   <v>       0.00114286 </v>
   <v>       0.00114286 </v>
   <v>       0.00114286 </v>
   <v>       0.00114286 </v>
   <v>       0.00114286 </v>
   <v>       0.00114286 </v>
   <v>       0.00114286 </v>
   <v>       0.00114286 </v>
   <v>       0.00057143 </v>
   <v>       0.00114286 </v>
   <v>       0.00114286 </v>
   <v>       0.00114286 </v>
   <v>       0.00114286 </v>
   <v>       0.00114286 </v>
   <v>       0.00114286 </v>
   <v>       0.00114286 </v>
   <v>       0.00114286 </v>
   <v>       0.00114286 </v>
   <v>       0.00114286 </v>
   <v>       0.00114286 </v>
   <v>       0.00114286 </v>
   <v>       0.00057143 </v>
   <v>       0.00114286 </v>
   <v>       0.00114286 </v>
   <v>       0.00114286 </v>
   <v>       0.00114286 </v>
   <v>       0.00114286 </v>
   <v>       0.00114286 </v>
   <v>       0.00114286 </v>
   <v>       0.00114286 </v>
   <v>       0.00114286 </v>
   <v>       0.00114286 </v>
   <v>       0.00114286 </v>
   <v>       0.00114286 </v>
   <v>       0.00057143 </v>
   <v>       0.00114286 </v>
   <v>       0.00114286 </v>
   <v>       0.00114286 </v>
   <v>       0.00114286 </v>
   <v>       0.00114286 </v>
   <v>       0.00114286 </v>
   <v>       0.00114286 </v>
   <v>       0.00114286 </v>
   <v>       0.00114286 </v>
   <v>       0.00114286 </v>
   <v>       0.00114286 </v>
   <v>       0.00114286 </v>
   <v>       0.00057143 </v>
   <v>       0.00114286 </v>
   <v>       0.00114286 </v>
   <v>       0.00114286 </v>
   <v>       0.00114286 </v>
   <v>       0.00114286 </v>
   <v>       0.00114286 </v>
   <v>       0.00114286 </v>
   <v>       0.00114286 </v>
   <v>       0.00114286 </v>
   <v>       0.00114286 </v>
   <v>       0.00114286 </v>
   <v>       0.00114286 </v>
   <v>       0.00057143 </v>
   <v>       0.00114286 </v>
   <v>       0.00114286 </v>
   <v>       0.00114286 </v>
   <v>       0.00114286 </v>
   <v>       0.00114286 </v>
   <v>       0.00114286 </v>
   <v>       0.00114286 </v>
   <v>       0.00114286 </v>
   <v>       0.00114286 </v>
   <v>       0.00114286 </v>
   <v>       0.00114286 </v>
   <v>       0.00114286 </v>
   <v>       0.00057143 </v>
   <v>       0.00114286 </v>
   <v>       0.00114286 </v>
   <v>       0.00114286 </v>
   <v>       0.00114286 </v>
   <v>       0.00114286 </v>
   <v>       0.00114286 </v>
   <v>       0.00114286 </v>
   <v>       0.00114286 </v>
   <v>       0.00114286 </v>
   <v>       0.00114286 </v>
   <v>       0.00114286 </v>
   <v>       0.00114286 </v>
   <v>       0.00057143 </v>
   <v>       0.00114286 </v>
   <v>       0.00114286 </v>
   <v>       0.00114286 </v>
   <v>       0.00114286 </v>
   <v>       0.00114286 </v>
   <v>       0.00114286 </v>
   <v>       0.00114286 </v>
   <v>       0.00114286 </v>
   <v>       0.00114286 </v>
   <v>       0.00114286 </v>
   <v>       0.00114286 </v>
   <v>       0.00114286 </v>
   <v>       0.00057143 </v>
   <v>       0.00114286 </v>
   <v>       0.00114286 </v>
   <v>       0.00114286 </v>
   <v>       0.00114286 </v>
   <v>       0.00114286 </v>
   <v>       0.00114286 </v>
   <v>       0.00114286 </v>
   <v>       0.00114286 </v>
   <v>       0.00114286 </v>
   <v>       0.00114286 </v>
   <v>       0.00114286 </v>
   <v>       0.00114286 </v>
   <v>       0.00057143 </v>
   <v>       0.00114286 </v>
   <v>       0.00114286 </v>
   <v>       0.00114286 </v>
   <v>       0.00114286 </v>
   <v>       0.00114286 </v>
   <v>       0.00114286 </v>
   <v>       0.00114286 </v>
   <v>       0.00114286 </v>
   <v>       0.00114286 </v>
   <v>       0.00114286 </v>
   <v>       0.00114286 </v>
   <v>       0.00114286 </v>
   <v>       0.00057143 </v>
   <v>       0.00114286 </v>
   <v>       0.00114286 </v>
   <v>       0.00114286 </v>
   <v>       0.00114286 </v>
   <v>       0.00114286 </v>
   <v>       0.00114286 </v>
   <v>       0.00114286 </v>
   <v>       0.00114286 </v>
   <v>       0.00114286 </v>
   <v>       0.00114286 </v>
   <v>       0.00114286 </v>
   <v>       0.00114286 </v>
   <v>       0.00057143 </v>
   <v>       0.00114286 </v>
   <v>       0.00114286 </v>
   <v>       0.00114286 </v>
   <v>       0.00114286 </v>
   <v>       0.00114286 </v>
   <v>       0.00114286 </v>
   <v>       0.00114286 </v>
   <v>       0.00114286 </v>
   <v>       0.00114286 </v>
   <v>       0.00114286 </v>
   <v>       0.00114286 </v>
   <v>       0.00114286 </v>
   <v>       0.00057143 </v>
   <v>       0.00114286 </v>
   <v>       0.00114286 </v>
   <v>       0.00114286 </v>
   <v>       0.00114286 </v>
   <v>       0.00114286 </v>
   <v>       0.00114286 </v>
   <v>       0.00114286 </v>
   <v>       0.00114286 </v>
   <v>       0.00114286 </v>
   <v>       0.00114286 </v>
   <v>       0.00114286 </v>
   <v>       0.00114286 </v>
   <v>       0.00057143 </v>
   <v>       0.00114286 </v>
   <v>       0.00114286 </v>
   <v>       0.00114286 </v>
   <v>       0.00114286 </v>
   <v>       0.00114286 </v>
   <v>       0.00114286 </v>
   <v>       0.00114286 </v>
   <v>       0.00114286 </v>
   <v>       0.00114286 </v>
   <v>       0.00114286 </v>
   <v>       0.00114286 </v>
   <v>       0.00114286 </v>
   <v>       0.00057143 </v>
   <v>       0.00114286 </v>
   <v>       0.00114286 </v>
   <v>       0.00114286 </v>
   <v>       0.00114286 </v>
   <v>       0.00114286 </v>
   <v>       0.00114286 </v>
   <v>       0.00114286 </v>
   <v>       0.00114286 </v>
   <v>       0.00114286 </v>
   <v>       0.00114286 </v>
   <v>       0.00114286 </v>
   <v>       0.00114286 </v>
   <v>       0.00057143 </v>
   <v>       0.00114286 </v>
   <v>       0.00114286 </v>
   <v>       0.00114286 </v>
   <v>       0.00114286 </v>
   <v>       0.00114286 </v>
   <v>       0.00114286 </v>
   <v>       0.00114286 </v>
   <v>       0.00114286 </v>
   <v>       0.00114286 </v>
   <v>       0.00114286 </v>
   <v>       0.00114286 </v>
   <v>       0.00114286 </v>
   <v>       0.00057143 </v>
   <v>       0.00114286 </v>
   <v>       0.00114286 </v>
   <v>       0.00114286 </v>
   <v>       0.00114286 </v>
   <v>       0.00114286 </v>
   <v>       0.00114286 </v>
   <v>       0.00114286 </v>
   <v>       0.00114286 </v>
   <v>       0.00114286 </v>
   <v>       0.00114286 </v>
   <v>       0.00114286 </v>
   <v>       0.00114286 </v>
   <v>       0.00057143 </v>
   <v>       0.00114286 </v>
   <v>       0.00114286 </v>
   <v>       0.00114286 </v>
   <v>       0.00114286 </v>
   <v>       0.00114286 </v>
   <v>       0.00114286 </v>
   <v>       0.00114286 </v>
   <v>       0.00114286 </v>
   <v>       0.00114286 </v>
   <v>       0.00114286 </v>
   <v>       0.00114286 </v>
   <v>       0.00114286 </v>
   <v>       0.00057143 </v>
   <v>       0.00114286 </v>
   <v>       0.00114286 </v>
   <v>       0.00114286 </v>
   <v>       0.00114286 </v>
   <v>       0.00114286 </v>
   <v>       0.00114286 </v>
   <v>       0.00114286 </v>
   <v>       0.00114286 </v>
   <v>       0.00114286 </v>
   <v>       0.00114286 </v>
   <v>       0.00114286 </v>
   <v>       0.00114286 </v>
   <v>       0.00057143 </v>
   <v>       0.00114286 </v>
   <v>       0.00114286 </v>
   <v>       0.00114286 </v>
   <v>       0.00114286 </v>
   <v>       0.00114286 </v>
   <v>       0.00114286 </v>
   <v>       0.00114286 </v>
   <v>       0.00114286 </v>
   <v>       0.00114286 </v>
   <v>       0.00114286 </v>
   <v>       0.00114286 </v>
   <v>       0.00114286 </v>
   <v>       0.00057143 </v>
   <v>       0.00114286 </v>
   <v>       0.00114286 </v>
   <v>       0.00114286 </v>
   <v>       0.00114286 </v>
   <v>       0.00114286 </v>
   <v>       0.00114286 </v>
   <v>       0.00114286 </v>
   <v>       0.00114286 </v>
   <v>       0.00114286 </v>
   <v>       0.00114286 </v>
   <v>       0.00114286 </v>
   <v>       0.00114286 </v>
   <v>       0.00057143 </v>
   <v>       0.00114286 </v>
   <v>       0.00114286 </v>
   <v>       0.00114286 </v>
   <v>       0.00114286 </v>
   <v>       0.00114286 </v>
   <v>       0.00114286 </v>
   <v>       0.00114286 </v>
   <v>       0.00114286 </v>
   <v>       0.00114286 </v>
   <v>       0.00114286 </v>
   <v>       0.00114286 </v>
   <v>       0.00114286 </v>
   <v>       0.00057143 </v>
   <v>       0.00114286 </v>
   <v>       0.00114286 </v>
   <v>       0.00114286 </v>
   <v>       0.00114286 </v>
   <v>       0.00114286 </v>
   <v>       0.00114286 </v>
   <v>       0.00114286 </v>
   <v>       0.00114286 </v>
   <v>       0.00114286 </v>
   <v>       0.00114286 </v>
   <v>       0.00114286 </v>
   <v>       0.00114286 </v>
   <v>       0.00057143 </v>
   <v>       0.00114286 </v>
   <v>       0.00114286 </v>
   <v>       0.00114286 </v>
   <v>       0.00114286 </v>
   <v>       0.00114286 </v>
   <v>       0.00114286 </v>
   <v>       0.00114286 </v>
   <v>       0.00114286 </v>
   <v>       0.00114286 </v>
   <v>       0.00114286 </v>
   <v>       0.00114286 </v>
   <v>       0.00114286 </v>
   <v>       0.00057143 </v>
   <v>       0.00114286 </v>
   <v>       0.00114286 </v>
   <v>       0.00114286 </v>
   <v>       0.00114286 </v>
   <v>       0.00114286 </v>
   <v>       0.00114286 </v>
   <v>       0.00114286 </v>
   <v>       0.00114286 </v>
   <v>       0.00114286 </v>
   <v>       0.00114286 </v>
   <v>       0.00114286 </v>
   <v>       0.00114286 </v>
   <v>       0.00057143 </v>
   <v>       0.00114286 </v>
   <v>       0.00114286 </v>
   <v>       0.00114286 </v>
   <v>       0.00114286 </v>
   <v>       0.00114286 </v>
   <v>       0.00114286 </v>
   <v>       0.00114286 </v>
   <v>       0.00114286 </v>
   <v>       0.00114286 </v>
   <v>       0.00114286 </v>
   <v>       0.00114286 </v>
   <v>       0.00114286 </v>
   <v>       0.00057143 </v>
   <v>       0.00114286 </v>
   <v>       0.00114286 </v>
   <v>       0.00114286 </v>
   <v>       0.00114286 </v>
   <v>       0.00114286 </v>
   <v>       0.00114286 </v>
   <v>       0.00114286 </v>
   <v>       0.00114286 </v>
   <v>       0.00114286 </v>
   <v>       0.00114286 </v>
   <v>       0.00114286 </v>
   <v>       0.00114286 </v>
   <v>       0.00057143 </v>
   <v>       0.00114286 </v>
   <v>       0.00114286 </v>
   <v>       0.00114286 </v>
   <v>       0.00114286 </v>
   <v>       0.00114286 </v>
   <v>       0.00114286 </v>
   <v>       0.00114286 </v>
   <v>       0.00114286 </v>
   <v>       0.00114286 </v>
   <v>       0.00114286 </v>
   <v>       0.00114286 </v>
   <v>       0.00114286 </v>
   <v>       0.00057143 </v>
   <v>       0.00114286 </v>
   <v>       0.00114286 </v>
   <v>       0.00114286 </v>
   <v>       0.00114286 </v>
   <v>       0.00114286 </v>
   <v>       0.00114286 </v>
   <v>       0.00114286 </v>
   <v>       0.00114286 </v>
   <v>       0.00114286 </v>
   <v>       0.00114286 </v>
   <v>       0.00114286 </v>
   <v>       0.00114286 </v>
   <v>       0.00057143 </v>
   <v>       0.00114286 </v>
   <v>       0.00114286 </v>
   <v>       0.00114286 </v>
   <v>       0.00114286 </v>
   <v>       0.00114286 </v>
   <v>       0.00114286 </v>
   <v>       0.00114286 </v>
   <v>       0.00114286 </v>
   <v>       0.00114286 </v>
   <v>       0.00114286 </v>
   <v>       0.00114286 </v>
   <v>       0.00114286 </v>
   <v>       0.00057143 </v>
   <v>       0.00114286 </v>
   <v>       0.00114286 </v>
   <v>       0.00114286 </v>
   <v>       0.00114286 </v>
   <v>       0.00114286 </v>
   <v>       0.00114286 </v>
   <v>       0.00114286 </v>
   <v>       0.00114286 </v>
   <v>       0.00114286 </v>
   <v>       0.00114286 </v>
   <v>       0.00114286 </v>
   <v>       0.00114286 </v>
   <v>       0.00057143 </v>
   <v>       0.00114286 </v>
   <v>       0.00114286 </v>
   <v>       0.00114286 </v>
   <v>       0.00114286 </v>
   <v>       0.00114286 </v>
   <v>       0.00114286 </v>
   <v>       0.00114286 </v>
   <v>       0.00114286 </v>
   <v>       0.00114286 </v>
   <v>       0.00114286 </v>
   <v>       0.00114286 </v>
   <v>       0.00114286 </v>
   <v>       0.00057143 </v>
   <v>       0.00114286 </v>
   <v>       0.00114286 </v>
   <v>       0.00114286 </v>
   <v>       0.00114286 </v>
   <v>       0.00114286 </v>
   <v>       0.00114286 </v>
   <v>       0.00114286 </v>
   <v>       0.00114286 </v>
   <v>       0.00114286 </v>
   <v>       0.00114286 </v>
   <v>       0.00114286 </v>
   <v>       0.00114286 </v>
   <v>       0.00057143 </v>
   <v>       0.00114286 </v>
   <v>       0.00114286 </v>
   <v>       0.00114286 </v>
   <v>       0.00114286 </v>
   <v>       0.00114286 </v>
   <v>       0.00114286 </v>
   <v>       0.00114286 </v>
   <v>       0.00114286 </v>
   <v>       0.00114286 </v>
   <v>       0.00114286 </v>
   <v>       0.00114286 </v>
   <v>       0.00114286 </v>
   <v>       0.00057143 </v>
   <v>       0.00114286 </v>
   <v>       0.00114286 </v>
   <v>       0.00114286 </v>
   <v>       0.00114286 </v>
   <v>       0.00114286 </v>
   <v>       0.00114286 </v>
   <v>       0.00114286 </v>
   <v>       0.00114286 </v>
   <v>       0.00114286 </v>
   <v>       0.00114286 </v>
   <v>       0.00114286 </v>
   <v>       0.00114286 </v>
   <v>       0.00057143 </v>
   <v>       0.00114286 </v>
   <v>       0.00114286 </v>
   <v>       0.00114286 </v>
   <v>       0.00114286 </v>
   <v>       0.00114286 </v>
   <v>       0.00114286 </v>
   <v>       0.00114286 </v>
   <v>       0.00114286 </v>
   <v>       0.00114286 </v>
   <v>       0.00114286 </v>
   <v>       0.00114286 </v>
   <v>       0.00114286 </v>
   <v>       0.00057143 </v>
   <v>       0.00114286 </v>
   <v>       0.00114286 </v>
   <v>       0.00114286 </v>
   <v>       0.00114286 </v>
   <v>       0.00114286 </v>
   <v>       0.00114286 </v>
   <v>       0.00114286 </v>
   <v>       0.00114286 </v>
   <v>       0.00114286 </v>
   <v>       0.00114286 </v>
   <v>       0.00114286 </v>
   <v>       0.00114286 </v>
   <v>       0.00057143 </v>
   <v>       0.00114286 </v>
   <v>       0.00114286 </v>
   <v>       0.00114286 </v>
   <v>       0.00114286 </v>
   <v>       0.00114286 </v>
   <v>       0.00114286 </v>
   <v>       0.00114286 </v>
   <v>       0.00114286 </v>
   <v>       0.00114286 </v>
   <v>       0.00114286 </v>
   <v>       0.00114286 </v>
   <v>       0.00114286 </v>
   <v>       0.00057143 </v>
   <v>       0.00114286 </v>
   <v>       0.00114286 </v>
   <v>       0.00114286 </v>
   <v>       0.00114286 </v>
   <v>       0.00114286 </v>
   <v>       0.00114286 </v>
   <v>       0.00114286 </v>
   <v>       0.00114286 </v>
   <v>       0.00114286 </v>
   <v>       0.00114286 </v>
   <v>       0.00114286 </v>
   <v>       0.00114286 </v>
   <v>       0.00057143 </v>
   <v>       0.00114286 </v>
   <v>       0.00114286 </v>
   <v>       0.00114286 </v>
   <v>       0.00114286 </v>
   <v>       0.00114286 </v>
   <v>       0.00114286 </v>
   <v>       0.00114286 </v>
   <v>       0.00114286 </v>
   <v>       0.00114286 </v>
   <v>       0.00114286 </v>
   <v>       0.00114286 </v>
   <v>       0.00114286 </v>
   <v>       0.00057143 </v>
   <v>       0.00114286 </v>
   <v>       0.00114286 </v>
   <v>       0.00114286 </v>
   <v>       0.00114286 </v>
   <v>       0.00114286 </v>
   <v>       0.00114286 </v>
   <v>       0.00114286 </v>
   <v>       0.00114286 </v>
   <v>       0.00114286 </v>
   <v>       0.00114286 </v>
   <v>       0.00114286 </v>
   <v>       0.00114286 </v>
   <v>       0.00057143 </v>
[...]
       <r>    5.6844    1.0000 </r>
       <r>    5.8934    1.0000 </r>
       <r>    5.9226    1.0000 </r>
       <r>    6.0149    1.0000 </r>
       <r>    6.1217    1.0000 </r>
       <r>    6.1294    1.0000 </r>
       <r>    6.2194    1.0000 </r>
       <r>    6.2367    1.0000 </r>
       <r>    6.3076    1.0000 </r>
       <r>    6.6978    1.0000 </r>
       <r>    6.7290    1.0000 </r>
       <r>    7.1266    1.0010 </r>
       <r>    7.4437    1.0284 </r>
       <r>   10.7661    0.0000 </r>
       <r>   11.0408    0.0000 </r>
       <r>   12.0246    0.0000 </r>
       <r>   12.2501    0.0000 </r>
       <r>   14.0566    0.0000 </r>
       <r>   14.4017    0.0000 </r>
      </set>
      <set comment="kpoint 935">
       <r>    1.2157    1.0000 </r>
       <r>    1.2568    1.0000 </r>
       <r>    1.6091    1.0000 </r>
       <r>    1.7625    1.0000 </r>
       <r>    1.9801    1.0000 </r>
       <r>    2.5232    1.0000 </r>
       <r>    2.5951    1.0000 </r>
       <r>    3.1481    1.0000 </r>
       <r>    3.3670    1.0000 </r>
       <r>    3.6760    1.0000 </r>
       <r>    3.8170    1.0000 </r>
       <r>    4.0180    1.0000 </r>
       <r>    4.2760    1.0000 </r>
       <r>    4.6497    1.0000 </r>
       <r>    4.7750    1.0000 </r>
       <r>    5.0545    1.0000 </r>
       <r>    5.1544    1.0000 </r>
       <r>    5.2498    1.0000 </r>
       <r>    5.4120    1.0000 </r>
       <r>    5.5427    1.0000 </r>
       <r>    5.6857    1.0000 </r>
       <r>    5.7700    1.0000 </r>
       <r>    5.9766    1.0000 </r>
       <r>    6.0068    1.0000 </r>
       <r>    6.0627    1.0000 </r>
       <r>    6.1528    1.0000 </r>
       <r>    6.1772    1.0000 </r>
       <r>    6.2449    1.0000 </r>
       <r>    6.2806    1.0000 </r>
       <r>    6.3162    1.0000 </r>
       <r>    6.8830    1.0000 </r>
       <r>    6.9140    1.0000 </r>
       <r>    7.6977    0.9354 </r>
       <r>    7.9456    0.3421 </r>
       <r>   10.0086    0.0000 </r>
       <r>   10.2047    0.0000 </r>
       <r>   11.3656    0.0000 </r>
       <r>   11.6156    0.0000 </r>
       <r>   14.5064    0.0000 </r>
       <r>   14.8625    0.0000 </r>
      </set>
      <set comment="kpoint 936">
       <r>    1.1869    1.0000 </r>
       <r>    1.2236    1.0000 </r>
       <r>    1.5871    1.0000 </r>
       <r>    1.7426    1.0000 </r>
       <r>    1.9488    1.0000 </r>
       <r>    2.5081    1.0000 </r>
       <r>    2.5967    1.0000 </r>
       <r>    3.1630    1.0000 </r>
       <r>    3.3707    1.0000 </r>
       <r>    3.6798    1.0000 </r>
       <r>    3.8285    1.0000 </r>
       <r>    4.0380    1.0000 </r>
       <r>    4.2847    1.0000 </r>
       <r>    4.6627    1.0000 </r>
       <r>    4.7830    1.0000 </r>
       <r>    5.1475    1.0000 </r>
       <r>    5.1658    1.0000 </r>
       <r>    5.2957    1.0000 </r>
       <r>    5.4443    1.0000 </r>
       <r>    5.5999    1.0000 </r>
       <r>    5.6935    1.0000 </r>
       <r>    5.8475    1.0000 </r>
       <r>    5.9830    1.0000 </r>
       <r>    6.0721    1.0000 </r>
       <r>    6.1365    1.0000 </r>
       <r>    6.1983    1.0000 </r>
       <r>    6.2099    1.0000 </r>
       <r>    6.2561    1.0000 </r>
       <r>    6.3069    1.0000 </r>
       <r>    6.3184    1.0000 </r>
       <r>    7.0343    1.0002 </r>
       <r>    7.0703    1.0004 </r>
       <r>    8.3832   -0.0208 </r>
       <r>    8.5126   -0.0061 </r>
       <r>    9.2911    0.0000 </r>
       <r>    9.4136    0.0000 </r>
       <r>   10.9768    0.0000 </r>
       <r>   11.2290    0.0000 </r>
       <r>   15.0304    0.0000 </r>
       <r>   15.2389    0.0000 </r>
      </set>
     </set>
    </set>
   </array>
  </eigenvalues>
  <separator name="orbital magnetization" >
   <v name="MAGDIPOLOUT">      0.00000000      0.00000000      0.00000000</v>
  </separator>
  <dos>
   <i name="efermi">      7.88846480 </i>
   <total>
    <array>
     <dimension dim="1">gridpoints</dimension>
     <dimension dim="2">spin</dimension>
     <field>energy</field>
     <field>total</field>
     <field>integrated</field>
     <set>
      <set comment="spin 1">
       <r>    -4.1115     0.0000     0.0000 </r>
       <r>    -4.0336     0.0000     0.0000 </r>
       <r>    -3.9556     0.0000     0.0000 </r>
       <r>    -3.8776     0.0000     0.0000 </r>
       <r>    -3.7997     0.0000     0.0000 </r>
       <r>    -3.7217     0.0000     0.0000 </r>
       <r>    -3.6437     0.0000     0.0000 </r>
       <r>    -3.5658     0.0000     0.0000 </r>
       <r>    -3.4878     0.0000     0.0000 </r>
       <r>    -3.4098     0.0000     0.0000 </r>
       <r>    -3.3319     0.0000     0.0000 </r>
       <r>    -3.2539     0.0000     0.0000 </r>
       <r>    -3.1760     0.0000     0.0000 </r>
       <r>    -3.0980     0.0000     0.0000 </r>
       <r>    -3.0200     0.0000     0.0000 </r>
       <r>    -2.9421     0.0000     0.0000 </r>
       <r>    -2.8641     0.0000     0.0000 </r>
       <r>    -2.7861     0.0000     0.0000 </r>
       <r>    -2.7082     0.0000     0.0000 </r>
       <r>    -2.6302     0.0000     0.0000 </r>
       <r>    -2.5522     0.0000     0.0000 </r>
       <r>    -2.4743     0.0000     0.0000 </r>
       <r>    -2.3963     0.0000     0.0000 </r>
       <r>    -2.3184     0.0000     0.0000 </r>
       <r>    -2.2404     0.0000     0.0000 </r>
       <r>    -2.1624     0.0000     0.0000 </r>
       <r>    -2.0845     0.0000     0.0000 </r>
       <r>    -2.0065     0.0000     0.0000 </r>
       <r>    -1.9285     0.0000     0.0000 </r>
       <r>    -1.8506    -0.0001     0.0000 </r>
       <r>    -1.7726    -0.0003     0.0000 </r>
       <r>    -1.6947    -0.0008    -0.0001 </r>
       <r>    -1.6167    -0.0020    -0.0002 </r>
       <r>    -1.5387    -0.0039    -0.0006 </r>
       <r>    -1.4608    -0.0064    -0.0011 </r>
       <r>    -1.3828    -0.0079    -0.0017 </r>
       <r>    -1.3048    -0.0049    -0.0021 </r>
       <r>    -1.2269     0.0074    -0.0015 </r>
       <r>    -1.1489     0.0330     0.0011 </r>
       <r>    -1.0709     0.0733     0.0068 </r>
       <r>    -0.9930     0.1251     0.0166 </r>
       <r>    -0.9150     0.1822     0.0308 </r>
       <r>    -0.8371     0.2383     0.0494 </r>
       <r>    -0.7591     0.2896     0.0719 </r>
       <r>    -0.6811     0.3355     0.0981 </r>
       <r>    -0.6032     0.3773     0.1275 </r>
       <r>    -0.5252     0.4160     0.1599 </r>
       <r>    -0.4472     0.4516     0.1951 </r>
       <r>    -0.3693     0.4835     0.2328 </r>
       <r>    -0.2913     0.5120     0.2728 </r>
       <r>    -0.2134     0.5392     0.3148 </r>
       <r>    -0.1354     0.5687     0.3591 </r>
       <r>    -0.0574     0.6043     0.4062 </r>
       <r>     0.0205     0.6479     0.4568 </r>
       <r>     0.0985     0.6974     0.5111 </r>
       <r>     0.1765     0.7473     0.5694 </r>
       <r>     0.2544     0.7918     0.6311 </r>
       <r>     0.3324     0.8288     0.6957 </r>
       <r>     0.4104     0.8611     0.7629 </r>
       <r>     0.4883     0.8939     0.8326 </r>
       <r>     0.5663     0.9316     0.9052 </r>
       <r>     0.6442     0.9753     0.9812 </r>
       <r>     0.7222     1.0254     1.0612 </r>
       <r>     0.8002     1.0859     1.1458 </r>
       <r>     0.8781     1.1704     1.2371 </r>
       <r>     0.9561     1.3077     1.3390 </r>
       <r>     1.0341     1.5386     1.4590 </r>
       <r>     1.1120     1.8968     1.6069 </r>
       <r>     1.1900     2.3796     1.7924 </r>
       <r>     1.2679     2.9348     2.0212 </r>
       <r>     1.3459     3.4897     2.2933 </r>
       <r>     1.4239     4.0110     2.6060 </r>
       <r>     1.5018     4.5432     2.9602 </r>
       <r>     1.5798     5.1809     3.3641 </r>
       <r>     1.6578     5.9903     3.8311 </r>
       <r>     1.7357     6.9411     4.3723 </r>
       <r>     1.8137     7.9051     4.9886 </r>
       <r>     1.8917     8.7172     5.6682 </r>
       <r>     1.9696     9.2502     6.3894 </r>
       <r>     2.0476     9.4549     7.1265 </r>
       <r>     2.1255     9.3570     7.8560 </r>
       <r>     2.2035     9.0419     8.5610 </r>
       <r>     2.2815     8.6455     9.2350 </r>
       <r>     2.3594     8.3337     9.8847 </r>
       <r>     2.4374     8.2485    10.5278 </r>
       <r>     2.5154     8.4329    11.1852 </r>
       <r>     2.5933     8.7973    11.8711 </r>
       <r>     2.6713     9.1736    12.5863 </r>
       <r>     2.7492     9.4272    13.3213 </r>
       <r>     2.8272     9.5366    14.0648 </r>
       <r>     2.9052     9.5740    14.8112 </r>
       <r>     2.9831     9.6163    15.5609 </r>
       <r>     3.0611     9.6815    16.3157 </r>
       <r>     3.1391     9.7447    17.0755 </r>
       <r>     3.2170     9.8001    17.8395 </r>
       <r>     3.2950     9.8898    18.6105 </r>
       <r>     3.3730    10.0707    19.3957 </r>
       <r>     3.4509    10.3593    20.2033 </r>
       <r>     3.5289    10.7138    21.0386 </r>
       <r>     3.6068    11.0645    21.9012 </r>
       <r>     3.6848    11.3550    22.7865 </r>
       <r>     3.7628    11.5551    23.6874 </r>
       <r>     3.8407    11.6428    24.5951 </r>
       <r>     3.9187    11.5895    25.4986 </r>
       <r>     3.9967    11.3708    26.3851 </r>
       <r>     4.0746    10.9960    27.2424 </r>
       <r>     4.1526    10.5279    28.0632 </r>
       <r>     4.2305    10.0769    28.8488 </r>
       <r>     4.3085     9.7619    29.6099 </r>
       <r>     4.3865     9.6502    30.3623 </r>
       <r>     4.4644     9.7134    31.1196 </r>
       <r>     4.5424     9.8443    31.8870 </r>
       <r>     4.6204     9.9429    32.6622 </r>
       <r>     4.6983    10.0134    33.4429 </r>
       <r>     4.7763    10.1859    34.2370 </r>
       <r>     4.8543    10.6289    35.0657 </r>
       <r>     4.9322    11.4210    35.9561 </r>
       <r>     5.0102    12.4980    36.9305 </r>
       <r>     5.0881    13.7192    38.0001 </r>
       <r>     5.1661    14.9649    39.1668 </r>
       <r>     5.2441    16.1467    40.4256 </r>
       <r>     5.3220    17.1337    41.7614 </r>
       <r>     5.4000    17.7266    43.1435 </r>
       <r>     5.4780    17.7738    44.5292 </r>
       <r>     5.5559    17.3455    45.8815 </r>
       <r>     5.6339    16.7874    47.1903 </r>
       <r>     5.7118    16.5772    48.4827 </r>
       <r>     5.7898    17.0956    49.8155 </r>
       <r>     5.8678    18.4603    51.2547 </r>
       <r>     5.9457    20.4688    52.8505 </r>
       <r>     6.0237    22.5995    54.6125 </r>
       <r>     6.1017    24.0749    56.4894 </r>
       <r>     6.1796    24.0649    58.3656 </r>
       <r>     6.2576    22.0489    60.0846 </r>
       <r>     6.3356    18.1607    61.5005 </r>
       <r>     6.4135    13.2369    62.5325 </r>
       <r>     6.4915     8.4577    63.1919 </r>
       <r>     6.5694     4.7875    63.5651 </r>
       <r>     6.6474     2.5930    63.7673 </r>
       <r>     6.7254     1.6543    63.8962 </r>
       <r>     6.8033     1.4710    64.0109 </r>
       <r>     6.8813     1.5877    64.1347 </r>
       <r>     6.9593     1.7477    64.2710 </r>
       <r>     7.0372     1.8668    64.4165 </r>
       <r>     7.1152     1.9394    64.5677 </r>
       <r>     7.1931     1.9711    64.7214 </r>
       <r>     7.2711     1.9631    64.8744 </r>
       <r>     7.3491     1.9224    65.0243 </r>
       <r>     7.4270     1.8683    65.1700 </r>
       <r>     7.5050     1.8240    65.3122 </r>
       <r>     7.5830     1.8032    65.4528 </r>
       <r>     7.6609     1.8019    65.5932 </r>
       <r>     7.7389     1.8034    65.7338 </r>
       <r>     7.8169     1.7920    65.8735 </r>
       <r>     7.8948     1.7644    66.0111 </r>
       <r>     7.9728     1.7304    66.1460 </r>
       <r>     8.0507     1.7027    66.2788 </r>
       <r>     8.1287     1.6877    66.4103 </r>
       <r>     8.2067     1.6850    66.5417 </r>
       <r>     8.2846     1.6926    66.6737 </r>
       <r>     8.3626     1.7092    66.8069 </r>
       <r>     8.4406     1.7303    66.9418 </r>
       <r>     8.5185     1.7467    67.0780 </r>
       <r>     8.5965     1.7468    67.2142 </r>
       <r>     8.6744     1.7230    67.3485 </r>
       <r>     8.7524     1.6755    67.4791 </r>
       <r>     8.8304     1.6138    67.6050 </r>
       <r>     8.9083     1.5558    67.7263 </r>
       <r>     8.9863     1.5221    67.8449 </r>
       <r>     9.0643     1.5261    67.9639 </r>
       <r>     9.1422     1.5644    68.0859 </r>
       <r>     9.2202     1.6159    68.2118 </r>
       <r>     9.2982     1.6533    68.3407 </r>
       <r>     9.3761     1.6588    68.4701 </r>
       <r>     9.4541     1.6337    68.5974 </r>
       <r>     9.5320     1.5946    68.7218 </r>
       <r>     9.6100     1.5599    68.8434 </r>
       <r>     9.6880     1.5393    68.9634 </r>
       <r>     9.7659     1.5313    69.0828 </r>
       <r>     9.8439     1.5290    69.2020 </r>
       <r>     9.9219     1.5260    69.3210 </r>
       <r>     9.9998     1.5192    69.4394 </r>
       <r>    10.0778     1.5069    69.5569 </r>
       <r>    10.1557     1.4869    69.6728 </r>
       <r>    10.2337     1.4549    69.7862 </r>
       <r>    10.3117     1.4073    69.8959 </r>
       <r>    10.3896     1.3475    70.0010 </r>
       <r>    10.4676     1.2898    70.1016 </r>
       <r>    10.5456     1.2548    70.1994 </r>
       <r>    10.6235     1.2571    70.2974 </r>
       <r>    10.7015     1.2939    70.3983 </r>
       <r>    10.7795     1.3468    70.5033 </r>
       <r>    10.8574     1.3954    70.6121 </r>
       <r>    10.9354     1.4316    70.7237 </r>
       <r>    11.0133     1.4653    70.8379 </r>
       <r>    11.0913     1.5150    70.9560 </r>
       <r>    11.1693     1.5920    71.0801 </r>
       <r>    11.2472     1.6888    71.2118 </r>
       <r>    11.3252     1.7802    71.3506 </r>
       <r>    11.4032     1.8388    71.4939 </r>
       <r>    11.4811     1.8540    71.6385 </r>
       <r>    11.5591     1.8391    71.7819 </r>
       <r>    11.6370     1.8203    71.9238 </r>
       <r>    11.7150     1.8180    72.0655 </r>
       <r>    11.7930     1.8353    72.2086 </r>
       <r>    11.8709     1.8620    72.3538 </r>
       <r>    11.9489     1.8862    72.5008 </r>
       <r>    12.0269     1.9011    72.6491 </r>
       <r>    12.1048     1.9049    72.7976 </r>
       <r>    12.1828     1.8979    72.9455 </r>
       <r>    12.2608     1.8791    73.0920 </r>
       <r>    12.3387     1.8448    73.2359 </r>
       <r>    12.4167     1.7922    73.3756 </r>
       <r>    12.4946     1.7255    73.5101 </r>
       <r>    12.5726     1.6594    73.6395 </r>
       <r>    12.6506     1.6143    73.7653 </r>
       <r>    12.7285     1.6049    73.8905 </r>
       <r>    12.8065     1.6293    74.0175 </r>
       <r>    12.8845     1.6697    74.1477 </r>
       <r>    12.9624     1.7024    74.2804 </r>
       <r>    13.0404     1.7130    74.4139 </r>
       <r>    13.1183     1.7031    74.5467 </r>
       <r>    13.1963     1.6859    74.6782 </r>
       <r>    13.2743     1.6731    74.8086 </r>
       <r>    13.3522     1.6657    74.9385 </r>
       <r>    13.4302     1.6559    75.0676 </r>
       <r>    13.5082     1.6374    75.1952 </r>
       <r>    13.5861     1.6151    75.3211 </r>
       <r>    13.6641     1.6060    75.4463 </r>
       <r>    13.7421     1.6309    75.5735 </r>
       <r>    13.8200     1.7047    75.7064 </r>
       <r>    13.8980     1.8271    75.8488 </r>
       <r>    13.9759     1.9793    76.0032 </r>
       <r>    14.0539     2.1296    76.1692 </r>
       <r>    14.1319     2.2475    76.3444 </r>
       <r>    14.2098     2.3189    76.5252 </r>
       <r>    14.2878     2.3491    76.7083 </r>
       <r>    14.3658     2.3525    76.8917 </r>
       <r>    14.4437     2.3379    77.0740 </r>
       <r>    14.5217     2.3024    77.2535 </r>
       <r>    14.5997     2.2392    77.4281 </r>
       <r>    14.6776     2.1474    77.5955 </r>
       <r>    14.7556     2.0360    77.7542 </r>
       <r>    14.8335     1.9191    77.9039 </r>
       <r>    14.9115     1.8090    78.0449 </r>
       <r>    14.9895     1.7132    78.1785 </r>
       <r>    15.0674     1.6356    78.3060 </r>
       <r>    15.1454     1.5783    78.4290 </r>
       <r>    15.2234     1.5390    78.5490 </r>
       <r>    15.3013     1.5064    78.6665 </r>
       <r>    15.3793     1.4622    78.7805 </r>
       <r>    15.4572     1.3920    78.8890 </r>
       <r>    15.5352     1.3004    78.9904 </r>
       <r>    15.6132     1.2148    79.0851 </r>
       <r>    15.6911     1.1751    79.1767 </r>
       <r>    15.7691     1.2119    79.2712 </r>
       <r>    15.8471     1.3275    79.3747 </r>
       <r>    15.9250     1.4824    79.4902 </r>
       <r>    16.0030     1.5997    79.6150 </r>
       <r>    16.0810     1.5925    79.7391 </r>
       <r>    16.1589     1.4097    79.8490 </r>
       <r>    16.2369     1.0734    79.9327 </r>
       <r>    16.3148     0.6734    79.9852 </r>
       <r>    16.3928     0.3184    80.0100 </r>
       <r>    16.4708     0.0787    80.0162 </r>
       <r>    16.5487    -0.0371    80.0133 </r>
       <r>    16.6267    -0.0652    80.0082 </r>
       <r>    16.7047    -0.0521    80.0041 </r>
       <r>    16.7826    -0.0304    80.0018 </r>
       <r>    16.8606    -0.0143    80.0006 </r>
       <r>    16.9385    -0.0056    80.0002 </r>
       <r>    17.0165    -0.0019    80.0001 </r>
       <r>    17.0945    -0.0005    80.0000 </r>
       <r>    17.1724    -0.0001    80.0000 </r>
       <r>    17.2504     0.0000    80.0000 </r>
       <r>    17.3284     0.0000    80.0000 </r>
       <r>    17.4063     0.0000    80.0000 </r>
       <r>    17.4843     0.0000    80.0000 </r>
       <r>    17.5623     0.0000    80.0000 </r>
       <r>    17.6402     0.0000    80.0000 </r>
       <r>    17.7182     0.0000    80.0000 </r>
       <r>    17.7961     0.0000    80.0000 </r>
       <r>    17.8741     0.0000    80.0000 </r>
       <r>    17.9521     0.0000    80.0000 </r>
       <r>    18.0300     0.0000    80.0000 </r>
       <r>    18.1080     0.0000    80.0000 </r>
       <r>    18.1860     0.0000    80.0000 </r>
       <r>    18.2639     0.0000    80.0000 </r>
       <r>    18.3419     0.0000    80.0000 </r>
       <r>    18.4198     0.0000    80.0000 </r>
       <r>    18.4978     0.0000    80.0000 </r>
       <r>    18.5758     0.0000    80.0000 </r>
       <r>    18.6537     0.0000    80.0000 </r>
       <r>    18.7317     0.0000    80.0000 </r>
       <r>    18.8097     0.0000    80.0000 </r>
       <r>    18.8876     0.0000    80.0000 </r>
       <r>    18.9656     0.0000    80.0000 </r>
       <r>    19.0436     0.0000    80.0000 </r>
       <r>    19.1215     0.0000    80.0000 </r>
       <r>    19.1995     0.0000    80.0000 </r>
       <r>    19.2774     0.0000    80.0000 </r>
      </set>
     </set>
    </array>
   </total>
  </dos>
 </calculation>
 <structure name="finalpos" >
  <crystal>
   <varray name="basis" >
    <v>       0.00000000      -1.99521839      -1.99521839 </v>
    <v>      -3.93923309       1.98356879      -1.98356879 </v>
    <v>       3.83703740       3.86381567      -3.86381567 </v>
   </varray>
   <i name="volume">     91.10764988 </i>
   <varray name="rec_basis" >
    <v>       0.00000000      -0.25059913      -0.25059913 </v>
    <v>      -0.16923181       0.08402947      -0.08402947 </v>
    <v>       0.08687861       0.08626751      -0.08626751 </v>
   </varray>
  </crystal>
  <varray name="positions" >
   <v>       0.00000000       0.64840046       0.66271708 </v>
   <v>       0.00000000       0.33133301       0.34938354 </v>
   <v>       0.50000000       0.18470136       0.65708574 </v>
   <v>       0.50000000       0.49782775       0.00220571 </v>
   <v>       0.00000000       0.00127115       0.97637395 </v>
   <v>       0.50000000       0.83646626       0.35223398 </v>
  </varray>
 </structure>
</modeling>
