<?xml version="1.0" encoding="ISO-8859-1"?>
<modeling>
 <generator>
  <i name="program" type="string">vasp </i>
  <i name="version" type="string">5.3.5  </i>
  <i name="subversion" type="string">31Mar14 (build Jun 20 2014 13:15:13) complex                          parallel </i>
  <i name="platform" type="string">LinuxIFC </i>
  <i name="date" type="string">2025 12 16 </i>
  <i name="time" type="string">17:07:52 </i>
 </generator>
 <incar>
  <i type="string" name="PREC">accurate</i>
  <i type="int" name="IALGO">    68</i>
  <i type="logical" name="ADDGRID"> T  </i>
  <i type="int" name="NELM">   100</i>
  <i type="int" name="NELMIN">     4</i>
  <i type="int" name="IBRION">     2</i>
  <i name="EDIFF">      0.00000100</i>
  <i name="EDIFFG">     -0.02000000</i>
  <i type="int" name="NSW">    30</i>
  <i type="int" name="ISIF">     3</i>
  <i name="ENCUT">    600.00000000</i>
  <i type="logical" name="LREAL"> F  </i>
  <i type="int" name="ISMEAR">     0</i>
  <i name="SIGMA">      0.10000000</i>
  <i type="logical" name="LWAVE"> F  </i>
  <i type="logical" name="LCHARG"> F  </i>
  <i type="int" name="NELM">   100</i>
 </incar>
 <kpoints>
  <generation param="Auto">
   <i name="subdivisionlength">     20.00000000 </i>
   <v type="int" name="divisions">       2        3        4 </v>
   <v name="usershift">      0.00000000       0.00000000       0.00000000 </v>
   <v name="genvec1">      0.50000000       0.00000000       0.00000000 </v>
   <v name="genvec2">      0.00000000       0.33333333       0.00000000 </v>
   <v name="genvec3">      0.00000000       0.00000000       0.25000000 </v>
   <v name="shift">      0.00000000       0.00000000       0.00000000 </v>
  </generation>
  <varray name="kpointlist" >
   <v>       0.00000000       0.00000000       0.00000000 </v>
   <v>       0.50000000       0.00000000       0.00000000 </v>
   <v>       0.00000000       0.33333333       0.00000000 </v>
   <v>       0.50000000       0.33333333       0.00000000 </v>
   <v>       0.00000000       0.00000000       0.25000000 </v>
   <v>       0.50000000       0.00000000       0.25000000 </v>
   <v>       0.00000000       0.33333333       0.25000000 </v>
   <v>       0.50000000       0.33333333       0.25000000 </v>
   <v>       0.00000000       0.00000000       0.50000000 </v>
   <v>       0.50000000       0.00000000       0.50000000 </v>
   <v>       0.00000000       0.33333333       0.50000000 </v>
   <v>       0.50000000       0.33333333       0.50000000 </v>
  </varray>
  <varray name="weights" >
   <v>       0.04166667 </v>
   <v>       0.04166667 </v>
   <v>       0.08333333 </v>
   <v>       0.08333333 </v>
   <v>       0.08333333 </v>
   <v>       0.08333333 </v>
   <v>       0.16666667 </v>
   <v>       0.16666667 </v>
   <v>       0.04166667 </v>
   <v>       0.04166667 </v>
   <v>       0.08333333 </v>
   <v>       0.08333333 </v>
  </varray>
 </kpoints>
 <parameters>
  <separator name="general" >
   <i type="string" name="SYSTEM">unknown system</i>
   <i type="logical" name="LCOMPAT"> F  </i>
  </separator>
  <separator name="electronic" >
   <i type="string" name="PREC">accura</i>
   <i name="ENMAX">    600.00000000</i>
   <i name="ENAUG">    644.87300000</i>
   <i name="EDIFF">      0.00000100</i>
   <i type="int" name="IALGO">    68</i>
   <i type="int" name="IWAVPR">    11</i>
   <i type="int" name="NBANDS">    84</i>
   <i name="NELECT">    128.00000000</i>
   <i type="int" name="TURBO">     0</i>
   <i type="int" name="IRESTART">     0</i>
   <i type="int" name="NREBOOT">     0</i>
   <i type="int" name="NMIN">     0</i>
   <i name="EREF">      0.00000000</i>
   <separator name="electronic smearing" >
    <i type="int" name="ISMEAR">     0</i>
    <i name="SIGMA">      0.10000000</i>
    <i name="KSPACING">      0.50000000</i>
    <i type="logical" name="KGAMMA"> T  </i>
   </separator>
   <separator name="electronic projectors" >
    <i type="logical" name="LREAL"> F  </i>
    <v name="ROPT">      0.00000000      0.00000000      0.00000000      0.00000000</v>
    <i type="int" name="LMAXPAW">  -100</i>
    <i type="int" name="LMAXMIX">     2</i>
    <i type="logical" name="NLSPLINE"> F  </i>
   </separator>
   <separator name="electronic startup" >
    <i type="int" name="ISTART">     0</i>
    <i type="int" name="ICHARG">     2</i>
    <i type="int" name="INIWAV">     1</i>
   </separator>
   <separator name="electronic spin" >
    <i type="int" name="ISPIN">     1</i>
    <i type="logical" name="LNONCOLLINEAR"> F  </i>
    <v name="MAGMOM">      1.00000000      1.00000000      1.00000000      1.00000000      1.00000000      1.00000000      1.00000000      1.00000000      1.00000000      1.00000000      1.00000000      1.00000000      1.00000000      1.00000000      1.00000000      1.00000000      1.00000000      1.00000000      1.00000000      1.00000000
      1.00000000      1.00000000      1.00000000      1.00000000      1.00000000      1.00000000      1.00000000      1.00000000      1.00000000      1.00000000      1.00000000      1.00000000</v>
    <i name="NUPDOWN">     -1.00000000</i>
    <i type="logical" name="LSORBIT"> F  </i>
    <v name="SAXIS">      0.00000000      0.00000000      1.00000000</v>
    <i type="logical" name="LSPIRAL"> F  </i>
    <v name="QSPIRAL">      0.00000000      0.00000000      0.00000000</v>
    <i type="logical" name="LZEROZ"> F  </i>
   </separator>
   <separator name="electronic exchange-correlation" >
    <i type="logical" name="LASPH"> F  </i>
    <i type="logical" name="LMETAGGA"> F  </i>
   </separator>
   <separator name="electronic convergence" >
    <i type="int" name="NELM">   100</i>
    <i type="int" name="NELMDL">     0</i>
    <i type="int" name="NELMIN">     4</i>
    <i name="ENINI">    600.00000000</i>
    <separator name="electronic convergence detail" >
     <i type="logical" name="LDIAG"> T  </i>
     <i type="logical" name="LSUBROT"> F  </i>
     <i name="WEIMIN">      0.00100000</i>
     <i name="EBREAK">      0.00000000</i>
     <i name="DEPER">      0.30000000</i>
     <i type="int" name="NRMM">     4</i>
     <i name="TIME">      0.40000000</i>
    </separator>
   </separator>
   <separator name="electronic mixer" >
    <i name="AMIX">      0.40000000</i>
    <i name="BMIX">      1.00000000</i>
    <i name="AMIN">      0.10000000</i>
    <i name="AMIX_MAG">      1.60000000</i>
    <i name="BMIX_MAG">      1.00000000</i>
    <separator name="electronic mixer details" >
     <i type="int" name="IMIX">     4</i>
     <i type="int" name="MAXMIX">   -45</i>
     <i name="WC">    100.00000000</i>
     <i type="int" name="INIMIX">     1</i>
     <i type="int" name="MIXPRE">     1</i>
     <i type="int" name="MREMOVE">     5</i>
    </separator>
   </separator>
   <separator name="electronic dipolcorrection" >
    <i type="logical" name="LDIPOL"> F  </i>
    <i type="logical" name="LMONO"> F  </i>
    <i type="int" name="IDIPOL">     0</i>
    <i name="EPSILON">      1.00000000</i>
    <v name="DIPOL">   -100.00000000   -100.00000000   -100.00000000</v>
    <i name="EFIELD">      0.00000000</i>
   </separator>
  </separator>
  <separator name="grids" >
   <i type="int" name="NGX">    90</i>
   <i type="int" name="NGY">    50</i>
   <i type="int" name="NGZ">    40</i>
   <i type="int" name="NGXF">   180</i>
   <i type="int" name="NGYF">   100</i>
   <i type="int" name="NGZF">    80</i>
   <i type="logical" name="ADDGRID"> T  </i>
  </separator>
  <separator name="ionic" >
   <i type="int" name="NSW">    30</i>
   <i type="int" name="IBRION">     2</i>
   <i type="int" name="ISIF">     3</i>
   <i name="PSTRESS">      0.00000000</i>
   <i name="EDIFFG">     -0.02000000</i>
   <i type="int" name="NFREE">     1</i>
   <i name="POTIM">      0.50000000</i>
   <i name="SMASS">     -3.00000000</i>
   <i name="SCALEE">      1.00000000</i>
  </separator>
  <separator name="ionic md" >
   <i name="TEBEG">      0.00010000</i>
   <i name="TEEND">      0.00010000</i>
   <i type="int" name="NBLOCK">     1</i>
   <i type="int" name="KBLOCK">    30</i>
   <i type="int" name="NPACO">   256</i>
   <i name="APACO">     16.00000000</i>
  </separator>
  <separator name="symmetry" >
   <i type="int" name="ISYM">     2</i>
   <i name="SYMPREC">      0.00001000</i>
  </separator>
  <separator name="dos" >
   <i type="logical" name="LORBIT"> F  </i>
   <v name="RWIGS">     -1.00000000     -1.00000000     -1.00000000     -1.00000000</v>
   <i type="int" name="NEDOS">   301</i>
   <i name="EMIN">     10.00000000</i>
   <i name="EMAX">    -10.00000000</i>
   <i name="EFERMI">      0.00000000</i>
  </separator>
  <separator name="writing" >
   <i type="int" name="NWRITE">     2</i>
   <i type="logical" name="LWAVE"> F  </i>
   <i type="logical" name="LCHARG"> F  </i>
   <i type="logical" name="LPARD"> F  </i>
   <i type="logical" name="LVTOT"> F  </i>
   <i type="logical" name="LVHAR"> F  </i>
   <i type="logical" name="LELF"> F  </i>
   <i type="logical" name="LOPTICS"> F  </i>
   <v name="STM">      0.00000000      0.00000000      0.00000000      0.00000000      0.00000000      0.00000000      0.00000000</v>
  </separator>
  <separator name="performance" >
   <i type="int" name="NPAR">     4</i>
   <i type="int" name="NSIM">     4</i>
   <i type="int" name="NBLK">    -1</i>
   <i type="logical" name="LPLANE"> T  </i>
   <i type="logical" name="LSCALAPACK"> T  </i>
   <i type="logical" name="LSCAAWARE"> F  </i>
   <i type="logical" name="LSCALU"> F  </i>
   <i type="logical" name="LASYNC"> F  </i>
   <i type="logical" name="LORBITALREAL"> F  </i>
  </separator>
  <separator name="miscellaneous" >
   <i type="int" name="IDIOT">     3</i>
   <i type="logical" name="LMUSIC"> F  </i>
   <v name="POMASS">     28.08500000     26.98100000     12.01100000     14.00100000</v>
   <v name="DARWINR">      0.00000000      0.00000000      0.00000000      0.00000000</v>
   <v name="DARWINV">      1.00000000      1.00000000      1.00000000      1.00000000</v>
   <i type="logical" name="LCORR"> T  </i>
  </separator>
  <i type="logical" name="GGA_COMPAT"> T  </i>
  <i type="logical" name="LBERRY"> F  </i>
  <i type="int" name="ICORELEVEL">     0</i>
  <i type="logical" name="LDAU"> F  </i>
  <i type="int" name="I_CONSTRAINED_M">     0</i>
  <separator name="electronic exchange-correlation" >
   <i type="string" name="GGA">--</i>
   <i type="int" name="VOSKOWN">     0</i>
   <i type="logical" name="LHFCALC"> F  </i>
   <i type="string" name="PRECFOCK"></i>
   <i type="logical" name="LSYMGRAD"> F  </i>
   <i type="logical" name="LHFONE"> F  </i>
   <i type="logical" name="LRHFCALC"> F  </i>
   <i type="logical" name="LTHOMAS"> F  </i>
   <i type="logical" name="LMODELHF"> F  </i>
   <i name="ENCUT4O">     -1.00000000</i>
   <i type="int" name="EXXOEP">     0</i>
   <i type="int" name="FOURORBIT">     0</i>
   <i name="AEXX">      0.00000000</i>
   <i name="HFALPHA">      0.00000000</i>
   <i name="MCALPHA">      0.00000000</i>
   <i name="ALDAX">      1.00000000</i>
   <i name="AGGAX">      1.00000000</i>
   <i name="ALDAC">      1.00000000</i>
   <i name="AGGAC">      1.00000000</i>
   <i type="int" name="NKREDX">     1</i>
   <i type="int" name="NKREDY">     1</i>
   <i type="int" name="NKREDZ">     1</i>
   <i type="logical" name="SHIFTRED"> F  </i>
   <i type="logical" name="ODDONLY"> F  </i>
   <i type="logical" name="EVENONLY"> F  </i>
   <i type="int" name="LMAXFOCK">     0</i>
   <i type="int" name="NMAXFOCKAE">     0</i>
   <i type="logical" name="LFOCKAEDFT"> F  </i>
   <i name="HFSCREEN">      0.00000000</i>
   <i name="HFSCREENC">      0.00000000</i>
   <i type="int" name="NBANDSGWLOW">     0</i>
  </separator>
  <separator name="vdW DFT" >
   <i type="logical" name="LUSE_VDW"> F  </i>
   <i name="Zab_VDW">     -0.84910000</i>
   <i name="PARAM1">      0.12340000</i>
   <i name="PARAM2">      1.00000000</i>
   <i name="PARAM3">      0.00000000</i>
  </separator>
  <separator name="model GW" >
   <i type="int" name="MODEL_GW">     0</i>
   <i name="MODEL_EPS0">      6.35091746</i>
   <i name="MODEL_ALPHA">      1.00000000</i>
  </separator>
  <separator name="linear response parameters" >
   <i type="logical" name="LEPSILON"> F  </i>
   <i type="logical" name="LRPA"> F  </i>
   <i type="logical" name="LNABLA"> F  </i>
   <i type="logical" name="LVEL"> F  </i>
   <i type="int" name="KINTER">     0</i>
   <i name="CSHIFT">      0.10000000</i>
   <i name="OMEGAMAX">     -1.00000000</i>
   <i name="DEG_THRESHOLD">      0.00200000</i>
  </separator>
  <separator name="orbital magnetization" >
   <i type="logical" name="NUCIND"> F  </i>
   <v name="MAGPOS">      0.00000000      0.00000000      0.00000000</v>
   <i type="logical" name="LNICSALL"> T  </i>
   <i type="logical" name="ORBITALMAG"> F  </i>
   <i type="logical" name="LMAGBLOCH"> F  </i>
   <i type="logical" name="LCHIMAG"> F  </i>
   <i type="logical" name="LGAUGE"> T  </i>
   <i type="int" name="MAGATOM">     0</i>
   <v name="MAGDIPOL">      0.00000000      0.00000000      0.00000000</v>
   <v name="AVECCONST">      0.00000000      0.00000000      0.00000000</v>
  </separator>
  <separator name="response functions" >
   <i type="logical" name="LADDER"> F  </i>
   <i type="logical" name="LFXC"> F  </i>
   <i type="logical" name="LHARTREE"> T  </i>
   <i type="int" name="IBSE">     0</i>
   <i type="logical" name="LTCTE"> F  </i>
   <i type="logical" name="LTETE"> F  </i>
   <i type="logical" name="LTRIPLET"> F  </i>
   <i type="logical" name="LFXCEPS"> F  </i>
   <i type="logical" name="LFXHEG"> F  </i>
   <i type="logical" name="L2ORDER"> F  </i>
   <i type="logical" name="LUSEW"> F  </i>
   <i name="ENCUTGW">     -2.00000000</i>
   <i name="ENCUTGWSOFT">     -2.00000000</i>
   <i name="ENCUTLF">     -1.00000000</i>
   <i type="int" name="LMAXMP2">    -1</i>
   <i name="SCISSOR">      0.00000000</i>
   <i type="int" name="NOMEGA">     0</i>
   <i type="int" name="NOMEGAR">     0</i>
   <i type="int" name="NBANDSGW">    -1</i>
   <i type="int" name="NBANDSO">    -1</i>
   <i type="int" name="NBANDSV">    -1</i>
   <i type="int" name="NELM">   100</i>
   <i type="int" name="DIM">     3</i>
   <i type="int" name="ANTIRES">     0</i>
   <i name="OMEGAMAX">    -30.00000000</i>
   <i name="OMEGAMIN">    -30.00000000</i>
   <i name="OMEGATL">   -200.00000000</i>
   <i type="int" name="OMEGAGRID">     0</i>
   <i name="CSHIFT">     -0.10000000</i>
   <i type="logical" name="SELFENERGY"> F  </i>
   <i type="logical" name="LSPECTRAL"> F  </i>
   <i type="logical" name="ODDONLYGW"> F  </i>
   <i type="logical" name="EVENONLYGW"> F  </i>
   <i type="int" name="NKREDLFX">     1</i>
   <i type="int" name="NKREDLFY">     1</i>
   <i type="int" name="NKREDLFZ">     1</i>
   <i type="int" name="MAXMEM">  1800</i>
   <i type="int" name="TELESCOPE">     0</i>
   <i type="int" name="TAUPAR">     1</i>
  </separator>
  <separator name="External order field" >
   <i name="OFIELD_KAPPA">      0.00000000</i>
   <v name="OFIELD_K">      0.00000000      0.00000000      0.00000000</v>
   <i name="OFIELD_Q6_NEAR">      0.00000000</i>
   <i name="OFIELD_Q6_FAR">      0.00000000</i>
   <i name="OFIELD_A">      0.00000000</i>
  </separator>
 </parameters>
 <atominfo>
  <atoms>      32 </atoms>
  <types>       4 </types>
  <array name="atoms" >
   <dimension dim="1">ion</dimension>
   <field type="string">element</field>
   <field type="int">atomtype</field>
   <set>
    <rc><c>Si</c><c>   1</c></rc>
    <rc><c>Si</c><c>   1</c></rc>
    <rc><c>Si</c><c>   1</c></rc>
    <rc><c>Si</c><c>   1</c></rc>
    <rc><c>Si</c><c>   1</c></rc>
    <rc><c>Si</c><c>   1</c></rc>
    <rc><c>Si</c><c>   1</c></rc>
    <rc><c>Si</c><c>   1</c></rc>
    <rc><c>Si</c><c>   1</c></rc>
    <rc><c>Si</c><c>   1</c></rc>
    <rc><c>Al</c><c>   2</c></rc>
    <rc><c>Al</c><c>   2</c></rc>
    <rc><c>Al</c><c>   2</c></rc>
    <rc><c>Al</c><c>   2</c></rc>
    <rc><c>Al</c><c>   2</c></rc>
    <rc><c>Al</c><c>   2</c></rc>
    <rc><c>C </c><c>   3</c></rc>
    <rc><c>C </c><c>   3</c></rc>
    <rc><c>C </c><c>   3</c></rc>
    <rc><c>C </c><c>   3</c></rc>
    <rc><c>C </c><c>   3</c></rc>
    <rc><c>C </c><c>   3</c></rc>
    <rc><c>C </c><c>   3</c></rc>
    <rc><c>C </c><c>   3</c></rc>
    <rc><c>C </c><c>   3</c></rc>
    <rc><c>C </c><c>   3</c></rc>
    <rc><c>N </c><c>   4</c></rc>
    <rc><c>N </c><c>   4</c></rc>
    <rc><c>N </c><c>   4</c></rc>
    <rc><c>N </c><c>   4</c></rc>
    <rc><c>N </c><c>   4</c></rc>
    <rc><c>N </c><c>   4</c></rc>
   </set>
  </array>
  <array name="atomtypes" >
   <dimension dim="1">type</dimension>
   <field type="int">atomspertype</field>
   <field type="string">element</field>
   <field>mass</field>
   <field>valence</field>
   <field type="string">pseudopotential</field>
   <set>
    <rc><c>  10</c><c>Si</c><c>     28.08500000</c><c>      4.00000000</c><c>  PAW_PBE Si 05Jan2001                  </c></rc>
    <rc><c>   6</c><c>Al</c><c>     26.98100000</c><c>      3.00000000</c><c>  PAW_PBE Al 04Jan2001                  </c></rc>
    <rc><c>  10</c><c>C </c><c>     12.01100000</c><c>      4.00000000</c><c>  PAW_PBE C 08Apr2002                   </c></rc>
    <rc><c>   6</c><c>N </c><c>     14.00100000</c><c>      5.00000000</c><c>  PAW_PBE N_s 07Sep2000                 </c></rc>
   </set>
  </array>
 </atominfo>
 <structure name="initialpos" >
  <crystal>
   <varray name="basis" >
    <v>      10.78476834       0.00000000       0.03270319 </v>
    <v>       0.00000000       6.22783145       0.00000000 </v>
    <v>       0.01541485       0.00000000       5.04303000 </v>
   </varray>
   <i name="volume">    338.71559806 </i>
   <varray name="rec_basis" >
    <v>       0.09272422       0.00000000      -0.00028343 </v>
    <v>       0.00000000       0.16056954       0.00000000 </v>
    <v>      -0.00060130       0.00000000       0.19829532 </v>
   </varray>
  </crystal>
  <varray name="positions" >
   <v>       0.66705342       0.00000000       0.99672938 </v>
   <v>       0.66856716       0.50000000       0.99092415 </v>
   <v>       0.33523133       0.00000000       0.50078134 </v>
   <v>       0.58147155       0.75002888       0.49608260 </v>
   <v>       0.58147155       0.24997112       0.49608260 </v>
   <v>       0.16705342       0.50000000       0.99672938 </v>
   <v>       0.16856716       0.00000000       0.99092415 </v>
   <v>       0.83523133       0.50000000       0.50078134 </v>
   <v>       0.08147155       0.25002888       0.49608260 </v>
   <v>       0.08147155       0.74997112       0.49608260 </v>
   <v>       0.41527085       0.75093526       0.99868421 </v>
   <v>       0.41527085       0.24906474       0.99868421 </v>
   <v>       0.33290316       0.50000000       0.50642921 </v>
   <v>       0.91527085       0.25093526       0.99868421 </v>
   <v>       0.91527085       0.74906474       0.99868421 </v>
   <v>       0.83290316       0.00000000       0.50642921 </v>
   <v>       0.41861346       0.75926977       0.39193832 </v>
   <v>       0.41861346       0.24073023       0.39193832 </v>
   <v>       0.66866603       0.50000000       0.36917611 </v>
   <v>       0.59240655       0.75192972       0.86890778 </v>
   <v>       0.59240655       0.24807028       0.86890778 </v>
   <v>       0.91861346       0.25926977       0.39193832 </v>
   <v>       0.91861346       0.74073023       0.39193832 </v>
   <v>       0.16866603       0.00000000       0.36917611 </v>
   <v>       0.09240655       0.25192972       0.86890778 </v>
   <v>       0.09240655       0.74807028       0.86890778 </v>
   <v>       0.66141417       0.00000000       0.36643721 </v>
   <v>       0.32428811       0.50000000       0.89181587 </v>
   <v>       0.32635179       0.00000000       0.86648090 </v>
   <v>       0.16141417       0.50000000       0.36643721 </v>
   <v>       0.82428811       0.00000000       0.89181587 </v>
   <v>       0.82635179       0.50000000       0.86648090 </v>
  </varray>
 </structure>
 <calculation>
  <scstep>
   <time name="dav">    2.30    2.30</time>
   <time name="total">    2.45    2.47</time>
   <energy>
    <i name="alphaZ">    140.09820660 </i>
    <i name="ewald">  -4539.72298481 </i>
    <i name="hartreedc">   -624.37901540 </i>
    <i name="XCdc">     10.15866824 </i>
    <i name="pawpsdc">   3593.28979614 </i>
    <i name="pawaedc">  -3238.43571855 </i>
    <i name="eentropy">     -0.01701302 </i>
    <i name="bandstr">    883.55661235 </i>
    <i name="atom">   4410.68206660 </i>
    <i name="e_fr_energy">    635.23061816 </i>
    <i name="e_wo_entrp">    635.24763118 </i>
    <i name="e_0_energy">    635.23912467 </i>
   </energy>
  </scstep>
  <scstep>
   <time name="dav">    2.26    2.26</time>
   <time name="total">    2.26    2.28</time>
   <energy>
    <i name="e_fr_energy">   -197.58643957 </i>
    <i name="e_wo_entrp">   -197.58643957 </i>
    <i name="e_0_energy">   -197.58643957 </i>
   </energy>
  </scstep>
  <scstep>
   <time name="dav">    2.39    2.39</time>
   <time name="total">    2.39    2.41</time>
   <energy>
    <i name="e_fr_energy">   -267.86849130 </i>
    <i name="e_wo_entrp">   -267.86849130 </i>
    <i name="e_0_energy">   -267.86849130 </i>
   </energy>
  </scstep>
  <scstep>
   <time name="dav">    2.27    2.27</time>
   <time name="total">    2.27    2.29</time>
   <energy>
    <i name="e_fr_energy">   -270.13908536 </i>
    <i name="e_wo_entrp">   -270.13908536 </i>
    <i name="e_0_energy">   -270.13908536 </i>
   </energy>
  </scstep>
  <scstep>
   <time name="dav">    2.31    2.31</time>
   <time name="total">    2.56    2.57</time>
   <energy>
    <i name="e_fr_energy">   -270.23278168 </i>
    <i name="e_wo_entrp">   -270.23278168 </i>
    <i name="e_0_energy">   -270.23278168 </i>
   </energy>
  </scstep>
  <scstep>
   <time name="diag">    0.31    0.31</time>
   <time name="diis">    1.40    1.40</time>
   <time name="orth">    0.06    0.06</time>
   <time name="total">    2.16    2.18</time>
   <energy>
    <i name="e_fr_energy">   -236.89811242 </i>
    <i name="e_wo_entrp">   -236.89811242 </i>
    <i name="e_0_energy">   -236.89811242 </i>
   </energy>
  </scstep>
  <scstep>
   <time name="diag">    0.33    0.33</time>
   <time name="diis">    1.46    1.46</time>
   <time name="orth">    0.06    0.06</time>
   <time name="total">    2.23    2.26</time>
   <energy>
    <i name="e_fr_energy">   -236.85217968 </i>
    <i name="e_wo_entrp">   -236.85217968 </i>
    <i name="e_0_energy">   -236.85217968 </i>
   </energy>
  </scstep>
  <scstep>
   <time name="diag">    0.32    0.32</time>
   <time name="diis">    1.41    1.41</time>
   <time name="orth">    0.06    0.06</time>
   <time name="total">    2.17    2.19</time>
   <energy>
    <i name="e_fr_energy">   -237.28851180 </i>
    <i name="e_wo_entrp">   -237.28851180 </i>
    <i name="e_0_energy">   -237.28851180 </i>
   </energy>
  </scstep>
  <scstep>
   <time name="diag">    0.31    0.31</time>
   <time name="diis">    1.41    1.41</time>
   <time name="orth">    0.06    0.06</time>
   <time name="total">    2.17    2.18</time>
   <energy>
    <i name="e_fr_energy">   -236.68283241 </i>
    <i name="e_wo_entrp">   -236.68283241 </i>
    <i name="e_0_energy">   -236.68283241 </i>
   </energy>
  </scstep>
  <scstep>
   <time name="diag">    0.31    0.31</time>
   <time name="diis">    1.38    1.38</time>
   <time name="orth">    0.06    0.06</time>
   <time name="total">    2.14    2.16</time>
   <energy>
    <i name="e_fr_energy">   -236.69354310 </i>
    <i name="e_wo_entrp">   -236.69354310 </i>
    <i name="e_0_energy">   -236.69354310 </i>
   </energy>
  </scstep>
  <scstep>
   <time name="diag">    0.31    0.31</time>
   <time name="diis">    1.36    1.36</time>
   <time name="orth">    0.06    0.06</time>
   <time name="total">    2.11    2.13</time>
   <energy>
    <i name="e_fr_energy">   -236.69121946 </i>
    <i name="e_wo_entrp">   -236.69121946 </i>
    <i name="e_0_energy">   -236.69121946 </i>
   </energy>
  </scstep>
  <scstep>
   <time name="diag">    0.37    0.37</time>
   <time name="diis">    1.38    1.38</time>
   <time name="orth">    0.06    0.06</time>
   <time name="total">    2.20    2.22</time>
   <energy>
    <i name="e_fr_energy">   -236.68951155 </i>
    <i name="e_wo_entrp">   -236.68951155 </i>
    <i name="e_0_energy">   -236.68951155 </i>
   </energy>
  </scstep>
  <scstep>
   <time name="diag">    0.31    0.31</time>
   <time name="diis">    1.40    1.40</time>
   <time name="orth">    0.06    0.06</time>
   <time name="total">    2.16    2.18</time>
   <energy>
    <i name="e_fr_energy">   -236.68953088 </i>
    <i name="e_wo_entrp">   -236.68953088 </i>
    <i name="e_0_energy">   -236.68953088 </i>
   </energy>
  </scstep>
  <scstep>
   <time name="diag">    0.31    0.31</time>
   <time name="diis">    1.36    1.38</time>
   <time name="orth">    0.06    0.06</time>
   <time name="total">    2.12    2.15</time>
   <energy>
    <i name="e_fr_energy">   -236.68954279 </i>
    <i name="e_wo_entrp">   -236.68954279 </i>
    <i name="e_0_energy">   -236.68954279 </i>
   </energy>
  </scstep>
  <scstep>
   <time name="diag">    0.31    0.31</time>
   <time name="diis">    1.01    1.01</time>
   <time name="orth">    0.06    0.06</time>
   <time name="total">    1.53    1.54</time>
   <energy>
    <i name="alphaZ">    140.09820660 </i>
    <i name="ewald">  -4539.72298481 </i>
    <i name="hartreedc">   -833.63838471 </i>
    <i name="XCdc">     28.83618819 </i>
    <i name="pawpsdc">  19671.67400848 </i>
    <i name="pawaedc"> -19323.95908819 </i>
    <i name="eentropy">      0.00000000 </i>
    <i name="bandstr">    209.34044464 </i>
    <i name="atom">   4410.68206660 </i>
    <i name="e_fr_energy">   -236.68954321 </i>
    <i name="e_wo_entrp">   -236.68954321 </i>
    <i name="e_0_energy">   -236.68954321 </i>
   </energy>
  </scstep>
  <structure>
   <crystal>
    <varray name="basis" >
     <v>      10.78476834       0.00000000       0.03270319 </v>
     <v>       0.00000000       6.22783145       0.00000000 </v>
     <v>       0.01541485       0.00000000       5.04303000 </v>
    </varray>
    <i name="volume">    338.71559806 </i>
    <varray name="rec_basis" >
     <v>       0.09272422       0.00000000      -0.00028343 </v>
     <v>       0.00000000       0.16056954       0.00000000 </v>
     <v>      -0.00060130       0.00000000       0.19829532 </v>
    </varray>
   </crystal>
   <varray name="positions" >
    <v>       0.66705342       0.00000000       0.99672938 </v>
    <v>       0.66856716       0.50000000       0.99092415 </v>
    <v>       0.33523133       0.00000000       0.50078134 </v>
    <v>       0.58147155       0.75002888       0.49608260 </v>
    <v>       0.58147155       0.24997112       0.49608260 </v>
    <v>       0.16705342       0.50000000       0.99672938 </v>
    <v>       0.16856716       0.00000000       0.99092415 </v>
    <v>       0.83523133       0.50000000       0.50078134 </v>
    <v>       0.08147155       0.25002888       0.49608260 </v>
    <v>       0.08147155       0.74997112       0.49608260 </v>
    <v>       0.41527085       0.75093526       0.99868421 </v>
    <v>       0.41527085       0.24906474       0.99868421 </v>
    <v>       0.33290316       0.50000000       0.50642921 </v>
    <v>       0.91527085       0.25093526       0.99868421 </v>
    <v>       0.91527085       0.74906474       0.99868421 </v>
    <v>       0.83290316       0.00000000       0.50642921 </v>
    <v>       0.41861346       0.75926977       0.39193832 </v>
    <v>       0.41861346       0.24073023       0.39193832 </v>
    <v>       0.66866603       0.50000000       0.36917611 </v>
    <v>       0.59240655       0.75192972       0.86890778 </v>
    <v>       0.59240655       0.24807028       0.86890778 </v>
    <v>       0.91861346       0.25926977       0.39193832 </v>
    <v>       0.91861346       0.74073023       0.39193832 </v>
    <v>       0.16866603       0.00000000       0.36917611 </v>
    <v>       0.09240655       0.25192972       0.86890778 </v>
    <v>       0.09240655       0.74807028       0.86890778 </v>
    <v>       0.66141417       0.00000000       0.36643721 </v>
    <v>       0.32428811       0.50000000       0.89181587 </v>
    <v>       0.32635179       0.00000000       0.86648090 </v>
    <v>       0.16141417       0.50000000       0.36643721 </v>
    <v>       0.82428811       0.00000000       0.89181587 </v>
    <v>       0.82635179       0.50000000       0.86648090 </v>
   </varray>
  </structure>
  <varray name="forces" >
   <v>      -0.00144296       0.00000000      -0.00528098 </v>
   <v>       0.01006819       0.00000000       0.00339204 </v>
   <v>      -0.00846347       0.00000000       0.00337855 </v>
   <v>      -0.00907618      -0.00412673       0.00578978 </v>
   <v>      -0.00907618       0.00412673       0.00578978 </v>
   <v>      -0.00144296       0.00000000      -0.00528098 </v>
   <v>       0.01006819       0.00000000       0.00339204 </v>
   <v>      -0.00846347       0.00000000       0.00337855 </v>
   <v>      -0.00907618      -0.00412673       0.00578978 </v>
   <v>      -0.00907618       0.00412673       0.00578978 </v>
   <v>       0.00370638      -0.00156513      -0.00336077 </v>
   <v>       0.00370638       0.00156513      -0.00336077 </v>
   <v>      -0.00489471       0.00000000      -0.00351321 </v>
   <v>       0.00370638      -0.00156513      -0.00336077 </v>
   <v>       0.00370638       0.00156513      -0.00336077 </v>
   <v>      -0.00489471       0.00000000      -0.00351321 </v>
   <v>       0.00556233      -0.00699981      -0.00060404 </v>
   <v>       0.00556233       0.00699981      -0.00060404 </v>
   <v>      -0.00248202       0.00000000      -0.00155090 </v>
   <v>       0.00262065       0.00106975      -0.00124082 </v>
   <v>       0.00262065      -0.00106975      -0.00124082 </v>
   <v>       0.00556233      -0.00699981      -0.00060404 </v>
   <v>       0.00556233       0.00699981      -0.00060404 </v>
   <v>      -0.00248202       0.00000000      -0.00155090 </v>
   <v>       0.00262065       0.00106975      -0.00124082 </v>
   <v>       0.00262065      -0.00106975      -0.00124082 </v>
   <v>      -0.00582822       0.00000000      -0.00276923 </v>
   <v>       0.00119475       0.00000000       0.00325676 </v>
   <v>       0.00622206       0.00000000       0.00191867 </v>
   <v>      -0.00582822       0.00000000      -0.00276923 </v>
   <v>       0.00119475       0.00000000       0.00325676 </v>
   <v>       0.00622206       0.00000000       0.00191867 </v>
  </varray>
  <varray name="stress" >
   <v>       0.05086606       0.00000000      -0.14233915 </v>
   <v>       0.00000000       0.45551655       0.00000000 </v>
   <v>      -0.14233917       0.00000000      -0.10882817 </v>
  </varray>
  <energy>
   <i name="e_fr_energy">   -236.68954321 </i>
   <i name="e_wo_entrp">   -236.68954321 </i>
   <i name="e_0_energy">      0.00000000 </i>
  </energy>
  <time name="totalsc">   38.10   38.38</time>
  <eigenvalues>
   <array>
    <dimension dim="1">band</dimension>
    <dimension dim="2">kpoint</dimension>
    <dimension dim="3">spin</dimension>
    <field>eigene</field>
    <field>occ</field>
    <set>
     <set comment="spin 1">
      <set comment="kpoint 1">
       <r>   -8.8419    1.0000 </r>
       <r>   -8.5862    1.0000 </r>
       <r>   -7.9199    1.0000 </r>
       <r>   -7.7478    1.0000 </r>
       <r>   -7.0215    1.0000 </r>
       <r>   -6.9519    1.0000 </r>
       <r>   -5.2696    1.0000 </r>
       <r>   -4.8943    1.0000 </r>
       <r>   -4.0555    1.0000 </r>
       <r>   -3.8778    1.0000 </r>
       <r>   -3.7542    1.0000 </r>
       <r>   -3.7279    1.0000 </r>
       <r>   -2.9533    1.0000 </r>
       <r>   -2.9333    1.0000 </r>
       <r>   -2.3353    1.0000 </r>
       <r>   -1.9014    1.0000 </r>
       <r>   -0.5797    1.0000 </r>
       <r>   -0.3339    1.0000 </r>
       <r>   -0.0858    1.0000 </r>
       <r>    0.5186    1.0000 </r>
       <r>    0.5200    1.0000 </r>
       <r>    0.7149    1.0000 </r>
       <r>    1.1086    1.0000 </r>
       <r>    1.3779    1.0000 </r>
       <r>    1.5438    1.0000 </r>
       <r>    1.7121    1.0000 </r>
       <r>    1.7940    1.0000 </r>
       <r>    1.9185    1.0000 </r>
       <r>    2.0680    1.0000 </r>
       <r>    2.0780    1.0000 </r>
       <r>    2.2688    1.0000 </r>
       <r>    2.4116    1.0000 </r>
       <r>    2.8723    1.0000 </r>
       <r>    3.0470    1.0000 </r>
       <r>    3.1054    1.0000 </r>
       <r>    3.2326    1.0000 </r>
       <r>    3.7037    1.0000 </r>
       <r>    3.7589    1.0000 </r>
       <r>    4.0609    1.0000 </r>
       <r>    4.0727    1.0000 </r>
       <r>    4.1426    1.0000 </r>
       <r>    4.1612    1.0000 </r>
       <r>    4.3018    1.0000 </r>
       <r>    4.6198    1.0000 </r>
       <r>    4.6942    1.0000 </r>
       <r>    4.9115    1.0000 </r>
       <r>    4.9871    1.0000 </r>
       <r>    5.1019    1.0000 </r>
       <r>    5.1953    1.0000 </r>
       <r>    5.4621    1.0000 </r>
       <r>    5.6419    1.0000 </r>
       <r>    5.7367    1.0000 </r>
       <r>    5.9156    1.0000 </r>
       <r>    6.2552    1.0000 </r>
       <r>    6.3230    1.0000 </r>
       <r>    6.3510    1.0000 </r>
       <r>    6.6905    1.0000 </r>
       <r>    6.7240    1.0000 </r>
       <r>    7.0788    1.0000 </r>
       <r>    7.2115    1.0000 </r>
       <r>    7.3370    1.0000 </r>
       <r>    7.3708    1.0000 </r>
       <r>    7.5811    1.0000 </r>
       <r>    7.6841    1.0000 </r>
       <r>   10.4781    0.0000 </r>
       <r>   11.0181    0.0000 </r>
       <r>   11.2860    0.0000 </r>
       <r>   11.4404    0.0000 </r>
       <r>   11.4712    0.0000 </r>
       <r>   11.5418    0.0000 </r>
       <r>   11.6805    0.0000 </r>
       <r>   12.1687    0.0000 </r>
       <r>   12.5117    0.0000 </r>
       <r>   12.8136    0.0000 </r>
       <r>   13.0038    0.0000 </r>
       <r>   13.0292    0.0000 </r>
       <r>   13.2043    0.0000 </r>
       <r>   13.7849    0.0000 </r>
       <r>   13.9829    0.0000 </r>
       <r>   14.3535    0.0000 </r>
       <r>   14.5173    0.0000 </r>
       <r>   14.6776    0.0000 </r>
       <r>   14.8717    0.0000 </r>
       <r>   15.2567    0.0000 </r>
      </set>
      <set comment="kpoint 2">
       <r>   -8.7306    1.0000 </r>
       <r>   -8.7306    1.0000 </r>
       <r>   -7.8202    1.0000 </r>
       <r>   -7.8202    1.0000 </r>
       <r>   -6.9795    1.0000 </r>
       <r>   -6.9795    1.0000 </r>
       <r>   -5.0835    1.0000 </r>
       <r>   -5.0835    1.0000 </r>
       <r>   -3.9239    1.0000 </r>
       <r>   -3.9239    1.0000 </r>
       <r>   -3.8870    1.0000 </r>
       <r>   -3.8870    1.0000 </r>
       <r>   -2.8367    1.0000 </r>
       <r>   -2.8367    1.0000 </r>
       <r>   -2.0906    1.0000 </r>
       <r>   -2.0906    1.0000 </r>
       <r>   -0.5166    1.0000 </r>
       <r>   -0.5166    1.0000 </r>
       <r>    0.2119    1.0000 </r>
       <r>    0.2119    1.0000 </r>
       <r>    0.6779    1.0000 </r>
       <r>    0.6779    1.0000 </r>
       <r>    1.1056    1.0000 </r>
       <r>    1.1056    1.0000 </r>
       <r>    1.5120    1.0000 </r>
       <r>    1.5120    1.0000 </r>
       <r>    2.0296    1.0000 </r>
       <r>    2.0296    1.0000 </r>
       <r>    2.2017    1.0000 </r>
       <r>    2.2017    1.0000 </r>
       <r>    2.4858    1.0000 </r>
       <r>    2.4858    1.0000 </r>
       <r>    2.7780    1.0000 </r>
       <r>    2.7780    1.0000 </r>
       <r>    3.1281    1.0000 </r>
       <r>    3.1281    1.0000 </r>
       <r>    3.2918    1.0000 </r>
       <r>    3.2918    1.0000 </r>
       <r>    4.1153    1.0000 </r>
       <r>    4.1153    1.0000 </r>
       <r>    4.2457    1.0000 </r>
       <r>    4.2457    1.0000 </r>
       <r>    4.6642    1.0000 </r>
       <r>    4.6642    1.0000 </r>
       <r>    5.1112    1.0000 </r>
       <r>    5.1112    1.0000 </r>
       <r>    5.2830    1.0000 </r>
       <r>    5.2830    1.0000 </r>
       <r>    5.3723    1.0000 </r>
       <r>    5.3723    1.0000 </r>
       <r>    5.6816    1.0000 </r>
       <r>    5.6816    1.0000 </r>
       <r>    5.9597    1.0000 </r>
       <r>    5.9597    1.0000 </r>
       <r>    6.3509    1.0000 </r>
       <r>    6.3509    1.0000 </r>
       <r>    6.4331    1.0000 </r>
       <r>    6.4331    1.0000 </r>
       <r>    6.8551    1.0000 </r>
       <r>    6.8551    1.0000 </r>
       <r>    7.2777    1.0000 </r>
       <r>    7.2777    1.0000 </r>
       <r>    7.6412    1.0000 </r>
       <r>    7.6412    1.0000 </r>
       <r>   10.9622    0.0000 </r>
       <r>   10.9622    0.0000 </r>
       <r>   11.4258    0.0000 </r>
       <r>   11.4258    0.0000 </r>
       <r>   12.1267    0.0000 </r>
       <r>   12.1267    0.0000 </r>
       <r>   12.2403    0.0000 </r>
       <r>   12.2403    0.0000 </r>
       <r>   12.5160    0.0000 </r>
       <r>   12.5160    0.0000 </r>
       <r>   12.8130    0.0000 </r>
       <r>   12.8130    0.0000 </r>
       <r>   13.1267    0.0000 </r>
       <r>   13.1279    0.0000 </r>
       <r>   13.6308    0.0000 </r>
       <r>   13.6316    0.0000 </r>
       <r>   14.4757    0.0000 </r>
       <r>   14.5189    0.0000 </r>
       <r>   14.9601    0.0000 </r>
       <r>   15.3566    0.0000 </r>
      </set>
      <set comment="kpoint 3">
       <r>   -8.6671    1.0000 </r>
       <r>   -8.4997    1.0000 </r>
       <r>   -7.9657    1.0000 </r>
       <r>   -7.8563    1.0000 </r>
       <r>   -7.1147    1.0000 </r>
       <r>   -7.0524    1.0000 </r>
       <r>   -5.3493    1.0000 </r>
       <r>   -5.1950    1.0000 </r>
       <r>   -4.2502    1.0000 </r>
       <r>   -4.0355    1.0000 </r>
       <r>   -3.4631    1.0000 </r>
       <r>   -3.3582    1.0000 </r>
       <r>   -2.7964    1.0000 </r>
       <r>   -2.6817    1.0000 </r>
       <r>   -2.4773    1.0000 </r>
       <r>   -2.3541    1.0000 </r>
       <r>   -0.3058    1.0000 </r>
       <r>   -0.1188    1.0000 </r>
       <r>    0.0029    1.0000 </r>
       <r>    0.4167    1.0000 </r>
       <r>    0.6768    1.0000 </r>
       <r>    1.1607    1.0000 </r>
       <r>    1.2718    1.0000 </r>
       <r>    1.3980    1.0000 </r>
       <r>    1.8100    1.0000 </r>
       <r>    1.8472    1.0000 </r>
       <r>    1.9246    1.0000 </r>
       <r>    1.9407    1.0000 </r>
       <r>    2.1959    1.0000 </r>
       <r>    2.3486    1.0000 </r>
       <r>    2.4293    1.0000 </r>
       <r>    2.7257    1.0000 </r>
       <r>    2.8957    1.0000 </r>
       <r>    3.0051    1.0000 </r>
       <r>    3.0437    1.0000 </r>
       <r>    3.2740    1.0000 </r>
       <r>    3.2936    1.0000 </r>
       <r>    3.4868    1.0000 </r>
       <r>    3.8242    1.0000 </r>
       <r>    3.8698    1.0000 </r>
       <r>    4.0102    1.0000 </r>
       <r>    4.0733    1.0000 </r>
       <r>    4.3947    1.0000 </r>
       <r>    4.4385    1.0000 </r>
       <r>    4.4977    1.0000 </r>
       <r>    4.6713    1.0000 </r>
       <r>    4.7449    1.0000 </r>
       <r>    5.2644    1.0000 </r>
       <r>    5.2842    1.0000 </r>
       <r>    5.4189    1.0000 </r>
       <r>    5.5266    1.0000 </r>
       <r>    5.7643    1.0000 </r>
       <r>    5.9180    1.0000 </r>
       <r>    6.0085    1.0000 </r>
       <r>    6.0701    1.0000 </r>
       <r>    6.2073    1.0000 </r>
       <r>    6.3454    1.0000 </r>
       <r>    6.6019    1.0000 </r>
       <r>    6.6095    1.0000 </r>
       <r>    6.7865    1.0000 </r>
       <r>    6.7980    1.0000 </r>
       <r>    6.9195    1.0000 </r>
       <r>    7.1286    1.0000 </r>
       <r>    7.2308    1.0000 </r>
       <r>   10.6984    0.0000 </r>
       <r>   11.3177    0.0000 </r>
       <r>   11.6858    0.0000 </r>
       <r>   12.0590    0.0000 </r>
       <r>   12.3598    0.0000 </r>
       <r>   12.6392    0.0000 </r>
       <r>   12.8638    0.0000 </r>
       <r>   12.9322    0.0000 </r>
       <r>   13.1570    0.0000 </r>
       <r>   13.2415    0.0000 </r>
       <r>   13.3882    0.0000 </r>
       <r>   13.4925    0.0000 </r>
       <r>   13.6926    0.0000 </r>
       <r>   13.9638    0.0000 </r>
       <r>   14.0484    0.0000 </r>
       <r>   14.4611    0.0000 </r>
       <r>   14.5121    0.0000 </r>
       <r>   14.6538    0.0000 </r>
       <r>   14.8579    0.0000 </r>
       <r>   14.9743    0.0000 </r>
      </set>
      <set comment="kpoint 4">
       <r>   -8.5878    1.0000 </r>
       <r>   -8.5878    1.0000 </r>
       <r>   -7.9164    1.0000 </r>
       <r>   -7.9164    1.0000 </r>
       <r>   -7.0709    1.0000 </r>
       <r>   -7.0709    1.0000 </r>
       <r>   -5.2582    1.0000 </r>
       <r>   -5.2582    1.0000 </r>
       <r>   -4.1664    1.0000 </r>
       <r>   -4.1664    1.0000 </r>
       <r>   -3.4766    1.0000 </r>
       <r>   -3.4766    1.0000 </r>
       <r>   -2.6729    1.0000 </r>
       <r>   -2.6729    1.0000 </r>
       <r>   -2.3999    1.0000 </r>
       <r>   -2.3999    1.0000 </r>
       <r>   -0.2607    1.0000 </r>
       <r>   -0.2607    1.0000 </r>
       <r>    0.2385    1.0000 </r>
       <r>    0.2385    1.0000 </r>
       <r>    0.8915    1.0000 </r>
       <r>    0.8915    1.0000 </r>
       <r>    1.3689    1.0000 </r>
       <r>    1.3689    1.0000 </r>
       <r>    1.8514    1.0000 </r>
       <r>    1.8514    1.0000 </r>
       <r>    2.1154    1.0000 </r>
       <r>    2.1154    1.0000 </r>
       <r>    2.3773    1.0000 </r>
       <r>    2.3773    1.0000 </r>
       <r>    2.4863    1.0000 </r>
       <r>    2.4863    1.0000 </r>
       <r>    2.5560    1.0000 </r>
       <r>    2.5560    1.0000 </r>
       <r>    3.1376    1.0000 </r>
       <r>    3.1376    1.0000 </r>
       <r>    3.4170    1.0000 </r>
       <r>    3.4170    1.0000 </r>
       <r>    3.7488    1.0000 </r>
       <r>    3.7488    1.0000 </r>
       <r>    4.1526    1.0000 </r>
       <r>    4.1526    1.0000 </r>
       <r>    4.5441    1.0000 </r>
       <r>    4.5441    1.0000 </r>
       <r>    4.6562    1.0000 </r>
       <r>    4.6562    1.0000 </r>
       <r>    5.1840    1.0000 </r>
       <r>    5.1840    1.0000 </r>
       <r>    5.3366    1.0000 </r>
       <r>    5.3366    1.0000 </r>
       <r>    5.4955    1.0000 </r>
       <r>    5.4955    1.0000 </r>
       <r>    5.6807    1.0000 </r>
       <r>    5.6807    1.0000 </r>
       <r>    6.1821    1.0000 </r>
       <r>    6.1821    1.0000 </r>
       <r>    6.4417    1.0000 </r>
       <r>    6.4417    1.0000 </r>
       <r>    6.7917    1.0000 </r>
       <r>    6.7917    1.0000 </r>
       <r>    7.0789    1.0000 </r>
       <r>    7.0789    1.0000 </r>
       <r>    7.1514    1.0000 </r>
       <r>    7.1514    1.0000 </r>
       <r>   11.2447    0.0000 </r>
       <r>   11.2447    0.0000 </r>
       <r>   11.9015    0.0000 </r>
       <r>   11.9015    0.0000 </r>
       <r>   12.0147    0.0000 </r>
       <r>   12.0147    0.0000 </r>
       <r>   12.6801    0.0000 </r>
       <r>   12.6802    0.0000 </r>
       <r>   13.0094    0.0000 </r>
       <r>   13.0094    0.0000 </r>
       <r>   13.3301    0.0000 </r>
       <r>   13.3306    0.0000 </r>
       <r>   13.9077    0.0000 </r>
       <r>   13.9087    0.0000 </r>
       <r>   14.1064    0.0000 </r>
       <r>   14.1105    0.0000 </r>
       <r>   14.6051    0.0000 </r>
       <r>   14.6658    0.0000 </r>
       <r>   14.8917    0.0000 </r>
       <r>   15.0875    0.0000 </r>
      </set>
      <set comment="kpoint 5">
       <r>   -8.6486    1.0000 </r>
       <r>   -8.4343    1.0000 </r>
       <r>   -7.8826    1.0000 </r>
       <r>   -7.7978    1.0000 </r>
       <r>   -7.0459    1.0000 </r>
       <r>   -7.0192    1.0000 </r>
       <r>   -5.2364    1.0000 </r>
       <r>   -4.9149    1.0000 </r>
       <r>   -4.2200    1.0000 </r>
       <r>   -4.1770    1.0000 </r>
       <r>   -3.8216    1.0000 </r>
       <r>   -3.6093    1.0000 </r>
       <r>   -3.5445    1.0000 </r>
       <r>   -2.9482    1.0000 </r>
       <r>   -2.3600    1.0000 </r>
       <r>   -2.2050    1.0000 </r>
       <r>   -0.5031    1.0000 </r>
       <r>   -0.1201    1.0000 </r>
       <r>    0.0040    1.0000 </r>
       <r>    0.1536    1.0000 </r>
       <r>    0.6028    1.0000 </r>
       <r>    0.6394    1.0000 </r>
       <r>    0.6695    1.0000 </r>
       <r>    1.1461    1.0000 </r>
       <r>    1.3366    1.0000 </r>
       <r>    1.5126    1.0000 </r>
       <r>    1.6124    1.0000 </r>
       <r>    2.0155    1.0000 </r>
       <r>    2.0579    1.0000 </r>
       <r>    2.4314    1.0000 </r>
       <r>    2.6779    1.0000 </r>
       <r>    2.7878    1.0000 </r>
       <r>    3.2869    1.0000 </r>
       <r>    3.4948    1.0000 </r>
       <r>    3.6648    1.0000 </r>
       <r>    3.8470    1.0000 </r>
       <r>    3.9357    1.0000 </r>
       <r>    3.9827    1.0000 </r>
       <r>    4.0387    1.0000 </r>
       <r>    4.0422    1.0000 </r>
       <r>    4.2075    1.0000 </r>
       <r>    4.3785    1.0000 </r>
       <r>    4.4950    1.0000 </r>
       <r>    4.7284    1.0000 </r>
       <r>    4.7585    1.0000 </r>
       <r>    5.1473    1.0000 </r>
       <r>    5.2300    1.0000 </r>
       <r>    5.2971    1.0000 </r>
       <r>    5.3793    1.0000 </r>
       <r>    5.4441    1.0000 </r>
       <r>    5.5920    1.0000 </r>
       <r>    5.7145    1.0000 </r>
       <r>    6.1273    1.0000 </r>
       <r>    6.2499    1.0000 </r>
       <r>    6.2798    1.0000 </r>
       <r>    6.4112    1.0000 </r>
       <r>    6.5858    1.0000 </r>
       <r>    6.6263    1.0000 </r>
       <r>    6.8620    1.0000 </r>
       <r>    6.9706    1.0000 </r>
       <r>    7.0251    1.0000 </r>
       <r>    7.2020    1.0000 </r>
       <r>    7.4559    1.0000 </r>
       <r>    7.6343    1.0000 </r>
       <r>   10.2962    0.0000 </r>
       <r>   10.7790    0.0000 </r>
       <r>   11.2727    0.0000 </r>
       <r>   11.4635    0.0000 </r>
       <r>   11.4937    0.0000 </r>
       <r>   11.5841    0.0000 </r>
       <r>   11.8103    0.0000 </r>
       <r>   12.1846    0.0000 </r>
       <r>   12.4843    0.0000 </r>
       <r>   12.5096    0.0000 </r>
       <r>   12.7870    0.0000 </r>
       <r>   13.1627    0.0000 </r>
       <r>   13.3458    0.0000 </r>
       <r>   13.6049    0.0000 </r>
       <r>   13.7472    0.0000 </r>
       <r>   14.1095    0.0000 </r>
       <r>   14.2382    0.0000 </r>
       <r>   14.3304    0.0000 </r>
       <r>   14.6901    0.0000 </r>
       <r>   15.1567    0.0000 </r>
      </set>
      <set comment="kpoint 6">
       <r>   -8.5675    1.0000 </r>
       <r>   -8.5371    1.0000 </r>
       <r>   -7.8614    1.0000 </r>
       <r>   -7.8014    1.0000 </r>
       <r>   -7.0345    1.0000 </r>
       <r>   -7.0270    1.0000 </r>
       <r>   -5.0487    1.0000 </r>
       <r>   -5.0329    1.0000 </r>
       <r>   -4.4031    1.0000 </r>
       <r>   -4.2030    1.0000 </r>
       <r>   -3.7052    1.0000 </r>
       <r>   -3.6928    1.0000 </r>
       <r>   -3.3122    1.0000 </r>
       <r>   -3.1514    1.0000 </r>
       <r>   -2.2859    1.0000 </r>
       <r>   -2.2275    1.0000 </r>
       <r>   -0.2554    1.0000 </r>
       <r>   -0.1154    1.0000 </r>
       <r>    0.0636    1.0000 </r>
       <r>    0.1819    1.0000 </r>
       <r>    0.2438    1.0000 </r>
       <r>    0.4028    1.0000 </r>
       <r>    1.0284    1.0000 </r>
       <r>    1.1305    1.0000 </r>
       <r>    1.5313    1.0000 </r>
       <r>    1.6421    1.0000 </r>
       <r>    1.7898    1.0000 </r>
       <r>    1.8985    1.0000 </r>
       <r>    1.9172    1.0000 </r>
       <r>    1.9850    1.0000 </r>
       <r>    2.3089    1.0000 </r>
       <r>    2.8405    1.0000 </r>
       <r>    3.3266    1.0000 </r>
       <r>    3.3340    1.0000 </r>
       <r>    3.6213    1.0000 </r>
       <r>    3.7207    1.0000 </r>
       <r>    3.7666    1.0000 </r>
       <r>    3.9199    1.0000 </r>
       <r>    4.3286    1.0000 </r>
       <r>    4.3506    1.0000 </r>
       <r>    4.4267    1.0000 </r>
       <r>    4.7351    1.0000 </r>
       <r>    4.7579    1.0000 </r>
       <r>    5.0076    1.0000 </r>
       <r>    5.0362    1.0000 </r>
       <r>    5.0734    1.0000 </r>
       <r>    5.2354    1.0000 </r>
       <r>    5.3516    1.0000 </r>
       <r>    5.4097    1.0000 </r>
       <r>    5.4173    1.0000 </r>
       <r>    5.6432    1.0000 </r>
       <r>    5.7126    1.0000 </r>
       <r>    5.7734    1.0000 </r>
       <r>    5.9434    1.0000 </r>
       <r>    6.2487    1.0000 </r>
       <r>    6.3369    1.0000 </r>
       <r>    6.4483    1.0000 </r>
       <r>    6.5923    1.0000 </r>
       <r>    6.8112    1.0000 </r>
       <r>    6.8394    1.0000 </r>
       <r>    6.8727    1.0000 </r>
       <r>    6.9768    1.0000 </r>
       <r>    7.5427    1.0000 </r>
       <r>    7.5467    1.0000 </r>
       <r>   10.7811    0.0000 </r>
       <r>   10.8922    0.0000 </r>
       <r>   11.2375    0.0000 </r>
       <r>   11.2540    0.0000 </r>
       <r>   11.7101    0.0000 </r>
       <r>   11.8921    0.0000 </r>
       <r>   12.1308    0.0000 </r>
       <r>   12.1389    0.0000 </r>
       <r>   12.3883    0.0000 </r>
       <r>   12.4971    0.0000 </r>
       <r>   13.0395    0.0000 </r>
       <r>   13.1935    0.0000 </r>
       <r>   13.3893    0.0000 </r>
       <r>   13.5212    0.0000 </r>
       <r>   13.7801    0.0000 </r>
       <r>   14.1151    0.0000 </r>
       <r>   14.1678    0.0000 </r>
       <r>   14.3846    0.0000 </r>
       <r>   14.6684    0.0000 </r>
       <r>   14.9027    0.0000 </r>
      </set>
      <set comment="kpoint 7">
       <r>   -8.4939    1.0000 </r>
       <r>   -8.3605    1.0000 </r>
       <r>   -7.8787    1.0000 </r>
       <r>   -7.8224    1.0000 </r>
       <r>   -7.1836    1.0000 </r>
       <r>   -7.1531    1.0000 </r>
       <r>   -5.2210    1.0000 </r>
       <r>   -5.1089    1.0000 </r>
       <r>   -4.4434    1.0000 </r>
       <r>   -4.0877    1.0000 </r>
       <r>   -3.8973    1.0000 </r>
       <r>   -3.6491    1.0000 </r>
       <r>   -3.2508    1.0000 </r>
       <r>   -2.8483    1.0000 </r>
       <r>   -2.6945    1.0000 </r>
       <r>   -2.6281    1.0000 </r>
       <r>   -0.1435    1.0000 </r>
       <r>    0.1705    1.0000 </r>
       <r>    0.4512    1.0000 </r>
       <r>    0.7810    1.0000 </r>
       <r>    0.8260    1.0000 </r>
       <r>    0.8978    1.0000 </r>
       <r>    1.2583    1.0000 </r>
       <r>    1.3516    1.0000 </r>
       <r>    1.4356    1.0000 </r>
       <r>    1.7231    1.0000 </r>
       <r>    1.7960    1.0000 </r>
       <r>    2.0871    1.0000 </r>
       <r>    2.2720    1.0000 </r>
       <r>    2.5079    1.0000 </r>
       <r>    2.7939    1.0000 </r>
       <r>    2.8399    1.0000 </r>
       <r>    3.0252    1.0000 </r>
       <r>    3.1250    1.0000 </r>
       <r>    3.3008    1.0000 </r>
       <r>    3.4388    1.0000 </r>
       <r>    3.6228    1.0000 </r>
       <r>    3.6867    1.0000 </r>
       <r>    3.8354    1.0000 </r>
       <r>    3.9803    1.0000 </r>
       <r>    4.1762    1.0000 </r>
       <r>    4.2967    1.0000 </r>
       <r>    4.3644    1.0000 </r>
       <r>    4.5755    1.0000 </r>
       <r>    4.7189    1.0000 </r>
       <r>    4.8981    1.0000 </r>
       <r>    4.9877    1.0000 </r>
       <r>    5.0639    1.0000 </r>
       <r>    5.3489    1.0000 </r>
       <r>    5.3984    1.0000 </r>
       <r>    5.5375    1.0000 </r>
       <r>    5.6983    1.0000 </r>
       <r>    5.7337    1.0000 </r>
       <r>    6.0220    1.0000 </r>
       <r>    6.0509    1.0000 </r>
       <r>    6.1889    1.0000 </r>
       <r>    6.3106    1.0000 </r>
       <r>    6.4258    1.0000 </r>
       <r>    6.5382    1.0000 </r>
       <r>    6.8345    1.0000 </r>
       <r>    6.9155    1.0000 </r>
       <r>    6.9457    1.0000 </r>
       <r>    7.0071    1.0000 </r>
       <r>    7.0388    1.0000 </r>
       <r>   11.1868    0.0000 </r>
       <r>   11.6294    0.0000 </r>
       <r>   11.7029    0.0000 </r>
       <r>   11.7960    0.0000 </r>
       <r>   12.2380    0.0000 </r>
       <r>   12.6569    0.0000 </r>
       <r>   12.7447    0.0000 </r>
       <r>   12.9204    0.0000 </r>
       <r>   13.0413    0.0000 </r>
       <r>   13.1656    0.0000 </r>
       <r>   13.2428    0.0000 </r>
       <r>   13.4418    0.0000 </r>
       <r>   13.5284    0.0000 </r>
       <r>   13.6432    0.0000 </r>
       <r>   13.7937    0.0000 </r>
       <r>   14.1190    0.0000 </r>
       <r>   14.2459    0.0000 </r>
       <r>   14.4336    0.0000 </r>
       <r>   14.5362    0.0000 </r>
       <r>   14.7143    0.0000 </r>
      </set>
      <set comment="kpoint 8">
       <r>   -8.4399    1.0000 </r>
       <r>   -8.4180    1.0000 </r>
       <r>   -7.8730    1.0000 </r>
       <r>   -7.8343    1.0000 </r>
       <r>   -7.1682    1.0000 </r>
       <r>   -7.1633    1.0000 </r>
       <r>   -5.1508    1.0000 </r>
       <r>   -5.1220    1.0000 </r>
       <r>   -4.4196    1.0000 </r>
       <r>   -4.2037    1.0000 </r>
       <r>   -3.8540    1.0000 </r>
       <r>   -3.7434    1.0000 </r>
       <r>   -3.1063    1.0000 </r>
       <r>   -2.9324    1.0000 </r>
       <r>   -2.7054    1.0000 </r>
       <r>   -2.6101    1.0000 </r>
       <r>    0.0207    1.0000 </r>
       <r>    0.0289    1.0000 </r>
       <r>    0.4270    1.0000 </r>
       <r>    0.5614    1.0000 </r>
       <r>    0.9595    1.0000 </r>
       <r>    1.0168    1.0000 </r>
       <r>    1.2614    1.0000 </r>
       <r>    1.4040    1.0000 </r>
       <r>    1.6366    1.0000 </r>
       <r>    1.8113    1.0000 </r>
       <r>    1.8883    1.0000 </r>
       <r>    1.9111    1.0000 </r>
       <r>    2.3047    1.0000 </r>
       <r>    2.3347    1.0000 </r>
       <r>    2.7163    1.0000 </r>
       <r>    2.7527    1.0000 </r>
       <r>    3.1380    1.0000 </r>
       <r>    3.1404    1.0000 </r>
       <r>    3.3637    1.0000 </r>
       <r>    3.3837    1.0000 </r>
       <r>    3.4604    1.0000 </r>
       <r>    3.5052    1.0000 </r>
       <r>    3.9594    1.0000 </r>
       <r>    4.1060    1.0000 </r>
       <r>    4.1095    1.0000 </r>
       <r>    4.2373    1.0000 </r>
       <r>    4.4160    1.0000 </r>
       <r>    4.4864    1.0000 </r>
       <r>    4.6778    1.0000 </r>
       <r>    4.7130    1.0000 </r>
       <r>    5.0568    1.0000 </r>
       <r>    5.0578    1.0000 </r>
       <r>    5.3333    1.0000 </r>
       <r>    5.3782    1.0000 </r>
       <r>    5.5868    1.0000 </r>
       <r>    5.6244    1.0000 </r>
       <r>    5.7932    1.0000 </r>
       <r>    5.9262    1.0000 </r>
       <r>    6.1540    1.0000 </r>
       <r>    6.3430    1.0000 </r>
       <r>    6.4161    1.0000 </r>
       <r>    6.5332    1.0000 </r>
       <r>    6.6782    1.0000 </r>
       <r>    6.8161    1.0000 </r>
       <r>    6.9234    1.0000 </r>
       <r>    6.9253    1.0000 </r>
       <r>    7.0178    1.0000 </r>
       <r>    7.0317    1.0000 </r>
       <r>   11.4751    0.0000 </r>
       <r>   11.5560    0.0000 </r>
       <r>   11.8708    0.0000 </r>
       <r>   11.8845    0.0000 </r>
       <r>   12.1134    0.0000 </r>
       <r>   12.2084    0.0000 </r>
       <r>   12.5696    0.0000 </r>
       <r>   12.6147    0.0000 </r>
       <r>   12.8328    0.0000 </r>
       <r>   12.8554    0.0000 </r>
       <r>   13.2520    0.0000 </r>
       <r>   13.3343    0.0000 </r>
       <r>   13.6144    0.0000 </r>
       <r>   13.7561    0.0000 </r>
       <r>   13.9046    0.0000 </r>
       <r>   14.1128    0.0000 </r>
       <r>   14.3183    0.0000 </r>
       <r>   14.4734    0.0000 </r>
       <r>   14.5673    0.0000 </r>
       <r>   14.9228    0.0000 </r>
      </set>
      <set comment="kpoint 9">
       <r>   -8.2593    1.0000 </r>
       <r>   -8.2042    1.0000 </r>
       <r>   -8.0727    1.0000 </r>
       <r>   -7.9077    1.0000 </r>
       <r>   -7.0952    1.0000 </r>
       <r>   -7.0618    1.0000 </r>
       <r>   -5.0973    1.0000 </r>
       <r>   -4.9911    1.0000 </r>
       <r>   -4.5004    1.0000 </r>
       <r>   -4.4478    1.0000 </r>
       <r>   -4.2362    1.0000 </r>
       <r>   -3.3915    1.0000 </r>
       <r>   -3.2028    1.0000 </r>
       <r>   -2.9120    1.0000 </r>
       <r>   -2.7443    1.0000 </r>
       <r>   -2.5526    1.0000 </r>
       <r>   -0.6156    1.0000 </r>
       <r>   -0.4811    1.0000 </r>
       <r>   -0.2742    1.0000 </r>
       <r>   -0.0585    1.0000 </r>
       <r>    0.2741    1.0000 </r>
       <r>    0.4389    1.0000 </r>
       <r>    0.8029    1.0000 </r>
       <r>    0.9897    1.0000 </r>
       <r>    1.3716    1.0000 </r>
       <r>    1.9994    1.0000 </r>
       <r>    2.0518    1.0000 </r>
       <r>    2.4627    1.0000 </r>
       <r>    2.7035    1.0000 </r>
       <r>    2.7843    1.0000 </r>
       <r>    2.9315    1.0000 </r>
       <r>    2.9768    1.0000 </r>
       <r>    3.1890    1.0000 </r>
       <r>    3.2246    1.0000 </r>
       <r>    3.4854    1.0000 </r>
       <r>    3.9309    1.0000 </r>
       <r>    4.0003    1.0000 </r>
       <r>    4.1617    1.0000 </r>
       <r>    4.3744    1.0000 </r>
       <r>    4.5893    1.0000 </r>
       <r>    4.5895    1.0000 </r>
       <r>    4.8108    1.0000 </r>
       <r>    4.8936    1.0000 </r>
       <r>    4.9226    1.0000 </r>
       <r>    4.9345    1.0000 </r>
       <r>    5.0233    1.0000 </r>
       <r>    5.1260    1.0000 </r>
       <r>    5.3143    1.0000 </r>
       <r>    5.5768    1.0000 </r>
       <r>    5.6063    1.0000 </r>
       <r>    5.6288    1.0000 </r>
       <r>    5.7327    1.0000 </r>
       <r>    5.8666    1.0000 </r>
       <r>    6.1820    1.0000 </r>
       <r>    6.2162    1.0000 </r>
       <r>    6.3535    1.0000 </r>
       <r>    6.3819    1.0000 </r>
       <r>    6.5349    1.0000 </r>
       <r>    6.7589    1.0000 </r>
       <r>    6.8935    1.0000 </r>
       <r>    6.9785    1.0000 </r>
       <r>    7.0531    1.0000 </r>
       <r>    7.4284    1.0000 </r>
       <r>    7.5968    1.0000 </r>
       <r>   10.4316    0.0000 </r>
       <r>   10.6153    0.0000 </r>
       <r>   11.3888    0.0000 </r>
       <r>   11.4747    0.0000 </r>
       <r>   11.5016    0.0000 </r>
       <r>   11.7707    0.0000 </r>
       <r>   11.9662    0.0000 </r>
       <r>   12.0712    0.0000 </r>
       <r>   12.4219    0.0000 </r>
       <r>   12.4653    0.0000 </r>
       <r>   12.7676    0.0000 </r>
       <r>   12.8733    0.0000 </r>
       <r>   12.8887    0.0000 </r>
       <r>   13.0641    0.0000 </r>
       <r>   13.3424    0.0000 </r>
       <r>   13.5742    0.0000 </r>
       <r>   13.7373    0.0000 </r>
       <r>   13.8562    0.0000 </r>
       <r>   13.9290    0.0000 </r>
       <r>   14.1205    0.0000 </r>
      </set>
      <set comment="kpoint 10">
       <r>   -8.2331    1.0000 </r>
       <r>   -8.2331    1.0000 </r>
       <r>   -7.9930    1.0000 </r>
       <r>   -7.9930    1.0000 </r>
       <r>   -7.0793    1.0000 </r>
       <r>   -7.0793    1.0000 </r>
       <r>   -4.9453    1.0000 </r>
       <r>   -4.9453    1.0000 </r>
       <r>   -4.6853    1.0000 </r>
       <r>   -4.6853    1.0000 </r>
       <r>   -3.5467    1.0000 </r>
       <r>   -3.5467    1.0000 </r>
       <r>   -3.3026    1.0000 </r>
       <r>   -3.3026    1.0000 </r>
       <r>   -2.6565    1.0000 </r>
       <r>   -2.6565    1.0000 </r>
       <r>   -0.3672    1.0000 </r>
       <r>   -0.3672    1.0000 </r>
       <r>   -0.0605    1.0000 </r>
       <r>   -0.0605    1.0000 </r>
       <r>    0.5799    1.0000 </r>
       <r>    0.5799    1.0000 </r>
       <r>    1.0021    1.0000 </r>
       <r>    1.0021    1.0000 </r>
       <r>    1.2785    1.0000 </r>
       <r>    1.2785    1.0000 </r>
       <r>    1.4088    1.0000 </r>
       <r>    1.4088    1.0000 </r>
       <r>    2.9265    1.0000 </r>
       <r>    2.9265    1.0000 </r>
       <r>    3.2012    1.0000 </r>
       <r>    3.2012    1.0000 </r>
       <r>    3.4651    1.0000 </r>
       <r>    3.4651    1.0000 </r>
       <r>    4.0001    1.0000 </r>
       <r>    4.0001    1.0000 </r>
       <r>    4.0975    1.0000 </r>
       <r>    4.0975    1.0000 </r>
       <r>    4.6124    1.0000 </r>
       <r>    4.6124    1.0000 </r>
       <r>    4.8335    1.0000 </r>
       <r>    4.8335    1.0000 </r>
       <r>    4.8732    1.0000 </r>
       <r>    4.8732    1.0000 </r>
       <r>    4.9890    1.0000 </r>
       <r>    4.9890    1.0000 </r>
       <r>    5.2420    1.0000 </r>
       <r>    5.2420    1.0000 </r>
       <r>    5.2560    1.0000 </r>
       <r>    5.2560    1.0000 </r>
       <r>    5.5624    1.0000 </r>
       <r>    5.5624    1.0000 </r>
       <r>    6.1309    1.0000 </r>
       <r>    6.1309    1.0000 </r>
       <r>    6.1789    1.0000 </r>
       <r>    6.1789    1.0000 </r>
       <r>    6.3799    1.0000 </r>
       <r>    6.3799    1.0000 </r>
       <r>    6.6203    1.0000 </r>
       <r>    6.6203    1.0000 </r>
       <r>    7.0768    1.0000 </r>
       <r>    7.0768    1.0000 </r>
       <r>    7.4975    1.0000 </r>
       <r>    7.4975    1.0000 </r>
       <r>   10.9395    0.0000 </r>
       <r>   10.9395    0.0000 </r>
       <r>   11.3177    0.0000 </r>
       <r>   11.3177    0.0000 </r>
       <r>   11.6337    0.0000 </r>
       <r>   11.6337    0.0000 </r>
       <r>   12.0378    0.0000 </r>
       <r>   12.0381    0.0000 </r>
       <r>   12.3143    0.0000 </r>
       <r>   12.3143    0.0000 </r>
       <r>   12.5684    0.0000 </r>
       <r>   12.5684    0.0000 </r>
       <r>   13.3342    0.0000 </r>
       <r>   13.3423    0.0000 </r>
       <r>   13.7137    0.0000 </r>
       <r>   13.7598    0.0000 </r>
       <r>   14.2662    0.0000 </r>
       <r>   14.3085    0.0000 </r>
       <r>   14.5087    0.0000 </r>
       <r>   14.6385    0.0000 </r>
      </set>
      <set comment="kpoint 11">
       <r>   -8.1992    1.0000 </r>
       <r>   -8.1702    1.0000 </r>
       <r>   -7.9078    1.0000 </r>
       <r>   -7.7931    1.0000 </r>
       <r>   -7.3072    1.0000 </r>
       <r>   -7.2564    1.0000 </r>
       <r>   -5.0713    1.0000 </r>
       <r>   -4.8817    1.0000 </r>
       <r>   -4.7791    1.0000 </r>
       <r>   -4.2207    1.0000 </r>
       <r>   -4.0545    1.0000 </r>
       <r>   -3.9464    1.0000 </r>
       <r>   -3.6459    1.0000 </r>
       <r>   -3.3379    1.0000 </r>
       <r>   -2.7132    1.0000 </r>
       <r>   -2.6443    1.0000 </r>
       <r>    0.0483    1.0000 </r>
       <r>    0.3172    1.0000 </r>
       <r>    0.3514    1.0000 </r>
       <r>    0.4860    1.0000 </r>
       <r>    0.5274    1.0000 </r>
       <r>    0.5986    1.0000 </r>
       <r>    1.4858    1.0000 </r>
       <r>    1.7269    1.0000 </r>
       <r>    1.7591    1.0000 </r>
       <r>    1.8238    1.0000 </r>
       <r>    2.1266    1.0000 </r>
       <r>    2.2664    1.0000 </r>
       <r>    2.4773    1.0000 </r>
       <r>    2.6286    1.0000 </r>
       <r>    2.7162    1.0000 </r>
       <r>    2.8574    1.0000 </r>
       <r>    2.9932    1.0000 </r>
       <r>    3.0897    1.0000 </r>
       <r>    3.3960    1.0000 </r>
       <r>    3.6905    1.0000 </r>
       <r>    3.7110    1.0000 </r>
       <r>    3.9195    1.0000 </r>
       <r>    4.0361    1.0000 </r>
       <r>    4.4186    1.0000 </r>
       <r>    4.6041    1.0000 </r>
       <r>    4.6322    1.0000 </r>
       <r>    4.7298    1.0000 </r>
       <r>    4.8322    1.0000 </r>
       <r>    4.9630    1.0000 </r>
       <r>    5.0080    1.0000 </r>
       <r>    5.2189    1.0000 </r>
       <r>    5.2721    1.0000 </r>
       <r>    5.2932    1.0000 </r>
       <r>    5.3271    1.0000 </r>
       <r>    5.5102    1.0000 </r>
       <r>    5.5124    1.0000 </r>
       <r>    5.5610    1.0000 </r>
       <r>    5.6533    1.0000 </r>
       <r>    5.9315    1.0000 </r>
       <r>    5.9695    1.0000 </r>
       <r>    6.0824    1.0000 </r>
       <r>    6.3568    1.0000 </r>
       <r>    6.4799    1.0000 </r>
       <r>    6.5467    1.0000 </r>
       <r>    6.5703    1.0000 </r>
       <r>    6.8267    1.0000 </r>
       <r>    7.0816    1.0000 </r>
       <r>    7.2183    1.0000 </r>
       <r>   11.4309    0.0000 </r>
       <r>   11.5262    0.0000 </r>
       <r>   12.0856    0.0000 </r>
       <r>   12.1268    0.0000 </r>
       <r>   12.3513    0.0000 </r>
       <r>   12.4197    0.0000 </r>
       <r>   12.5983    0.0000 </r>
       <r>   12.7061    0.0000 </r>
       <r>   12.8270    0.0000 </r>
       <r>   12.9451    0.0000 </r>
       <r>   13.0820    0.0000 </r>
       <r>   13.1538    0.0000 </r>
       <r>   13.3723    0.0000 </r>
       <r>   13.6574    0.0000 </r>
       <r>   13.7238    0.0000 </r>
       <r>   13.9763    0.0000 </r>
       <r>   14.0598    0.0000 </r>
       <r>   14.1826    0.0000 </r>
       <r>   14.2461    0.0000 </r>
       <r>   14.3203    0.0000 </r>
      </set>
      <set comment="kpoint 12">
       <r>   -8.1852    1.0000 </r>
       <r>   -8.1852    1.0000 </r>
       <r>   -7.8499    1.0000 </r>
       <r>   -7.8499    1.0000 </r>
       <r>   -7.2858    1.0000 </r>
       <r>   -7.2858    1.0000 </r>
       <r>   -5.0233    1.0000 </r>
       <r>   -5.0233    1.0000 </r>
       <r>   -4.4948    1.0000 </r>
       <r>   -4.4948    1.0000 </r>
       <r>   -3.8666    1.0000 </r>
       <r>   -3.8666    1.0000 </r>
       <r>   -3.5587    1.0000 </r>
       <r>   -3.5587    1.0000 </r>
       <r>   -2.7532    1.0000 </r>
       <r>   -2.7532    1.0000 </r>
       <r>    0.1574    1.0000 </r>
       <r>    0.1574    1.0000 </r>
       <r>    0.4821    1.0000 </r>
       <r>    0.4821    1.0000 </r>
       <r>    0.9472    1.0000 </r>
       <r>    0.9472    1.0000 </r>
       <r>    1.1328    1.0000 </r>
       <r>    1.1328    1.0000 </r>
       <r>    1.8664    1.0000 </r>
       <r>    1.8664    1.0000 </r>
       <r>    2.0774    1.0000 </r>
       <r>    2.0774    1.0000 </r>
       <r>    2.7760    1.0000 </r>
       <r>    2.7760    1.0000 </r>
       <r>    2.9376    1.0000 </r>
       <r>    2.9376    1.0000 </r>
       <r>    3.1068    1.0000 </r>
       <r>    3.1068    1.0000 </r>
       <r>    3.4185    1.0000 </r>
       <r>    3.4185    1.0000 </r>
       <r>    3.7564    1.0000 </r>
       <r>    3.7564    1.0000 </r>
       <r>    3.9272    1.0000 </r>
       <r>    3.9272    1.0000 </r>
       <r>    4.4515    1.0000 </r>
       <r>    4.4515    1.0000 </r>
       <r>    4.6422    1.0000 </r>
       <r>    4.6422    1.0000 </r>
       <r>    5.1340    1.0000 </r>
       <r>    5.1340    1.0000 </r>
       <r>    5.2474    1.0000 </r>
       <r>    5.2474    1.0000 </r>
       <r>    5.3525    1.0000 </r>
       <r>    5.3525    1.0000 </r>
       <r>    5.6394    1.0000 </r>
       <r>    5.6394    1.0000 </r>
       <r>    5.7895    1.0000 </r>
       <r>    5.7895    1.0000 </r>
       <r>    5.9127    1.0000 </r>
       <r>    5.9127    1.0000 </r>
       <r>    6.1544    1.0000 </r>
       <r>    6.1544    1.0000 </r>
       <r>    6.6279    1.0000 </r>
       <r>    6.6279    1.0000 </r>
       <r>    6.8051    1.0000 </r>
       <r>    6.8051    1.0000 </r>
       <r>    7.1265    1.0000 </r>
       <r>    7.1265    1.0000 </r>
       <r>   11.7092    0.0000 </r>
       <r>   11.7093    0.0000 </r>
       <r>   11.9136    0.0000 </r>
       <r>   11.9137    0.0000 </r>
       <r>   12.2629    0.0000 </r>
       <r>   12.2630    0.0000 </r>
       <r>   12.5365    0.0000 </r>
       <r>   12.5367    0.0000 </r>
       <r>   12.8021    0.0000 </r>
       <r>   12.8023    0.0000 </r>
       <r>   12.9693    0.0000 </r>
       <r>   12.9694    0.0000 </r>
       <r>   13.4535    0.0000 </r>
       <r>   13.4568    0.0000 </r>
       <r>   13.5857    0.0000 </r>
       <r>   13.5906    0.0000 </r>
       <r>   14.2194    0.0000 </r>
       <r>   14.4073    0.0000 </r>
       <r>   14.4759    0.0000 </r>
       <r>   14.5906    0.0000 </r>
      </set>
     </set>
    </set>
   </array>
  </eigenvalues>
  <separator name="orbital magnetization" >
   <v name="MAGDIPOLOUT">      0.00000000      0.00000000      0.00000000</v>
  </separator>
  <dos>
   <i name="efermi">      8.14013904 </i>
   <total>
    <array>
     <dimension dim="1">gridpoints</dimension>
     <dimension dim="2">spin</dimension>
     <field>energy</field>
     <field>total</field>
     <field>integrated</field>
     <set>
      <set comment="spin 1">
       <r>   -10.0518     0.0000     0.0000 </r>
       <r>    -9.9631     0.0000     0.0000 </r>
       <r>    -9.8744     0.0000     0.0000 </r>
       <r>    -9.7856     0.0000     0.0000 </r>
       <r>    -9.6969     0.0000     0.0000 </r>
       <r>    -9.6082     0.0000     0.0000 </r>
       <r>    -9.5195     0.0000     0.0000 </r>
       <r>    -9.4307     0.0000     0.0000 </r>
       <r>    -9.3420     0.0000     0.0000 </r>
       <r>    -9.2533     0.0000     0.0000 </r>
       <r>    -9.1646     0.0000     0.0000 </r>
       <r>    -9.0758     0.0004     0.0000 </r>
       <r>    -8.9871     0.0186     0.0017 </r>
       <r>    -8.8984     0.1983     0.0193 </r>
       <r>    -8.8096     0.7321     0.0842 </r>
       <r>    -8.7209     1.8775     0.2508 </r>
       <r>    -8.6322     4.1594     0.6199 </r>
       <r>    -8.5435     6.8361     1.2264 </r>
       <r>    -8.4547     8.5475     1.9848 </r>
       <r>    -8.3660     7.6692     2.6653 </r>
       <r>    -8.2773     4.9208     3.1019 </r>
       <r>    -8.1885     5.2049     3.5637 </r>
       <r>    -8.0998     4.4558     3.9591 </r>
       <r>    -8.0111     3.4613     4.2662 </r>
       <r>    -7.9224     9.0477     5.0690 </r>
       <r>    -7.8336    16.7451     6.5547 </r>
       <r>    -7.7449    12.5565     7.6689 </r>
       <r>    -7.6562     3.4055     7.9710 </r>
       <r>    -7.5675     0.3173     7.9992 </r>
       <r>    -7.4787     0.0373     8.0025 </r>
       <r>    -7.3900     0.5327     8.0497 </r>
       <r>    -7.3013     2.9605     8.3124 </r>
       <r>    -7.2125     7.1276     8.9448 </r>
       <r>    -7.1238    11.5243     9.9674 </r>
       <r>    -7.0351    12.5051    11.0769 </r>
       <r>    -6.9464     7.9299    11.7805 </r>
       <r>    -6.8576     2.2287    11.9783 </r>
       <r>    -6.7689     0.2365    11.9993 </r>
       <r>    -6.6802     0.0083    12.0000 </r>
       <r>    -6.5914     0.0001    12.0000 </r>
       <r>    -6.5027     0.0000    12.0000 </r>
       <r>    -6.4140     0.0000    12.0000 </r>
       <r>    -6.3253     0.0000    12.0000 </r>
       <r>    -6.2365     0.0000    12.0000 </r>
       <r>    -6.1478     0.0000    12.0000 </r>
       <r>    -6.0591     0.0000    12.0000 </r>
       <r>    -5.9704     0.0000    12.0000 </r>
       <r>    -5.8816     0.0000    12.0000 </r>
       <r>    -5.7929     0.0000    12.0000 </r>
       <r>    -5.7042     0.0000    12.0000 </r>
       <r>    -5.6154     0.0002    12.0000 </r>
       <r>    -5.5267     0.0117    12.0011 </r>
       <r>    -5.4380     0.2226    12.0208 </r>
       <r>    -5.3493     1.4740    12.1516 </r>
       <r>    -5.2605     4.8367    12.5807 </r>
       <r>    -5.1718     8.8088    13.3623 </r>
       <r>    -5.0831    10.9226    14.3315 </r>
       <r>    -4.9943     9.4675    15.1715 </r>
       <r>    -4.9056     5.8700    15.6923 </r>
       <r>    -4.8169     3.3801    15.9922 </r>
       <r>    -4.7282     1.9903    16.1688 </r>
       <r>    -4.6394     1.4403    16.2966 </r>
       <r>    -4.5507     1.8543    16.4611 </r>
       <r>    -4.4620     5.0723    16.9112 </r>
       <r>    -4.3733     6.2021    17.4615 </r>
       <r>    -4.2845     4.5808    17.8679 </r>
       <r>    -4.1958     7.6488    18.5466 </r>
       <r>    -4.1071     8.5592    19.3060 </r>
       <r>    -4.0183     6.2764    19.8629 </r>
       <r>    -3.9296     6.5830    20.4470 </r>
       <r>    -3.8409     9.2444    21.2673 </r>
       <r>    -3.7522     8.2971    22.0034 </r>
       <r>    -3.6634     7.7904    22.6947 </r>
       <r>    -3.5747     7.8730    23.3932 </r>
       <r>    -3.4860     7.0275    24.0167 </r>
       <r>    -3.3972     5.3950    24.4954 </r>
       <r>    -3.3085     5.2734    24.9633 </r>
       <r>    -3.2198     5.1536    25.4206 </r>
       <r>    -3.1311     4.0336    25.7785 </r>
       <r>    -3.0423     3.2154    26.0638 </r>
       <r>    -2.9536     3.9531    26.4145 </r>
       <r>    -2.8649     6.2440    26.9686 </r>
       <r>    -2.7762     8.0162    27.6798 </r>
       <r>    -2.6874    11.9881    28.7435 </r>
       <r>    -2.5987    11.9943    29.8077 </r>
       <r>    -2.5100     5.9130    30.3324 </r>
       <r>    -2.4212     3.7162    30.6621 </r>
       <r>    -2.3325     4.7987    31.0879 </r>
       <r>    -2.2438     4.1826    31.4590 </r>
       <r>    -2.1551     2.8074    31.7081 </r>
       <r>    -2.0663     1.6028    31.8503 </r>
       <r>    -1.9776     0.7750    31.9191 </r>
       <r>    -1.8889     0.5046    31.9638 </r>
       <r>    -1.8001     0.3361    31.9937 </r>
       <r>    -1.7114     0.0681    31.9997 </r>
       <r>    -1.6227     0.0033    32.0000 </r>
       <r>    -1.5340     0.0000    32.0000 </r>
       <r>    -1.4452     0.0000    32.0000 </r>
       <r>    -1.3565     0.0000    32.0000 </r>
       <r>    -1.2678     0.0000    32.0000 </r>
       <r>    -1.1791     0.0000    32.0000 </r>
       <r>    -1.0903     0.0000    32.0000 </r>
       <r>    -1.0016     0.0000    32.0000 </r>
       <r>    -0.9129     0.0000    32.0000 </r>
       <r>    -0.8241     0.0018    32.0002 </r>
       <r>    -0.7354     0.0565    32.0052 </r>
       <r>    -0.6467     0.5235    32.0516 </r>
       <r>    -0.5580     1.8187    32.2130 </r>
       <r>    -0.4692     2.8233    32.4635 </r>
       <r>    -0.3805     2.7632    32.7087 </r>
       <r>    -0.2918     4.2543    33.0861 </r>
       <r>    -0.2030     5.5755    33.5808 </r>
       <r>    -0.1143     6.6544    34.1713 </r>
       <r>    -0.0256     8.3199    34.9095 </r>
       <r>     0.0631     9.3060    35.7352 </r>
       <r>     0.1519     9.0742    36.5403 </r>
       <r>     0.2406     9.2415    37.3603 </r>
       <r>     0.3293     7.2140    38.0004 </r>
       <r>     0.4180     8.0278    38.7127 </r>
       <r>     0.5068    10.8813    39.6781 </r>
       <r>     0.5955    10.2810    40.5904 </r>
       <r>     0.6842     8.1618    41.3145 </r>
       <r>     0.7730     6.4554    41.8873 </r>
       <r>     0.8617     7.4004    42.5439 </r>
       <r>     0.9504     9.5889    43.3947 </r>
       <r>     1.0391     9.6374    44.2498 </r>
       <r>     1.1279     8.3895    44.9942 </r>
       <r>     1.2166     8.1998    45.7218 </r>
       <r>     1.3053     9.7290    46.5850 </r>
       <r>     1.3941    12.1681    47.6647 </r>
       <r>     1.4828    10.8923    48.6311 </r>
       <r>     1.5715     7.5219    49.2985 </r>
       <r>     1.6602     6.8414    49.9055 </r>
       <r>     1.7490     9.6432    50.7612 </r>
       <r>     1.8377    15.1205    52.1028 </r>
       <r>     1.9264    16.5267    53.5691 </r>
       <r>     2.0151    12.7565    54.7010 </r>
       <r>     2.1039    11.5833    55.7287 </r>
       <r>     2.1926     9.3428    56.5577 </r>
       <r>     2.2813     8.9903    57.3554 </r>
       <r>     2.3701    10.9028    58.3228 </r>
       <r>     2.4588    10.6160    59.2647 </r>
       <r>     2.5475     9.4188    60.1004 </r>
       <r>     2.6362     6.8089    60.7046 </r>
       <r>     2.7250     9.5480    61.5517 </r>
       <r>     2.8137    13.9113    62.7861 </r>
       <r>     2.9024    12.1838    63.8671 </r>
       <r>     2.9912    10.2221    64.7741 </r>
       <r>     3.0799    12.2137    65.8578 </r>
       <r>     3.1686    14.6313    67.1560 </r>
       <r>     3.2573    12.2010    68.2385 </r>
       <r>     3.3461    13.1592    69.4061 </r>
       <r>     3.4348    15.9263    70.8192 </r>
       <r>     3.5235    13.3604    72.0047 </r>
       <r>     3.6122     8.3759    72.7479 </r>
       <r>     3.7010    10.2105    73.6538 </r>
       <r>     3.7897    12.2875    74.7441 </r>
       <r>     3.8784    11.6627    75.7789 </r>
       <r>     3.9672    13.9569    77.0172 </r>
       <r>     4.0559    15.8840    78.4266 </r>
       <r>     4.1446    15.5371    79.8051 </r>
       <r>     4.2333    12.7375    80.9353 </r>
       <r>     4.3221    10.8961    81.9021 </r>
       <r>     4.4108    13.2077    83.0740 </r>
       <r>     4.4995    14.1091    84.3259 </r>
       <r>     4.5883    13.9436    85.5631 </r>
       <r>     4.6770    17.4404    87.1105 </r>
       <r>     4.7657    16.9774    88.6169 </r>
       <r>     4.8544    11.1937    89.6101 </r>
       <r>     4.9432    10.3111    90.5249 </r>
       <r>     5.0319    14.0122    91.7682 </r>
       <r>     5.1206    15.4769    93.1414 </r>
       <r>     5.2093    15.2129    94.4912 </r>
       <r>     5.2981    20.0722    96.2722 </r>
       <r>     5.3868    22.9941    98.3124 </r>
       <r>     5.4755    18.0183    99.9111 </r>
       <r>     5.5643    15.7686   101.3103 </r>
       <r>     5.6530    18.1016   102.9164 </r>
       <r>     5.7417    17.7769   104.4937 </r>
       <r>     5.8304    13.0324   105.6500 </r>
       <r>     5.9192    10.7299   106.6020 </r>
       <r>     6.0079    11.9349   107.6610 </r>
       <r>     6.0966    12.0704   108.7320 </r>
       <r>     6.1854    14.4664   110.0156 </r>
       <r>     6.2741    14.8864   111.3364 </r>
       <r>     6.3628    15.9224   112.7492 </r>
       <r>     6.4515    16.7811   114.2381 </r>
       <r>     6.5403    14.6924   115.5417 </r>
       <r>     6.6290    13.9860   116.7827 </r>
       <r>     6.7177    11.5566   117.8081 </r>
       <r>     6.8064    14.2491   119.0724 </r>
       <r>     6.8952    19.4013   120.7938 </r>
       <r>     6.9839    19.8564   122.5556 </r>
       <r>     7.0726    18.6414   124.2096 </r>
       <r>     7.1614    13.8930   125.4423 </r>
       <r>     7.2501     8.1386   126.1644 </r>
       <r>     7.3388     4.1122   126.5293 </r>
       <r>     7.4275     2.8383   126.7811 </r>
       <r>     7.5163     3.9189   127.1289 </r>
       <r>     7.6050     4.7837   127.5533 </r>
       <r>     7.6937     3.6058   127.8732 </r>
       <r>     7.7825     1.2669   127.9857 </r>
       <r>     7.8712     0.1559   127.9995 </r>
       <r>     7.9599     0.0057   128.0000 </r>
       <r>     8.0486     0.0001   128.0000 </r>
       <r>     8.1374     0.0000   128.0000 </r>
       <r>     8.2261     0.0000   128.0000 </r>
       <r>     8.3148     0.0000   128.0000 </r>
       <r>     8.4035     0.0000   128.0000 </r>
       <r>     8.4923     0.0000   128.0000 </r>
       <r>     8.5810     0.0000   128.0000 </r>
       <r>     8.6697     0.0000   128.0000 </r>
       <r>     8.7585     0.0000   128.0000 </r>
       <r>     8.8472     0.0000   128.0000 </r>
       <r>     8.9359     0.0000   128.0000 </r>
       <r>     9.0246     0.0000   128.0000 </r>
       <r>     9.1134     0.0000   128.0000 </r>
       <r>     9.2021     0.0000   128.0000 </r>
       <r>     9.2908     0.0000   128.0000 </r>
       <r>     9.3796     0.0000   128.0000 </r>
       <r>     9.4683     0.0000   128.0000 </r>
       <r>     9.5570     0.0000   128.0000 </r>
       <r>     9.6457     0.0000   128.0000 </r>
       <r>     9.7345     0.0000   128.0000 </r>
       <r>     9.8232     0.0000   128.0000 </r>
       <r>     9.9119     0.0000   128.0000 </r>
       <r>    10.0007     0.0000   128.0000 </r>
       <r>    10.0894     0.0032   128.0003 </r>
       <r>    10.1781     0.0860   128.0079 </r>
       <r>    10.2668     0.5578   128.0574 </r>
       <r>    10.3556     1.0260   128.1485 </r>
       <r>    10.4443     1.0124   128.2383 </r>
       <r>    10.5330     0.9278   128.3206 </r>
       <r>    10.6217     0.9325   128.4033 </r>
       <r>    10.7105     1.7539   128.5590 </r>
       <r>    10.7992     2.6470   128.7938 </r>
       <r>    10.8879     2.7763   129.0402 </r>
       <r>    10.9767     2.9326   129.3004 </r>
       <r>    11.0654     2.0019   129.4780 </r>
       <r>    11.1541     2.3274   129.6845 </r>
       <r>    11.2428     6.0005   130.2169 </r>
       <r>    11.3316     7.4326   130.8764 </r>
       <r>    11.4203     7.1025   131.5066 </r>
       <r>    11.5090     9.6168   132.3598 </r>
       <r>    11.5978     9.8735   133.2359 </r>
       <r>    11.6865     9.7858   134.1042 </r>
       <r>    11.7752     9.6531   134.9607 </r>
       <r>    11.8639     9.8633   135.8358 </r>
       <r>    11.9527    10.2906   136.7489 </r>
       <r>    12.0414     8.8188   137.5314 </r>
       <r>    12.1301    10.5954   138.4715 </r>
       <r>    12.2188    11.4306   139.4857 </r>
       <r>    12.3076     9.4075   140.3204 </r>
       <r>    12.3963     7.2160   140.9606 </r>
       <r>    12.4850     8.2448   141.6922 </r>
       <r>    12.5738    11.3939   142.7031 </r>
       <r>    12.6625    11.9745   143.7656 </r>
       <r>    12.7512    11.2548   144.7642 </r>
       <r>    12.8399    12.9434   145.9127 </r>
       <r>    12.9287    13.0884   147.0740 </r>
       <r>    13.0174    11.7079   148.1128 </r>
       <r>    13.1061    10.6713   149.0596 </r>
       <r>    13.1949    10.9428   150.0306 </r>
       <r>    13.2836    11.6558   151.0648 </r>
       <r>    13.3723    12.0242   152.1316 </r>
       <r>    13.4610    11.0016   153.1078 </r>
       <r>    13.5498    10.2566   154.0178 </r>
       <r>    13.6385    11.5395   155.0417 </r>
       <r>    13.7272    11.6796   156.0780 </r>
       <r>    13.8159    10.2669   156.9890 </r>
       <r>    13.9047     8.0954   157.7073 </r>
       <r>    13.9934     7.5713   158.3790 </r>
       <r>    14.0821     9.2095   159.1962 </r>
       <r>    14.1709    11.9550   160.2569 </r>
       <r>    14.2596    10.9941   161.2324 </r>
       <r>    14.3483    10.0295   162.1223 </r>
       <r>    14.4370    10.2358   163.0305 </r>
       <r>    14.5258    11.9184   164.0880 </r>
       <r>    14.6145    11.0884   165.0719 </r>
       <r>    14.7032     8.8302   165.8553 </r>
       <r>    14.7920     5.3112   166.3266 </r>
       <r>    14.8807     4.5873   166.7336 </r>
       <r>    14.9694     5.5978   167.2303 </r>
       <r>    15.0581     3.3766   167.5299 </r>
       <r>    15.1469     2.0370   167.7106 </r>
       <r>    15.2356     1.5006   167.8438 </r>
       <r>    15.3243     0.9493   167.9280 </r>
       <r>    15.4130     0.5992   167.9812 </r>
       <r>    15.5018     0.1933   167.9983 </r>
       <r>    15.5905     0.0186   168.0000 </r>
       <r>    15.6792     0.0004   168.0000 </r>
       <r>    15.7680     0.0000   168.0000 </r>
       <r>    15.8567     0.0000   168.0000 </r>
       <r>    15.9454     0.0000   168.0000 </r>
       <r>    16.0341     0.0000   168.0000 </r>
       <r>    16.1229     0.0000   168.0000 </r>
       <r>    16.2116     0.0000   168.0000 </r>
       <r>    16.3003     0.0000   168.0000 </r>
       <r>    16.3891     0.0000   168.0000 </r>
       <r>    16.4778     0.0000   168.0000 </r>
       <r>    16.5665     0.0000   168.0000 </r>
      </set>
     </set>
    </array>
   </total>
  </dos>
 </calculation>
 <structure name="finalpos" >
  <crystal>
   <varray name="basis" >
    <v>      10.78476834       0.00000000       0.03270319 </v>
    <v>       0.00000000       6.22783145       0.00000000 </v>
    <v>       0.01541485       0.00000000       5.04303000 </v>
   </varray>
   <i name="volume">    338.71559806 </i>
   <varray name="rec_basis" >
    <v>       0.09272422       0.00000000      -0.00028343 </v>
    <v>       0.00000000       0.16056954       0.00000000 </v>
    <v>      -0.00060130       0.00000000       0.19829532 </v>
   </varray>
  </crystal>
  <varray name="positions" >
   <v>       0.66705342       0.00000000       0.99672938 </v>
   <v>       0.66856716       0.50000000       0.99092415 </v>
   <v>       0.33523133       0.00000000       0.50078134 </v>
   <v>       0.58147155       0.75002888       0.49608260 </v>
   <v>       0.58147155       0.24997112       0.49608260 </v>
   <v>       0.16705342       0.50000000       0.99672938 </v>
   <v>       0.16856716       0.00000000       0.99092415 </v>
   <v>       0.83523133       0.50000000       0.50078134 </v>
   <v>       0.08147155       0.25002888       0.49608260 </v>
   <v>       0.08147155       0.74997112       0.49608260 </v>
   <v>       0.41527085       0.75093526       0.99868421 </v>
   <v>       0.41527085       0.24906474       0.99868421 </v>
   <v>       0.33290316       0.50000000       0.50642921 </v>
   <v>       0.91527085       0.25093526       0.99868421 </v>
   <v>       0.91527085       0.74906474       0.99868421 </v>
   <v>       0.83290316       0.00000000       0.50642921 </v>
   <v>       0.41861346       0.75926977       0.39193832 </v>
   <v>       0.41861346       0.24073023       0.39193832 </v>
   <v>       0.66866603       0.50000000       0.36917611 </v>
   <v>       0.59240655       0.75192972       0.86890778 </v>
   <v>       0.59240655       0.24807028       0.86890778 </v>
   <v>       0.91861346       0.25926977       0.39193832 </v>
   <v>       0.91861346       0.74073023       0.39193832 </v>
   <v>       0.16866603       0.00000000       0.36917611 </v>
   <v>       0.09240655       0.25192972       0.86890778 </v>
   <v>       0.09240655       0.74807028       0.86890778 </v>
   <v>       0.66141417       0.00000000       0.36643721 </v>
   <v>       0.32428811       0.50000000       0.89181587 </v>
   <v>       0.32635179       0.00000000       0.86648090 </v>
   <v>       0.16141417       0.50000000       0.36643721 </v>
   <v>       0.82428811       0.00000000       0.89181587 </v>
   <v>       0.82635179       0.50000000       0.86648090 </v>
  </varray>
 </structure>
</modeling>
