<?xml version="1.0" encoding="ISO-8859-1"?>
<modeling>
 <generator>
  <i name="program" type="string">vasp </i>
  <i name="version" type="string">5.3.5  </i>
  <i name="subversion" type="string">31Mar14 (build Jun 20 2014 13:15:13) complex                          parallel </i>
  <i name="platform" type="string">LinuxIFC </i>
  <i name="date" type="string">2025 11 28 </i>
  <i name="time" type="string">23:27:09 </i>
 </generator>
 <incar>
  <i type="string" name="PREC">accurate</i>
  <i type="int" name="IALGO">    68</i>
  <i type="logical" name="ADDGRID"> T  </i>
  <i type="int" name="NELM">   200</i>
  <i type="int" name="NELMIN">     4</i>
  <i type="int" name="IBRION">     2</i>
  <i name="EDIFF">      0.00000100</i>
  <i name="EDIFFG">     -0.02000000</i>
  <i type="int" name="NSW">    30</i>
  <i type="int" name="ISIF">     3</i>
  <i name="ENCUT">    500.00000000</i>
  <i type="logical" name="LREAL"> F  </i>
  <i type="int" name="ISMEAR">     1</i>
  <i name="SIGMA">      0.30000000</i>
  <i type="logical" name="LWAVE"> F  </i>
  <i type="logical" name="LCHARG"> F  </i>
  <i type="int" name="NELM">   200</i>
 </incar>
 <kpoints>
  <generation param="Auto">
   <i name="subdivisionlength">     70.00000000 </i>
   <v type="int" name="divisions">      15       17       17 </v>
   <v name="usershift">      0.00000000       0.00000000       0.00000000 </v>
   <v name="genvec1">      0.06666667       0.00000000       0.00000000 </v>
   <v name="genvec2">      0.00000000       0.05882353       0.00000000 </v>
   <v name="genvec3">      0.00000000       0.00000000       0.05882353 </v>
   <v name="shift">      0.00000000       0.00000000       0.00000000 </v>
  </generation>
  <varray name="kpointlist" >
   <v>       0.00000000       0.00000000       0.00000000 </v>
   <v>       0.06666667       0.00000000       0.00000000 </v>
   <v>       0.13333333       0.00000000       0.00000000 </v>
   <v>       0.20000000       0.00000000       0.00000000 </v>
   <v>       0.26666667       0.00000000       0.00000000 </v>
   <v>       0.33333333       0.00000000       0.00000000 </v>
   <v>       0.40000000       0.00000000       0.00000000 </v>
   <v>       0.46666667       0.00000000       0.00000000 </v>
   <v>       0.00000000       0.05882353       0.00000000 </v>
   <v>       0.06666667       0.05882353       0.00000000 </v>
   <v>       0.13333333       0.05882353       0.00000000 </v>
   <v>       0.20000000       0.05882353       0.00000000 </v>
   <v>       0.26666667       0.05882353       0.00000000 </v>
   <v>       0.33333333       0.05882353       0.00000000 </v>
   <v>       0.40000000       0.05882353       0.00000000 </v>
   <v>       0.46666667       0.05882353       0.00000000 </v>
   <v>      -0.46666667       0.05882353       0.00000000 </v>
   <v>      -0.40000000       0.05882353       0.00000000 </v>
   <v>      -0.33333333       0.05882353       0.00000000 </v>
   <v>      -0.26666667       0.05882353       0.00000000 </v>
   <v>      -0.20000000       0.05882353       0.00000000 </v>
   <v>      -0.13333333       0.05882353       0.00000000 </v>
   <v>      -0.06666667       0.05882353       0.00000000 </v>
   <v>       0.00000000       0.11764706       0.00000000 </v>
   <v>       0.06666667       0.11764706       0.00000000 </v>
   <v>       0.13333333       0.11764706       0.00000000 </v>
   <v>       0.20000000       0.11764706       0.00000000 </v>
   <v>       0.26666667       0.11764706       0.00000000 </v>
   <v>       0.33333333       0.11764706       0.00000000 </v>
   <v>       0.40000000       0.11764706       0.00000000 </v>
   <v>       0.46666667       0.11764706       0.00000000 </v>
   <v>      -0.46666667       0.11764706       0.00000000 </v>
   <v>      -0.40000000       0.11764706       0.00000000 </v>
   <v>      -0.33333333       0.11764706       0.00000000 </v>
   <v>      -0.26666667       0.11764706       0.00000000 </v>
   <v>      -0.20000000       0.11764706       0.00000000 </v>
   <v>      -0.13333333       0.11764706       0.00000000 </v>
   <v>      -0.06666667       0.11764706       0.00000000 </v>
   <v>       0.00000000       0.17647059       0.00000000 </v>
   <v>       0.06666667       0.17647059       0.00000000 </v>
   <v>       0.13333333       0.17647059       0.00000000 </v>
   <v>       0.20000000       0.17647059       0.00000000 </v>
   <v>       0.26666667       0.17647059       0.00000000 </v>
   <v>       0.33333333       0.17647059       0.00000000 </v>
   <v>       0.40000000       0.17647059       0.00000000 </v>
   <v>       0.46666667       0.17647059       0.00000000 </v>
   <v>      -0.46666667       0.17647059       0.00000000 </v>
   <v>      -0.40000000       0.17647059       0.00000000 </v>
   <v>      -0.33333333       0.17647059       0.00000000 </v>
   <v>      -0.26666667       0.17647059       0.00000000 </v>
   <v>      -0.20000000       0.17647059       0.00000000 </v>
   <v>      -0.13333333       0.17647059       0.00000000 </v>
   <v>      -0.06666667       0.17647059       0.00000000 </v>
   <v>       0.00000000       0.23529412       0.00000000 </v>
   <v>       0.06666667       0.23529412       0.00000000 </v>
   <v>       0.13333333       0.23529412       0.00000000 </v>
   <v>       0.20000000       0.23529412       0.00000000 </v>
   <v>       0.26666667       0.23529412       0.00000000 </v>
   <v>       0.33333333       0.23529412       0.00000000 </v>
   <v>       0.40000000       0.23529412       0.00000000 </v>
   <v>       0.46666667       0.23529412       0.00000000 </v>
   <v>      -0.46666667       0.23529412       0.00000000 </v>
   <v>      -0.40000000       0.23529412       0.00000000 </v>
   <v>      -0.33333333       0.23529412       0.00000000 </v>
   <v>      -0.26666667       0.23529412       0.00000000 </v>
   <v>      -0.20000000       0.23529412       0.00000000 </v>
   <v>      -0.13333333       0.23529412       0.00000000 </v>
   <v>      -0.06666667       0.23529412       0.00000000 </v>
   <v>       0.00000000       0.29411765       0.00000000 </v>
   <v>       0.06666667       0.29411765       0.00000000 </v>
   <v>       0.13333333       0.29411765       0.00000000 </v>
   <v>       0.20000000       0.29411765       0.00000000 </v>
   <v>       0.26666667       0.29411765       0.00000000 </v>
   <v>       0.33333333       0.29411765       0.00000000 </v>
   <v>       0.40000000       0.29411765       0.00000000 </v>
   <v>       0.46666667       0.29411765       0.00000000 </v>
   <v>      -0.46666667       0.29411765       0.00000000 </v>
   <v>      -0.40000000       0.29411765       0.00000000 </v>
   <v>      -0.33333333       0.29411765       0.00000000 </v>
   <v>      -0.26666667       0.29411765       0.00000000 </v>
   <v>      -0.20000000       0.29411765       0.00000000 </v>
   <v>      -0.13333333       0.29411765       0.00000000 </v>
   <v>      -0.06666667       0.29411765       0.00000000 </v>
   <v>       0.00000000       0.35294118       0.00000000 </v>
   <v>       0.06666667       0.35294118       0.00000000 </v>
   <v>       0.13333333       0.35294118       0.00000000 </v>
   <v>       0.20000000       0.35294118       0.00000000 </v>
   <v>       0.26666667       0.35294118       0.00000000 </v>
   <v>       0.33333333       0.35294118       0.00000000 </v>
   <v>       0.40000000       0.35294118       0.00000000 </v>
   <v>       0.46666667       0.35294118       0.00000000 </v>
   <v>      -0.46666667       0.35294118       0.00000000 </v>
   <v>      -0.40000000       0.35294118       0.00000000 </v>
   <v>      -0.33333333       0.35294118       0.00000000 </v>
   <v>      -0.26666667       0.35294118       0.00000000 </v>
   <v>      -0.20000000       0.35294118       0.00000000 </v>
   <v>      -0.13333333       0.35294118       0.00000000 </v>
   <v>      -0.06666667       0.35294118       0.00000000 </v>
   <v>       0.00000000       0.41176471       0.00000000 </v>
   <v>       0.06666667       0.41176471       0.00000000 </v>
   <v>       0.13333333       0.41176471       0.00000000 </v>
   <v>       0.20000000       0.41176471       0.00000000 </v>
   <v>       0.26666667       0.41176471       0.00000000 </v>
   <v>       0.33333333       0.41176471       0.00000000 </v>
   <v>       0.40000000       0.41176471       0.00000000 </v>
   <v>       0.46666667       0.41176471       0.00000000 </v>
   <v>      -0.46666667       0.41176471       0.00000000 </v>
   <v>      -0.40000000       0.41176471       0.00000000 </v>
   <v>      -0.33333333       0.41176471       0.00000000 </v>
   <v>      -0.26666667       0.41176471       0.00000000 </v>
   <v>      -0.20000000       0.41176471       0.00000000 </v>
   <v>      -0.13333333       0.41176471       0.00000000 </v>
   <v>      -0.06666667       0.41176471       0.00000000 </v>
   <v>       0.00000000       0.47058824       0.00000000 </v>
   <v>       0.06666667       0.47058824       0.00000000 </v>
   <v>       0.13333333       0.47058824       0.00000000 </v>
   <v>       0.20000000       0.47058824       0.00000000 </v>
   <v>       0.26666667       0.47058824       0.00000000 </v>
   <v>       0.33333333       0.47058824       0.00000000 </v>
   <v>       0.40000000       0.47058824       0.00000000 </v>
   <v>       0.46666667       0.47058824       0.00000000 </v>
   <v>      -0.46666667       0.47058824       0.00000000 </v>
   <v>      -0.40000000       0.47058824       0.00000000 </v>
   <v>      -0.33333333       0.47058824       0.00000000 </v>
   <v>      -0.26666667       0.47058824       0.00000000 </v>
   <v>      -0.20000000       0.47058824       0.00000000 </v>
   <v>      -0.13333333       0.47058824       0.00000000 </v>
   <v>      -0.06666667       0.47058824       0.00000000 </v>
   <v>       0.00000000       0.05882353       0.05882353 </v>
   <v>       0.06666667       0.05882353       0.05882353 </v>
   <v>       0.13333333       0.05882353       0.05882353 </v>
   <v>       0.20000000       0.05882353       0.05882353 </v>
   <v>       0.26666667       0.05882353       0.05882353 </v>
   <v>       0.33333333       0.05882353       0.05882353 </v>
   <v>       0.40000000       0.05882353       0.05882353 </v>
   <v>       0.46666667       0.05882353       0.05882353 </v>
   <v>      -0.46666667       0.05882353       0.05882353 </v>
   <v>      -0.40000000       0.05882353       0.05882353 </v>
   <v>      -0.33333333       0.05882353       0.05882353 </v>
   <v>      -0.26666667       0.05882353       0.05882353 </v>
   <v>      -0.20000000       0.05882353       0.05882353 </v>
   <v>      -0.13333333       0.05882353       0.05882353 </v>
   <v>      -0.06666667       0.05882353       0.05882353 </v>
   <v>       0.00000000       0.11764706       0.05882353 </v>
   <v>       0.06666667       0.11764706       0.05882353 </v>
   <v>       0.13333333       0.11764706       0.05882353 </v>
   <v>       0.20000000       0.11764706       0.05882353 </v>
   <v>       0.26666667       0.11764706       0.05882353 </v>
   <v>       0.33333333       0.11764706       0.05882353 </v>
   <v>       0.40000000       0.11764706       0.05882353 </v>
   <v>       0.46666667       0.11764706       0.05882353 </v>
   <v>      -0.46666667       0.11764706       0.05882353 </v>
   <v>      -0.40000000       0.11764706       0.05882353 </v>
   <v>      -0.33333333       0.11764706       0.05882353 </v>
   <v>      -0.26666667       0.11764706       0.05882353 </v>
   <v>      -0.20000000       0.11764706       0.05882353 </v>
   <v>      -0.13333333       0.11764706       0.05882353 </v>
   <v>      -0.06666667       0.11764706       0.05882353 </v>
   <v>       0.00000000       0.17647059       0.05882353 </v>
   <v>       0.06666667       0.17647059       0.05882353 </v>
   <v>       0.13333333       0.17647059       0.05882353 </v>
   <v>       0.20000000       0.17647059       0.05882353 </v>
   <v>       0.26666667       0.17647059       0.05882353 </v>
   <v>       0.33333333       0.17647059       0.05882353 </v>
   <v>       0.40000000       0.17647059       0.05882353 </v>
   <v>       0.46666667       0.17647059       0.05882353 </v>
   <v>      -0.46666667       0.17647059       0.05882353 </v>
   <v>      -0.40000000       0.17647059       0.05882353 </v>
   <v>      -0.33333333       0.17647059       0.05882353 </v>
   <v>      -0.26666667       0.17647059       0.05882353 </v>
   <v>      -0.20000000       0.17647059       0.05882353 </v>
   <v>      -0.13333333       0.17647059       0.05882353 </v>
   <v>      -0.06666667       0.17647059       0.05882353 </v>
   <v>       0.00000000       0.23529412       0.05882353 </v>
   <v>       0.06666667       0.23529412       0.05882353 </v>
   <v>       0.13333333       0.23529412       0.05882353 </v>
   <v>       0.20000000       0.23529412       0.05882353 </v>
   <v>       0.26666667       0.23529412       0.05882353 </v>
   <v>       0.33333333       0.23529412       0.05882353 </v>
   <v>       0.40000000       0.23529412       0.05882353 </v>
   <v>       0.46666667       0.23529412       0.05882353 </v>
   <v>      -0.46666667       0.23529412       0.05882353 </v>
   <v>      -0.40000000       0.23529412       0.05882353 </v>
   <v>      -0.33333333       0.23529412       0.05882353 </v>
   <v>      -0.26666667       0.23529412       0.05882353 </v>
   <v>      -0.20000000       0.23529412       0.05882353 </v>
   <v>      -0.13333333       0.23529412       0.05882353 </v>
   <v>      -0.06666667       0.23529412       0.05882353 </v>
   <v>       0.00000000       0.29411765       0.05882353 </v>
   <v>       0.06666667       0.29411765       0.05882353 </v>
   <v>       0.13333333       0.29411765       0.05882353 </v>
   <v>       0.20000000       0.29411765       0.05882353 </v>
   <v>       0.26666667       0.29411765       0.05882353 </v>
   <v>       0.33333333       0.29411765       0.05882353 </v>
   <v>       0.40000000       0.29411765       0.05882353 </v>
   <v>       0.46666667       0.29411765       0.05882353 </v>
   <v>      -0.46666667       0.29411765       0.05882353 </v>
   <v>      -0.40000000       0.29411765       0.05882353 </v>
   <v>      -0.33333333       0.29411765       0.05882353 </v>
   <v>      -0.26666667       0.29411765       0.05882353 </v>
   <v>      -0.20000000       0.29411765       0.05882353 </v>
   <v>      -0.13333333       0.29411765       0.05882353 </v>
   <v>      -0.06666667       0.29411765       0.05882353 </v>
   <v>       0.00000000       0.35294118       0.05882353 </v>
   <v>       0.06666667       0.35294118       0.05882353 </v>
   <v>       0.13333333       0.35294118       0.05882353 </v>
   <v>       0.20000000       0.35294118       0.05882353 </v>
   <v>       0.26666667       0.35294118       0.05882353 </v>
   <v>       0.33333333       0.35294118       0.05882353 </v>
   <v>       0.40000000       0.35294118       0.05882353 </v>
   <v>       0.46666667       0.35294118       0.05882353 </v>
   <v>      -0.46666667       0.35294118       0.05882353 </v>
   <v>      -0.40000000       0.35294118       0.05882353 </v>
   <v>      -0.33333333       0.35294118       0.05882353 </v>
   <v>      -0.26666667       0.35294118       0.05882353 </v>
   <v>      -0.20000000       0.35294118       0.05882353 </v>
   <v>      -0.13333333       0.35294118       0.05882353 </v>
   <v>      -0.06666667       0.35294118       0.05882353 </v>
   <v>       0.00000000       0.41176471       0.05882353 </v>
   <v>       0.06666667       0.41176471       0.05882353 </v>
   <v>       0.13333333       0.41176471       0.05882353 </v>
   <v>       0.20000000       0.41176471       0.05882353 </v>
   <v>       0.26666667       0.41176471       0.05882353 </v>
   <v>       0.33333333       0.41176471       0.05882353 </v>
   <v>       0.40000000       0.41176471       0.05882353 </v>
   <v>       0.46666667       0.41176471       0.05882353 </v>
   <v>      -0.46666667       0.41176471       0.05882353 </v>
   <v>      -0.40000000       0.41176471       0.05882353 </v>
   <v>      -0.33333333       0.41176471       0.05882353 </v>
   <v>      -0.26666667       0.41176471       0.05882353 </v>
   <v>      -0.20000000       0.41176471       0.05882353 </v>
   <v>      -0.13333333       0.41176471       0.05882353 </v>
   <v>      -0.06666667       0.41176471       0.05882353 </v>
   <v>       0.00000000       0.47058824       0.05882353 </v>
   <v>       0.06666667       0.47058824       0.05882353 </v>
   <v>       0.13333333       0.47058824       0.05882353 </v>
   <v>       0.20000000       0.47058824       0.05882353 </v>
   <v>       0.26666667       0.47058824       0.05882353 </v>
   <v>       0.33333333       0.47058824       0.05882353 </v>
   <v>       0.40000000       0.47058824       0.05882353 </v>
   <v>       0.46666667       0.47058824       0.05882353 </v>
   <v>      -0.46666667       0.47058824       0.05882353 </v>
   <v>      -0.40000000       0.47058824       0.05882353 </v>
   <v>      -0.33333333       0.47058824       0.05882353 </v>
   <v>      -0.26666667       0.47058824       0.05882353 </v>
   <v>      -0.20000000       0.47058824       0.05882353 </v>
   <v>      -0.13333333       0.47058824       0.05882353 </v>
   <v>      -0.06666667       0.47058824       0.05882353 </v>
   <v>       0.00000000      -0.47058824       0.05882353 </v>
   <v>       0.06666667      -0.47058824       0.05882353 </v>
   <v>       0.13333333      -0.47058824       0.05882353 </v>
   <v>       0.20000000      -0.47058824       0.05882353 </v>
   <v>       0.26666667      -0.47058824       0.05882353 </v>
   <v>       0.33333333      -0.47058824       0.05882353 </v>
   <v>       0.40000000      -0.47058824       0.05882353 </v>
   <v>       0.46666667      -0.47058824       0.05882353 </v>
   <v>      -0.46666667      -0.47058824       0.05882353 </v>
   <v>      -0.40000000      -0.47058824       0.05882353 </v>
   <v>      -0.33333333      -0.47058824       0.05882353 </v>
   <v>      -0.26666667      -0.47058824       0.05882353 </v>
   <v>      -0.20000000      -0.47058824       0.05882353 </v>
   <v>      -0.13333333      -0.47058824       0.05882353 </v>
   <v>      -0.06666667      -0.47058824       0.05882353 </v>
   <v>       0.00000000      -0.41176471       0.05882353 </v>
   <v>       0.06666667      -0.41176471       0.05882353 </v>
   <v>       0.13333333      -0.41176471       0.05882353 </v>
   <v>       0.20000000      -0.41176471       0.05882353 </v>
   <v>       0.26666667      -0.41176471       0.05882353 </v>
   <v>       0.33333333      -0.41176471       0.05882353 </v>
   <v>       0.40000000      -0.41176471       0.05882353 </v>
   <v>       0.46666667      -0.41176471       0.05882353 </v>
   <v>      -0.46666667      -0.41176471       0.05882353 </v>
   <v>      -0.40000000      -0.41176471       0.05882353 </v>
   <v>      -0.33333333      -0.41176471       0.05882353 </v>
   <v>      -0.26666667      -0.41176471       0.05882353 </v>
   <v>      -0.20000000      -0.41176471       0.05882353 </v>
   <v>      -0.13333333      -0.41176471       0.05882353 </v>
   <v>      -0.06666667      -0.41176471       0.05882353 </v>
   <v>       0.00000000      -0.35294118       0.05882353 </v>
   <v>       0.06666667      -0.35294118       0.05882353 </v>
   <v>       0.13333333      -0.35294118       0.05882353 </v>
   <v>       0.20000000      -0.35294118       0.05882353 </v>
   <v>       0.26666667      -0.35294118       0.05882353 </v>
   <v>       0.33333333      -0.35294118       0.05882353 </v>
   <v>       0.40000000      -0.35294118       0.05882353 </v>
   <v>       0.46666667      -0.35294118       0.05882353 </v>
   <v>      -0.46666667      -0.35294118       0.05882353 </v>
   <v>      -0.40000000      -0.35294118       0.05882353 </v>
   <v>      -0.33333333      -0.35294118       0.05882353 </v>
   <v>      -0.26666667      -0.35294118       0.05882353 </v>
   <v>      -0.20000000      -0.35294118       0.05882353 </v>
   <v>      -0.13333333      -0.35294118       0.05882353 </v>
   <v>      -0.06666667      -0.35294118       0.05882353 </v>
   <v>       0.00000000      -0.29411765       0.05882353 </v>
   <v>       0.06666667      -0.29411765       0.05882353 </v>
   <v>       0.13333333      -0.29411765       0.05882353 </v>
   <v>       0.20000000      -0.29411765       0.05882353 </v>
   <v>       0.26666667      -0.29411765       0.05882353 </v>
   <v>       0.33333333      -0.29411765       0.05882353 </v>
   <v>       0.40000000      -0.29411765       0.05882353 </v>
   <v>       0.46666667      -0.29411765       0.05882353 </v>
   <v>      -0.46666667      -0.29411765       0.05882353 </v>
   <v>      -0.40000000      -0.29411765       0.05882353 </v>
   <v>      -0.33333333      -0.29411765       0.05882353 </v>
   <v>      -0.26666667      -0.29411765       0.05882353 </v>
   <v>      -0.20000000      -0.29411765       0.05882353 </v>
   <v>      -0.13333333      -0.29411765       0.05882353 </v>
   <v>      -0.06666667      -0.29411765       0.05882353 </v>
   <v>       0.00000000      -0.23529412       0.05882353 </v>
   <v>       0.06666667      -0.23529412       0.05882353 </v>
   <v>       0.13333333      -0.23529412       0.05882353 </v>
   <v>       0.20000000      -0.23529412       0.05882353 </v>
   <v>       0.26666667      -0.23529412       0.05882353 </v>
   <v>       0.33333333      -0.23529412       0.05882353 </v>
   <v>       0.40000000      -0.23529412       0.05882353 </v>
   <v>       0.46666667      -0.23529412       0.05882353 </v>
   <v>      -0.46666667      -0.23529412       0.05882353 </v>
   <v>      -0.40000000      -0.23529412       0.05882353 </v>
   <v>      -0.33333333      -0.23529412       0.05882353 </v>
   <v>      -0.26666667      -0.23529412       0.05882353 </v>
   <v>      -0.20000000      -0.23529412       0.05882353 </v>
   <v>      -0.13333333      -0.23529412       0.05882353 </v>
   <v>      -0.06666667      -0.23529412       0.05882353 </v>
   <v>       0.00000000      -0.17647059       0.05882353 </v>
   <v>       0.06666667      -0.17647059       0.05882353 </v>
   <v>       0.13333333      -0.17647059       0.05882353 </v>
   <v>       0.20000000      -0.17647059       0.05882353 </v>
   <v>       0.26666667      -0.17647059       0.05882353 </v>
   <v>       0.33333333      -0.17647059       0.05882353 </v>
   <v>       0.40000000      -0.17647059       0.05882353 </v>
   <v>       0.46666667      -0.17647059       0.05882353 </v>
   <v>      -0.46666667      -0.17647059       0.05882353 </v>
   <v>      -0.40000000      -0.17647059       0.05882353 </v>
   <v>      -0.33333333      -0.17647059       0.05882353 </v>
   <v>      -0.26666667      -0.17647059       0.05882353 </v>
   <v>      -0.20000000      -0.17647059       0.05882353 </v>
   <v>      -0.13333333      -0.17647059       0.05882353 </v>
   <v>      -0.06666667      -0.17647059       0.05882353 </v>
   <v>       0.00000000      -0.11764706       0.05882353 </v>
   <v>       0.06666667      -0.11764706       0.05882353 </v>
   <v>       0.13333333      -0.11764706       0.05882353 </v>
   <v>       0.20000000      -0.11764706       0.05882353 </v>
   <v>       0.26666667      -0.11764706       0.05882353 </v>
   <v>       0.33333333      -0.11764706       0.05882353 </v>
   <v>       0.40000000      -0.11764706       0.05882353 </v>
   <v>       0.46666667      -0.11764706       0.05882353 </v>
   <v>      -0.46666667      -0.11764706       0.05882353 </v>
   <v>      -0.40000000      -0.11764706       0.05882353 </v>
   <v>      -0.33333333      -0.11764706       0.05882353 </v>
   <v>      -0.26666667      -0.11764706       0.05882353 </v>
   <v>      -0.20000000      -0.11764706       0.05882353 </v>
   <v>      -0.13333333      -0.11764706       0.05882353 </v>
   <v>      -0.06666667      -0.11764706       0.05882353 </v>
   <v>       0.00000000      -0.05882353       0.05882353 </v>
   <v>       0.06666667      -0.05882353       0.05882353 </v>
   <v>       0.13333333      -0.05882353       0.05882353 </v>
   <v>       0.20000000      -0.05882353       0.05882353 </v>
   <v>       0.26666667      -0.05882353       0.05882353 </v>
   <v>       0.33333333      -0.05882353       0.05882353 </v>
   <v>       0.40000000      -0.05882353       0.05882353 </v>
   <v>       0.46666667      -0.05882353       0.05882353 </v>
   <v>       0.00000000       0.11764706       0.11764706 </v>
   <v>       0.06666667       0.11764706       0.11764706 </v>
   <v>       0.13333333       0.11764706       0.11764706 </v>
   <v>       0.20000000       0.11764706       0.11764706 </v>
   <v>       0.26666667       0.11764706       0.11764706 </v>
   <v>       0.33333333       0.11764706       0.11764706 </v>
   <v>       0.40000000       0.11764706       0.11764706 </v>
   <v>       0.46666667       0.11764706       0.11764706 </v>
   <v>      -0.46666667       0.11764706       0.11764706 </v>
   <v>      -0.40000000       0.11764706       0.11764706 </v>
   <v>      -0.33333333       0.11764706       0.11764706 </v>
   <v>      -0.26666667       0.11764706       0.11764706 </v>
   <v>      -0.20000000       0.11764706       0.11764706 </v>
   <v>      -0.13333333       0.11764706       0.11764706 </v>
   <v>      -0.06666667       0.11764706       0.11764706 </v>
   <v>       0.00000000       0.17647059       0.11764706 </v>
   <v>       0.06666667       0.17647059       0.11764706 </v>
   <v>       0.13333333       0.17647059       0.11764706 </v>
   <v>       0.20000000       0.17647059       0.11764706 </v>
   <v>       0.26666667       0.17647059       0.11764706 </v>
   <v>       0.33333333       0.17647059       0.11764706 </v>
   <v>       0.40000000       0.17647059       0.11764706 </v>
   <v>       0.46666667       0.17647059       0.11764706 </v>
   <v>      -0.46666667       0.17647059       0.11764706 </v>
   <v>      -0.40000000       0.17647059       0.11764706 </v>
   <v>      -0.33333333       0.17647059       0.11764706 </v>
   <v>      -0.26666667       0.17647059       0.11764706 </v>
   <v>      -0.20000000       0.17647059       0.11764706 </v>
   <v>      -0.13333333       0.17647059       0.11764706 </v>
   <v>      -0.06666667       0.17647059       0.11764706 </v>
   <v>       0.00000000       0.23529412       0.11764706 </v>
   <v>       0.06666667       0.23529412       0.11764706 </v>
   <v>       0.13333333       0.23529412       0.11764706 </v>
   <v>       0.20000000       0.23529412       0.11764706 </v>
   <v>       0.26666667       0.23529412       0.11764706 </v>
   <v>       0.33333333       0.23529412       0.11764706 </v>
   <v>       0.40000000       0.23529412       0.11764706 </v>
   <v>       0.46666667       0.23529412       0.11764706 </v>
   <v>      -0.46666667       0.23529412       0.11764706 </v>
   <v>      -0.40000000       0.23529412       0.11764706 </v>
   <v>      -0.33333333       0.23529412       0.11764706 </v>
   <v>      -0.26666667       0.23529412       0.11764706 </v>
   <v>      -0.20000000       0.23529412       0.11764706 </v>
   <v>      -0.13333333       0.23529412       0.11764706 </v>
   <v>      -0.06666667       0.23529412       0.11764706 </v>
   <v>       0.00000000       0.29411765       0.11764706 </v>
   <v>       0.06666667       0.29411765       0.11764706 </v>
   <v>       0.13333333       0.29411765       0.11764706 </v>
   <v>       0.20000000       0.29411765       0.11764706 </v>
   <v>       0.26666667       0.29411765       0.11764706 </v>
   <v>       0.33333333       0.29411765       0.11764706 </v>
   <v>       0.40000000       0.29411765       0.11764706 </v>
   <v>       0.46666667       0.29411765       0.11764706 </v>
   <v>      -0.46666667       0.29411765       0.11764706 </v>
   <v>      -0.40000000       0.29411765       0.11764706 </v>
   <v>      -0.33333333       0.29411765       0.11764706 </v>
   <v>      -0.26666667       0.29411765       0.11764706 </v>
   <v>      -0.20000000       0.29411765       0.11764706 </v>
   <v>      -0.13333333       0.29411765       0.11764706 </v>
   <v>      -0.06666667       0.29411765       0.11764706 </v>
   <v>       0.00000000       0.35294118       0.11764706 </v>
   <v>       0.06666667       0.35294118       0.11764706 </v>
   <v>       0.13333333       0.35294118       0.11764706 </v>
   <v>       0.20000000       0.35294118       0.11764706 </v>
   <v>       0.26666667       0.35294118       0.11764706 </v>
   <v>       0.33333333       0.35294118       0.11764706 </v>
   <v>       0.40000000       0.35294118       0.11764706 </v>
   <v>       0.46666667       0.35294118       0.11764706 </v>
   <v>      -0.46666667       0.35294118       0.11764706 </v>
   <v>      -0.40000000       0.35294118       0.11764706 </v>
   <v>      -0.33333333       0.35294118       0.11764706 </v>
   <v>      -0.26666667       0.35294118       0.11764706 </v>
   <v>      -0.20000000       0.35294118       0.11764706 </v>
   <v>      -0.13333333       0.35294118       0.11764706 </v>
   <v>      -0.06666667       0.35294118       0.11764706 </v>
   <v>       0.00000000       0.41176471       0.11764706 </v>
   <v>       0.06666667       0.41176471       0.11764706 </v>
   <v>       0.13333333       0.41176471       0.11764706 </v>
   <v>       0.20000000       0.41176471       0.11764706 </v>
   <v>       0.26666667       0.41176471       0.11764706 </v>
   <v>       0.33333333       0.41176471       0.11764706 </v>
   <v>       0.40000000       0.41176471       0.11764706 </v>
   <v>       0.46666667       0.41176471       0.11764706 </v>
   <v>      -0.46666667       0.41176471       0.11764706 </v>
   <v>      -0.40000000       0.41176471       0.11764706 </v>
   <v>      -0.33333333       0.41176471       0.11764706 </v>
   <v>      -0.26666667       0.41176471       0.11764706 </v>
   <v>      -0.20000000       0.41176471       0.11764706 </v>
   <v>      -0.13333333       0.41176471       0.11764706 </v>
   <v>      -0.06666667       0.41176471       0.11764706 </v>
   <v>       0.00000000       0.47058824       0.11764706 </v>
   <v>       0.06666667       0.47058824       0.11764706 </v>
   <v>       0.13333333       0.47058824       0.11764706 </v>
   <v>       0.20000000       0.47058824       0.11764706 </v>
   <v>       0.26666667       0.47058824       0.11764706 </v>
   <v>       0.33333333       0.47058824       0.11764706 </v>
   <v>       0.40000000       0.47058824       0.11764706 </v>
   <v>       0.46666667       0.47058824       0.11764706 </v>
   <v>      -0.46666667       0.47058824       0.11764706 </v>
   <v>      -0.40000000       0.47058824       0.11764706 </v>
   <v>      -0.33333333       0.47058824       0.11764706 </v>
   <v>      -0.26666667       0.47058824       0.11764706 </v>
   <v>      -0.20000000       0.47058824       0.11764706 </v>
   <v>      -0.13333333       0.47058824       0.11764706 </v>
   <v>      -0.06666667       0.47058824       0.11764706 </v>
   <v>       0.00000000      -0.47058824       0.11764706 </v>
   <v>       0.06666667      -0.47058824       0.11764706 </v>
   <v>       0.13333333      -0.47058824       0.11764706 </v>
   <v>       0.20000000      -0.47058824       0.11764706 </v>
   <v>       0.26666667      -0.47058824       0.11764706 </v>
   <v>       0.33333333      -0.47058824       0.11764706 </v>
   <v>       0.40000000      -0.47058824       0.11764706 </v>
   <v>       0.46666667      -0.47058824       0.11764706 </v>
   <v>      -0.46666667      -0.47058824       0.11764706 </v>
   <v>      -0.40000000      -0.47058824       0.11764706 </v>
   <v>      -0.33333333      -0.47058824       0.11764706 </v>
   <v>      -0.26666667      -0.47058824       0.11764706 </v>
   <v>      -0.20000000      -0.47058824       0.11764706 </v>
   <v>      -0.13333333      -0.47058824       0.11764706 </v>
   <v>      -0.06666667      -0.47058824       0.11764706 </v>
   <v>       0.00000000      -0.41176471       0.11764706 </v>
   <v>       0.06666667      -0.41176471       0.11764706 </v>
   <v>       0.13333333      -0.41176471       0.11764706 </v>
   <v>       0.20000000      -0.41176471       0.11764706 </v>
   <v>       0.26666667      -0.41176471       0.11764706 </v>
   <v>       0.33333333      -0.41176471       0.11764706 </v>
   <v>       0.40000000      -0.41176471       0.11764706 </v>
   <v>       0.46666667      -0.41176471       0.11764706 </v>
   <v>      -0.46666667      -0.41176471       0.11764706 </v>
   <v>      -0.40000000      -0.41176471       0.11764706 </v>
   <v>      -0.33333333      -0.41176471       0.11764706 </v>
   <v>      -0.26666667      -0.41176471       0.11764706 </v>
   <v>      -0.20000000      -0.41176471       0.11764706 </v>
   <v>      -0.13333333      -0.41176471       0.11764706 </v>
   <v>      -0.06666667      -0.41176471       0.11764706 </v>
   <v>       0.00000000      -0.35294118       0.11764706 </v>
   <v>       0.06666667      -0.35294118       0.11764706 </v>
   <v>       0.13333333      -0.35294118       0.11764706 </v>
   <v>       0.20000000      -0.35294118       0.11764706 </v>
   <v>       0.26666667      -0.35294118       0.11764706 </v>
   <v>       0.33333333      -0.35294118       0.11764706 </v>
   <v>       0.40000000      -0.35294118       0.11764706 </v>
   <v>       0.46666667      -0.35294118       0.11764706 </v>
   <v>      -0.46666667      -0.35294118       0.11764706 </v>
   <v>      -0.40000000      -0.35294118       0.11764706 </v>
   <v>      -0.33333333      -0.35294118       0.11764706 </v>
   <v>      -0.26666667      -0.35294118       0.11764706 </v>
   <v>      -0.20000000      -0.35294118       0.11764706 </v>
   <v>      -0.13333333      -0.35294118       0.11764706 </v>
   <v>      -0.06666667      -0.35294118       0.11764706 </v>
   <v>       0.00000000      -0.29411765       0.11764706 </v>
   <v>       0.06666667      -0.29411765       0.11764706 </v>
   <v>       0.13333333      -0.29411765       0.11764706 </v>
   <v>       0.20000000      -0.29411765       0.11764706 </v>
   <v>       0.26666667      -0.29411765       0.11764706 </v>
   <v>       0.33333333      -0.29411765       0.11764706 </v>
   <v>       0.40000000      -0.29411765       0.11764706 </v>
   <v>       0.46666667      -0.29411765       0.11764706 </v>
   <v>      -0.46666667      -0.29411765       0.11764706 </v>
   <v>      -0.40000000      -0.29411765       0.11764706 </v>
   <v>      -0.33333333      -0.29411765       0.11764706 </v>
   <v>      -0.26666667      -0.29411765       0.11764706 </v>
   <v>      -0.20000000      -0.29411765       0.11764706 </v>
   <v>      -0.13333333      -0.29411765       0.11764706 </v>
   <v>      -0.06666667      -0.29411765       0.11764706 </v>
   <v>       0.00000000      -0.23529412       0.11764706 </v>
   <v>       0.06666667      -0.23529412       0.11764706 </v>
   <v>       0.13333333      -0.23529412       0.11764706 </v>
   <v>       0.20000000      -0.23529412       0.11764706 </v>
   <v>       0.26666667      -0.23529412       0.11764706 </v>
   <v>       0.33333333      -0.23529412       0.11764706 </v>
   <v>       0.40000000      -0.23529412       0.11764706 </v>
   <v>       0.46666667      -0.23529412       0.11764706 </v>
   <v>      -0.46666667      -0.23529412       0.11764706 </v>
   <v>      -0.40000000      -0.23529412       0.11764706 </v>
   <v>      -0.33333333      -0.23529412       0.11764706 </v>
   <v>      -0.26666667      -0.23529412       0.11764706 </v>
   <v>      -0.20000000      -0.23529412       0.11764706 </v>
   <v>      -0.13333333      -0.23529412       0.11764706 </v>
   <v>      -0.06666667      -0.23529412       0.11764706 </v>
   <v>       0.00000000      -0.17647059       0.11764706 </v>
   <v>       0.06666667      -0.17647059       0.11764706 </v>
   <v>       0.13333333      -0.17647059       0.11764706 </v>
   <v>       0.20000000      -0.17647059       0.11764706 </v>
   <v>       0.26666667      -0.17647059       0.11764706 </v>
   <v>       0.33333333      -0.17647059       0.11764706 </v>
   <v>       0.40000000      -0.17647059       0.11764706 </v>
   <v>       0.46666667      -0.17647059       0.11764706 </v>
   <v>      -0.46666667      -0.17647059       0.11764706 </v>
   <v>      -0.40000000      -0.17647059       0.11764706 </v>
   <v>      -0.33333333      -0.17647059       0.11764706 </v>
   <v>      -0.26666667      -0.17647059       0.11764706 </v>
   <v>      -0.20000000      -0.17647059       0.11764706 </v>
   <v>      -0.13333333      -0.17647059       0.11764706 </v>
   <v>      -0.06666667      -0.17647059       0.11764706 </v>
   <v>       0.00000000      -0.11764706       0.11764706 </v>
   <v>       0.06666667      -0.11764706       0.11764706 </v>
   <v>       0.13333333      -0.11764706       0.11764706 </v>
   <v>       0.20000000      -0.11764706       0.11764706 </v>
   <v>       0.26666667      -0.11764706       0.11764706 </v>
   <v>       0.33333333      -0.11764706       0.11764706 </v>
   <v>       0.40000000      -0.11764706       0.11764706 </v>
   <v>       0.46666667      -0.11764706       0.11764706 </v>
   <v>       0.00000000       0.17647059       0.17647059 </v>
   <v>       0.06666667       0.17647059       0.17647059 </v>
   <v>       0.13333333       0.17647059       0.17647059 </v>
   <v>       0.20000000       0.17647059       0.17647059 </v>
   <v>       0.26666667       0.17647059       0.17647059 </v>
   <v>       0.33333333       0.17647059       0.17647059 </v>
   <v>       0.40000000       0.17647059       0.17647059 </v>
   <v>       0.46666667       0.17647059       0.17647059 </v>
   <v>      -0.46666667       0.17647059       0.17647059 </v>
   <v>      -0.40000000       0.17647059       0.17647059 </v>
   <v>      -0.33333333       0.17647059       0.17647059 </v>
   <v>      -0.26666667       0.17647059       0.17647059 </v>
   <v>      -0.20000000       0.17647059       0.17647059 </v>
   <v>      -0.13333333       0.17647059       0.17647059 </v>
   <v>      -0.06666667       0.17647059       0.17647059 </v>
   <v>       0.00000000       0.23529412       0.17647059 </v>
   <v>       0.06666667       0.23529412       0.17647059 </v>
   <v>       0.13333333       0.23529412       0.17647059 </v>
   <v>       0.20000000       0.23529412       0.17647059 </v>
   <v>       0.26666667       0.23529412       0.17647059 </v>
   <v>       0.33333333       0.23529412       0.17647059 </v>
   <v>       0.40000000       0.23529412       0.17647059 </v>
   <v>       0.46666667       0.23529412       0.17647059 </v>
   <v>      -0.46666667       0.23529412       0.17647059 </v>
   <v>      -0.40000000       0.23529412       0.17647059 </v>
   <v>      -0.33333333       0.23529412       0.17647059 </v>
   <v>      -0.26666667       0.23529412       0.17647059 </v>
   <v>      -0.20000000       0.23529412       0.17647059 </v>
   <v>      -0.13333333       0.23529412       0.17647059 </v>
   <v>      -0.06666667       0.23529412       0.17647059 </v>
   <v>       0.00000000       0.29411765       0.17647059 </v>
   <v>       0.06666667       0.29411765       0.17647059 </v>
   <v>       0.13333333       0.29411765       0.17647059 </v>
   <v>       0.20000000       0.29411765       0.17647059 </v>
   <v>       0.26666667       0.29411765       0.17647059 </v>
   <v>       0.33333333       0.29411765       0.17647059 </v>
   <v>       0.40000000       0.29411765       0.17647059 </v>
   <v>       0.46666667       0.29411765       0.17647059 </v>
   <v>      -0.46666667       0.29411765       0.17647059 </v>
   <v>      -0.40000000       0.29411765       0.17647059 </v>
   <v>      -0.33333333       0.29411765       0.17647059 </v>
   <v>      -0.26666667       0.29411765       0.17647059 </v>
   <v>      -0.20000000       0.29411765       0.17647059 </v>
   <v>      -0.13333333       0.29411765       0.17647059 </v>
   <v>      -0.06666667       0.29411765       0.17647059 </v>
   <v>       0.00000000       0.35294118       0.17647059 </v>
   <v>       0.06666667       0.35294118       0.17647059 </v>
   <v>       0.13333333       0.35294118       0.17647059 </v>
   <v>       0.20000000       0.35294118       0.17647059 </v>
   <v>       0.26666667       0.35294118       0.17647059 </v>
   <v>       0.33333333       0.35294118       0.17647059 </v>
   <v>       0.40000000       0.35294118       0.17647059 </v>
   <v>       0.46666667       0.35294118       0.17647059 </v>
   <v>      -0.46666667       0.35294118       0.17647059 </v>
   <v>      -0.40000000       0.35294118       0.17647059 </v>
   <v>      -0.33333333       0.35294118       0.17647059 </v>
   <v>      -0.26666667       0.35294118       0.17647059 </v>
   <v>      -0.20000000       0.35294118       0.17647059 </v>
   <v>      -0.13333333       0.35294118       0.17647059 </v>
   <v>      -0.06666667       0.35294118       0.17647059 </v>
   <v>       0.00000000       0.41176471       0.17647059 </v>
   <v>       0.06666667       0.41176471       0.17647059 </v>
   <v>       0.13333333       0.41176471       0.17647059 </v>
   <v>       0.20000000       0.41176471       0.17647059 </v>
   <v>       0.26666667       0.41176471       0.17647059 </v>
   <v>       0.33333333       0.41176471       0.17647059 </v>
   <v>       0.40000000       0.41176471       0.17647059 </v>
   <v>       0.46666667       0.41176471       0.17647059 </v>
   <v>      -0.46666667       0.41176471       0.17647059 </v>
   <v>      -0.40000000       0.41176471       0.17647059 </v>
   <v>      -0.33333333       0.41176471       0.17647059 </v>
   <v>      -0.26666667       0.41176471       0.17647059 </v>
   <v>      -0.20000000       0.41176471       0.17647059 </v>
   <v>      -0.13333333       0.41176471       0.17647059 </v>
   <v>      -0.06666667       0.41176471       0.17647059 </v>
   <v>       0.00000000       0.47058824       0.17647059 </v>
   <v>       0.06666667       0.47058824       0.17647059 </v>
   <v>       0.13333333       0.47058824       0.17647059 </v>
   <v>       0.20000000       0.47058824       0.17647059 </v>
   <v>       0.26666667       0.47058824       0.17647059 </v>
   <v>       0.33333333       0.47058824       0.17647059 </v>
   <v>       0.40000000       0.47058824       0.17647059 </v>
   <v>       0.46666667       0.47058824       0.17647059 </v>
   <v>      -0.46666667       0.47058824       0.17647059 </v>
   <v>      -0.40000000       0.47058824       0.17647059 </v>
   <v>      -0.33333333       0.47058824       0.17647059 </v>
   <v>      -0.26666667       0.47058824       0.17647059 </v>
   <v>      -0.20000000       0.47058824       0.17647059 </v>
   <v>      -0.13333333       0.47058824       0.17647059 </v>
   <v>      -0.06666667       0.47058824       0.17647059 </v>
   <v>       0.00000000      -0.47058824       0.17647059 </v>
   <v>       0.06666667      -0.47058824       0.17647059 </v>
   <v>       0.13333333      -0.47058824       0.17647059 </v>
   <v>       0.20000000      -0.47058824       0.17647059 </v>
   <v>       0.26666667      -0.47058824       0.17647059 </v>
   <v>       0.33333333      -0.47058824       0.17647059 </v>
   <v>       0.40000000      -0.47058824       0.17647059 </v>
   <v>       0.46666667      -0.47058824       0.17647059 </v>
   <v>      -0.46666667      -0.47058824       0.17647059 </v>
   <v>      -0.40000000      -0.47058824       0.17647059 </v>
   <v>      -0.33333333      -0.47058824       0.17647059 </v>
   <v>      -0.26666667      -0.47058824       0.17647059 </v>
   <v>      -0.20000000      -0.47058824       0.17647059 </v>
   <v>      -0.13333333      -0.47058824       0.17647059 </v>
   <v>      -0.06666667      -0.47058824       0.17647059 </v>
   <v>       0.00000000      -0.41176471       0.17647059 </v>
   <v>       0.06666667      -0.41176471       0.17647059 </v>
   <v>       0.13333333      -0.41176471       0.17647059 </v>
   <v>       0.20000000      -0.41176471       0.17647059 </v>
   <v>       0.26666667      -0.41176471       0.17647059 </v>
   <v>       0.33333333      -0.41176471       0.17647059 </v>
   <v>       0.40000000      -0.41176471       0.17647059 </v>
   <v>       0.46666667      -0.41176471       0.17647059 </v>
   <v>      -0.46666667      -0.41176471       0.17647059 </v>
   <v>      -0.40000000      -0.41176471       0.17647059 </v>
   <v>      -0.33333333      -0.41176471       0.17647059 </v>
   <v>      -0.26666667      -0.41176471       0.17647059 </v>
   <v>      -0.20000000      -0.41176471       0.17647059 </v>
   <v>      -0.13333333      -0.41176471       0.17647059 </v>
   <v>      -0.06666667      -0.41176471       0.17647059 </v>
   <v>       0.00000000      -0.35294118       0.17647059 </v>
   <v>       0.06666667      -0.35294118       0.17647059 </v>
   <v>       0.13333333      -0.35294118       0.17647059 </v>
   <v>       0.20000000      -0.35294118       0.17647059 </v>
   <v>       0.26666667      -0.35294118       0.17647059 </v>
   <v>       0.33333333      -0.35294118       0.17647059 </v>
   <v>       0.40000000      -0.35294118       0.17647059 </v>
   <v>       0.46666667      -0.35294118       0.17647059 </v>
   <v>      -0.46666667      -0.35294118       0.17647059 </v>
   <v>      -0.40000000      -0.35294118       0.17647059 </v>
   <v>      -0.33333333      -0.35294118       0.17647059 </v>
   <v>      -0.26666667      -0.35294118       0.17647059 </v>
   <v>      -0.20000000      -0.35294118       0.17647059 </v>
   <v>      -0.13333333      -0.35294118       0.17647059 </v>
   <v>      -0.06666667      -0.35294118       0.17647059 </v>
   <v>       0.00000000      -0.29411765       0.17647059 </v>
   <v>       0.06666667      -0.29411765       0.17647059 </v>
   <v>       0.13333333      -0.29411765       0.17647059 </v>
   <v>       0.20000000      -0.29411765       0.17647059 </v>
   <v>       0.26666667      -0.29411765       0.17647059 </v>
   <v>       0.33333333      -0.29411765       0.17647059 </v>
   <v>       0.40000000      -0.29411765       0.17647059 </v>
   <v>       0.46666667      -0.29411765       0.17647059 </v>
   <v>      -0.46666667      -0.29411765       0.17647059 </v>
   <v>      -0.40000000      -0.29411765       0.17647059 </v>
   <v>      -0.33333333      -0.29411765       0.17647059 </v>
   <v>      -0.26666667      -0.29411765       0.17647059 </v>
   <v>      -0.20000000      -0.29411765       0.17647059 </v>
   <v>      -0.13333333      -0.29411765       0.17647059 </v>
   <v>      -0.06666667      -0.29411765       0.17647059 </v>
   <v>       0.00000000      -0.23529412       0.17647059 </v>
   <v>       0.06666667      -0.23529412       0.17647059 </v>
   <v>       0.13333333      -0.23529412       0.17647059 </v>
   <v>       0.20000000      -0.23529412       0.17647059 </v>
   <v>       0.26666667      -0.23529412       0.17647059 </v>
   <v>       0.33333333      -0.23529412       0.17647059 </v>
   <v>       0.40000000      -0.23529412       0.17647059 </v>
   <v>       0.46666667      -0.23529412       0.17647059 </v>
   <v>      -0.46666667      -0.23529412       0.17647059 </v>
   <v>      -0.40000000      -0.23529412       0.17647059 </v>
   <v>      -0.33333333      -0.23529412       0.17647059 </v>
   <v>      -0.26666667      -0.23529412       0.17647059 </v>
   <v>      -0.20000000      -0.23529412       0.17647059 </v>
   <v>      -0.13333333      -0.23529412       0.17647059 </v>
   <v>      -0.06666667      -0.23529412       0.17647059 </v>
   <v>       0.00000000      -0.17647059       0.17647059 </v>
   <v>       0.06666667      -0.17647059       0.17647059 </v>
   <v>       0.13333333      -0.17647059       0.17647059 </v>
   <v>       0.20000000      -0.17647059       0.17647059 </v>
   <v>       0.26666667      -0.17647059       0.17647059 </v>
   <v>       0.33333333      -0.17647059       0.17647059 </v>
   <v>       0.40000000      -0.17647059       0.17647059 </v>
   <v>       0.46666667      -0.17647059       0.17647059 </v>
   <v>       0.00000000       0.23529412       0.23529412 </v>
   <v>       0.06666667       0.23529412       0.23529412 </v>
   <v>       0.13333333       0.23529412       0.23529412 </v>
   <v>       0.20000000       0.23529412       0.23529412 </v>
   <v>       0.26666667       0.23529412       0.23529412 </v>
   <v>       0.33333333       0.23529412       0.23529412 </v>
   <v>       0.40000000       0.23529412       0.23529412 </v>
   <v>       0.46666667       0.23529412       0.23529412 </v>
   <v>      -0.46666667       0.23529412       0.23529412 </v>
   <v>      -0.40000000       0.23529412       0.23529412 </v>
   <v>      -0.33333333       0.23529412       0.23529412 </v>
   <v>      -0.26666667       0.23529412       0.23529412 </v>
   <v>      -0.20000000       0.23529412       0.23529412 </v>
   <v>      -0.13333333       0.23529412       0.23529412 </v>
   <v>      -0.06666667       0.23529412       0.23529412 </v>
   <v>       0.00000000       0.29411765       0.23529412 </v>
   <v>       0.06666667       0.29411765       0.23529412 </v>
   <v>       0.13333333       0.29411765       0.23529412 </v>
   <v>       0.20000000       0.29411765       0.23529412 </v>
   <v>       0.26666667       0.29411765       0.23529412 </v>
   <v>       0.33333333       0.29411765       0.23529412 </v>
   <v>       0.40000000       0.29411765       0.23529412 </v>
   <v>       0.46666667       0.29411765       0.23529412 </v>
   <v>      -0.46666667       0.29411765       0.23529412 </v>
   <v>      -0.40000000       0.29411765       0.23529412 </v>
   <v>      -0.33333333       0.29411765       0.23529412 </v>
   <v>      -0.26666667       0.29411765       0.23529412 </v>
   <v>      -0.20000000       0.29411765       0.23529412 </v>
   <v>      -0.13333333       0.29411765       0.23529412 </v>
   <v>      -0.06666667       0.29411765       0.23529412 </v>
   <v>       0.00000000       0.35294118       0.23529412 </v>
   <v>       0.06666667       0.35294118       0.23529412 </v>
   <v>       0.13333333       0.35294118       0.23529412 </v>
   <v>       0.20000000       0.35294118       0.23529412 </v>
   <v>       0.26666667       0.35294118       0.23529412 </v>
   <v>       0.33333333       0.35294118       0.23529412 </v>
   <v>       0.40000000       0.35294118       0.23529412 </v>
   <v>       0.46666667       0.35294118       0.23529412 </v>
   <v>      -0.46666667       0.35294118       0.23529412 </v>
   <v>      -0.40000000       0.35294118       0.23529412 </v>
   <v>      -0.33333333       0.35294118       0.23529412 </v>
   <v>      -0.26666667       0.35294118       0.23529412 </v>
   <v>      -0.20000000       0.35294118       0.23529412 </v>
   <v>      -0.13333333       0.35294118       0.23529412 </v>
   <v>      -0.06666667       0.35294118       0.23529412 </v>
   <v>       0.00000000       0.41176471       0.23529412 </v>
   <v>       0.06666667       0.41176471       0.23529412 </v>
   <v>       0.13333333       0.41176471       0.23529412 </v>
   <v>       0.20000000       0.41176471       0.23529412 </v>
   <v>       0.26666667       0.41176471       0.23529412 </v>
   <v>       0.33333333       0.41176471       0.23529412 </v>
   <v>       0.40000000       0.41176471       0.23529412 </v>
   <v>       0.46666667       0.41176471       0.23529412 </v>
   <v>      -0.46666667       0.41176471       0.23529412 </v>
   <v>      -0.40000000       0.41176471       0.23529412 </v>
   <v>      -0.33333333       0.41176471       0.23529412 </v>
   <v>      -0.26666667       0.41176471       0.23529412 </v>
   <v>      -0.20000000       0.41176471       0.23529412 </v>
   <v>      -0.13333333       0.41176471       0.23529412 </v>
   <v>      -0.06666667       0.41176471       0.23529412 </v>
   <v>       0.00000000       0.47058824       0.23529412 </v>
   <v>       0.06666667       0.47058824       0.23529412 </v>
   <v>       0.13333333       0.47058824       0.23529412 </v>
   <v>       0.20000000       0.47058824       0.23529412 </v>
   <v>       0.26666667       0.47058824       0.23529412 </v>
   <v>       0.33333333       0.47058824       0.23529412 </v>
   <v>       0.40000000       0.47058824       0.23529412 </v>
   <v>       0.46666667       0.47058824       0.23529412 </v>
   <v>      -0.46666667       0.47058824       0.23529412 </v>
   <v>      -0.40000000       0.47058824       0.23529412 </v>
   <v>      -0.33333333       0.47058824       0.23529412 </v>
   <v>      -0.26666667       0.47058824       0.23529412 </v>
   <v>      -0.20000000       0.47058824       0.23529412 </v>
   <v>      -0.13333333       0.47058824       0.23529412 </v>
   <v>      -0.06666667       0.47058824       0.23529412 </v>
   <v>       0.00000000      -0.47058824       0.23529412 </v>
   <v>       0.06666667      -0.47058824       0.23529412 </v>
   <v>       0.13333333      -0.47058824       0.23529412 </v>
   <v>       0.20000000      -0.47058824       0.23529412 </v>
   <v>       0.26666667      -0.47058824       0.23529412 </v>
   <v>       0.33333333      -0.47058824       0.23529412 </v>
   <v>       0.40000000      -0.47058824       0.23529412 </v>
   <v>       0.46666667      -0.47058824       0.23529412 </v>
   <v>      -0.46666667      -0.47058824       0.23529412 </v>
   <v>      -0.40000000      -0.47058824       0.23529412 </v>
   <v>      -0.33333333      -0.47058824       0.23529412 </v>
   <v>      -0.26666667      -0.47058824       0.23529412 </v>
   <v>      -0.20000000      -0.47058824       0.23529412 </v>
   <v>      -0.13333333      -0.47058824       0.23529412 </v>
   <v>      -0.06666667      -0.47058824       0.23529412 </v>
   <v>       0.00000000      -0.41176471       0.23529412 </v>
   <v>       0.06666667      -0.41176471       0.23529412 </v>
   <v>       0.13333333      -0.41176471       0.23529412 </v>
   <v>       0.20000000      -0.41176471       0.23529412 </v>
   <v>       0.26666667      -0.41176471       0.23529412 </v>
   <v>       0.33333333      -0.41176471       0.23529412 </v>
   <v>       0.40000000      -0.41176471       0.23529412 </v>
   <v>       0.46666667      -0.41176471       0.23529412 </v>
   <v>      -0.46666667      -0.41176471       0.23529412 </v>
   <v>      -0.40000000      -0.41176471       0.23529412 </v>
   <v>      -0.33333333      -0.41176471       0.23529412 </v>
   <v>      -0.26666667      -0.41176471       0.23529412 </v>
   <v>      -0.20000000      -0.41176471       0.23529412 </v>
   <v>      -0.13333333      -0.41176471       0.23529412 </v>
   <v>      -0.06666667      -0.41176471       0.23529412 </v>
   <v>       0.00000000      -0.35294118       0.23529412 </v>
   <v>       0.06666667      -0.35294118       0.23529412 </v>
   <v>       0.13333333      -0.35294118       0.23529412 </v>
   <v>       0.20000000      -0.35294118       0.23529412 </v>
   <v>       0.26666667      -0.35294118       0.23529412 </v>
   <v>       0.33333333      -0.35294118       0.23529412 </v>
   <v>       0.40000000      -0.35294118       0.23529412 </v>
   <v>       0.46666667      -0.35294118       0.23529412 </v>
   <v>      -0.46666667      -0.35294118       0.23529412 </v>
   <v>      -0.40000000      -0.35294118       0.23529412 </v>
   <v>      -0.33333333      -0.35294118       0.23529412 </v>
   <v>      -0.26666667      -0.35294118       0.23529412 </v>
   <v>      -0.20000000      -0.35294118       0.23529412 </v>
   <v>      -0.13333333      -0.35294118       0.23529412 </v>
   <v>      -0.06666667      -0.35294118       0.23529412 </v>
   <v>       0.00000000      -0.29411765       0.23529412 </v>
   <v>       0.06666667      -0.29411765       0.23529412 </v>
   <v>       0.13333333      -0.29411765       0.23529412 </v>
   <v>       0.20000000      -0.29411765       0.23529412 </v>
   <v>       0.26666667      -0.29411765       0.23529412 </v>
   <v>       0.33333333      -0.29411765       0.23529412 </v>
   <v>       0.40000000      -0.29411765       0.23529412 </v>
   <v>       0.46666667      -0.29411765       0.23529412 </v>
   <v>      -0.46666667      -0.29411765       0.23529412 </v>
   <v>      -0.40000000      -0.29411765       0.23529412 </v>
   <v>      -0.33333333      -0.29411765       0.23529412 </v>
   <v>      -0.26666667      -0.29411765       0.23529412 </v>
   <v>      -0.20000000      -0.29411765       0.23529412 </v>
   <v>      -0.13333333      -0.29411765       0.23529412 </v>
   <v>      -0.06666667      -0.29411765       0.23529412 </v>
   <v>       0.00000000      -0.23529412       0.23529412 </v>
   <v>       0.06666667      -0.23529412       0.23529412 </v>
   <v>       0.13333333      -0.23529412       0.23529412 </v>
   <v>       0.20000000      -0.23529412       0.23529412 </v>
   <v>       0.26666667      -0.23529412       0.23529412 </v>
   <v>       0.33333333      -0.23529412       0.23529412 </v>
   <v>       0.40000000      -0.23529412       0.23529412 </v>
   <v>       0.46666667      -0.23529412       0.23529412 </v>
   <v>       0.00000000       0.29411765       0.29411765 </v>
   <v>       0.06666667       0.29411765       0.29411765 </v>
   <v>       0.13333333       0.29411765       0.29411765 </v>
   <v>       0.20000000       0.29411765       0.29411765 </v>
   <v>       0.26666667       0.29411765       0.29411765 </v>
   <v>       0.33333333       0.29411765       0.29411765 </v>
   <v>       0.40000000       0.29411765       0.29411765 </v>
   <v>       0.46666667       0.29411765       0.29411765 </v>
   <v>      -0.46666667       0.29411765       0.29411765 </v>
   <v>      -0.40000000       0.29411765       0.29411765 </v>
   <v>      -0.33333333       0.29411765       0.29411765 </v>
   <v>      -0.26666667       0.29411765       0.29411765 </v>
   <v>      -0.20000000       0.29411765       0.29411765 </v>
   <v>      -0.13333333       0.29411765       0.29411765 </v>
   <v>      -0.06666667       0.29411765       0.29411765 </v>
   <v>       0.00000000       0.35294118       0.29411765 </v>
   <v>       0.06666667       0.35294118       0.29411765 </v>
   <v>       0.13333333       0.35294118       0.29411765 </v>
   <v>       0.20000000       0.35294118       0.29411765 </v>
   <v>       0.26666667       0.35294118       0.29411765 </v>
   <v>       0.33333333       0.35294118       0.29411765 </v>
   <v>       0.40000000       0.35294118       0.29411765 </v>
   <v>       0.46666667       0.35294118       0.29411765 </v>
   <v>      -0.46666667       0.35294118       0.29411765 </v>
   <v>      -0.40000000       0.35294118       0.29411765 </v>
   <v>      -0.33333333       0.35294118       0.29411765 </v>
   <v>      -0.26666667       0.35294118       0.29411765 </v>
   <v>      -0.20000000       0.35294118       0.29411765 </v>
   <v>      -0.13333333       0.35294118       0.29411765 </v>
   <v>      -0.06666667       0.35294118       0.29411765 </v>
   <v>       0.00000000       0.41176471       0.29411765 </v>
   <v>       0.06666667       0.41176471       0.29411765 </v>
   <v>       0.13333333       0.41176471       0.29411765 </v>
   <v>       0.20000000       0.41176471       0.29411765 </v>
   <v>       0.26666667       0.41176471       0.29411765 </v>
   <v>       0.33333333       0.41176471       0.29411765 </v>
   <v>       0.40000000       0.41176471       0.29411765 </v>
   <v>       0.46666667       0.41176471       0.29411765 </v>
   <v>      -0.46666667       0.41176471       0.29411765 </v>
   <v>      -0.40000000       0.41176471       0.29411765 </v>
   <v>      -0.33333333       0.41176471       0.29411765 </v>
   <v>      -0.26666667       0.41176471       0.29411765 </v>
   <v>      -0.20000000       0.41176471       0.29411765 </v>
   <v>      -0.13333333       0.41176471       0.29411765 </v>
   <v>      -0.06666667       0.41176471       0.29411765 </v>
   <v>       0.00000000       0.47058824       0.29411765 </v>
   <v>       0.06666667       0.47058824       0.29411765 </v>
   <v>       0.13333333       0.47058824       0.29411765 </v>
   <v>       0.20000000       0.47058824       0.29411765 </v>
   <v>       0.26666667       0.47058824       0.29411765 </v>
   <v>       0.33333333       0.47058824       0.29411765 </v>
   <v>       0.40000000       0.47058824       0.29411765 </v>
   <v>       0.46666667       0.47058824       0.29411765 </v>
   <v>      -0.46666667       0.47058824       0.29411765 </v>
   <v>      -0.40000000       0.47058824       0.29411765 </v>
   <v>      -0.33333333       0.47058824       0.29411765 </v>
   <v>      -0.26666667       0.47058824       0.29411765 </v>
   <v>      -0.20000000       0.47058824       0.29411765 </v>
   <v>      -0.13333333       0.47058824       0.29411765 </v>
   <v>      -0.06666667       0.47058824       0.29411765 </v>
   <v>       0.00000000      -0.47058824       0.29411765 </v>
   <v>       0.06666667      -0.47058824       0.29411765 </v>
   <v>       0.13333333      -0.47058824       0.29411765 </v>
   <v>       0.20000000      -0.47058824       0.29411765 </v>
   <v>       0.26666667      -0.47058824       0.29411765 </v>
   <v>       0.33333333      -0.47058824       0.29411765 </v>
   <v>       0.40000000      -0.47058824       0.29411765 </v>
   <v>       0.46666667      -0.47058824       0.29411765 </v>
   <v>      -0.46666667      -0.47058824       0.29411765 </v>
   <v>      -0.40000000      -0.47058824       0.29411765 </v>
   <v>      -0.33333333      -0.47058824       0.29411765 </v>
   <v>      -0.26666667      -0.47058824       0.29411765 </v>
   <v>      -0.20000000      -0.47058824       0.29411765 </v>
   <v>      -0.13333333      -0.47058824       0.29411765 </v>
   <v>      -0.06666667      -0.47058824       0.29411765 </v>
   <v>       0.00000000      -0.41176471       0.29411765 </v>
   <v>       0.06666667      -0.41176471       0.29411765 </v>
   <v>       0.13333333      -0.41176471       0.29411765 </v>
   <v>       0.20000000      -0.41176471       0.29411765 </v>
   <v>       0.26666667      -0.41176471       0.29411765 </v>
   <v>       0.33333333      -0.41176471       0.29411765 </v>
   <v>       0.40000000      -0.41176471       0.29411765 </v>
   <v>       0.46666667      -0.41176471       0.29411765 </v>
   <v>      -0.46666667      -0.41176471       0.29411765 </v>
   <v>      -0.40000000      -0.41176471       0.29411765 </v>
   <v>      -0.33333333      -0.41176471       0.29411765 </v>
   <v>      -0.26666667      -0.41176471       0.29411765 </v>
   <v>      -0.20000000      -0.41176471       0.29411765 </v>
   <v>      -0.13333333      -0.41176471       0.29411765 </v>
   <v>      -0.06666667      -0.41176471       0.29411765 </v>
   <v>       0.00000000      -0.35294118       0.29411765 </v>
   <v>       0.06666667      -0.35294118       0.29411765 </v>
   <v>       0.13333333      -0.35294118       0.29411765 </v>
   <v>       0.20000000      -0.35294118       0.29411765 </v>
   <v>       0.26666667      -0.35294118       0.29411765 </v>
   <v>       0.33333333      -0.35294118       0.29411765 </v>
   <v>       0.40000000      -0.35294118       0.29411765 </v>
   <v>       0.46666667      -0.35294118       0.29411765 </v>
   <v>      -0.46666667      -0.35294118       0.29411765 </v>
   <v>      -0.40000000      -0.35294118       0.29411765 </v>
   <v>      -0.33333333      -0.35294118       0.29411765 </v>
   <v>      -0.26666667      -0.35294118       0.29411765 </v>
   <v>      -0.20000000      -0.35294118       0.29411765 </v>
   <v>      -0.13333333      -0.35294118       0.29411765 </v>
   <v>      -0.06666667      -0.35294118       0.29411765 </v>
   <v>       0.00000000      -0.29411765       0.29411765 </v>
   <v>       0.06666667      -0.29411765       0.29411765 </v>
   <v>       0.13333333      -0.29411765       0.29411765 </v>
   <v>       0.20000000      -0.29411765       0.29411765 </v>
   <v>       0.26666667      -0.29411765       0.29411765 </v>
   <v>       0.33333333      -0.29411765       0.29411765 </v>
   <v>       0.40000000      -0.29411765       0.29411765 </v>
   <v>       0.46666667      -0.29411765       0.29411765 </v>
   <v>       0.00000000       0.35294118       0.35294118 </v>
   <v>       0.06666667       0.35294118       0.35294118 </v>
   <v>       0.13333333       0.35294118       0.35294118 </v>
   <v>       0.20000000       0.35294118       0.35294118 </v>
   <v>       0.26666667       0.35294118       0.35294118 </v>
   <v>       0.33333333       0.35294118       0.35294118 </v>
   <v>       0.40000000       0.35294118       0.35294118 </v>
   <v>       0.46666667       0.35294118       0.35294118 </v>
   <v>      -0.46666667       0.35294118       0.35294118 </v>
   <v>      -0.40000000       0.35294118       0.35294118 </v>
   <v>      -0.33333333       0.35294118       0.35294118 </v>
   <v>      -0.26666667       0.35294118       0.35294118 </v>
   <v>      -0.20000000       0.35294118       0.35294118 </v>
   <v>      -0.13333333       0.35294118       0.35294118 </v>
   <v>      -0.06666667       0.35294118       0.35294118 </v>
   <v>       0.00000000       0.41176471       0.35294118 </v>
   <v>       0.06666667       0.41176471       0.35294118 </v>
   <v>       0.13333333       0.41176471       0.35294118 </v>
   <v>       0.20000000       0.41176471       0.35294118 </v>
   <v>       0.26666667       0.41176471       0.35294118 </v>
   <v>       0.33333333       0.41176471       0.35294118 </v>
   <v>       0.40000000       0.41176471       0.35294118 </v>
   <v>       0.46666667       0.41176471       0.35294118 </v>
   <v>      -0.46666667       0.41176471       0.35294118 </v>
   <v>      -0.40000000       0.41176471       0.35294118 </v>
   <v>      -0.33333333       0.41176471       0.35294118 </v>
   <v>      -0.26666667       0.41176471       0.35294118 </v>
   <v>      -0.20000000       0.41176471       0.35294118 </v>
   <v>      -0.13333333       0.41176471       0.35294118 </v>
   <v>      -0.06666667       0.41176471       0.35294118 </v>
   <v>       0.00000000       0.47058824       0.35294118 </v>
   <v>       0.06666667       0.47058824       0.35294118 </v>
   <v>       0.13333333       0.47058824       0.35294118 </v>
   <v>       0.20000000       0.47058824       0.35294118 </v>
   <v>       0.26666667       0.47058824       0.35294118 </v>
   <v>       0.33333333       0.47058824       0.35294118 </v>
   <v>       0.40000000       0.47058824       0.35294118 </v>
   <v>       0.46666667       0.47058824       0.35294118 </v>
   <v>      -0.46666667       0.47058824       0.35294118 </v>
   <v>      -0.40000000       0.47058824       0.35294118 </v>
   <v>      -0.33333333       0.47058824       0.35294118 </v>
   <v>      -0.26666667       0.47058824       0.35294118 </v>
   <v>      -0.20000000       0.47058824       0.35294118 </v>
   <v>      -0.13333333       0.47058824       0.35294118 </v>
   <v>      -0.06666667       0.47058824       0.35294118 </v>
   <v>       0.00000000      -0.47058824       0.35294118 </v>
   <v>       0.06666667      -0.47058824       0.35294118 </v>
   <v>       0.13333333      -0.47058824       0.35294118 </v>
   <v>       0.20000000      -0.47058824       0.35294118 </v>
   <v>       0.26666667      -0.47058824       0.35294118 </v>
   <v>       0.33333333      -0.47058824       0.35294118 </v>
   <v>       0.40000000      -0.47058824       0.35294118 </v>
   <v>       0.46666667      -0.47058824       0.35294118 </v>
   <v>      -0.46666667      -0.47058824       0.35294118 </v>
   <v>      -0.40000000      -0.47058824       0.35294118 </v>
   <v>      -0.33333333      -0.47058824       0.35294118 </v>
   <v>      -0.26666667      -0.47058824       0.35294118 </v>
   <v>      -0.20000000      -0.47058824       0.35294118 </v>
   <v>      -0.13333333      -0.47058824       0.35294118 </v>
   <v>      -0.06666667      -0.47058824       0.35294118 </v>
   <v>       0.00000000      -0.41176471       0.35294118 </v>
   <v>       0.06666667      -0.41176471       0.35294118 </v>
   <v>       0.13333333      -0.41176471       0.35294118 </v>
   <v>       0.20000000      -0.41176471       0.35294118 </v>
   <v>       0.26666667      -0.41176471       0.35294118 </v>
   <v>       0.33333333      -0.41176471       0.35294118 </v>
   <v>       0.40000000      -0.41176471       0.35294118 </v>
   <v>       0.46666667      -0.41176471       0.35294118 </v>
   <v>      -0.46666667      -0.41176471       0.35294118 </v>
   <v>      -0.40000000      -0.41176471       0.35294118 </v>
   <v>      -0.33333333      -0.41176471       0.35294118 </v>
   <v>      -0.26666667      -0.41176471       0.35294118 </v>
   <v>      -0.20000000      -0.41176471       0.35294118 </v>
   <v>      -0.13333333      -0.41176471       0.35294118 </v>
   <v>      -0.06666667      -0.41176471       0.35294118 </v>
   <v>       0.00000000      -0.35294118       0.35294118 </v>
   <v>       0.06666667      -0.35294118       0.35294118 </v>
   <v>       0.13333333      -0.35294118       0.35294118 </v>
   <v>       0.20000000      -0.35294118       0.35294118 </v>
   <v>       0.26666667      -0.35294118       0.35294118 </v>
   <v>       0.33333333      -0.35294118       0.35294118 </v>
   <v>       0.40000000      -0.35294118       0.35294118 </v>
   <v>       0.46666667      -0.35294118       0.35294118 </v>
   <v>       0.00000000       0.41176471       0.41176471 </v>
   <v>       0.06666667       0.41176471       0.41176471 </v>
   <v>       0.13333333       0.41176471       0.41176471 </v>
   <v>       0.20000000       0.41176471       0.41176471 </v>
   <v>       0.26666667       0.41176471       0.41176471 </v>
   <v>       0.33333333       0.41176471       0.41176471 </v>
   <v>       0.40000000       0.41176471       0.41176471 </v>
   <v>       0.46666667       0.41176471       0.41176471 </v>
   <v>      -0.46666667       0.41176471       0.41176471 </v>
   <v>      -0.40000000       0.41176471       0.41176471 </v>
   <v>      -0.33333333       0.41176471       0.41176471 </v>
   <v>      -0.26666667       0.41176471       0.41176471 </v>
   <v>      -0.20000000       0.41176471       0.41176471 </v>
   <v>      -0.13333333       0.41176471       0.41176471 </v>
   <v>      -0.06666667       0.41176471       0.41176471 </v>
   <v>       0.00000000       0.47058824       0.41176471 </v>
   <v>       0.06666667       0.47058824       0.41176471 </v>
   <v>       0.13333333       0.47058824       0.41176471 </v>
   <v>       0.20000000       0.47058824       0.41176471 </v>
   <v>       0.26666667       0.47058824       0.41176471 </v>
   <v>       0.33333333       0.47058824       0.41176471 </v>
   <v>       0.40000000       0.47058824       0.41176471 </v>
   <v>       0.46666667       0.47058824       0.41176471 </v>
   <v>      -0.46666667       0.47058824       0.41176471 </v>
   <v>      -0.40000000       0.47058824       0.41176471 </v>
   <v>      -0.33333333       0.47058824       0.41176471 </v>
   <v>      -0.26666667       0.47058824       0.41176471 </v>
   <v>      -0.20000000       0.47058824       0.41176471 </v>
   <v>      -0.13333333       0.47058824       0.41176471 </v>
   <v>      -0.06666667       0.47058824       0.41176471 </v>
   <v>       0.00000000      -0.47058824       0.41176471 </v>
   <v>       0.06666667      -0.47058824       0.41176471 </v>
   <v>       0.13333333      -0.47058824       0.41176471 </v>
   <v>       0.20000000      -0.47058824       0.41176471 </v>
   <v>       0.26666667      -0.47058824       0.41176471 </v>
   <v>       0.33333333      -0.47058824       0.41176471 </v>
   <v>       0.40000000      -0.47058824       0.41176471 </v>
   <v>       0.46666667      -0.47058824       0.41176471 </v>
   <v>      -0.46666667      -0.47058824       0.41176471 </v>
   <v>      -0.40000000      -0.47058824       0.41176471 </v>
   <v>      -0.33333333      -0.47058824       0.41176471 </v>
   <v>      -0.26666667      -0.47058824       0.41176471 </v>
   <v>      -0.20000000      -0.47058824       0.41176471 </v>
   <v>      -0.13333333      -0.47058824       0.41176471 </v>
   <v>      -0.06666667      -0.47058824       0.41176471 </v>
   <v>       0.00000000      -0.41176471       0.41176471 </v>
   <v>       0.06666667      -0.41176471       0.41176471 </v>
   <v>       0.13333333      -0.41176471       0.41176471 </v>
   <v>       0.20000000      -0.41176471       0.41176471 </v>
   <v>       0.26666667      -0.41176471       0.41176471 </v>
   <v>       0.33333333      -0.41176471       0.41176471 </v>
   <v>       0.40000000      -0.41176471       0.41176471 </v>
   <v>       0.46666667      -0.41176471       0.41176471 </v>
   <v>       0.00000000       0.47058824       0.47058824 </v>
   <v>       0.06666667       0.47058824       0.47058824 </v>
   <v>       0.13333333       0.47058824       0.47058824 </v>
   <v>       0.20000000       0.47058824       0.47058824 </v>
   <v>       0.26666667       0.47058824       0.47058824 </v>
   <v>       0.33333333       0.47058824       0.47058824 </v>
   <v>       0.40000000       0.47058824       0.47058824 </v>
   <v>       0.46666667       0.47058824       0.47058824 </v>
   <v>      -0.46666667       0.47058824       0.47058824 </v>
   <v>      -0.40000000       0.47058824       0.47058824 </v>
   <v>      -0.33333333       0.47058824       0.47058824 </v>
   <v>      -0.26666667       0.47058824       0.47058824 </v>
   <v>      -0.20000000       0.47058824       0.47058824 </v>
   <v>      -0.13333333       0.47058824       0.47058824 </v>
   <v>      -0.06666667       0.47058824       0.47058824 </v>
   <v>       0.00000000      -0.47058824       0.47058824 </v>
   <v>       0.06666667      -0.47058824       0.47058824 </v>
   <v>       0.13333333      -0.47058824       0.47058824 </v>
   <v>       0.20000000      -0.47058824       0.47058824 </v>
   <v>       0.26666667      -0.47058824       0.47058824 </v>
   <v>       0.33333333      -0.47058824       0.47058824 </v>
   <v>       0.40000000      -0.47058824       0.47058824 </v>
   <v>       0.46666667      -0.47058824       0.47058824 </v>
  </varray>
  <varray name="weights" >
   <v>       0.00023068 </v>
   <v>       0.00046136 </v>
   <v>       0.00046136 </v>
   <v>       0.00046136 </v>
   <v>       0.00046136 </v>
   <v>       0.00046136 </v>
   <v>       0.00046136 </v>
   <v>       0.00046136 </v>
   <v>       0.00092272 </v>
   <v>       0.00092272 </v>
   <v>       0.00092272 </v>
   <v>       0.00092272 </v>
   <v>       0.00092272 </v>
   <v>       0.00092272 </v>
   <v>       0.00092272 </v>
   <v>       0.00092272 </v>
   <v>       0.00092272 </v>
   <v>       0.00092272 </v>
   <v>       0.00092272 </v>
   <v>       0.00092272 </v>
   <v>       0.00092272 </v>
   <v>       0.00092272 </v>
   <v>       0.00092272 </v>
   <v>       0.00092272 </v>
   <v>       0.00092272 </v>
   <v>       0.00092272 </v>
   <v>       0.00092272 </v>
   <v>       0.00092272 </v>
   <v>       0.00092272 </v>
   <v>       0.00092272 </v>
   <v>       0.00092272 </v>
   <v>       0.00092272 </v>
   <v>       0.00092272 </v>
   <v>       0.00092272 </v>
   <v>       0.00092272 </v>
   <v>       0.00092272 </v>
   <v>       0.00092272 </v>
   <v>       0.00092272 </v>
   <v>       0.00092272 </v>
   <v>       0.00092272 </v>
   <v>       0.00092272 </v>
   <v>       0.00092272 </v>
   <v>       0.00092272 </v>
   <v>       0.00092272 </v>
   <v>       0.00092272 </v>
   <v>       0.00092272 </v>
   <v>       0.00092272 </v>
   <v>       0.00092272 </v>
   <v>       0.00092272 </v>
   <v>       0.00092272 </v>
   <v>       0.00092272 </v>
   <v>       0.00092272 </v>
   <v>       0.00092272 </v>
   <v>       0.00092272 </v>
   <v>       0.00092272 </v>
   <v>       0.00092272 </v>
   <v>       0.00092272 </v>
   <v>       0.00092272 </v>
   <v>       0.00092272 </v>
   <v>       0.00092272 </v>
   <v>       0.00092272 </v>
   <v>       0.00092272 </v>
   <v>       0.00092272 </v>
   <v>       0.00092272 </v>
   <v>       0.00092272 </v>
   <v>       0.00092272 </v>
   <v>       0.00092272 </v>
   <v>       0.00092272 </v>
   <v>       0.00092272 </v>
   <v>       0.00092272 </v>
   <v>       0.00092272 </v>
   <v>       0.00092272 </v>
   <v>       0.00092272 </v>
   <v>       0.00092272 </v>
   <v>       0.00092272 </v>
   <v>       0.00092272 </v>
   <v>       0.00092272 </v>
   <v>       0.00092272 </v>
   <v>       0.00092272 </v>
   <v>       0.00092272 </v>
   <v>       0.00092272 </v>
   <v>       0.00092272 </v>
   <v>       0.00092272 </v>
   <v>       0.00092272 </v>
   <v>       0.00092272 </v>
   <v>       0.00092272 </v>
   <v>       0.00092272 </v>
   <v>       0.00092272 </v>
   <v>       0.00092272 </v>
   <v>       0.00092272 </v>
   <v>       0.00092272 </v>
   <v>       0.00092272 </v>
   <v>       0.00092272 </v>
   <v>       0.00092272 </v>
   <v>       0.00092272 </v>
   <v>       0.00092272 </v>
   <v>       0.00092272 </v>
   <v>       0.00092272 </v>
   <v>       0.00092272 </v>
   <v>       0.00092272 </v>
   <v>       0.00092272 </v>
   <v>       0.00092272 </v>
   <v>       0.00092272 </v>
   <v>       0.00092272 </v>
   <v>       0.00092272 </v>
   <v>       0.00092272 </v>
   <v>       0.00092272 </v>
   <v>       0.00092272 </v>
   <v>       0.00092272 </v>
   <v>       0.00092272 </v>
   <v>       0.00092272 </v>
   <v>       0.00092272 </v>
   <v>       0.00092272 </v>
   <v>       0.00092272 </v>
   <v>       0.00092272 </v>
   <v>       0.00092272 </v>
   <v>       0.00092272 </v>
   <v>       0.00092272 </v>
   <v>       0.00092272 </v>
   <v>       0.00092272 </v>
   <v>       0.00092272 </v>
   <v>       0.00092272 </v>
   <v>       0.00092272 </v>
   <v>       0.00092272 </v>
   <v>       0.00092272 </v>
   <v>       0.00092272 </v>
   <v>       0.00092272 </v>
   <v>       0.00092272 </v>
   <v>       0.00046136 </v>
   <v>       0.00046136 </v>
   <v>       0.00046136 </v>
   <v>       0.00046136 </v>
   <v>       0.00046136 </v>
   <v>       0.00046136 </v>
   <v>       0.00046136 </v>
   <v>       0.00046136 </v>
   <v>       0.00046136 </v>
   <v>       0.00046136 </v>
   <v>       0.00046136 </v>
   <v>       0.00046136 </v>
   <v>       0.00046136 </v>
   <v>       0.00046136 </v>
   <v>       0.00046136 </v>
   <v>       0.00092272 </v>
   <v>       0.00092272 </v>
   <v>       0.00092272 </v>
   <v>       0.00092272 </v>
   <v>       0.00092272 </v>
   <v>       0.00092272 </v>
   <v>       0.00092272 </v>
   <v>       0.00092272 </v>
   <v>       0.00092272 </v>
   <v>       0.00092272 </v>
   <v>       0.00092272 </v>
   <v>       0.00092272 </v>
   <v>       0.00092272 </v>
   <v>       0.00092272 </v>
   <v>       0.00092272 </v>
   <v>       0.00092272 </v>
   <v>       0.00092272 </v>
   <v>       0.00092272 </v>
   <v>       0.00092272 </v>
   <v>       0.00092272 </v>
   <v>       0.00092272 </v>
   <v>       0.00092272 </v>
   <v>       0.00092272 </v>
   <v>       0.00092272 </v>
   <v>       0.00092272 </v>
   <v>       0.00092272 </v>
   <v>       0.00092272 </v>
   <v>       0.00092272 </v>
   <v>       0.00092272 </v>
   <v>       0.00092272 </v>
   <v>       0.00092272 </v>
   <v>       0.00092272 </v>
   <v>       0.00092272 </v>
   <v>       0.00092272 </v>
   <v>       0.00092272 </v>
   <v>       0.00092272 </v>
   <v>       0.00092272 </v>
   <v>       0.00092272 </v>
   <v>       0.00092272 </v>
   <v>       0.00092272 </v>
   <v>       0.00092272 </v>
   <v>       0.00092272 </v>
   <v>       0.00092272 </v>
   <v>       0.00092272 </v>
   <v>       0.00092272 </v>
   <v>       0.00092272 </v>
   <v>       0.00092272 </v>
   <v>       0.00092272 </v>
   <v>       0.00092272 </v>
   <v>       0.00092272 </v>
   <v>       0.00092272 </v>
[...]
       <r>    5.5746    1.0000 </r>
       <r>    5.6598    1.0000 </r>
       <r>    5.8234    1.0000 </r>
       <r>    5.9507    1.0000 </r>
       <r>    6.0784    1.0000 </r>
       <r>    6.1785    1.0000 </r>
       <r>    6.2409    1.0000 </r>
       <r>    6.2826    1.0000 </r>
       <r>    6.3524    1.0000 </r>
       <r>    6.3803    1.0000 </r>
       <r>    6.5353    1.0000 </r>
       <r>    7.7768    1.0352 </r>
       <r>    8.1992    0.3786 </r>
       <r>    8.7107   -0.0126 </r>
       <r>    9.2735    0.0000 </r>
       <r>   12.6199    0.0000 </r>
       <r>   15.4213    0.0000 </r>
       <r>   16.6310    0.0000 </r>
       <r>   16.3784    0.0000 </r>
      </set>
      <set comment="kpoint 1151">
       <r>    1.5688    1.0000 </r>
       <r>    1.7562    1.0000 </r>
       <r>    2.2874    1.0000 </r>
       <r>    2.3596    1.0000 </r>
       <r>    2.5338    1.0000 </r>
       <r>    2.5857    1.0000 </r>
       <r>    2.7490    1.0000 </r>
       <r>    2.8791    1.0000 </r>
       <r>    3.1341    1.0000 </r>
       <r>    3.2893    1.0000 </r>
       <r>    3.3628    1.0000 </r>
       <r>    3.4240    1.0000 </r>
       <r>    3.8606    1.0000 </r>
       <r>    3.9416    1.0000 </r>
       <r>    4.1615    1.0000 </r>
       <r>    4.3206    1.0000 </r>
       <r>    4.5911    1.0000 </r>
       <r>    4.6987    1.0000 </r>
       <r>    4.8305    1.0000 </r>
       <r>    5.0582    1.0000 </r>
       <r>    5.2461    1.0000 </r>
       <r>    5.5407    1.0000 </r>
       <r>    5.5942    1.0000 </r>
       <r>    5.7844    1.0000 </r>
       <r>    5.8756    1.0000 </r>
       <r>    6.0116    1.0000 </r>
       <r>    6.2200    1.0000 </r>
       <r>    6.3114    1.0000 </r>
       <r>    6.3518    1.0000 </r>
       <r>    6.3751    1.0000 </r>
       <r>    6.4713    1.0000 </r>
       <r>    6.5311    1.0000 </r>
       <r>    7.2979    1.0002 </r>
       <r>    7.6518    1.0194 </r>
       <r>    8.8735   -0.0018 </r>
       <r>    9.2061    0.0000 </r>
       <r>   13.1730    0.0000 </r>
       <r>   15.0643    0.0000 </r>
       <r>   16.4596    0.0000 </r>
       <r>   14.8527    0.0000 </r>
      </set>
      <set comment="kpoint 1152">
       <r>    1.6369    1.0000 </r>
       <r>    1.7877    1.0000 </r>
       <r>    2.3715    1.0000 </r>
       <r>    2.4387    1.0000 </r>
       <r>    2.5252    1.0000 </r>
       <r>    2.6105    1.0000 </r>
       <r>    2.7862    1.0000 </r>
       <r>    2.9277    1.0000 </r>
       <r>    3.0779    1.0000 </r>
       <r>    3.2190    1.0000 </r>
       <r>    3.3400    1.0000 </r>
       <r>    3.3793    1.0000 </r>
       <r>    3.8018    1.0000 </r>
       <r>    3.8272    1.0000 </r>
       <r>    4.2660    1.0000 </r>
       <r>    4.3193    1.0000 </r>
       <r>    4.5991    1.0000 </r>
       <r>    4.6840    1.0000 </r>
       <r>    4.8746    1.0000 </r>
       <r>    4.9886    1.0000 </r>
       <r>    5.2848    1.0000 </r>
       <r>    5.5201    1.0000 </r>
       <r>    5.6160    1.0000 </r>
       <r>    5.6935    1.0000 </r>
       <r>    5.8612    1.0000 </r>
       <r>    5.9171    1.0000 </r>
       <r>    6.2602    1.0000 </r>
       <r>    6.3040    1.0000 </r>
       <r>    6.3661    1.0000 </r>
       <r>    6.5274    1.0000 </r>
       <r>    6.5448    1.0000 </r>
       <r>    6.7496    1.0000 </r>
       <r>    6.9323    1.0000 </r>
       <r>    7.1895    1.0000 </r>
       <r>    8.9800   -0.0004 </r>
       <r>    9.1491    0.0000 </r>
       <r>   13.7944    0.0000 </r>
       <r>   14.4490    0.0000 </r>
       <r>   16.4189    0.0000 </r>
       <r>   15.1914    0.0000 </r>
      </set>
     </set>
    </set>
   </array>
  </eigenvalues>
  <separator name="orbital magnetization" >
   <v name="MAGDIPOLOUT">      0.00000000      0.00000000      0.00000000</v>
  </separator>
  <dos>
   <i name="efermi">      8.15565490 </i>
   <total>
    <array>
     <dimension dim="1">gridpoints</dimension>
     <dimension dim="2">spin</dimension>
     <field>energy</field>
     <field>total</field>
     <field>integrated</field>
     <set>
      <set comment="spin 1">
       <r>    -3.8923     0.0000     0.0000 </r>
       <r>    -3.8137     0.0000     0.0000 </r>
       <r>    -3.7350     0.0000     0.0000 </r>
       <r>    -3.6563     0.0000     0.0000 </r>
       <r>    -3.5776     0.0000     0.0000 </r>
       <r>    -3.4989     0.0000     0.0000 </r>
       <r>    -3.4202     0.0000     0.0000 </r>
       <r>    -3.3415     0.0000     0.0000 </r>
       <r>    -3.2629     0.0000     0.0000 </r>
       <r>    -3.1842     0.0000     0.0000 </r>
       <r>    -3.1055     0.0000     0.0000 </r>
       <r>    -3.0268     0.0000     0.0000 </r>
       <r>    -2.9481     0.0000     0.0000 </r>
       <r>    -2.8694     0.0000     0.0000 </r>
       <r>    -2.7907     0.0000     0.0000 </r>
       <r>    -2.7120     0.0000     0.0000 </r>
       <r>    -2.6334     0.0000     0.0000 </r>
       <r>    -2.5547     0.0000     0.0000 </r>
       <r>    -2.4760     0.0000     0.0000 </r>
       <r>    -2.3973     0.0000     0.0000 </r>
       <r>    -2.3186     0.0000     0.0000 </r>
       <r>    -2.2399     0.0000     0.0000 </r>
       <r>    -2.1612     0.0000     0.0000 </r>
       <r>    -2.0826     0.0000     0.0000 </r>
       <r>    -2.0039     0.0000     0.0000 </r>
       <r>    -1.9252     0.0000     0.0000 </r>
       <r>    -1.8465     0.0000     0.0000 </r>
       <r>    -1.7678     0.0000     0.0000 </r>
       <r>    -1.6891     0.0000     0.0000 </r>
       <r>    -1.6104    -0.0001     0.0000 </r>
       <r>    -1.5317    -0.0004     0.0000 </r>
       <r>    -1.4531    -0.0011    -0.0001 </r>
       <r>    -1.3744    -0.0025    -0.0003 </r>
       <r>    -1.2957    -0.0047    -0.0007 </r>
       <r>    -1.2170    -0.0072    -0.0013 </r>
       <r>    -1.1383    -0.0077    -0.0019 </r>
       <r>    -1.0596    -0.0020    -0.0020 </r>
       <r>    -0.9809     0.0147    -0.0009 </r>
       <r>    -0.9023     0.0462     0.0028 </r>
       <r>    -0.8236     0.0920     0.0100 </r>
       <r>    -0.7449     0.1475     0.0216 </r>
       <r>    -0.6662     0.2057     0.0378 </r>
       <r>    -0.5875     0.2606     0.0583 </r>
       <r>    -0.5088     0.3090     0.0826 </r>
       <r>    -0.4301     0.3512     0.1103 </r>
       <r>    -0.3514     0.3888     0.1408 </r>
       <r>    -0.2728     0.4238     0.1742 </r>
       <r>    -0.1941     0.4577     0.2102 </r>
       <r>    -0.1154     0.4915     0.2489 </r>
       <r>    -0.0367     0.5254     0.2902 </r>
       <r>     0.0420     0.5597     0.3343 </r>
       <r>     0.1207     0.5949     0.3811 </r>
       <r>     0.1994     0.6316     0.4308 </r>
       <r>     0.2780     0.6707     0.4836 </r>
       <r>     0.3567     0.7128     0.5396 </r>
       <r>     0.4354     0.7592     0.5994 </r>
       <r>     0.5141     0.8118     0.6633 </r>
       <r>     0.5928     0.8716     0.7318 </r>
       <r>     0.6715     0.9385     0.8057 </r>
       <r>     0.7502     1.0105     0.8852 </r>
       <r>     0.8288     1.0844     0.9705 </r>
       <r>     0.9075     1.1546     1.0614 </r>
       <r>     0.9862     1.2136     1.1569 </r>
       <r>     1.0649     1.2548     1.2556 </r>
       <r>     1.1436     1.2787     1.3562 </r>
       <r>     1.2223     1.2995     1.4585 </r>
       <r>     1.3010     1.3525     1.5649 </r>
       <r>     1.3797     1.4977     1.6828 </r>
       <r>     1.4583     1.8133     1.8254 </r>
       <r>     1.5370     2.3708     2.0120 </r>
       <r>     1.6157     3.1973     2.2636 </r>
       <r>     1.6944     4.2434     2.5975 </r>
       <r>     1.7731     5.3840     3.0211 </r>
       <r>     1.8518     6.4653     3.5299 </r>
       <r>     1.9305     7.3756     4.1102 </r>
       <r>     2.0091     8.0931     4.7470 </r>
       <r>     2.0878     8.6780     5.4299 </r>
       <r>     2.1665     9.2219     6.1555 </r>
       <r>     2.2452     9.8006     6.9267 </r>
       <r>     2.3239    10.4541     7.7493 </r>
       <r>     2.4026    11.1792     8.6290 </r>
       <r>     2.4813    11.9152     9.5665 </r>
       <r>     2.5600    12.5396    10.5532 </r>
       <r>     2.6386    12.9027    11.5685 </r>
       <r>     2.7173    12.8956    12.5832 </r>
       <r>     2.7960    12.5043    13.5671 </r>
       <r>     2.8747    11.8156    14.4968 </r>
       <r>     2.9534    10.9848    15.3612 </r>
       <r>     3.0321    10.1973    16.1636 </r>
       <r>     3.1108     9.6348    16.9217 </r>
       <r>     3.1894     9.4298    17.6637 </r>
       <r>     3.2681     9.6114    18.4200 </r>
       <r>     3.3468    10.0825    19.2134 </r>
       <r>     3.4255    10.6598    20.0522 </r>
       <r>     3.5042    11.1645    20.9306 </r>
       <r>     3.5829    11.5000    21.8355 </r>
       <r>     3.6616    11.6619    22.7532 </r>
       <r>     3.7403    11.6830    23.6725 </r>
       <r>     3.8189    11.5756    24.5833 </r>
       <r>     3.8976    11.3256    25.4745 </r>
       <r>     3.9763    10.9348    26.3349 </r>
       <r>     4.0550    10.4601    27.1580 </r>
       <r>     4.1337    10.0147    27.9460 </r>
       <r>     4.2124     9.7451    28.7128 </r>
       <r>     4.2911     9.8005    29.4840 </r>
       <r>     4.3697    10.2840    30.2932 </r>
       <r>     4.4484    11.1802    31.1729 </r>
       <r>     4.5271    12.3037    32.1411 </r>
       <r>     4.6058    13.3306    33.1900 </r>
       <r>     4.6845    13.9219    34.2855 </r>
       <r>     4.7632    13.8668    35.3766 </r>
       <r>     4.8419    13.1593    36.4121 </r>
       <r>     4.9206    11.9817    37.3549 </r>
       <r>     4.9992    10.6337    38.1916 </r>
       <r>     5.0779     9.4515    38.9353 </r>
       <r>     5.1566     8.7291    39.6222 </r>
       <r>     5.2353     8.6357    40.3017 </r>
       <r>     5.3140     9.1510    41.0217 </r>
       <r>     5.3927    10.0696    41.8141 </r>
       <r>     5.4714    11.1031    42.6878 </r>
       <r>     5.5500    12.0312    43.6345 </r>
       <r>     5.6287    12.7939    44.6412 </r>
       <r>     5.7074    13.4652    45.7007 </r>
       <r>     5.7861    14.1587    46.8148 </r>
       <r>     5.8648    14.9688    47.9926 </r>
       <r>     5.9435    15.9883    49.2507 </r>
       <r>     6.0222    17.3283    50.6142 </r>
       <r>     6.1009    19.0508    52.1132 </r>
       <r>     6.1795    21.0170    53.7670 </r>
       <r>     6.2582    22.7635    55.5582 </r>
       <r>     6.3369    23.5561    57.4117 </r>
       <r>     6.4156    22.6830    59.1966 </r>
       <r>     6.4943    19.8693    60.7600 </r>
       <r>     6.5730    15.5398    61.9828 </r>
       <r>     6.6517    10.6978    62.8246 </r>
       <r>     6.7303     6.4527    63.3323 </r>
       <r>     6.8090     3.5119    63.6086 </r>
       <r>     6.8877     1.9678    63.7635 </r>
       <r>     6.9664     1.4543    63.8779 </r>
       <r>     7.0451     1.4732    63.9938 </r>
       <r>     7.1238     1.6446    64.1233 </r>
       <r>     7.2025     1.7833    64.2636 </r>
       <r>     7.2812     1.8496    64.4091 </r>
       <r>     7.3598     1.8691    64.5562 </r>
       <r>     7.4385     1.8729    64.7036 </r>
       <r>     7.5172     1.8743    64.8510 </r>
       <r>     7.5959     1.8712    64.9983 </r>
       <r>     7.6746     1.8592    65.1446 </r>
       <r>     7.7533     1.8389    65.2893 </r>
       <r>     7.8320     1.8143    65.4320 </r>
       <r>     7.9106     1.7880    65.5727 </r>
       <r>     7.9893     1.7621    65.7114 </r>
       <r>     8.0680     1.7411    65.8484 </r>
       <r>     8.1467     1.7303    65.9845 </r>
       <r>     8.2254     1.7301    66.1207 </r>
       <r>     8.3041     1.7328    66.2570 </r>
       <r>     8.3828     1.7286    66.3930 </r>
       <r>     8.4615     1.7128    66.5278 </r>
       <r>     8.5401     1.6889    66.6607 </r>
       <r>     8.6188     1.6657    66.7918 </r>
       <r>     8.6975     1.6519    66.9218 </r>
       <r>     8.7762     1.6521    67.0518 </r>
       <r>     8.8549     1.6648    67.1827 </r>
       <r>     8.9336     1.6821    67.3151 </r>
       <r>     9.0123     1.6936    67.4484 </r>
       <r>     9.0909     1.6908    67.5814 </r>
       <r>     9.1696     1.6720    67.7130 </r>
       <r>     9.2483     1.6430    67.8423 </r>
       <r>     9.3270     1.6151    67.9693 </r>
       <r>     9.4057     1.5985    68.0951 </r>
       <r>     9.4844     1.5964    68.2207 </r>
       <r>     9.5631     1.6015    68.3468 </r>
       <r>     9.6418     1.6001    68.4727 </r>
       <r>     9.7204     1.5816    68.5971 </r>
       <r>     9.7991     1.5466    68.7188 </r>
       <r>     9.8778     1.5081    68.8375 </r>
       <r>     9.9565     1.4834    68.9542 </r>
       <r>    10.0352     1.4851    69.0711 </r>
       <r>    10.1139     1.5124    69.1901 </r>
       <r>    10.1926     1.5493    69.3120 </r>
       <r>    10.2712     1.5701    69.4355 </r>
       <r>    10.3499     1.5536    69.5578 </r>
       <r>    10.4286     1.4979    69.6756 </r>
       <r>    10.5073     1.4230    69.7876 </r>
       <r>    10.5860     1.3570    69.8944 </r>
       <r>    10.6647     1.3180    69.9981 </r>
       <r>    10.7434     1.3060    70.1009 </r>
       <r>    10.8221     1.3090    70.2039 </r>
       <r>    10.9007     1.3133    70.3072 </r>
       <r>    10.9794     1.3092    70.4102 </r>
       <r>    11.0581     1.2950    70.5121 </r>
       <r>    11.1368     1.2820    70.6130 </r>
       <r>    11.2155     1.2968    70.7150 </r>
       <r>    11.2942     1.3701    70.8228 </r>
       <r>    11.3729     1.5142    70.9420 </r>
       <r>    11.4515     1.7062    71.0762 </r>
       <r>    11.5302     1.8959    71.2254 </r>
       <r>    11.6089     2.0345    71.3855 </r>
       <r>    11.6876     2.1007    71.5508 </r>
       <r>    11.7663     2.1049    71.7164 </r>
       <r>    11.8450     2.0715    71.8794 </r>
       <r>    11.9237     2.0195    72.0384 </r>
       <r>    12.0023     1.9581    72.1924 </r>
       <r>    12.0810     1.8952    72.3416 </r>
       <r>    12.1597     1.8432    72.4866 </r>
       <r>    12.2384     1.8140    72.6293 </r>
       <r>    12.3171     1.8102    72.7718 </r>
       <r>    12.3958     1.8220    72.9151 </r>
       <r>    12.4745     1.8349    73.0595 </r>
       <r>    12.5532     1.8379    73.2041 </r>
       <r>    12.6318     1.8284    73.3480 </r>
       <r>    12.7105     1.8120    73.4906 </r>
       <r>    12.7892     1.7977    73.6320 </r>
       <r>    12.8679     1.7911    73.7730 </r>
       <r>    12.9466     1.7900    73.9138 </r>
       <r>    13.0253     1.7856    74.0543 </r>
       <r>    13.1040     1.7711    74.1937 </r>
       <r>    13.1826     1.7487    74.3313 </r>
       <r>    13.2613     1.7302    74.4674 </r>
       <r>    13.3400     1.7285    74.6035 </r>
       <r>    13.4187     1.7489    74.7411 </r>
       <r>    13.4974     1.7858    74.8816 </r>
       <r>    13.5761     1.8281    75.0254 </r>
       <r>    13.6548     1.8656    75.1722 </r>
       <r>    13.7335     1.8921    75.3211 </r>
       <r>    13.8121     1.9056    75.4711 </r>
       <r>    13.8908     1.9088    75.6213 </r>
       <r>    13.9695     1.9082    75.7714 </r>
       <r>    14.0482     1.9104    75.9217 </r>
       <r>    14.1269     1.9172    76.0726 </r>
       <r>    14.2056     1.9259    76.2241 </r>
       <r>    14.2843     1.9328    76.3762 </r>
       <r>    14.3629     1.9368    76.5286 </r>
       <r>    14.4416     1.9371    76.6811 </r>
       <r>    14.5203     1.9308    76.8330 </r>
       <r>    14.5990     1.9139    76.9836 </r>
       <r>    14.6777     1.8871    77.1321 </r>
       <r>    14.7564     1.8590    77.2784 </r>
       <r>    14.8351     1.8408    77.4232 </r>
       <r>    14.9138     1.8369    77.5677 </r>
       <r>    14.9924     1.8401    77.7125 </r>
       <r>    15.0711     1.8348    77.8569 </r>
       <r>    15.1498     1.8058    77.9990 </r>
       <r>    15.2285     1.7469    78.1365 </r>
       <r>    15.3072     1.6644    78.2674 </r>
       <r>    15.3859     1.5733    78.3912 </r>
       <r>    15.4646     1.4902    78.5085 </r>
       <r>    15.5432     1.4263    78.6207 </r>
       <r>    15.6219     1.3836    78.7296 </r>
       <r>    15.7006     1.3560    78.8363 </r>
       <r>    15.7793     1.3327    78.9412 </r>
       <r>    15.8580     1.3028    79.0437 </r>
       <r>    15.9367     1.2600    79.1428 </r>
       <r>    16.0154     1.2067    79.2378 </r>
       <r>    16.0941     1.1567    79.3288 </r>
       <r>    16.1727     1.1321    79.4179 </r>
       <r>    16.2514     1.1497    79.5083 </r>
       <r>    16.3301     1.2019    79.6029 </r>
       <r>    16.4088     1.2459    79.7009 </r>
       <r>    16.4875     1.2185    79.7968 </r>
       <r>    16.5662     1.0746    79.8814 </r>
       <r>    16.6449     0.8215    79.9460 </r>
       <r>    16.7235     0.5203    79.9870 </r>
       <r>    16.8022     0.2507    80.0067 </r>
       <r>    16.8809     0.0666    80.0119 </r>
       <r>    16.9596    -0.0241    80.0100 </r>
       <r>    17.0383    -0.0477    80.0063 </r>
       <r>    17.1170    -0.0391    80.0032 </r>
       <r>    17.1957    -0.0232    80.0014 </r>
       <r>    17.2744    -0.0111    80.0005 </r>
       <r>    17.3530    -0.0044    80.0002 </r>
       <r>    17.4317    -0.0015    80.0000 </r>
       <r>    17.5104    -0.0004    80.0000 </r>
       <r>    17.5891    -0.0001    80.0000 </r>
       <r>    17.6678     0.0000    80.0000 </r>
       <r>    17.7465     0.0000    80.0000 </r>
       <r>    17.8252     0.0000    80.0000 </r>
       <r>    17.9038     0.0000    80.0000 </r>
       <r>    17.9825     0.0000    80.0000 </r>
       <r>    18.0612     0.0000    80.0000 </r>
       <r>    18.1399     0.0000    80.0000 </r>
       <r>    18.2186     0.0000    80.0000 </r>
       <r>    18.2973     0.0000    80.0000 </r>
       <r>    18.3760     0.0000    80.0000 </r>
       <r>    18.4547     0.0000    80.0000 </r>
       <r>    18.5333     0.0000    80.0000 </r>
       <r>    18.6120     0.0000    80.0000 </r>
       <r>    18.6907     0.0000    80.0000 </r>
       <r>    18.7694     0.0000    80.0000 </r>
       <r>    18.8481     0.0000    80.0000 </r>
       <r>    18.9268     0.0000    80.0000 </r>
       <r>    19.0055     0.0000    80.0000 </r>
       <r>    19.0841     0.0000    80.0000 </r>
       <r>    19.1628     0.0000    80.0000 </r>
       <r>    19.2415     0.0000    80.0000 </r>
       <r>    19.3202     0.0000    80.0000 </r>
       <r>    19.3989     0.0000    80.0000 </r>
       <r>    19.4776     0.0000    80.0000 </r>
       <r>    19.5563     0.0000    80.0000 </r>
       <r>    19.6350     0.0000    80.0000 </r>
       <r>    19.7136     0.0000    80.0000 </r>
      </set>
     </set>
    </array>
   </total>
  </dos>
 </calculation>
 <structure name="finalpos" >
  <crystal>
   <varray name="basis" >
    <v>      -1.98768100      -4.07510168      -1.98768100 </v>
    <v>      -3.97395564       2.03531710       1.98920024 </v>
    <v>       1.98920024       2.03531710      -3.97395564 </v>
   </varray>
   <i name="volume">     96.47910526 </i>
   <varray name="rec_basis" >
    <v>      -0.12579836      -0.12267325      -0.12579836 </v>
    <v>      -0.20978464       0.12285408      -0.04208820 </v>
    <v>      -0.04208820       0.12285408      -0.20978464 </v>
   </varray>
  </crystal>
  <varray name="positions" >
   <v>       0.00000000       0.33106383       0.66893617 </v>
   <v>       0.50000000       0.16642079       0.83357921 </v>
   <v>       0.50000000       0.49219831       0.50780169 </v>
   <v>       0.00000000       0.00934495       0.99065505 </v>
   <v>       0.50000000       0.83245425       0.16754575 </v>
   <v>       0.00000000       0.66851787       0.33148213 </v>
  </varray>
 </structure>
</modeling>
