<?xml version="1.0" encoding="ISO-8859-1"?>
<modeling>
 <generator>
  <i name="program" type="string">vasp </i>
  <i name="version" type="string">5.3.5  </i>
  <i name="subversion" type="string">31Mar14 (build Jun 20 2014 13:15:13) complex                          parallel </i>
  <i name="platform" type="string">LinuxIFC </i>
  <i name="date" type="string">2025 11 28 </i>
  <i name="time" type="string">13:20:02 </i>
 </generator>
 <incar>
  <i type="string" name="PREC">accurate</i>
  <i type="int" name="IALGO">    68</i>
  <i type="logical" name="ADDGRID"> T  </i>
  <i type="int" name="NELM">   200</i>
  <i type="int" name="NELMIN">     4</i>
  <i type="int" name="IBRION">     2</i>
  <i name="EDIFF">      0.00000100</i>
  <i name="EDIFFG">     -0.02000000</i>
  <i type="int" name="NSW">    30</i>
  <i type="int" name="ISIF">     3</i>
  <i name="ENCUT">    500.00000000</i>
  <i type="logical" name="LREAL"> F  </i>
  <i type="int" name="ISMEAR">     1</i>
  <i name="SIGMA">      0.30000000</i>
  <i type="logical" name="LWAVE"> F  </i>
  <i type="logical" name="LCHARG"> F  </i>
  <i type="int" name="NELM">   200</i>
 </incar>
 <kpoints>
  <generation param="Auto">
   <i name="subdivisionlength">     70.00000000 </i>
   <v type="int" name="divisions">      24       24        6 </v>
   <v name="usershift">      0.00000000       0.00000000       0.00000000 </v>
   <v name="genvec1">      0.04166667       0.00000000       0.00000000 </v>
   <v name="genvec2">      0.00000000       0.04166667       0.00000000 </v>
   <v name="genvec3">      0.00000000       0.00000000       0.16666667 </v>
   <v name="shift">      0.00000000       0.00000000       0.00000000 </v>
  </generation>
  <varray name="kpointlist" >
   <v>       0.00000000       0.00000000       0.00000000 </v>
   <v>       0.04166667       0.00000000       0.00000000 </v>
   <v>       0.08333333       0.00000000       0.00000000 </v>
   <v>       0.12500000       0.00000000       0.00000000 </v>
   <v>       0.16666667       0.00000000       0.00000000 </v>
   <v>       0.20833333       0.00000000       0.00000000 </v>
   <v>       0.25000000       0.00000000       0.00000000 </v>
   <v>       0.29166667       0.00000000       0.00000000 </v>
   <v>       0.33333333       0.00000000       0.00000000 </v>
   <v>       0.37500000       0.00000000       0.00000000 </v>
   <v>       0.41666667       0.00000000       0.00000000 </v>
   <v>       0.45833333       0.00000000       0.00000000 </v>
   <v>       0.50000000       0.00000000       0.00000000 </v>
   <v>       0.04166667       0.04166667       0.00000000 </v>
   <v>       0.08333333       0.04166667       0.00000000 </v>
   <v>       0.12500000       0.04166667       0.00000000 </v>
   <v>       0.16666667       0.04166667       0.00000000 </v>
   <v>       0.20833333       0.04166667       0.00000000 </v>
   <v>       0.25000000       0.04166667       0.00000000 </v>
   <v>       0.29166667       0.04166667       0.00000000 </v>
   <v>       0.33333333       0.04166667       0.00000000 </v>
   <v>       0.37500000       0.04166667       0.00000000 </v>
   <v>       0.41666667       0.04166667       0.00000000 </v>
   <v>       0.45833333       0.04166667       0.00000000 </v>
   <v>       0.50000000       0.04166667       0.00000000 </v>
   <v>       0.08333333       0.08333333       0.00000000 </v>
   <v>       0.12500000       0.08333333       0.00000000 </v>
   <v>       0.16666667       0.08333333       0.00000000 </v>
   <v>       0.20833333       0.08333333       0.00000000 </v>
   <v>       0.25000000       0.08333333       0.00000000 </v>
   <v>       0.29166667       0.08333333       0.00000000 </v>
   <v>       0.33333333       0.08333333       0.00000000 </v>
   <v>       0.37500000       0.08333333       0.00000000 </v>
   <v>       0.41666667       0.08333333       0.00000000 </v>
   <v>       0.45833333       0.08333333       0.00000000 </v>
   <v>       0.50000000       0.08333333       0.00000000 </v>
   <v>       0.12500000       0.12500000       0.00000000 </v>
   <v>       0.16666667       0.12500000       0.00000000 </v>
   <v>       0.20833333       0.12500000       0.00000000 </v>
   <v>       0.25000000       0.12500000       0.00000000 </v>
   <v>       0.29166667       0.12500000       0.00000000 </v>
   <v>       0.33333333       0.12500000       0.00000000 </v>
   <v>       0.37500000       0.12500000       0.00000000 </v>
   <v>       0.41666667       0.12500000       0.00000000 </v>
   <v>       0.45833333       0.12500000       0.00000000 </v>
   <v>       0.50000000       0.12500000       0.00000000 </v>
   <v>       0.16666667       0.16666667       0.00000000 </v>
   <v>       0.20833333       0.16666667       0.00000000 </v>
   <v>       0.25000000       0.16666667       0.00000000 </v>
   <v>       0.29166667       0.16666667       0.00000000 </v>
   <v>       0.33333333       0.16666667       0.00000000 </v>
   <v>       0.37500000       0.16666667       0.00000000 </v>
   <v>       0.41666667       0.16666667       0.00000000 </v>
   <v>       0.45833333       0.16666667       0.00000000 </v>
   <v>       0.50000000       0.16666667       0.00000000 </v>
   <v>       0.20833333       0.20833333       0.00000000 </v>
   <v>       0.25000000       0.20833333       0.00000000 </v>
   <v>       0.29166667       0.20833333       0.00000000 </v>
   <v>       0.33333333       0.20833333       0.00000000 </v>
   <v>       0.37500000       0.20833333       0.00000000 </v>
   <v>       0.41666667       0.20833333       0.00000000 </v>
   <v>       0.45833333       0.20833333       0.00000000 </v>
   <v>       0.50000000       0.20833333       0.00000000 </v>
   <v>       0.25000000       0.25000000       0.00000000 </v>
   <v>       0.29166667       0.25000000       0.00000000 </v>
   <v>       0.33333333       0.25000000       0.00000000 </v>
   <v>       0.37500000       0.25000000       0.00000000 </v>
   <v>       0.41666667       0.25000000       0.00000000 </v>
   <v>       0.45833333       0.25000000       0.00000000 </v>
   <v>       0.50000000       0.25000000       0.00000000 </v>
   <v>       0.29166667       0.29166667       0.00000000 </v>
   <v>       0.33333333       0.29166667       0.00000000 </v>
   <v>       0.37500000       0.29166667       0.00000000 </v>
   <v>       0.41666667       0.29166667       0.00000000 </v>
   <v>       0.45833333       0.29166667       0.00000000 </v>
   <v>       0.50000000       0.29166667       0.00000000 </v>
   <v>       0.33333333       0.33333333       0.00000000 </v>
   <v>       0.37500000       0.33333333       0.00000000 </v>
   <v>       0.41666667       0.33333333       0.00000000 </v>
   <v>       0.45833333       0.33333333       0.00000000 </v>
   <v>       0.50000000       0.33333333       0.00000000 </v>
   <v>       0.37500000       0.37500000       0.00000000 </v>
   <v>       0.41666667       0.37500000       0.00000000 </v>
   <v>       0.45833333       0.37500000       0.00000000 </v>
   <v>       0.50000000       0.37500000       0.00000000 </v>
   <v>       0.41666667       0.41666667       0.00000000 </v>
   <v>       0.45833333       0.41666667       0.00000000 </v>
   <v>       0.50000000       0.41666667       0.00000000 </v>
   <v>       0.45833333       0.45833333       0.00000000 </v>
   <v>       0.50000000       0.45833333       0.00000000 </v>
   <v>       0.50000000       0.50000000       0.00000000 </v>
   <v>       0.00000000       0.00000000       0.16666667 </v>
   <v>       0.04166667       0.00000000       0.16666667 </v>
   <v>       0.08333333       0.00000000       0.16666667 </v>
   <v>       0.12500000       0.00000000       0.16666667 </v>
   <v>       0.16666667       0.00000000       0.16666667 </v>
   <v>       0.20833333       0.00000000       0.16666667 </v>
   <v>       0.25000000       0.00000000       0.16666667 </v>
   <v>       0.29166667       0.00000000       0.16666667 </v>
   <v>       0.33333333       0.00000000       0.16666667 </v>
   <v>       0.37500000       0.00000000       0.16666667 </v>
   <v>       0.41666667       0.00000000       0.16666667 </v>
   <v>       0.45833333       0.00000000       0.16666667 </v>
   <v>       0.50000000       0.00000000       0.16666667 </v>
   <v>       0.04166667       0.04166667       0.16666667 </v>
   <v>       0.08333333       0.04166667       0.16666667 </v>
   <v>       0.12500000       0.04166667       0.16666667 </v>
   <v>       0.16666667       0.04166667       0.16666667 </v>
   <v>       0.20833333       0.04166667       0.16666667 </v>
   <v>       0.25000000       0.04166667       0.16666667 </v>
   <v>       0.29166667       0.04166667       0.16666667 </v>
   <v>       0.33333333       0.04166667       0.16666667 </v>
   <v>       0.37500000       0.04166667       0.16666667 </v>
   <v>       0.41666667       0.04166667       0.16666667 </v>
   <v>       0.45833333       0.04166667       0.16666667 </v>
   <v>       0.50000000       0.04166667       0.16666667 </v>
   <v>       0.08333333       0.08333333       0.16666667 </v>
   <v>       0.12500000       0.08333333       0.16666667 </v>
   <v>       0.16666667       0.08333333       0.16666667 </v>
   <v>       0.20833333       0.08333333       0.16666667 </v>
   <v>       0.25000000       0.08333333       0.16666667 </v>
   <v>       0.29166667       0.08333333       0.16666667 </v>
   <v>       0.33333333       0.08333333       0.16666667 </v>
   <v>       0.37500000       0.08333333       0.16666667 </v>
   <v>       0.41666667       0.08333333       0.16666667 </v>
   <v>       0.45833333       0.08333333       0.16666667 </v>
   <v>       0.50000000       0.08333333       0.16666667 </v>
   <v>       0.12500000       0.12500000       0.16666667 </v>
   <v>       0.16666667       0.12500000       0.16666667 </v>
   <v>       0.20833333       0.12500000       0.16666667 </v>
   <v>       0.25000000       0.12500000       0.16666667 </v>
   <v>       0.29166667       0.12500000       0.16666667 </v>
   <v>       0.33333333       0.12500000       0.16666667 </v>
   <v>       0.37500000       0.12500000       0.16666667 </v>
   <v>       0.41666667       0.12500000       0.16666667 </v>
   <v>       0.45833333       0.12500000       0.16666667 </v>
   <v>       0.50000000       0.12500000       0.16666667 </v>
   <v>       0.16666667       0.16666667       0.16666667 </v>
   <v>       0.20833333       0.16666667       0.16666667 </v>
   <v>       0.25000000       0.16666667       0.16666667 </v>
   <v>       0.29166667       0.16666667       0.16666667 </v>
   <v>       0.33333333       0.16666667       0.16666667 </v>
   <v>       0.37500000       0.16666667       0.16666667 </v>
   <v>       0.41666667       0.16666667       0.16666667 </v>
   <v>       0.45833333       0.16666667       0.16666667 </v>
   <v>       0.50000000       0.16666667       0.16666667 </v>
   <v>       0.20833333       0.20833333       0.16666667 </v>
   <v>       0.25000000       0.20833333       0.16666667 </v>
   <v>       0.29166667       0.20833333       0.16666667 </v>
   <v>       0.33333333       0.20833333       0.16666667 </v>
   <v>       0.37500000       0.20833333       0.16666667 </v>
   <v>       0.41666667       0.20833333       0.16666667 </v>
   <v>       0.45833333       0.20833333       0.16666667 </v>
   <v>       0.50000000       0.20833333       0.16666667 </v>
   <v>       0.25000000       0.25000000       0.16666667 </v>
   <v>       0.29166667       0.25000000       0.16666667 </v>
   <v>       0.33333333       0.25000000       0.16666667 </v>
   <v>       0.37500000       0.25000000       0.16666667 </v>
   <v>       0.41666667       0.25000000       0.16666667 </v>
   <v>       0.45833333       0.25000000       0.16666667 </v>
   <v>       0.50000000       0.25000000       0.16666667 </v>
   <v>       0.29166667       0.29166667       0.16666667 </v>
   <v>       0.33333333       0.29166667       0.16666667 </v>
   <v>       0.37500000       0.29166667       0.16666667 </v>
   <v>       0.41666667       0.29166667       0.16666667 </v>
   <v>       0.45833333       0.29166667       0.16666667 </v>
   <v>       0.50000000       0.29166667       0.16666667 </v>
   <v>       0.33333333       0.33333333       0.16666667 </v>
   <v>       0.37500000       0.33333333       0.16666667 </v>
   <v>       0.41666667       0.33333333       0.16666667 </v>
   <v>       0.45833333       0.33333333       0.16666667 </v>
   <v>       0.50000000       0.33333333       0.16666667 </v>
   <v>       0.37500000       0.37500000       0.16666667 </v>
   <v>       0.41666667       0.37500000       0.16666667 </v>
   <v>       0.45833333       0.37500000       0.16666667 </v>
   <v>       0.50000000       0.37500000       0.16666667 </v>
   <v>       0.41666667       0.41666667       0.16666667 </v>
   <v>       0.45833333       0.41666667       0.16666667 </v>
   <v>       0.50000000       0.41666667       0.16666667 </v>
   <v>       0.45833333       0.45833333       0.16666667 </v>
   <v>       0.50000000       0.45833333       0.16666667 </v>
   <v>       0.50000000       0.50000000       0.16666667 </v>
   <v>       0.00000000       0.00000000       0.33333333 </v>
   <v>       0.04166667       0.00000000       0.33333333 </v>
   <v>       0.08333333       0.00000000       0.33333333 </v>
   <v>       0.12500000       0.00000000       0.33333333 </v>
   <v>       0.16666667       0.00000000       0.33333333 </v>
   <v>       0.20833333       0.00000000       0.33333333 </v>
   <v>       0.25000000       0.00000000       0.33333333 </v>
   <v>       0.29166667       0.00000000       0.33333333 </v>
   <v>       0.33333333       0.00000000       0.33333333 </v>
   <v>       0.37500000       0.00000000       0.33333333 </v>
   <v>       0.41666667       0.00000000       0.33333333 </v>
   <v>       0.45833333       0.00000000       0.33333333 </v>
   <v>       0.50000000       0.00000000       0.33333333 </v>
   <v>       0.04166667       0.04166667       0.33333333 </v>
   <v>       0.08333333       0.04166667       0.33333333 </v>
   <v>       0.12500000       0.04166667       0.33333333 </v>
   <v>       0.16666667       0.04166667       0.33333333 </v>
   <v>       0.20833333       0.04166667       0.33333333 </v>
   <v>       0.25000000       0.04166667       0.33333333 </v>
   <v>       0.29166667       0.04166667       0.33333333 </v>
   <v>       0.33333333       0.04166667       0.33333333 </v>
   <v>       0.37500000       0.04166667       0.33333333 </v>
   <v>       0.41666667       0.04166667       0.33333333 </v>
   <v>       0.45833333       0.04166667       0.33333333 </v>
   <v>       0.50000000       0.04166667       0.33333333 </v>
   <v>       0.08333333       0.08333333       0.33333333 </v>
   <v>       0.12500000       0.08333333       0.33333333 </v>
   <v>       0.16666667       0.08333333       0.33333333 </v>
   <v>       0.20833333       0.08333333       0.33333333 </v>
   <v>       0.25000000       0.08333333       0.33333333 </v>
   <v>       0.29166667       0.08333333       0.33333333 </v>
   <v>       0.33333333       0.08333333       0.33333333 </v>
   <v>       0.37500000       0.08333333       0.33333333 </v>
   <v>       0.41666667       0.08333333       0.33333333 </v>
   <v>       0.45833333       0.08333333       0.33333333 </v>
   <v>       0.50000000       0.08333333       0.33333333 </v>
   <v>       0.12500000       0.12500000       0.33333333 </v>
   <v>       0.16666667       0.12500000       0.33333333 </v>
   <v>       0.20833333       0.12500000       0.33333333 </v>
   <v>       0.25000000       0.12500000       0.33333333 </v>
   <v>       0.29166667       0.12500000       0.33333333 </v>
   <v>       0.33333333       0.12500000       0.33333333 </v>
   <v>       0.37500000       0.12500000       0.33333333 </v>
   <v>       0.41666667       0.12500000       0.33333333 </v>
   <v>       0.45833333       0.12500000       0.33333333 </v>
   <v>       0.50000000       0.12500000       0.33333333 </v>
   <v>       0.16666667       0.16666667       0.33333333 </v>
   <v>       0.20833333       0.16666667       0.33333333 </v>
   <v>       0.25000000       0.16666667       0.33333333 </v>
   <v>       0.29166667       0.16666667       0.33333333 </v>
   <v>       0.33333333       0.16666667       0.33333333 </v>
   <v>       0.37500000       0.16666667       0.33333333 </v>
   <v>       0.41666667       0.16666667       0.33333333 </v>
   <v>       0.45833333       0.16666667       0.33333333 </v>
   <v>       0.50000000       0.16666667       0.33333333 </v>
   <v>       0.20833333       0.20833333       0.33333333 </v>
   <v>       0.25000000       0.20833333       0.33333333 </v>
   <v>       0.29166667       0.20833333       0.33333333 </v>
   <v>       0.33333333       0.20833333       0.33333333 </v>
   <v>       0.37500000       0.20833333       0.33333333 </v>
   <v>       0.41666667       0.20833333       0.33333333 </v>
   <v>       0.45833333       0.20833333       0.33333333 </v>
   <v>       0.50000000       0.20833333       0.33333333 </v>
   <v>       0.25000000       0.25000000       0.33333333 </v>
   <v>       0.29166667       0.25000000       0.33333333 </v>
   <v>       0.33333333       0.25000000       0.33333333 </v>
   <v>       0.37500000       0.25000000       0.33333333 </v>
   <v>       0.41666667       0.25000000       0.33333333 </v>
   <v>       0.45833333       0.25000000       0.33333333 </v>
   <v>       0.50000000       0.25000000       0.33333333 </v>
   <v>       0.29166667       0.29166667       0.33333333 </v>
   <v>       0.33333333       0.29166667       0.33333333 </v>
   <v>       0.37500000       0.29166667       0.33333333 </v>
   <v>       0.41666667       0.29166667       0.33333333 </v>
   <v>       0.45833333       0.29166667       0.33333333 </v>
   <v>       0.50000000       0.29166667       0.33333333 </v>
   <v>       0.33333333       0.33333333       0.33333333 </v>
   <v>       0.37500000       0.33333333       0.33333333 </v>
   <v>       0.41666667       0.33333333       0.33333333 </v>
   <v>       0.45833333       0.33333333       0.33333333 </v>
   <v>       0.50000000       0.33333333       0.33333333 </v>
   <v>       0.37500000       0.37500000       0.33333333 </v>
   <v>       0.41666667       0.37500000       0.33333333 </v>
   <v>       0.45833333       0.37500000       0.33333333 </v>
   <v>       0.50000000       0.37500000       0.33333333 </v>
   <v>       0.41666667       0.41666667       0.33333333 </v>
   <v>       0.45833333       0.41666667       0.33333333 </v>
   <v>       0.50000000       0.41666667       0.33333333 </v>
   <v>       0.45833333       0.45833333       0.33333333 </v>
   <v>       0.50000000       0.45833333       0.33333333 </v>
   <v>       0.50000000       0.50000000       0.33333333 </v>
   <v>       0.00000000       0.00000000       0.50000000 </v>
   <v>       0.04166667       0.00000000       0.50000000 </v>
   <v>       0.08333333       0.00000000       0.50000000 </v>
   <v>       0.12500000       0.00000000       0.50000000 </v>
   <v>       0.16666667       0.00000000       0.50000000 </v>
   <v>       0.20833333       0.00000000       0.50000000 </v>
   <v>       0.25000000       0.00000000       0.50000000 </v>
   <v>       0.29166667       0.00000000       0.50000000 </v>
   <v>       0.33333333       0.00000000       0.50000000 </v>
   <v>       0.37500000       0.00000000       0.50000000 </v>
   <v>       0.41666667       0.00000000       0.50000000 </v>
   <v>       0.45833333       0.00000000       0.50000000 </v>
   <v>       0.50000000       0.00000000       0.50000000 </v>
   <v>       0.04166667       0.04166667       0.50000000 </v>
   <v>       0.08333333       0.04166667       0.50000000 </v>
   <v>       0.12500000       0.04166667       0.50000000 </v>
   <v>       0.16666667       0.04166667       0.50000000 </v>
   <v>       0.20833333       0.04166667       0.50000000 </v>
   <v>       0.25000000       0.04166667       0.50000000 </v>
   <v>       0.29166667       0.04166667       0.50000000 </v>
   <v>       0.33333333       0.04166667       0.50000000 </v>
   <v>       0.37500000       0.04166667       0.50000000 </v>
   <v>       0.41666667       0.04166667       0.50000000 </v>
   <v>       0.45833333       0.04166667       0.50000000 </v>
   <v>       0.50000000       0.04166667       0.50000000 </v>
   <v>       0.08333333       0.08333333       0.50000000 </v>
   <v>       0.12500000       0.08333333       0.50000000 </v>
   <v>       0.16666667       0.08333333       0.50000000 </v>
   <v>       0.20833333       0.08333333       0.50000000 </v>
   <v>       0.25000000       0.08333333       0.50000000 </v>
   <v>       0.29166667       0.08333333       0.50000000 </v>
   <v>       0.33333333       0.08333333       0.50000000 </v>
   <v>       0.37500000       0.08333333       0.50000000 </v>
   <v>       0.41666667       0.08333333       0.50000000 </v>
   <v>       0.45833333       0.08333333       0.50000000 </v>
   <v>       0.50000000       0.08333333       0.50000000 </v>
   <v>       0.12500000       0.12500000       0.50000000 </v>
   <v>       0.16666667       0.12500000       0.50000000 </v>
   <v>       0.20833333       0.12500000       0.50000000 </v>
   <v>       0.25000000       0.12500000       0.50000000 </v>
   <v>       0.29166667       0.12500000       0.50000000 </v>
   <v>       0.33333333       0.12500000       0.50000000 </v>
   <v>       0.37500000       0.12500000       0.50000000 </v>
   <v>       0.41666667       0.12500000       0.50000000 </v>
   <v>       0.45833333       0.12500000       0.50000000 </v>
   <v>       0.50000000       0.12500000       0.50000000 </v>
   <v>       0.16666667       0.16666667       0.50000000 </v>
   <v>       0.20833333       0.16666667       0.50000000 </v>
   <v>       0.25000000       0.16666667       0.50000000 </v>
   <v>       0.29166667       0.16666667       0.50000000 </v>
   <v>       0.33333333       0.16666667       0.50000000 </v>
   <v>       0.37500000       0.16666667       0.50000000 </v>
   <v>       0.41666667       0.16666667       0.50000000 </v>
   <v>       0.45833333       0.16666667       0.50000000 </v>
   <v>       0.50000000       0.16666667       0.50000000 </v>
   <v>       0.20833333       0.20833333       0.50000000 </v>
   <v>       0.25000000       0.20833333       0.50000000 </v>
   <v>       0.29166667       0.20833333       0.50000000 </v>
   <v>       0.33333333       0.20833333       0.50000000 </v>
   <v>       0.37500000       0.20833333       0.50000000 </v>
   <v>       0.41666667       0.20833333       0.50000000 </v>
   <v>       0.45833333       0.20833333       0.50000000 </v>
   <v>       0.50000000       0.20833333       0.50000000 </v>
   <v>       0.25000000       0.25000000       0.50000000 </v>
   <v>       0.29166667       0.25000000       0.50000000 </v>
   <v>       0.33333333       0.25000000       0.50000000 </v>
   <v>       0.37500000       0.25000000       0.50000000 </v>
   <v>       0.41666667       0.25000000       0.50000000 </v>
   <v>       0.45833333       0.25000000       0.50000000 </v>
   <v>       0.50000000       0.25000000       0.50000000 </v>
   <v>       0.29166667       0.29166667       0.50000000 </v>
   <v>       0.33333333       0.29166667       0.50000000 </v>
   <v>       0.37500000       0.29166667       0.50000000 </v>
   <v>       0.41666667       0.29166667       0.50000000 </v>
   <v>       0.45833333       0.29166667       0.50000000 </v>
   <v>       0.50000000       0.29166667       0.50000000 </v>
   <v>       0.33333333       0.33333333       0.50000000 </v>
   <v>       0.37500000       0.33333333       0.50000000 </v>
   <v>       0.41666667       0.33333333       0.50000000 </v>
   <v>       0.45833333       0.33333333       0.50000000 </v>
   <v>       0.50000000       0.33333333       0.50000000 </v>
   <v>       0.37500000       0.37500000       0.50000000 </v>
   <v>       0.41666667       0.37500000       0.50000000 </v>
   <v>       0.45833333       0.37500000       0.50000000 </v>
   <v>       0.50000000       0.37500000       0.50000000 </v>
   <v>       0.41666667       0.41666667       0.50000000 </v>
   <v>       0.45833333       0.41666667       0.50000000 </v>
   <v>       0.50000000       0.41666667       0.50000000 </v>
   <v>       0.45833333       0.45833333       0.50000000 </v>
   <v>       0.50000000       0.45833333       0.50000000 </v>
   <v>       0.50000000       0.50000000       0.50000000 </v>
  </varray>
  <varray name="weights" >
   <v>       0.00028935 </v>
   <v>       0.00115741 </v>
   <v>       0.00115741 </v>
   <v>       0.00115741 </v>
   <v>       0.00115741 </v>
   <v>       0.00115741 </v>
   <v>       0.00115741 </v>
   <v>       0.00115741 </v>
   <v>       0.00115741 </v>
   <v>       0.00115741 </v>
   <v>       0.00115741 </v>
   <v>       0.00115741 </v>
   <v>       0.00057870 </v>
   <v>       0.00115741 </v>
   <v>       0.00231481 </v>
   <v>       0.00231481 </v>
   <v>       0.00231481 </v>
   <v>       0.00231481 </v>
   <v>       0.00231481 </v>
   <v>       0.00231481 </v>
   <v>       0.00231481 </v>
   <v>       0.00231481 </v>
   <v>       0.00231481 </v>
   <v>       0.00231481 </v>
   <v>       0.00115741 </v>
   <v>       0.00115741 </v>
   <v>       0.00231481 </v>
   <v>       0.00231481 </v>
   <v>       0.00231481 </v>
   <v>       0.00231481 </v>
   <v>       0.00231481 </v>
   <v>       0.00231481 </v>
   <v>       0.00231481 </v>
   <v>       0.00231481 </v>
   <v>       0.00231481 </v>
   <v>       0.00115741 </v>
   <v>       0.00115741 </v>
   <v>       0.00231481 </v>
   <v>       0.00231481 </v>
   <v>       0.00231481 </v>
   <v>       0.00231481 </v>
   <v>       0.00231481 </v>
   <v>       0.00231481 </v>
   <v>       0.00231481 </v>
   <v>       0.00231481 </v>
   <v>       0.00115741 </v>
   <v>       0.00115741 </v>
   <v>       0.00231481 </v>
   <v>       0.00231481 </v>
   <v>       0.00231481 </v>
   <v>       0.00231481 </v>
   <v>       0.00231481 </v>
   <v>       0.00231481 </v>
   <v>       0.00231481 </v>
   <v>       0.00115741 </v>
   <v>       0.00115741 </v>
   <v>       0.00231481 </v>
   <v>       0.00231481 </v>
   <v>       0.00231481 </v>
   <v>       0.00231481 </v>
   <v>       0.00231481 </v>
   <v>       0.00231481 </v>
   <v>       0.00115741 </v>
   <v>       0.00115741 </v>
   <v>       0.00231481 </v>
   <v>       0.00231481 </v>
   <v>       0.00231481 </v>
   <v>       0.00231481 </v>
   <v>       0.00231481 </v>
   <v>       0.00115741 </v>
   <v>       0.00115741 </v>
   <v>       0.00231481 </v>
   <v>       0.00231481 </v>
   <v>       0.00231481 </v>
   <v>       0.00231481 </v>
   <v>       0.00115741 </v>
   <v>       0.00115741 </v>
   <v>       0.00231481 </v>
   <v>       0.00231481 </v>
   <v>       0.00231481 </v>
   <v>       0.00115741 </v>
   <v>       0.00115741 </v>
   <v>       0.00231481 </v>
   <v>       0.00231481 </v>
   <v>       0.00115741 </v>
   <v>       0.00115741 </v>
   <v>       0.00231481 </v>
   <v>       0.00115741 </v>
   <v>       0.00115741 </v>
   <v>       0.00115741 </v>
   <v>       0.00028935 </v>
   <v>       0.00057870 </v>
   <v>       0.00231481 </v>
   <v>       0.00231481 </v>
   <v>       0.00231481 </v>
   <v>       0.00231481 </v>
   <v>       0.00231481 </v>
   <v>       0.00231481 </v>
   <v>       0.00231481 </v>
   <v>       0.00231481 </v>
   <v>       0.00231481 </v>
   <v>       0.00231481 </v>
   <v>       0.00231481 </v>
   <v>       0.00115741 </v>
   <v>       0.00231481 </v>
   <v>       0.00462963 </v>
   <v>       0.00462963 </v>
   <v>       0.00462963 </v>
   <v>       0.00462963 </v>
   <v>       0.00462963 </v>
   <v>       0.00462963 </v>
   <v>       0.00462963 </v>
   <v>       0.00462963 </v>
   <v>       0.00462963 </v>
   <v>       0.00462963 </v>
   <v>       0.00231481 </v>
   <v>       0.00231481 </v>
   <v>       0.00462963 </v>
   <v>       0.00462963 </v>
   <v>       0.00462963 </v>
   <v>       0.00462963 </v>
   <v>       0.00462963 </v>
   <v>       0.00462963 </v>
   <v>       0.00462963 </v>
   <v>       0.00462963 </v>
   <v>       0.00462963 </v>
   <v>       0.00231481 </v>
   <v>       0.00231481 </v>
   <v>       0.00462963 </v>
   <v>       0.00462963 </v>
   <v>       0.00462963 </v>
   <v>       0.00462963 </v>
   <v>       0.00462963 </v>
   <v>       0.00462963 </v>
   <v>       0.00462963 </v>
   <v>       0.00462963 </v>
   <v>       0.00231481 </v>
   <v>       0.00231481 </v>
   <v>       0.00462963 </v>
   <v>       0.00462963 </v>
   <v>       0.00462963 </v>
   <v>       0.00462963 </v>
   <v>       0.00462963 </v>
   <v>       0.00462963 </v>
   <v>       0.00462963 </v>
   <v>       0.00231481 </v>
   <v>       0.00231481 </v>
   <v>       0.00462963 </v>
   <v>       0.00462963 </v>
   <v>       0.00462963 </v>
   <v>       0.00462963 </v>
   <v>       0.00462963 </v>
   <v>       0.00462963 </v>
   <v>       0.00231481 </v>
   <v>       0.00231481 </v>
   <v>       0.00462963 </v>
   <v>       0.00462963 </v>
   <v>       0.00462963 </v>
   <v>       0.00462963 </v>
   <v>       0.00462963 </v>
   <v>       0.00231481 </v>
   <v>       0.00231481 </v>
   <v>       0.00462963 </v>
   <v>       0.00462963 </v>
   <v>       0.00462963 </v>
   <v>       0.00462963 </v>
   <v>       0.00231481 </v>
   <v>       0.00231481 </v>
   <v>       0.00462963 </v>
   <v>       0.00462963 </v>
   <v>       0.00462963 </v>
   <v>       0.00231481 </v>
   <v>       0.00231481 </v>
   <v>       0.00462963 </v>
   <v>       0.00462963 </v>
   <v>       0.00231481 </v>
   <v>       0.00231481 </v>
   <v>       0.00462963 </v>
   <v>       0.00231481 </v>
   <v>       0.00231481 </v>
   <v>       0.00231481 </v>
   <v>       0.00057870 </v>
   <v>       0.00057870 </v>
   <v>       0.00231481 </v>
   <v>       0.00231481 </v>
   <v>       0.00231481 </v>
   <v>       0.00231481 </v>
   <v>       0.00231481 </v>
   <v>       0.00231481 </v>
   <v>       0.00231481 </v>
   <v>       0.00231481 </v>
   <v>       0.00231481 </v>
   <v>       0.00231481 </v>
   <v>       0.00231481 </v>
   <v>       0.00115741 </v>
   <v>       0.00231481 </v>
   <v>       0.00462963 </v>
   <v>       0.00462963 </v>
   <v>       0.00462963 </v>
   <v>       0.00462963 </v>
   <v>       0.00462963 </v>
   <v>       0.00462963 </v>
   <v>       0.00462963 </v>
   <v>       0.00462963 </v>
   <v>       0.00462963 </v>
   <v>       0.00462963 </v>
   <v>       0.00231481 </v>
   <v>       0.00231481 </v>
   <v>       0.00462963 </v>
   <v>       0.00462963 </v>
   <v>       0.00462963 </v>
   <v>       0.00462963 </v>
   <v>       0.00462963 </v>
   <v>       0.00462963 </v>
   <v>       0.00462963 </v>
   <v>       0.00462963 </v>
   <v>       0.00462963 </v>
   <v>       0.00231481 </v>
   <v>       0.00231481 </v>
   <v>       0.00462963 </v>
   <v>       0.00462963 </v>
   <v>       0.00462963 </v>
   <v>       0.00462963 </v>
   <v>       0.00462963 </v>
   <v>       0.00462963 </v>
   <v>       0.00462963 </v>
   <v>       0.00462963 </v>
   <v>       0.00231481 </v>
   <v>       0.00231481 </v>
   <v>       0.00462963 </v>
   <v>       0.00462963 </v>
   <v>       0.00462963 </v>
   <v>       0.00462963 </v>
   <v>       0.00462963 </v>
   <v>       0.00462963 </v>
   <v>       0.00462963 </v>
   <v>       0.00231481 </v>
   <v>       0.00231481 </v>
   <v>       0.00462963 </v>
   <v>       0.00462963 </v>
   <v>       0.00462963 </v>
   <v>       0.00462963 </v>
   <v>       0.00462963 </v>
   <v>       0.00462963 </v>
   <v>       0.00231481 </v>
   <v>       0.00231481 </v>
   <v>       0.00462963 </v>
   <v>       0.00462963 </v>
   <v>       0.00462963 </v>
   <v>       0.00462963 </v>
   <v>       0.00462963 </v>
   <v>       0.00231481 </v>
   <v>       0.00231481 </v>
   <v>       0.00462963 </v>
   <v>       0.00462963 </v>
   <v>       0.00462963 </v>
   <v>       0.00462963 </v>
   <v>       0.00231481 </v>
   <v>       0.00231481 </v>
   <v>       0.00462963 </v>
   <v>       0.00462963 </v>
   <v>       0.00462963 </v>
   <v>       0.00231481 </v>
   <v>       0.00231481 </v>
   <v>       0.00462963 </v>
   <v>       0.00462963 </v>
   <v>       0.00231481 </v>
   <v>       0.00231481 </v>
   <v>       0.00462963 </v>
   <v>       0.00231481 </v>
   <v>       0.00231481 </v>
   <v>       0.00231481 </v>
   <v>       0.00057870 </v>
   <v>       0.00028935 </v>
   <v>       0.00115741 </v>
   <v>       0.00115741 </v>
   <v>       0.00115741 </v>
   <v>       0.00115741 </v>
   <v>       0.00115741 </v>
   <v>       0.00115741 </v>
   <v>       0.00115741 </v>
   <v>       0.00115741 </v>
   <v>       0.00115741 </v>
   <v>       0.00115741 </v>
   <v>       0.00115741 </v>
   <v>       0.00057870 </v>
   <v>       0.00115741 </v>
   <v>       0.00231481 </v>
   <v>       0.00231481 </v>
   <v>       0.00231481 </v>
   <v>       0.00231481 </v>
   <v>       0.00231481 </v>
   <v>       0.00231481 </v>
   <v>       0.00231481 </v>
   <v>       0.00231481 </v>
   <v>       0.00231481 </v>
   <v>       0.00231481 </v>
   <v>       0.00115741 </v>
   <v>       0.00115741 </v>
   <v>       0.00231481 </v>
   <v>       0.00231481 </v>
   <v>       0.00231481 </v>
   <v>       0.00231481 </v>
   <v>       0.00231481 </v>
   <v>       0.00231481 </v>
   <v>       0.00231481 </v>
   <v>       0.00231481 </v>
   <v>       0.00231481 </v>
   <v>       0.00115741 </v>
   <v>       0.00115741 </v>
   <v>       0.00231481 </v>
   <v>       0.00231481 </v>
   <v>       0.00231481 </v>
   <v>       0.00231481 </v>
   <v>       0.00231481 </v>
   <v>       0.00231481 </v>
   <v>       0.00231481 </v>
   <v>       0.00231481 </v>
   <v>       0.00115741 </v>
   <v>       0.00115741 </v>
   <v>       0.00231481 </v>
   <v>       0.00231481 </v>
   <v>       0.00231481 </v>
   <v>       0.00231481 </v>
   <v>       0.00231481 </v>
   <v>       0.00231481 </v>
   <v>       0.00231481 </v>
   <v>       0.00115741 </v>
   <v>       0.00115741 </v>
   <v>       0.00231481 </v>
   <v>       0.00231481 </v>
   <v>       0.00231481 </v>
   <v>       0.00231481 </v>
   <v>       0.00231481 </v>
   <v>       0.00231481 </v>
   <v>       0.00115741 </v>
   <v>       0.00115741 </v>
   <v>       0.00231481 </v>
   <v>       0.00231481 </v>
   <v>       0.00231481 </v>
   <v>       0.00231481 </v>
   <v>       0.00231481 </v>
   <v>       0.00115741 </v>
   <v>       0.00115741 </v>
   <v>       0.00231481 </v>
   <v>       0.00231481 </v>
   <v>       0.00231481 </v>
   <v>       0.00231481 </v>
   <v>       0.00115741 </v>
   <v>       0.00115741 </v>
   <v>       0.00231481 </v>
   <v>       0.00231481 </v>
   <v>       0.00231481 </v>
   <v>       0.00115741 </v>
   <v>       0.00115741 </v>
   <v>       0.00231481 </v>
   <v>       0.00231481 </v>
   <v>       0.00115741 </v>
   <v>       0.00115741 </v>
   <v>       0.00231481 </v>
   <v>       0.00115741 </v>
   <v>       0.00115741 </v>
   <v>       0.00115741 </v>
   <v>       0.00028935 </v>
  </varray>
 </kpoints>
 <parameters>
  <separator name="general" >
   <i type="string" name="SYSTEM">unknown system</i>
   <i type="logical" name="LCOMPAT"> F  </i>
  </separator>
  <separator name="electronic" >
   <i type="string" name="PREC">accura</i>
   <i name="ENMAX">    500.00000000</i>
   <i name="ENAUG">    586.98000000</i>
   <i name="EDIFF">      0.00000100</i>
   <i type="int" name="IALGO">    68</i>
   <i type="int" name="IWAVPR">    11</i>
   <i type="int" name="NBANDS">    40</i>
   <i name="NELECT">     66.00000000</i>
   <i type="int" name="TURBO">     0</i>
   <i type="int" name="IRESTART">     0</i>
   <i type="int" name="NREBOOT">     0</i>
   <i type="int" name="NMIN">     0</i>
   <i name="EREF">      0.00000000</i>
   <separator name="electronic smearing" >
    <i type="int" name="ISMEAR">     1</i>
    <i name="SIGMA">      0.30000000</i>
    <i name="KSPACING">      0.50000000</i>
    <i type="logical" name="KGAMMA"> T  </i>
   </separator>
   <separator name="electronic projectors" >
    <i type="logical" name="LREAL"> F  </i>
    <v name="ROPT">      0.00000000      0.00000000      0.00000000</v>
    <i type="int" name="LMAXPAW">  -100</i>
    <i type="int" name="LMAXMIX">     2</i>
    <i type="logical" name="NLSPLINE"> F  </i>
   </separator>
   <separator name="electronic startup" >
    <i type="int" name="ISTART">     0</i>
    <i type="int" name="ICHARG">     2</i>
    <i type="int" name="INIWAV">     1</i>
   </separator>
   <separator name="electronic spin" >
    <i type="int" name="ISPIN">     1</i>
    <i type="logical" name="LNONCOLLINEAR"> F  </i>
    <v name="MAGMOM">      1.00000000      1.00000000      1.00000000      1.00000000      1.00000000      1.00000000</v>
    <i name="NUPDOWN">     -1.00000000</i>
    <i type="logical" name="LSORBIT"> F  </i>
    <v name="SAXIS">      0.00000000      0.00000000      1.00000000</v>
    <i type="logical" name="LSPIRAL"> F  </i>
    <v name="QSPIRAL">      0.00000000      0.00000000      0.00000000</v>
    <i type="logical" name="LZEROZ"> F  </i>
   </separator>
   <separator name="electronic exchange-correlation" >
    <i type="logical" name="LASPH"> F  </i>
    <i type="logical" name="LMETAGGA"> F  </i>
   </separator>
   <separator name="electronic convergence" >
    <i type="int" name="NELM">   200</i>
    <i type="int" name="NELMDL">     0</i>
    <i type="int" name="NELMIN">     4</i>
    <i name="ENINI">    500.00000000</i>
    <separator name="electronic convergence detail" >
     <i type="logical" name="LDIAG"> T  </i>
     <i type="logical" name="LSUBROT"> F  </i>
     <i name="WEIMIN">      0.00100000</i>
     <i name="EBREAK">      0.00000001</i>
     <i name="DEPER">      0.30000000</i>
     <i type="int" name="NRMM">     4</i>
     <i name="TIME">      0.40000000</i>
    </separator>
   </separator>
   <separator name="electronic mixer" >
    <i name="AMIX">      0.40000000</i>
    <i name="BMIX">      1.00000000</i>
    <i name="AMIN">      0.10000000</i>
    <i name="AMIX_MAG">      1.60000000</i>
    <i name="BMIX_MAG">      1.00000000</i>
    <separator name="electronic mixer details" >
     <i type="int" name="IMIX">     4</i>
     <i type="int" name="MAXMIX">   -45</i>
     <i name="WC">    100.00000000</i>
     <i type="int" name="INIMIX">     1</i>
     <i type="int" name="MIXPRE">     1</i>
     <i type="int" name="MREMOVE">     5</i>
    </separator>
   </separator>
   <separator name="electronic dipolcorrection" >
    <i type="logical" name="LDIPOL"> F  </i>
    <i type="logical" name="LMONO"> F  </i>
    <i type="int" name="IDIPOL">     0</i>
    <i name="EPSILON">      1.00000000</i>
    <v name="DIPOL">   -100.00000000   -100.00000000   -100.00000000</v>
    <i name="EFIELD">      0.00000000</i>
   </separator>
  </separator>
  <separator name="grids" >
   <i type="int" name="NGX">    24</i>
   <i type="int" name="NGY">    24</i>
   <i type="int" name="NGZ">    90</i>
   <i type="int" name="NGXF">    48</i>
   <i type="int" name="NGYF">    48</i>
   <i type="int" name="NGZF">   180</i>
   <i type="logical" name="ADDGRID"> T  </i>
  </separator>
  <separator name="ionic" >
   <i type="int" name="NSW">    30</i>
   <i type="int" name="IBRION">     2</i>
   <i type="int" name="ISIF">     3</i>
   <i name="PSTRESS">      0.00000000</i>
   <i name="EDIFFG">     -0.02000000</i>
   <i type="int" name="NFREE">     1</i>
   <i name="POTIM">      0.50000000</i>
   <i name="SMASS">     -3.00000000</i>
   <i name="SCALEE">      1.00000000</i>
  </separator>
  <separator name="ionic md" >
   <i name="TEBEG">      0.00010000</i>
   <i name="TEEND">      0.00010000</i>
   <i type="int" name="NBLOCK">     1</i>
   <i type="int" name="KBLOCK">    30</i>
   <i type="int" name="NPACO">   256</i>
   <i name="APACO">     16.00000000</i>
  </separator>
  <separator name="symmetry" >
   <i type="int" name="ISYM">     2</i>
   <i name="SYMPREC">      0.00001000</i>
  </separator>
  <separator name="dos" >
   <i type="logical" name="LORBIT"> F  </i>
   <v name="RWIGS">     -1.00000000     -1.00000000     -1.00000000</v>
   <i type="int" name="NEDOS">   301</i>
   <i name="EMIN">     10.00000000</i>
   <i name="EMAX">    -10.00000000</i>
   <i name="EFERMI">      0.00000000</i>
  </separator>
  <separator name="writing" >
   <i type="int" name="NWRITE">     2</i>
   <i type="logical" name="LWAVE"> F  </i>
   <i type="logical" name="LCHARG"> F  </i>
   <i type="logical" name="LPARD"> F  </i>
   <i type="logical" name="LVTOT"> F  </i>
   <i type="logical" name="LVHAR"> F  </i>
   <i type="logical" name="LELF"> F  </i>
   <i type="logical" name="LOPTICS"> F  </i>
   <v name="STM">      0.00000000      0.00000000      0.00000000      0.00000000      0.00000000      0.00000000      0.00000000</v>
  </separator>
  <separator name="performance" >
   <i type="int" name="NPAR">     4</i>
   <i type="int" name="NSIM">     4</i>
   <i type="int" name="NBLK">    -1</i>
   <i type="logical" name="LPLANE"> T  </i>
   <i type="logical" name="LSCALAPACK"> T  </i>
   <i type="logical" name="LSCAAWARE"> F  </i>
   <i type="logical" name="LSCALU"> F  </i>
   <i type="logical" name="LASYNC"> F  </i>
   <i type="logical" name="LORBITALREAL"> F  </i>
  </separator>
  <separator name="miscellaneous" >
   <i type="int" name="IDIOT">     3</i>
   <i type="logical" name="LMUSIC"> F  </i>
   <v name="POMASS">     63.54600000    107.86800000    196.96600000</v>
   <v name="DARWINR">      0.00000000      0.00000000      0.00000000</v>
   <v name="DARWINV">      1.00000000      1.00000000      1.00000000</v>
   <i type="logical" name="LCORR"> T  </i>
  </separator>
  <i type="logical" name="GGA_COMPAT"> T  </i>
  <i type="logical" name="LBERRY"> F  </i>
  <i type="int" name="ICORELEVEL">     0</i>
  <i type="logical" name="LDAU"> F  </i>
  <i type="int" name="I_CONSTRAINED_M">     0</i>
  <separator name="electronic exchange-correlation" >
   <i type="string" name="GGA">--</i>
   <i type="int" name="VOSKOWN">     0</i>
   <i type="logical" name="LHFCALC"> F  </i>
   <i type="string" name="PRECFOCK"></i>
   <i type="logical" name="LSYMGRAD"> F  </i>
   <i type="logical" name="LHFONE"> F  </i>
   <i type="logical" name="LRHFCALC"> F  </i>
   <i type="logical" name="LTHOMAS"> F  </i>
   <i type="logical" name="LMODELHF"> F  </i>
   <i name="ENCUT4O">     -1.00000000</i>
   <i type="int" name="EXXOEP">     0</i>
   <i type="int" name="FOURORBIT">     0</i>
   <i name="AEXX">      0.00000000</i>
   <i name="HFALPHA">      0.00000000</i>
   <i name="MCALPHA">      0.00000000</i>
   <i name="ALDAX">      1.00000000</i>
   <i name="AGGAX">      1.00000000</i>
   <i name="ALDAC">      1.00000000</i>
   <i name="AGGAC">      1.00000000</i>
   <i type="int" name="NKREDX">     1</i>
   <i type="int" name="NKREDY">     1</i>
   <i type="int" name="NKREDZ">     1</i>
   <i type="logical" name="SHIFTRED"> F  </i>
   <i type="logical" name="ODDONLY"> F  </i>
   <i type="logical" name="EVENONLY"> F  </i>
   <i type="int" name="LMAXFOCK">     0</i>
   <i type="int" name="NMAXFOCKAE">     0</i>
   <i type="logical" name="LFOCKAEDFT"> F  </i>
   <i name="HFSCREEN">      0.00000000</i>
   <i name="HFSCREENC">      0.00000000</i>
   <i type="int" name="NBANDSGWLOW">     0</i>
  </separator>
  <separator name="vdW DFT" >
   <i type="logical" name="LUSE_VDW"> F  </i>
   <i name="Zab_VDW">     -0.84910000</i>
   <i name="PARAM1">      0.12340000</i>
   <i name="PARAM2">      1.00000000</i>
   <i name="PARAM3">      0.00000000</i>
  </separator>
  <separator name="model GW" >
   <i type="int" name="MODEL_GW">     0</i>
   <i name="MODEL_EPS0">     10.13057972</i>
   <i name="MODEL_ALPHA">      1.00000000</i>
  </separator>
  <separator name="linear response parameters" >
   <i type="logical" name="LEPSILON"> F  </i>
   <i type="logical" name="LRPA"> F  </i>
   <i type="logical" name="LNABLA"> F  </i>
   <i type="logical" name="LVEL"> F  </i>
   <i type="int" name="KINTER">     0</i>
   <i name="CSHIFT">      0.10000000</i>
   <i name="OMEGAMAX">     -1.00000000</i>
   <i name="DEG_THRESHOLD">      0.00200000</i>
  </separator>
  <separator name="orbital magnetization" >
   <i type="logical" name="NUCIND"> F  </i>
   <v name="MAGPOS">      0.00000000      0.00000000      0.00000000</v>
   <i type="logical" name="LNICSALL"> T  </i>
   <i type="logical" name="ORBITALMAG"> F  </i>
   <i type="logical" name="LMAGBLOCH"> F  </i>
   <i type="logical" name="LCHIMAG"> F  </i>
   <i type="logical" name="LGAUGE"> T  </i>
   <i type="int" name="MAGATOM">     0</i>
   <v name="MAGDIPOL">      0.00000000      0.00000000      0.00000000</v>
   <v name="AVECCONST">      0.00000000      0.00000000      0.00000000</v>
  </separator>
  <separator name="response functions" >
   <i type="logical" name="LADDER"> F  </i>
   <i type="logical" name="LFXC"> F  </i>
   <i type="logical" name="LHARTREE"> T  </i>
   <i type="int" name="IBSE">     0</i>
   <i type="logical" name="LTCTE"> F  </i>
   <i type="logical" name="LTETE"> F  </i>
   <i type="logical" name="LTRIPLET"> F  </i>
   <i type="logical" name="LFXCEPS"> F  </i>
   <i type="logical" name="LFXHEG"> F  </i>
   <i type="logical" name="L2ORDER"> F  </i>
   <i type="logical" name="LUSEW"> F  </i>
   <i name="ENCUTGW">     -2.00000000</i>
   <i name="ENCUTGWSOFT">     -2.00000000</i>
   <i name="ENCUTLF">     -1.00000000</i>
   <i type="int" name="LMAXMP2">    -1</i>
   <i name="SCISSOR">      0.00000000</i>
   <i type="int" name="NOMEGA">     0</i>
   <i type="int" name="NOMEGAR">     0</i>
   <i type="int" name="NBANDSGW">    -1</i>
   <i type="int" name="NBANDSO">    -1</i>
   <i type="int" name="NBANDSV">    -1</i>
   <i type="int" name="NELM">   200</i>
   <i type="int" name="DIM">     3</i>
   <i type="int" name="ANTIRES">     0</i>
   <i name="OMEGAMAX">    -30.00000000</i>
   <i name="OMEGAMIN">    -30.00000000</i>
   <i name="OMEGATL">   -200.00000000</i>
   <i type="int" name="OMEGAGRID">     0</i>
   <i name="CSHIFT">     -0.10000000</i>
   <i type="logical" name="SELFENERGY"> F  </i>
   <i type="logical" name="LSPECTRAL"> F  </i>
   <i type="logical" name="ODDONLYGW"> F  </i>
   <i type="logical" name="EVENONLYGW"> F  </i>
   <i type="int" name="NKREDLFX">     1</i>
   <i type="int" name="NKREDLFY">     1</i>
   <i type="int" name="NKREDLFZ">     1</i>
   <i type="int" name="MAXMEM">  1800</i>
   <i type="int" name="TELESCOPE">     0</i>
   <i type="int" name="TAUPAR">     1</i>
  </separator>
  <separator name="External order field" >
   <i name="OFIELD_KAPPA">      0.00000000</i>
   <v name="OFIELD_K">      0.00000000      0.00000000      0.00000000</v>
   <i name="OFIELD_Q6_NEAR">      0.00000000</i>
   <i name="OFIELD_Q6_FAR">      0.00000000</i>
   <i name="OFIELD_A">      0.00000000</i>
  </separator>
 </parameters>
 <atominfo>
  <atoms>       6 </atoms>
  <types>       3 </types>
  <array name="atoms" >
   <dimension dim="1">ion</dimension>
   <field type="string">element</field>
   <field type="int">atomtype</field>
   <set>
    <rc><c>Cu</c><c>   1</c></rc>
    <rc><c>Ag</c><c>   2</c></rc>
    <rc><c>Ag</c><c>   2</c></rc>
    <rc><c>Au</c><c>   3</c></rc>
    <rc><c>Au</c><c>   3</c></rc>
    <rc><c>Au</c><c>   3</c></rc>
   </set>
  </array>
  <array name="atomtypes" >
   <dimension dim="1">type</dimension>
   <field type="int">atomspertype</field>
   <field type="string">element</field>
   <field>mass</field>
   <field>valence</field>
   <field type="string">pseudopotential</field>
   <set>
    <rc><c>   1</c><c>Cu</c><c>     63.54600000</c><c>     11.00000000</c><c>  PAW_PBE Cu 22Jun2005                  </c></rc>
    <rc><c>   2</c><c>Ag</c><c>    107.86800000</c><c>     11.00000000</c><c>  PAW_PBE Ag 02Apr2005                  </c></rc>
    <rc><c>   3</c><c>Au</c><c>    196.96600000</c><c>     11.00000000</c><c>  PAW_PBE Au 04Oct2007                  </c></rc>
   </set>
  </array>
 </atominfo>
 <structure name="initialpos" >
  <crystal>
   <varray name="basis" >
    <v>       0.00000000       2.04887937      -2.04887937 </v>
    <v>       0.00000000      -2.04887937      -2.04887937 </v>
    <v>     -12.06622784       0.00000000       0.00000000 </v>
   </varray>
   <i name="volume">    101.30579722 </i>
   <varray name="rec_basis" >
    <v>       0.00000000       0.24403584      -0.24403584 </v>
    <v>       0.00000000      -0.24403584      -0.24403584 </v>
    <v>      -0.08287594       0.00000000       0.00000000 </v>
   </varray>
  </crystal>
  <varray name="positions" >
   <v>       0.50000000       0.50000000       0.16576380 </v>
   <v>       0.00000000       0.00000000       0.66649954 </v>
   <v>       0.00000000       0.00000000       0.31550387 </v>
   <v>       0.00000000       0.00000000       0.02021572 </v>
   <v>       0.50000000       0.50000000       0.84097213 </v>
   <v>       0.50000000       0.50000000       0.49104494 </v>
  </varray>
 </structure>
 <calculation>
  <scstep>
   <time name="dav">    6.33    6.33</time>
   <time name="total">    6.40    6.42</time>
   <energy>
    <i name="alphaZ">    351.02861756 </i>
    <i name="ewald">  -5812.33824817 </i>
    <i name="hartreedc">  -1275.17759636 </i>
    <i name="XCdc">     71.11633537 </i>
    <i name="pawpsdc">   5857.42346859 </i>
    <i name="pawaedc">  -5801.77742006 </i>
    <i name="eentropy">     -0.00326664 </i>
    <i name="bandstr">    926.72388122 </i>
    <i name="atom">   6243.74855276 </i>
    <i name="e_fr_energy">    560.74432425 </i>
    <i name="e_wo_entrp">    560.74759090 </i>
    <i name="e_0_energy">    560.74541313 </i>
   </energy>
  </scstep>
  <scstep>
   <time name="dav">    6.71    6.71</time>
   <time name="total">    6.73    6.74</time>
   <energy>
    <i name="e_fr_energy">     15.44980060 </i>
    <i name="e_wo_entrp">     15.44791027 </i>
    <i name="e_0_energy">     15.44917049 </i>
   </energy>
  </scstep>
  <scstep>
   <time name="dav">    7.06    7.06</time>
   <time name="total">    7.08    7.10</time>
   <energy>
    <i name="e_fr_energy">    -20.22877114 </i>
    <i name="e_wo_entrp">    -20.22924798 </i>
    <i name="e_0_energy">    -20.22893009 </i>
   </energy>
  </scstep>
  <scstep>
   <time name="dav">    6.87    6.87</time>
   <time name="total">    6.90    6.91</time>
   <energy>
    <i name="e_fr_energy">    -21.00226032 </i>
    <i name="e_wo_entrp">    -21.00278409 </i>
    <i name="e_0_energy">    -21.00243491 </i>
   </energy>
  </scstep>
  <scstep>
   <time name="dav">    8.00    8.00</time>
   <time name="total">    8.50    8.52</time>
   <energy>
    <i name="e_fr_energy">    -21.02588429 </i>
    <i name="e_wo_entrp">    -21.02641014 </i>
    <i name="e_0_energy">    -21.02605957 </i>
   </energy>
  </scstep>
  <scstep>
   <time name="diag">    1.69    1.69</time>
   <time name="diis">    3.32    3.32</time>
   <time name="orth">    0.24    0.24</time>
   <time name="total">    5.80    5.82</time>
   <energy>
    <i name="e_fr_energy">    -19.68692037 </i>
    <i name="e_wo_entrp">    -19.68666710 </i>
    <i name="e_0_energy">    -19.68683594 </i>
   </energy>
  </scstep>
  <scstep>
   <time name="diag">    1.68    1.68</time>
   <time name="diis">    3.58    3.58</time>
   <time name="orth">    0.22    0.22</time>
   <time name="total">    6.04    6.06</time>
   <energy>
    <i name="e_fr_energy">    -19.45919852 </i>
    <i name="e_wo_entrp">    -19.46925257 </i>
    <i name="e_0_energy">    -19.46254987 </i>
   </energy>
  </scstep>
  <scstep>
   <time name="diag">    1.69    1.69</time>
   <time name="diis">    3.34    3.34</time>
   <time name="orth">    0.23    0.23</time>
   <time name="total">    5.82    5.83</time>
   <energy>
    <i name="e_fr_energy">    -19.04580024 </i>
    <i name="e_wo_entrp">    -19.04510771 </i>
    <i name="e_0_energy">    -19.04556940 </i>
   </energy>
  </scstep>
  <scstep>
   <time name="diag">    1.68    1.68</time>
   <time name="diis">    3.37    3.37</time>
   <time name="orth">    0.22    0.22</time>
   <time name="total">    5.83    5.85</time>
   <energy>
    <i name="e_fr_energy">    -18.99986443 </i>
    <i name="e_wo_entrp">    -19.00068439 </i>
    <i name="e_0_energy">    -19.00013775 </i>
   </energy>
  </scstep>
  <scstep>
   <time name="diag">    1.69    1.69</time>
   <time name="diis">    3.48    3.48</time>
   <time name="orth">    0.24    0.24</time>
   <time name="total">    5.96    5.98</time>
   <energy>
    <i name="e_fr_energy">    -18.97992705 </i>
    <i name="e_wo_entrp">    -18.98002938 </i>
    <i name="e_0_energy">    -18.97996116 </i>
   </energy>
  </scstep>
  <scstep>
   <time name="diag">    1.69    1.69</time>
   <time name="diis">    3.42    3.42</time>
   <time name="orth">    0.23    0.23</time>
   <time name="total">    5.90    5.91</time>
   <energy>
    <i name="e_fr_energy">    -18.97870140 </i>
    <i name="e_wo_entrp">    -18.97867049 </i>
    <i name="e_0_energy">    -18.97869110 </i>
   </energy>
  </scstep>
  <scstep>
   <time name="diag">    1.69    1.69</time>
   <time name="diis">    3.75    3.76</time>
   <time name="orth">    0.24    0.24</time>
   <time name="total">    6.25    6.27</time>
   <energy>
    <i name="e_fr_energy">    -18.97866538 </i>
    <i name="e_wo_entrp">    -18.97866738 </i>
    <i name="e_0_energy">    -18.97866605 </i>
   </energy>
  </scstep>
  <scstep>
   <time name="diag">    1.69    1.69</time>
   <time name="diis">    3.37    3.37</time>
   <time name="orth">    0.23    0.23</time>
   <time name="total">    5.85    5.87</time>
   <energy>
    <i name="e_fr_energy">    -18.97861863 </i>
    <i name="e_wo_entrp">    -18.97864440 </i>
    <i name="e_0_energy">    -18.97862722 </i>
   </energy>
  </scstep>
  <scstep>
   <time name="diag">    1.69    1.69</time>
   <time name="diis">    3.38    3.38</time>
   <time name="orth">    0.23    0.23</time>
   <time name="total">    5.86    5.88</time>
   <energy>
    <i name="e_fr_energy">    -18.97861000 </i>
    <i name="e_wo_entrp">    -18.97862613 </i>
    <i name="e_0_energy">    -18.97861537 </i>
   </energy>
  </scstep>
  <scstep>
   <time name="diag">    1.68    1.68</time>
   <time name="diis">    3.38    3.39</time>
   <time name="orth">    0.23    0.23</time>
   <time name="total">    5.85    5.87</time>
   <energy>
    <i name="e_fr_energy">    -18.97861000 </i>
    <i name="e_wo_entrp">    -18.97862396 </i>
    <i name="e_0_energy">    -18.97861465 </i>
   </energy>
  </scstep>
  <scstep>
   <time name="diag">    1.69    1.69</time>
   <time name="diis">    2.34    2.34</time>
   <time name="orth">    0.24    0.24</time>
   <time name="total">    4.36    4.37</time>
   <energy>
    <i name="alphaZ">    351.02861756 </i>
    <i name="ewald">  -5812.33824817 </i>
    <i name="hartreedc">  -1197.35613433 </i>
    <i name="XCdc">     67.77569512 </i>
    <i name="pawpsdc">   6576.25007918 </i>
    <i name="pawaedc">  -6535.10713920 </i>
    <i name="eentropy">      0.00001756 </i>
    <i name="bandstr">    287.01995019 </i>
    <i name="atom">   6243.74855276 </i>
    <i name="e_fr_energy">    -18.97860933 </i>
    <i name="e_wo_entrp">    -18.97862689 </i>
    <i name="e_0_energy">    -18.97861518 </i>
   </energy>
  </scstep>
  <structure>
   <crystal>
    <varray name="basis" >
     <v>       0.00000000       2.04887937      -2.04887937 </v>
     <v>       0.00000000      -2.04887937      -2.04887937 </v>
     <v>     -12.06622784       0.00000000       0.00000000 </v>
    </varray>
    <i name="volume">    101.30579722 </i>
    <varray name="rec_basis" >
     <v>       0.00000000       0.24403584      -0.24403584 </v>
     <v>       0.00000000      -0.24403584      -0.24403584 </v>
     <v>      -0.08287594       0.00000000       0.00000000 </v>
    </varray>
   </crystal>
   <varray name="positions" >
    <v>       0.50000000       0.50000000       0.16576380 </v>
    <v>       0.00000000       0.00000000       0.66649954 </v>
    <v>       0.00000000       0.00000000       0.31550387 </v>
    <v>       0.00000000       0.00000000       0.02021572 </v>
    <v>       0.50000000       0.50000000       0.84097213 </v>
    <v>       0.50000000       0.50000000       0.49104494 </v>
   </varray>
  </structure>
  <varray name="forces" >
   <v>      -0.00145610       0.00000000       0.00000000 </v>
   <v>       0.00221952       0.00000000       0.00000000 </v>
   <v>       0.00221808       0.00000000       0.00000000 </v>
   <v>       0.00334800       0.00000000       0.00000000 </v>
   <v>       0.00589445       0.00000000       0.00000000 </v>
   <v>      -0.01222396       0.00000000       0.00000000 </v>
  </varray>
  <varray name="stress" >
   <v>       0.18964367       0.00000000       0.00000000 </v>
   <v>       0.00000000       0.92527542       0.00000000 </v>
   <v>       0.00000000       0.00000000       0.92527542 </v>
  </varray>
  <energy>
   <i name="e_fr_energy">    -18.97860933 </i>
   <i name="e_wo_entrp">    -18.97861518 </i>
   <i name="e_0_energy">      0.00001756 </i>
  </energy>
  <time name="totalsc">  104.20  104.49</time>
  <eigenvalues>
   <array>
    <dimension dim="1">band</dimension>
    <dimension dim="2">kpoint</dimension>
    <dimension dim="3">spin</dimension>
    <field>eigene</field>
    <field>occ</field>
    <set>
     <set comment="spin 1">
      <set comment="kpoint 1">
       <r>   -0.6696    1.0000 </r>
       <r>    0.3933    1.0000 </r>
       <r>    0.9489    1.0000 </r>
       <r>    1.9097    1.0000 </r>
       <r>    2.0025    1.0000 </r>
       <r>    2.0303    1.0000 </r>
       <r>    2.2703    1.0000 </r>
       <r>    2.5791    1.0000 </r>
       <r>    2.6988    1.0000 </r>
       <r>    3.0416    1.0000 </r>
       <r>    3.3993    1.0000 </r>
       <r>    3.8577    1.0000 </r>
       <r>    3.8577    1.0000 </r>
       <r>    4.1480    1.0000 </r>
       <r>    4.1480    1.0000 </r>
       <r>    4.4124    1.0000 </r>
       <r>    4.4774    1.0000 </r>
       <r>    4.4774    1.0000 </r>
       <r>    4.5909    1.0000 </r>
       <r>    4.7591    1.0000 </r>
       <r>    4.9382    1.0000 </r>
       <r>    5.4045    1.0000 </r>
       <r>    5.4419    1.0000 </r>
       <r>    5.4419    1.0000 </r>
       <r>    5.4885    1.0000 </r>
       <r>    5.5323    1.0000 </r>
       <r>    5.7613    1.0000 </r>
       <r>    5.7613    1.0000 </r>
       <r>    5.8690    1.0000 </r>
       <r>    5.9388    1.0000 </r>
       <r>    5.9437    1.0000 </r>
       <r>    6.3817    1.0000 </r>
       <r>    6.4891    1.0000 </r>
       <r>    6.5249    1.0000 </r>
       <r>    6.5249    1.0000 </r>
       <r>   10.0272    0.0000 </r>
       <r>   14.5363    0.0000 </r>
       <r>   17.2614    0.0000 </r>
       <r>   14.7720    0.0000 </r>
       <r>   17.7800    0.0000 </r>
      </set>
      <set comment="kpoint 2">
       <r>   -0.6314    1.0000 </r>
       <r>    0.4286    1.0000 </r>
       <r>    0.9791    1.0000 </r>
       <r>    1.9357    1.0000 </r>
       <r>    2.0234    1.0000 </r>
       <r>    2.0515    1.0000 </r>
       <r>    2.2884    1.0000 </r>
       <r>    2.5924    1.0000 </r>
       <r>    2.7156    1.0000 </r>
       <r>    3.0541    1.0000 </r>
       <r>    3.4107    1.0000 </r>
       <r>    3.8440    1.0000 </r>
       <r>    3.8657    1.0000 </r>
       <r>    4.1267    1.0000 </r>
       <r>    4.1457    1.0000 </r>
       <r>    4.3504    1.0000 </r>
       <r>    4.4678    1.0000 </r>
       <r>    4.5210    1.0000 </r>
       <r>    4.6182    1.0000 </r>
       <r>    4.7483    1.0000 </r>
       <r>    4.9238    1.0000 </r>
       <r>    5.1490    1.0000 </r>
       <r>    5.3545    1.0000 </r>
       <r>    5.4640    1.0000 </r>
       <r>    5.5017    1.0000 </r>
       <r>    5.5354    1.0000 </r>
       <r>    5.7303    1.0000 </r>
       <r>    5.7751    1.0000 </r>
       <r>    5.8882    1.0000 </r>
       <r>    5.9369    1.0000 </r>
       <r>    6.1731    1.0000 </r>
       <r>    6.4114    1.0000 </r>
       <r>    6.4853    1.0000 </r>
       <r>    6.5214    1.0000 </r>
       <r>    6.5258    1.0000 </r>
       <r>   10.1387    0.0000 </r>
       <r>   14.5219    0.0000 </r>
       <r>   14.5710    0.0000 </r>
       <r>   14.7418    0.0000 </r>
       <r>   17.1750    0.0000 </r>
      </set>
      <set comment="kpoint 3">
       <r>   -0.5179    1.0000 </r>
       <r>    0.5318    1.0000 </r>
       <r>    1.0655    1.0000 </r>
       <r>    2.0025    1.0000 </r>
       <r>    2.0756    1.0000 </r>
       <r>    2.1243    1.0000 </r>
       <r>    2.3506    1.0000 </r>
       <r>    2.6218    1.0000 </r>
       <r>    2.7751    1.0000 </r>
       <r>    3.0935    1.0000 </r>
       <r>    3.4461    1.0000 </r>
       <r>    3.8045    1.0000 </r>
       <r>    3.8890    1.0000 </r>
       <r>    4.0726    1.0000 </r>
       <r>    4.1385    1.0000 </r>
       <r>    4.2571    1.0000 </r>
       <r>    4.4396    1.0000 </r>
       <r>    4.5534    1.0000 </r>
       <r>    4.6654    1.0000 </r>
       <r>    4.7164    1.0000 </r>
       <r>    4.8539    1.0000 </r>
       <r>    4.8820    1.0000 </r>
       <r>    5.2607    1.0000 </r>
       <r>    5.2628    1.0000 </r>
       <r>    5.4770    1.0000 </r>
       <r>    5.5368    1.0000 </r>
       <r>    5.6787    1.0000 </r>
       <r>    5.8763    1.0000 </r>
       <r>    5.9308    1.0000 </r>
       <r>    5.9446    1.0000 </r>
       <r>    6.2837    1.0000 </r>
       <r>    6.4767    1.0000 </r>
       <r>    6.5215    1.0000 </r>
       <r>    6.5286    1.0000 </r>
       <r>    6.7274    1.0000 </r>
       <r>   10.4497    0.0000 </r>
       <r>   14.4721    0.0000 </r>
       <r>   15.3279    0.0000 </r>
       <r>   15.1200    0.0000 </r>
       <r>   15.7868    0.0000 </r>
      </set>
      <set comment="kpoint 4">
       <r>   -0.3331    1.0000 </r>
       <r>    0.6934    1.0000 </r>
       <r>    1.1948    1.0000 </r>
       <r>    2.0819    1.0000 </r>
       <r>    2.1484    1.0000 </r>
       <r>    2.2520    1.0000 </r>
       <r>    2.4788    1.0000 </r>
       <r>    2.6500    1.0000 </r>
       <r>    2.8906    1.0000 </r>
       <r>    3.1662    1.0000 </r>
       <r>    3.5089    1.0000 </r>
       <r>    3.7435    1.0000 </r>
       <r>    3.9254    1.0000 </r>
       <r>    3.9990    1.0000 </r>
       <r>    4.1261    1.0000 </r>
       <r>    4.1650    1.0000 </r>
       <r>    4.3945    1.0000 </r>
       <r>    4.4102    1.0000 </r>
       <r>    4.6526    1.0000 </r>
       <r>    4.6642    1.0000 </r>
       <r>    4.8006    1.0000 </r>
       <r>    4.8167    1.0000 </r>
       <r>    5.0488    1.0000 </r>
       <r>    5.1393    1.0000 </r>
       <r>    5.4753    1.0000 </r>
       <r>    5.5865    1.0000 </r>
       <r>    5.6331    1.0000 </r>
       <r>    5.8166    1.0000 </r>
       <r>    5.9576    1.0000 </r>
       <r>    5.9732    1.0000 </r>
       <r>    6.1346    1.0000 </r>
       <r>    6.4692    1.0000 </r>
       <r>    6.5335    1.0000 </r>
       <r>    6.8687    1.0000 </r>
       <r>    7.0684    1.0000 </r>
       <r>   10.9114    0.0000 </r>
       <r>   14.3589    0.0000 </r>
       <r>   16.4162    0.0000 </r>
       <r>   14.6229    0.0000 </r>
       <r>   14.4005    0.0000 </r>
      </set>
      <set comment="kpoint 5">
       <r>   -0.0839    1.0000 </r>
       <r>    0.8968    1.0000 </r>
       <r>    1.3444    1.0000 </r>
       <r>    2.1572    1.0000 </r>
       <r>    2.2273    1.0000 </r>
       <r>    2.4295    1.0000 </r>
       <r>    2.6602    1.0000 </r>
       <r>    2.6950    1.0000 </r>
       <r>    3.0599    1.0000 </r>
       <r>    3.2838    1.0000 </r>
       <r>    3.6024    1.0000 </r>
       <r>    3.6677    1.0000 </r>
       <r>    3.9126    1.0000 </r>
       <r>    3.9690    1.0000 </r>
       <r>    4.0702    1.0000 </r>
       <r>    4.1085    1.0000 </r>
       <r>    4.1908    1.0000 </r>
       <r>    4.3380    1.0000 </r>
       <r>    4.5585    1.0000 </r>
       <r>    4.5933    1.0000 </r>
       <r>    4.7343    1.0000 </r>
       <r>    4.8478    1.0000 </r>
       <r>    5.0001    1.0000 </r>
       <r>    5.0029    1.0000 </r>
       <r>    5.4633    1.0000 </r>
       <r>    5.5931    1.0000 </r>
       <r>    5.6382    1.0000 </r>
       <r>    5.7435    1.0000 </r>
       <r>    5.8956    1.0000 </r>
       <r>    5.9491    1.0000 </r>
       <r>    6.0750    1.0000 </r>
       <r>    6.4662    1.0000 </r>
       <r>    6.5396    1.0000 </r>
       <r>    7.2297    1.0000 </r>
       <r>    7.4595    1.0006 </r>
       <r>   11.4794    0.0000 </r>
       <r>   14.0989    0.0000 </r>
       <r>   15.6772    0.0000 </r>
       <r>   16.5432    0.0000 </r>
       <r>   15.9828    0.0000 </r>
      </set>
      <set comment="kpoint 6">
       <r>    0.2193    1.0000 </r>
       <r>    1.1178    1.0000 </r>
       <r>    1.4860    1.0000 </r>
       <r>    2.2209    1.0000 </r>
       <r>    2.3099    1.0000 </r>
       <r>    2.6490    1.0000 </r>
       <r>    2.6690    1.0000 </r>
       <r>    2.9545    1.0000 </r>
       <r>    3.2640    1.0000 </r>
       <r>    3.4590    1.0000 </r>
       <r>    3.5779    1.0000 </r>
       <r>    3.7297    1.0000 </r>
       <r>    3.8253    1.0000 </r>
       <r>    3.9349    1.0000 </r>
       <r>    4.0046    1.0000 </r>
       <r>    4.0883    1.0000 </r>
       <r>    4.1260    1.0000 </r>
       <r>    4.2835    1.0000 </r>
       <r>    4.3688    1.0000 </r>
       <r>    4.5069    1.0000 </r>
       <r>    4.6429    1.0000 </r>
       <r>    4.8552    1.0000 </r>
       <r>    4.9312    1.0000 </r>
       <r>    5.0788    1.0000 </r>
       <r>    5.4312    1.0000 </r>
       <r>    5.5532    1.0000 </r>
       <r>    5.6740    1.0000 </r>
       <r>    5.6902    1.0000 </r>
       <r>    5.7819    1.0000 </r>
       <r>    5.9167    1.0000 </r>
       <r>    6.0961    1.0000 </r>
       <r>    6.4671    1.0000 </r>
       <r>    6.5450    1.0000 </r>
       <r>    7.5948    1.0040 </r>
       <r>    7.8699    1.0350 </r>
       <r>   12.1219    0.0000 </r>
       <r>   13.5541    0.0000 </r>
       <r>   15.0167    0.0000 </r>
       <r>   15.6329    0.0000 </r>
       <r>   16.1785    0.0000 </r>
      </set>
      <set comment="kpoint 7">
       <r>    0.5604    1.0000 </r>
       <r>    1.3295    1.0000 </r>
       <r>    1.5963    1.0000 </r>
       <r>    2.2689    1.0000 </r>
       <r>    2.3918    1.0000 </r>
       <r>    2.6510    1.0000 </r>
       <r>    2.8950    1.0000 </r>
       <r>    3.2140    1.0000 </r>
       <r>    3.4191    1.0000 </r>
       <r>    3.5025    1.0000 </r>
       <r>    3.6899    1.0000 </r>
       <r>    3.7848    1.0000 </r>
       <r>    3.8435    1.0000 </r>
       <r>    3.9218    1.0000 </r>
       <r>    4.0053    1.0000 </r>
       <r>    4.0639    1.0000 </r>
       <r>    4.1740    1.0000 </r>
       <r>    4.2203    1.0000 </r>
       <r>    4.2575    1.0000 </r>
       <r>    4.4090    1.0000 </r>
       <r>    4.5555    1.0000 </r>
       <r>    4.7162    1.0000 </r>
       <r>    5.0380    1.0000 </r>
       <r>    5.1925    1.0000 </r>
       <r>    5.3562    1.0000 </r>
       <r>    5.5330    1.0000 </r>
       <r>    5.6669    1.0000 </r>
       <r>    5.6738    1.0000 </r>
       <r>    5.7348    1.0000 </r>
       <r>    5.8632    1.0000 </r>
       <r>    6.1464    1.0000 </r>
       <r>    6.4696    1.0000 </r>
       <r>    6.5474    1.0000 </r>
       <r>    7.9654    1.0210 </r>
       <r>    8.2808    0.4262 </r>
       <r>   12.6896    0.0000 </r>
       <r>   12.8803    0.0000 </r>
       <r>   14.3161    0.0000 </r>
       <r>   14.5140    0.0000 </r>
       <r>   15.6589    0.0000 </r>
      </set>
      <set comment="kpoint 8">
       <r>    0.9140    1.0000 </r>
       <r>    1.5127    1.0000 </r>
       <r>    1.6663    1.0000 </r>
       <r>    2.3034    1.0000 </r>
       <r>    2.4441    1.0000 </r>
       <r>    2.6347    1.0000 </r>
       <r>    3.1389    1.0000 </r>
       <r>    3.3067    1.0000 </r>
       <r>    3.4232    1.0000 </r>
       <r>    3.5126    1.0000 </r>
       <r>    3.7789    1.0000 </r>
       <r>    3.8428    1.0000 </r>
       <r>    3.9739    1.0000 </r>
       <r>    4.0159    1.0000 </r>
       <r>    4.0192    1.0000 </r>
       <r>    4.1024    1.0000 </r>
       <r>    4.2044    1.0000 </r>
       <r>    4.2576    1.0000 </r>
       <r>    4.3046    1.0000 </r>
       <r>    4.4522    1.0000 </r>
       <r>    4.5005    1.0000 </r>
       <r>    4.5928    1.0000 </r>
       <r>    5.1550    1.0000 </r>
       <r>    5.2577    1.0000 </r>
       <r>    5.3528    1.0000 </r>
       <r>    5.5335    1.0000 </r>
       <r>    5.6605    1.0000 </r>
       <r>    5.6812    1.0000 </r>
       <r>    5.7249    1.0000 </r>
       <r>    5.7940    1.0000 </r>
       <r>    6.2234    1.0000 </r>
       <r>    6.4718    1.0000 </r>
       <r>    6.5453    1.0000 </r>
       <r>    8.3440    0.2597 </r>
       <r>    8.6692   -0.0324 </r>
       <r>   11.8517    0.0000 </r>
       <r>   13.3002    0.0000 </r>
       <r>   13.4749    0.0000 </r>
       <r>   13.6852    0.0000 </r>
       <r>   15.5015    0.0000 </r>
      </set>
      <set comment="kpoint 9">
       <r>    1.2368    1.0000 </r>
       <r>    1.6667    1.0000 </r>
       <r>    1.7023    1.0000 </r>
       <r>    2.3310    1.0000 </r>
       <r>    2.4233    1.0000 </r>
       <r>    2.6797    1.0000 </r>
       <r>    3.2732    1.0000 </r>
       <r>    3.3481    1.0000 </r>
       <r>    3.4026    1.0000 </r>
       <r>    3.5138    1.0000 </r>
       <r>    3.7127    1.0000 </r>
       <r>    3.8198    1.0000 </r>
       <r>    3.9278    1.0000 </r>
       <r>    3.9689    1.0000 </r>
       <r>    4.1996    1.0000 </r>
       <r>    4.2272    1.0000 </r>
       <r>    4.2350    1.0000 </r>
       <r>    4.4164    1.0000 </r>
       <r>    4.4836    1.0000 </r>
       <r>    4.5225    1.0000 </r>
       <r>    4.5231    1.0000 </r>
       <r>    4.8364    1.0000 </r>
       <r>    5.1640    1.0000 </r>
       <r>    5.3241    1.0000 </r>
       <r>    5.5396    1.0000 </r>
       <r>    5.5802    1.0000 </r>
       <r>    5.6892    1.0000 </r>
       <r>    5.6961    1.0000 </r>
       <r>    5.7148    1.0000 </r>
       <r>    5.7280    1.0000 </r>
       <r>    6.3302    1.0000 </r>
       <r>    6.4730    1.0000 </r>
       <r>    6.5383    1.0000 </r>
       <r>    8.7237   -0.0247 </r>
       <r>    8.9831   -0.0016 </r>
       <r>   10.9767    0.0000 </r>
       <r>   12.3589    0.0000 </r>
       <r>   12.6386    0.0000 </r>
       <r>   14.3864    0.0000 </r>
       <r>   15.4323    0.0000 </r>
      </set>
      <set comment="kpoint 10">
       <r>    1.4695    1.0000 </r>
       <r>    1.7129    1.0000 </r>
       <r>    1.7976    1.0000 </r>
       <r>    2.3241    1.0000 </r>
       <r>    2.4369    1.0000 </r>
       <r>    2.7625    1.0000 </r>
       <r>    3.2422    1.0000 </r>
       <r>    3.3973    1.0000 </r>
       <r>    3.4674    1.0000 </r>
       <r>    3.4995    1.0000 </r>
       <r>    3.6368    1.0000 </r>
       <r>    3.7819    1.0000 </r>
       <r>    3.8778    1.0000 </r>
       <r>    3.9301    1.0000 </r>
       <r>    4.1015    1.0000 </r>
       <r>    4.1718    1.0000 </r>
       <r>    4.4027    1.0000 </r>
       <r>    4.4204    1.0000 </r>
       <r>    4.5890    1.0000 </r>
       <r>    4.7280    1.0000 </r>
       <r>    4.8361    1.0000 </r>
       <r>    5.0884    1.0000 </r>
       <r>    5.2713    1.0000 </r>
       <r>    5.5363    1.0000 </r>
       <r>    5.6315    1.0000 </r>
       <r>    5.6321    1.0000 </r>
       <r>    5.6864    1.0000 </r>
       <r>    5.7383    1.0000 </r>
       <r>    5.7821    1.0000 </r>
       <r>    5.9427    1.0000 </r>
       <r>    6.4736    1.0000 </r>
       <r>    6.4885    1.0000 </r>
       <r>    6.5273    1.0000 </r>
       <r>    9.0050   -0.0011 </r>
       <r>    9.1348   -0.0001 </r>
       <r>   10.1656    0.0000 </r>
       <r>   11.4686    0.0000 </r>
       <r>   12.0504    0.0000 </r>
       <r>   14.6415    0.0000 </r>
       <r>   15.0846    0.0000 </r>
      </set>
      <set comment="kpoint 11">
       <r>    1.5986    1.0000 </r>
       <r>    1.7171    1.0000 </r>
       <r>    1.8587    1.0000 </r>
       <r>    2.2787    1.0000 </r>
       <r>    2.5773    1.0000 </r>
       <r>    2.8440    1.0000 </r>
       <r>    3.2259    1.0000 </r>
       <r>    3.3992    1.0000 </r>
       <r>    3.4128    1.0000 </r>
       <r>    3.5650    1.0000 </r>
       <r>    3.5969    1.0000 </r>
       <r>    3.7566    1.0000 </r>
       <r>    3.8360    1.0000 </r>
       <r>    3.9060    1.0000 </r>
       <r>    4.0183    1.0000 </r>
       <r>    4.1219    1.0000 </r>
       <r>    4.3410    1.0000 </r>
       <r>    4.5283    1.0000 </r>
       <r>    4.6664    1.0000 </r>
       <r>    4.9202    1.0000 </r>
       <r>    5.0372    1.0000 </r>
       <r>    5.1070    1.0000 </r>
       <r>    5.4930    1.0000 </r>
       <r>    5.5981    1.0000 </r>
       <r>    5.6000    1.0000 </r>
       <r>    5.6645    1.0000 </r>
       <r>    5.7629    1.0000 </r>
       <r>    5.7652    1.0000 </r>
       <r>    6.3069    1.0000 </r>
       <r>    6.4188    1.0000 </r>
       <r>    6.4747    1.0000 </r>
       <r>    6.5143    1.0000 </r>
       <r>    6.7564    1.0000 </r>
       <r>    8.7550   -0.0200 </r>
       <r>    9.1496   -0.0001 </r>
       <r>    9.4289    0.0000 </r>
       <r>   10.9674    0.0000 </r>
       <r>   11.9124    0.0000 </r>
       <r>   13.6786    0.0000 </r>
       <r>   14.4447    0.0000 </r>
      </set>
      <set comment="kpoint 12">
       <r>    1.6603    1.0000 </r>
       <r>    1.7278    1.0000 </r>
       <r>    1.8501    1.0000 </r>
       <r>    2.2489    1.0000 </r>
       <r>    2.7437    1.0000 </r>
       <r>    2.9044    1.0000 </r>
       <r>    3.2182    1.0000 </r>
       <r>    3.3641    1.0000 </r>
       <r>    3.4079    1.0000 </r>
       <r>    3.5613    1.0000 </r>
       <r>    3.5773    1.0000 </r>
       <r>    3.7564    1.0000 </r>
       <r>    3.8093    1.0000 </r>
       <r>    3.8996    1.0000 </r>
       <r>    3.9559    1.0000 </r>
       <r>    4.0895    1.0000 </r>
       <r>    4.3025    1.0000 </r>
       <r>    4.5734    1.0000 </r>
       <r>    4.7258    1.0000 </r>
       <r>    5.0122    1.0000 </r>
       <r>    5.0360    1.0000 </r>
       <r>    5.2775    1.0000 </r>
       <r>    5.4341    1.0000 </r>
       <r>    5.5981    1.0000 </r>
       <r>    5.6393    1.0000 </r>
       <r>    5.7718    1.0000 </r>
       <r>    5.7812    1.0000 </r>
       <r>    5.8211    1.0000 </r>
       <r>    6.4773    1.0000 </r>
       <r>    6.5022    1.0000 </r>
       <r>    6.9681    1.0000 </r>
       <r>    7.0450    1.0000 </r>
       <r>    7.2142    1.0000 </r>
       <r>    8.2057    0.6359 </r>
       <r>    8.6408   -0.0349 </r>
       <r>    8.7008   -0.0282 </r>
       <r>   11.1444    0.0000 </r>
       <r>   12.1910    0.0000 </r>
       <r>   12.8002    0.0000 </r>
       <r>   13.6742    0.0000 </r>
      </set>
      <set comment="kpoint 13">
       <r>    1.6751    1.0000 </r>
       <r>    1.7433    1.0000 </r>
       <r>    1.8321    1.0000 </r>
       <r>    2.2390    1.0000 </r>
       <r>    2.8177    1.0000 </r>
       <r>    2.9281    1.0000 </r>
       <r>    3.2158    1.0000 </r>
       <r>    3.3494    1.0000 </r>
       <r>    3.4046    1.0000 </r>
       <r>    3.5526    1.0000 </r>
       <r>    3.5694    1.0000 </r>
       <r>    3.7588    1.0000 </r>
       <r>    3.8002    1.0000 </r>
       <r>    3.9095    1.0000 </r>
       <r>    3.9223    1.0000 </r>
       <r>    4.0785    1.0000 </r>
       <r>    4.2894    1.0000 </r>
       <r>    4.5850    1.0000 </r>
       <r>    4.7478    1.0000 </r>
       <r>    5.0065    1.0000 </r>
       <r>    5.0758    1.0000 </r>
       <r>    5.3357    1.0000 </r>
       <r>    5.4085    1.0000 </r>
       <r>    5.5990    1.0000 </r>
       <r>    5.6344    1.0000 </r>
       <r>    5.7878    1.0000 </r>
       <r>    5.7955    1.0000 </r>
       <r>    5.8623    1.0000 </r>
       <r>    6.4797    1.0000 </r>
       <r>    6.4962    1.0000 </r>
       <r>    7.4381    1.0004 </r>
       <r>    7.5898    1.0037 </r>
       <r>    7.7026    1.0129 </r>
       <r>    7.8867    1.0355 </r>
       <r>    7.9570    1.0243 </r>
       <r>    8.1222    0.8361 </r>
       <r>   11.4885    0.0000 </r>
       <r>   12.2600    0.0000 </r>
       <r>   12.5252    0.0000 </r>
       <r>   13.2091    0.0000 </r>
      </set>
      <set comment="kpoint 14">
       <r>   -0.5932    1.0000 </r>
       <r>    0.4642    1.0000 </r>
       <r>    1.0096    1.0000 </r>
       <r>    1.9629    1.0000 </r>
       <r>    2.0468    1.0000 </r>
       <r>    2.0700    1.0000 </r>
       <r>    2.3052    1.0000 </r>
       <r>    2.6075    1.0000 </r>
       <r>    2.7305    1.0000 </r>
       <r>    3.0660    1.0000 </r>
       <r>    3.4212    1.0000 </r>
       <r>    3.8291    1.0000 </r>
       <r>    3.8748    1.0000 </r>
       <r>    4.1210    1.0000 </r>
       <r>    4.1269    1.0000 </r>
       <r>    4.3221    1.0000 </r>
       <r>    4.4634    1.0000 </r>
       <r>    4.5306    1.0000 </r>
       <r>    4.6327    1.0000 </r>
       <r>    4.7376    1.0000 </r>
       <r>    4.8771    1.0000 </r>
       <r>    5.0575    1.0000 </r>
       <r>    5.3150    1.0000 </r>
       <r>    5.4074    1.0000 </r>
       <r>    5.4770    1.0000 </r>
       <r>    5.5384    1.0000 </r>
       <r>    5.7575    1.0000 </r>
       <r>    5.8254    1.0000 </r>
       <r>    5.8425    1.0000 </r>
       <r>    5.9311    1.0000 </r>
       <r>    6.2838    1.0000 </r>
       <r>    6.3966    1.0000 </r>
       <r>    6.4900    1.0000 </r>
       <r>    6.5263    1.0000 </r>
       <r>    6.5978    1.0000 </r>
       <r>   10.2453    0.0000 </r>
       <r>   14.5087    0.0000 </r>
       <r>   14.5930    0.0000 </r>
       <r>   14.4828    0.0000 </r>
       <r>   17.0125    0.0000 </r>
      </set>
      <set comment="kpoint 15">
       <r>   -0.4798    1.0000 </r>
       <r>    0.5678    1.0000 </r>
       <r>    1.0968    1.0000 </r>
       <r>    2.0329    1.0000 </r>
       <r>    2.1029    1.0000 </r>
       <r>    2.1390    1.0000 </r>
       <r>    2.3634    1.0000 </r>
       <r>    2.6415    1.0000 </r>
       <r>    2.7854    1.0000 </r>
       <r>    3.1033    1.0000 </r>
       <r>    3.4537    1.0000 </r>
       <r>    3.7890    1.0000 </r>
       <r>    3.8986    1.0000 </r>
       <r>    4.0682    1.0000 </r>
       <r>    4.1147    1.0000 </r>
       <r>    4.2588    1.0000 </r>
       <r>    4.4372    1.0000 </r>
       <r>    4.5302    1.0000 </r>
       <r>    4.6465    1.0000 </r>
       <r>    4.6970    1.0000 </r>
       <r>    4.7360    1.0000 </r>
       <r>    4.9659    1.0000 </r>
       <r>    5.1463    1.0000 </r>
       <r>    5.3434    1.0000 </r>
       <r>    5.4366    1.0000 </r>
       <r>    5.5747    1.0000 </r>
       <r>    5.6955    1.0000 </r>
       <r>    5.8271    1.0000 </r>
       <r>    5.8771    1.0000 </r>
       <r>    5.9670    1.0000 </r>
       <r>    6.2432    1.0000 </r>
       <r>    6.4292    1.0000 </r>
       <r>    6.5272    1.0000 </r>
       <r>    6.6511    1.0000 </r>
       <r>    6.8301    1.0000 </r>
       <r>   10.5446    0.0000 </r>
       <r>   14.4630    0.0000 </r>
       <r>   15.1227    0.0000 </r>
       <r>   14.6782    0.0000 </r>
       <r>   15.9413    0.0000 </r>
      </set>
      <set comment="kpoint 16">
       <r>   -0.2951    1.0000 </r>
       <r>    0.7302    1.0000 </r>
       <r>    1.2275    1.0000 </r>
       <r>    2.1144    1.0000 </r>
[...]
       <r>    5.7485    1.0000 </r>
       <r>    6.1347    1.0000 </r>
       <r>    6.1375    1.0000 </r>
       <r>    6.1624    1.0000 </r>
       <r>    6.4312    1.0000 </r>
       <r>    6.4715    1.0000 </r>
       <r>    6.5927    1.0000 </r>
       <r>    6.6143    1.0000 </r>
       <r>    6.6367    1.0000 </r>
       <r>    9.5727    0.0000 </r>
       <r>   10.0177    0.0000 </r>
       <r>   10.3399    0.0000 </r>
       <r>   10.8315    0.0000 </r>
       <r>   12.3803    0.0000 </r>
       <r>   12.9174    0.0000 </r>
       <r>   13.6840    0.0000 </r>
       <r>   13.8869    0.0000 </r>
       <r>   14.2500    0.0000 </r>
       <r>   14.2607    0.0000 </r>
      </set>
      <set comment="kpoint 363">
       <r>    1.8257    1.0000 </r>
       <r>    2.0007    1.0000 </r>
       <r>    2.0404    1.0000 </r>
       <r>    2.1715    1.0000 </r>
       <r>    2.1816    1.0000 </r>
       <r>    2.2752    1.0000 </r>
       <r>    2.5335    1.0000 </r>
       <r>    2.5398    1.0000 </r>
       <r>    2.6009    1.0000 </r>
       <r>    3.1438    1.0000 </r>
       <r>    3.1879    1.0000 </r>
       <r>    3.8383    1.0000 </r>
       <r>    4.0417    1.0000 </r>
       <r>    4.0823    1.0000 </r>
       <r>    4.7442    1.0000 </r>
       <r>    5.2469    1.0000 </r>
       <r>    5.2507    1.0000 </r>
       <r>    5.3294    1.0000 </r>
       <r>    5.4092    1.0000 </r>
       <r>    5.4507    1.0000 </r>
       <r>    5.5948    1.0000 </r>
       <r>    5.7767    1.0000 </r>
       <r>    6.1401    1.0000 </r>
       <r>    6.1645    1.0000 </r>
       <r>    6.1768    1.0000 </r>
       <r>    6.4369    1.0000 </r>
       <r>    6.5109    1.0000 </r>
       <r>    6.6033    1.0000 </r>
       <r>    6.6655    1.0000 </r>
       <r>    6.6802    1.0000 </r>
       <r>   10.0181    0.0000 </r>
       <r>   10.0394    0.0000 </r>
       <r>   10.4609    0.0000 </r>
       <r>   10.5452    0.0000 </r>
       <r>   12.8088    0.0000 </r>
       <r>   13.1303    0.0000 </r>
       <r>   13.5974    0.0000 </r>
       <r>   13.8764    0.0000 </r>
       <r>   13.9057    0.0000 </r>
       <r>   14.2040    0.0000 </r>
      </set>
      <set comment="kpoint 364">
       <r>    1.8064    1.0000 </r>
       <r>    1.9807    1.0000 </r>
       <r>    2.0282    1.0000 </r>
       <r>    2.1637    1.0000 </r>
       <r>    2.1637    1.0000 </r>
       <r>    2.2510    1.0000 </r>
       <r>    2.5288    1.0000 </r>
       <r>    2.5288    1.0000 </r>
       <r>    2.5751    1.0000 </r>
       <r>    3.1704    1.0000 </r>
       <r>    3.1704    1.0000 </r>
       <r>    3.8340    1.0000 </r>
       <r>    4.0728    1.0000 </r>
       <r>    4.0728    1.0000 </r>
       <r>    4.7394    1.0000 </r>
       <r>    5.2873    1.0000 </r>
       <r>    5.3062    1.0000 </r>
       <r>    5.3062    1.0000 </r>
       <r>    5.4212    1.0000 </r>
       <r>    5.4636    1.0000 </r>
       <r>    5.6307    1.0000 </r>
       <r>    5.8041    1.0000 </r>
       <r>    6.1604    1.0000 </r>
       <r>    6.1851    1.0000 </r>
       <r>    6.1851    1.0000 </r>
       <r>    6.4441    1.0000 </r>
       <r>    6.5458    1.0000 </r>
       <r>    6.6148    1.0000 </r>
       <r>    6.7208    1.0000 </r>
       <r>    6.7318    1.0000 </r>
       <r>   10.1410    0.0000 </r>
       <r>   10.1410    0.0000 </r>
       <r>   10.6278    0.0000 </r>
       <r>   10.6278    0.0000 </r>
       <r>   13.1196    0.0000 </r>
       <r>   13.1939    0.0000 </r>
       <r>   13.3481    0.0000 </r>
       <r>   13.8857    0.0000 </r>
       <r>   14.1071    0.0000 </r>
       <r>   14.1127    0.0000 </r>
      </set>
     </set>
    </set>
   </array>
  </eigenvalues>
  <separator name="orbital magnetization" >
   <v name="MAGDIPOLOUT">      0.00000000      0.00000000      0.00000000</v>
  </separator>
  <dos>
   <i name="efermi">      8.25456972 </i>
   <total>
    <array>
     <dimension dim="1">gridpoints</dimension>
     <dimension dim="2">spin</dimension>
     <field>energy</field>
     <field>total</field>
     <field>integrated</field>
     <set>
      <set comment="spin 1">
       <r>    -3.6696     0.0000     0.0000 </r>
       <r>    -3.5881     0.0000     0.0000 </r>
       <r>    -3.5066     0.0000     0.0000 </r>
       <r>    -3.4251     0.0000     0.0000 </r>
       <r>    -3.3436     0.0000     0.0000 </r>
       <r>    -3.2621     0.0000     0.0000 </r>
       <r>    -3.1806     0.0000     0.0000 </r>
       <r>    -3.0992     0.0000     0.0000 </r>
       <r>    -3.0177     0.0000     0.0000 </r>
       <r>    -2.9362     0.0000     0.0000 </r>
       <r>    -2.8547     0.0000     0.0000 </r>
       <r>    -2.7732     0.0000     0.0000 </r>
       <r>    -2.6917     0.0000     0.0000 </r>
       <r>    -2.6102     0.0000     0.0000 </r>
       <r>    -2.5287     0.0000     0.0000 </r>
       <r>    -2.4472     0.0000     0.0000 </r>
       <r>    -2.3657     0.0000     0.0000 </r>
       <r>    -2.2842     0.0000     0.0000 </r>
       <r>    -2.2027     0.0000     0.0000 </r>
       <r>    -2.1212     0.0000     0.0000 </r>
       <r>    -2.0397     0.0000     0.0000 </r>
       <r>    -1.9582     0.0000     0.0000 </r>
       <r>    -1.8767     0.0000     0.0000 </r>
       <r>    -1.7952     0.0000     0.0000 </r>
       <r>    -1.7137     0.0000     0.0000 </r>
       <r>    -1.6322     0.0000     0.0000 </r>
       <r>    -1.5507     0.0000     0.0000 </r>
       <r>    -1.4692     0.0000     0.0000 </r>
       <r>    -1.3877    -0.0002     0.0000 </r>
       <r>    -1.3062    -0.0006    -0.0001 </r>
       <r>    -1.2247    -0.0016    -0.0002 </r>
       <r>    -1.1432    -0.0037    -0.0005 </r>
       <r>    -1.0617    -0.0069    -0.0011 </r>
       <r>    -0.9802    -0.0095    -0.0018 </r>
       <r>    -0.8987    -0.0072    -0.0024 </r>
       <r>    -0.8172     0.0071    -0.0018 </r>
       <r>    -0.7357     0.0398     0.0014 </r>
       <r>    -0.6542     0.0917     0.0089 </r>
       <r>    -0.5727     0.1552     0.0215 </r>
       <r>    -0.4912     0.2166     0.0392 </r>
       <r>    -0.4097     0.2633     0.0606 </r>
       <r>    -0.3282     0.2902     0.0843 </r>
       <r>    -0.2467     0.3013     0.1088 </r>
       <r>    -0.1652     0.3060     0.1338 </r>
       <r>    -0.0837     0.3143     0.1594 </r>
       <r>    -0.0022     0.3340     0.1866 </r>
       <r>     0.0793     0.3689     0.2167 </r>
       <r>     0.1608     0.4186     0.2508 </r>
       <r>     0.2423     0.4774     0.2897 </r>
       <r>     0.3238     0.5371     0.3335 </r>
       <r>     0.4053     0.5902     0.3816 </r>
       <r>     0.4868     0.6332     0.4332 </r>
       <r>     0.5683     0.6653     0.4874 </r>
       <r>     0.6498     0.6878     0.5434 </r>
       <r>     0.7313     0.7050     0.6009 </r>
       <r>     0.8128     0.7255     0.6600 </r>
       <r>     0.8943     0.7577     0.7218 </r>
       <r>     0.9758     0.8053     0.7874 </r>
       <r>     1.0573     0.8666     0.8580 </r>
       <r>     1.1388     0.9395     0.9346 </r>
       <r>     1.2203     1.0268     1.0183 </r>
       <r>     1.3018     1.1440     1.1115 </r>
       <r>     1.3833     1.3240     1.2194 </r>
       <r>     1.4648     1.6121     1.3508 </r>
       <r>     1.5463     2.0413     1.5172 </r>
       <r>     1.6278     2.6004     1.7291 </r>
       <r>     1.7093     3.2300     1.9924 </r>
       <r>     1.7908     3.8670     2.3075 </r>
       <r>     1.8723     4.5163     2.6756 </r>
       <r>     1.9538     5.2786     3.1058 </r>
       <r>     2.0353     6.2874     3.6182 </r>
       <r>     2.1168     7.5887     4.2367 </r>
       <r>     2.1983     9.0651     4.9755 </r>
       <r>     2.2798    10.4822     5.8298 </r>
       <r>     2.3613    11.6260     6.7773 </r>
       <r>     2.4428    12.4063     7.7884 </r>
       <r>     2.5243    12.8365     8.8345 </r>
       <r>     2.6058    12.9384     9.8890 </r>
       <r>     2.6873    12.7037    10.9243 </r>
       <r>     2.7688    12.1624    11.9156 </r>
       <r>     2.8503    11.4654    12.8500 </r>
       <r>     2.9318    10.8603    13.7351 </r>
       <r>     3.0133    10.5621    14.5959 </r>
       <r>     3.0948    10.6408    15.4631 </r>
       <r>     3.1763    11.0307    16.3621 </r>
       <r>     3.2578    11.6310    17.3100 </r>
       <r>     3.3393    12.3810    18.3190 </r>
       <r>     3.4208    13.2353    19.3977 </r>
       <r>     3.5023    14.1043    20.5472 </r>
       <r>     3.5838    14.8716    21.7592 </r>
       <r>     3.6653    15.4955    23.0221 </r>
       <r>     3.7468    16.0637    24.3312 </r>
       <r>     3.8283    16.6919    25.6916 </r>
       <r>     3.9098    17.3349    27.1044 </r>
       <r>     3.9913    17.7095    28.5477 </r>
       <r>     4.0728    17.4511    29.9699 </r>
       <r>     4.1543    16.4130    31.3076 </r>
       <r>     4.2358    14.8617    32.5188 </r>
       <r>     4.3173    13.3732    33.6087 </r>
       <r>     4.3988    12.4801    34.6258 </r>
       <r>     4.4803    12.3349    35.6311 </r>
       <r>     4.5618    12.6523    36.6622 </r>
       <r>     4.6432    12.9506    37.7177 </r>
       <r>     4.7247    12.8780    38.7673 </r>
       <r>     4.8062    12.3844    39.7766 </r>
       <r>     4.8877    11.6750    40.7281 </r>
       <r>     4.9692    11.0494    41.6286 </r>
       <r>     5.0507    10.7589    42.5054 </r>
       <r>     5.1322    10.9190    43.3953 </r>
       <r>     5.2137    11.4702    44.3301 </r>
       <r>     5.2952    12.2104    45.3253 </r>
       <r>     5.3767    12.9180    46.3781 </r>
       <r>     5.4582    13.4914    47.4776 </r>
       <r>     5.5397    13.9664    48.6158 </r>
       <r>     5.6212    14.3775    49.7876 </r>
       <r>     5.7027    14.6214    50.9792 </r>
       <r>     5.7842    14.4987    52.1609 </r>
       <r>     5.8657    13.9137    53.2948 </r>
       <r>     5.9472    13.0236    54.3562 </r>
       <r>     6.0287    12.1867    55.3494 </r>
       <r>     6.1102    11.7659    56.3083 </r>
       <r>     6.1917    11.9445    57.2818 </r>
       <r>     6.2732    12.6233    58.3106 </r>
       <r>     6.3547    13.3893    59.4018 </r>
       <r>     6.4362    13.6052    60.5106 </r>
       <r>     6.5177    12.7017    61.5458 </r>
       <r>     6.5992    10.5625    62.4066 </r>
       <r>     6.6807     7.6807    63.0326 </r>
       <r>     6.7622     4.8849    63.4307 </r>
       <r>     6.8437     2.8403    63.6622 </r>
       <r>     6.9252     1.7410    63.8041 </r>
       <r>     7.0067     1.3772    63.9163 </r>
       <r>     7.0882     1.4037    64.0307 </r>
       <r>     7.1697     1.5493    64.1570 </r>
       <r>     7.2512     1.6728    64.2933 </r>
       <r>     7.3327     1.7286    64.4342 </r>
       <r>     7.4142     1.7245    64.5747 </r>
       <r>     7.4957     1.6930    64.7127 </r>
       <r>     7.5772     1.6676    64.8486 </r>
       <r>     7.6587     1.6633    64.9842 </r>
       <r>     7.7402     1.6749    65.1207 </r>
       <r>     7.8217     1.6910    65.2585 </r>
       <r>     7.9032     1.7058    65.3975 </r>
       <r>     7.9847     1.7175    65.5375 </r>
       <r>     8.0662     1.7225    65.6779 </r>
       <r>     8.1477     1.7181    65.8179 </r>
       <r>     8.2292     1.7063    65.9570 </r>
       <r>     8.3107     1.6925    66.0949 </r>
       <r>     8.3922     1.6813    66.2319 </r>
       <r>     8.4737     1.6750    66.3684 </r>
       <r>     8.5552     1.6752    66.5049 </r>
       <r>     8.6367     1.6808    66.6419 </r>
       <r>     8.7182     1.6861    66.7794 </r>
       <r>     8.7997     1.6822    66.9165 </r>
       <r>     8.8812     1.6660    67.0522 </r>
       <r>     8.9627     1.6453    67.1863 </r>
       <r>     9.0442     1.6332    67.3194 </r>
       <r>     9.1257     1.6338    67.4526 </r>
       <r>     9.2072     1.6367    67.5860 </r>
       <r>     9.2887     1.6282    67.7187 </r>
       <r>     9.3702     1.6075    67.8497 </r>
       <r>     9.4517     1.5884    67.9791 </r>
       <r>     9.5332     1.5854    68.1083 </r>
       <r>     9.6147     1.5996    68.2387 </r>
       <r>     9.6962     1.6196    68.3707 </r>
       <r>     9.7777     1.6304    68.5036 </r>
       <r>     9.8592     1.6216    68.6357 </r>
       <r>     9.9407     1.5901    68.7653 </r>
       <r>    10.0222     1.5429    68.8911 </r>
       <r>    10.1037     1.4953    69.0129 </r>
       <r>    10.1852     1.4620    69.1321 </r>
       <r>    10.2667     1.4465    69.2500 </r>
       <r>    10.3482     1.4407    69.3674 </r>
       <r>    10.4297     1.4353    69.4844 </r>
       <r>    10.5112     1.4258    69.6006 </r>
       <r>    10.5927     1.4094    69.7154 </r>
       <r>    10.6742     1.3835    69.8282 </r>
       <r>    10.7557     1.3562    69.9387 </r>
       <r>    10.8372     1.3545    70.0491 </r>
       <r>    10.9187     1.4089    70.1639 </r>
       <r>    11.0002     1.5247    70.2882 </r>
       <r>    11.0817     1.6698    70.4243 </r>
       <r>    11.1632     1.7930    70.5704 </r>
       <r>    11.2447     1.8548    70.7215 </r>
       <r>    11.3262     1.8478    70.8721 </r>
       <r>    11.4077     1.7940    71.0184 </r>
       <r>    11.4892     1.7282    71.1592 </r>
       <r>    11.5707     1.6765    71.2958 </r>
       <r>    11.6522     1.6464    71.4300 </r>
       <r>    11.7337     1.6335    71.5632 </r>
       <r>    11.8152     1.6376    71.6966 </r>
       <r>    11.8967     1.6695    71.8327 </r>
       <r>    11.9782     1.7414    71.9746 </r>
       <r>    12.0597     1.8495    72.1253 </r>
       <r>    12.1412     1.9664    72.2856 </r>
       <r>    12.2227     2.0510    72.4527 </r>
       <r>    12.3042     2.0694    72.6214 </r>
       <r>    12.3857     2.0141    72.7855 </r>
       <r>    12.4671     1.9105    72.9412 </r>
       <r>    12.5486     1.8044    73.0883 </r>
       <r>    12.6301     1.7375    73.2299 </r>
       <r>    12.7116     1.7279    73.3707 </r>
       <r>    12.7931     1.7660    73.5146 </r>
       <r>    12.8746     1.8239    73.6633 </r>
       <r>    12.9561     1.8685    73.8156 </r>
       <r>    13.0376     1.8737    73.9683 </r>
       <r>    13.1191     1.8327    74.1177 </r>
       <r>    13.2006     1.7638    74.2614 </r>
       <r>    13.2821     1.7010    74.4000 </r>
       <r>    13.3636     1.6758    74.5366 </r>
       <r>    13.4451     1.7000    74.6751 </r>
       <r>    13.5266     1.7613    74.8187 </r>
       <r>    13.6081     1.8326    74.9680 </r>
       <r>    13.6896     1.8921    75.1222 </r>
       <r>    13.7711     1.9385    75.2802 </r>
       <r>    13.8526     1.9870    75.4422 </r>
       <r>    13.9341     2.0492    75.6092 </r>
       <r>    14.0156     2.1166    75.7817 </r>
       <r>    14.0971     2.1680    75.9584 </r>
       <r>    14.1786     2.1911    76.1369 </r>
       <r>    14.2601     2.1943    76.3158 </r>
       <r>    14.3416     2.1967    76.4948 </r>
       <r>    14.4231     2.2128    76.6751 </r>
       <r>    14.5046     2.2473    76.8583 </r>
       <r>    14.5861     2.2995    77.0457 </r>
       <r>    14.6676     2.3630    77.2383 </r>
       <r>    14.7491     2.4187    77.4354 </r>
       <r>    14.8306     2.4350    77.6339 </r>
       <r>    14.9121     2.3843    77.8282 </r>
       <r>    14.9936     2.2594    78.0123 </r>
       <r>    15.0751     2.0781    78.1817 </r>
       <r>    15.1566     1.8711    78.3342 </r>
       <r>    15.2381     1.6687    78.4702 </r>
       <r>    15.3196     1.4916    78.5917 </r>
       <r>    15.4011     1.3483    78.7016 </r>
       <r>    15.4826     1.2391    78.8026 </r>
       <r>    15.5641     1.1628    78.8974 </r>
       <r>    15.6456     1.1215    78.9888 </r>
       <r>    15.7271     1.1164    79.0797 </r>
       <r>    15.8086     1.1348    79.1722 </r>
       <r>    15.8901     1.1449    79.2655 </r>
       <r>    15.9716     1.1116    79.3561 </r>
       <r>    16.0531     1.0289    79.4400 </r>
       <r>    16.1346     0.9357    79.5162 </r>
       <r>    16.2161     0.8900    79.5888 </r>
       <r>    16.2976     0.9166    79.6635 </r>
       <r>    16.3791     0.9752    79.7430 </r>
       <r>    16.4606     0.9846    79.8232 </r>
       <r>    16.5421     0.8828    79.8951 </r>
       <r>    16.6236     0.6730    79.9500 </r>
       <r>    16.7051     0.4177    79.9840 </r>
       <r>    16.7866     0.1943    79.9999 </r>
       <r>    16.8681     0.0491    80.0039 </r>
       <r>    16.9496    -0.0157    80.0026 </r>
       <r>    17.0311    -0.0272    80.0004 </r>
       <r>    17.1126    -0.0165    79.9990 </r>
       <r>    17.1941    -0.0040    79.9987 </r>
       <r>    17.2756     0.0027    79.9989 </r>
       <r>    17.3571     0.0039    79.9993 </r>
       <r>    17.4386     0.0026    79.9995 </r>
       <r>    17.5201     0.0010    79.9995 </r>
       <r>    17.6016     0.0004    79.9996 </r>
       <r>    17.6831     0.0006    79.9996 </r>
       <r>    17.7646     0.0011    79.9997 </r>
       <r>    17.8461     0.0013    79.9998 </r>
       <r>    17.9276     0.0012    79.9999 </r>
       <r>    18.0091     0.0008    80.0000 </r>
       <r>    18.0906     0.0003    80.0000 </r>
       <r>    18.1721     0.0000    80.0000 </r>
       <r>    18.2536    -0.0001    80.0000 </r>
       <r>    18.3351    -0.0001    80.0000 </r>
       <r>    18.4166    -0.0001    80.0000 </r>
       <r>    18.4981     0.0000    80.0000 </r>
       <r>    18.5796     0.0000    80.0000 </r>
       <r>    18.6611     0.0000    80.0000 </r>
       <r>    18.7426     0.0000    80.0000 </r>
       <r>    18.8241     0.0000    80.0000 </r>
       <r>    18.9056     0.0000    80.0000 </r>
       <r>    18.9871     0.0000    80.0000 </r>
       <r>    19.0686     0.0000    80.0000 </r>
       <r>    19.1501     0.0000    80.0000 </r>
       <r>    19.2316     0.0000    80.0000 </r>
       <r>    19.3131     0.0000    80.0000 </r>
       <r>    19.3946     0.0000    80.0000 </r>
       <r>    19.4761     0.0000    80.0000 </r>
       <r>    19.5576     0.0000    80.0000 </r>
       <r>    19.6391     0.0000    80.0000 </r>
       <r>    19.7206     0.0000    80.0000 </r>
       <r>    19.8021     0.0000    80.0000 </r>
       <r>    19.8836     0.0000    80.0000 </r>
       <r>    19.9651     0.0000    80.0000 </r>
       <r>    20.0466     0.0000    80.0000 </r>
       <r>    20.1281     0.0000    80.0000 </r>
       <r>    20.2095     0.0000    80.0000 </r>
       <r>    20.2910     0.0000    80.0000 </r>
       <r>    20.3725     0.0000    80.0000 </r>
       <r>    20.4540     0.0000    80.0000 </r>
       <r>    20.5355     0.0000    80.0000 </r>
       <r>    20.6170     0.0000    80.0000 </r>
       <r>    20.6985     0.0000    80.0000 </r>
       <r>    20.7800     0.0000    80.0000 </r>
      </set>
     </set>
    </array>
   </total>
  </dos>
 </calculation>
 <structure name="finalpos" >
  <crystal>
   <varray name="basis" >
    <v>       0.00000000       2.04887937      -2.04887937 </v>
    <v>       0.00000000      -2.04887937      -2.04887937 </v>
    <v>     -12.06622784       0.00000000       0.00000000 </v>
   </varray>
   <i name="volume">    101.30579722 </i>
   <varray name="rec_basis" >
    <v>       0.00000000       0.24403584      -0.24403584 </v>
    <v>       0.00000000      -0.24403584      -0.24403584 </v>
    <v>      -0.08287594       0.00000000       0.00000000 </v>
   </varray>
  </crystal>
  <varray name="positions" >
   <v>       0.50000000       0.50000000       0.16576380 </v>
   <v>       0.00000000       0.00000000       0.66649954 </v>
   <v>       0.00000000       0.00000000       0.31550387 </v>
   <v>       0.00000000       0.00000000       0.02021572 </v>
   <v>       0.50000000       0.50000000       0.84097213 </v>
   <v>       0.50000000       0.50000000       0.49104494 </v>
  </varray>
 </structure>
</modeling>
