<?xml version="1.0" encoding="ISO-8859-1"?>
<modeling>
 <generator>
  <i name="program" type="string">vasp </i>
  <i name="version" type="string">5.3.5  </i>
  <i name="subversion" type="string">31Mar14 (build Jun 20 2014 13:15:13) complex                          parallel </i>
  <i name="platform" type="string">LinuxIFC </i>
  <i name="date" type="string">2025 11 27 </i>
  <i name="time" type="string">19:56:56 </i>
 </generator>
 <incar>
  <i type="string" name="PREC">accurate</i>
  <i type="int" name="IALGO">    68</i>
  <i type="logical" name="ADDGRID"> T  </i>
  <i type="int" name="NELM">   200</i>
  <i type="int" name="NELMIN">     4</i>
  <i type="int" name="IBRION">     2</i>
  <i name="EDIFF">      0.00000100</i>
  <i name="EDIFFG">     -0.02000000</i>
  <i type="int" name="NSW">    30</i>
  <i type="int" name="ISIF">     3</i>
  <i name="ENCUT">    500.00000000</i>
  <i type="logical" name="LREAL"> F  </i>
  <i type="int" name="ISMEAR">     1</i>
  <i name="SIGMA">      0.30000000</i>
  <i type="logical" name="LWAVE"> F  </i>
  <i type="logical" name="LCHARG"> F  </i>
  <i type="int" name="NELM">   200</i>
 </incar>
 <kpoints>
  <generation param="Auto">
   <i name="subdivisionlength">     70.00000000 </i>
   <v type="int" name="divisions">      25       12       12 </v>
   <v name="usershift">      0.00000000       0.00000000       0.00000000 </v>
   <v name="genvec1">      0.04000000       0.00000000       0.00000000 </v>
   <v name="genvec2">      0.00000000       0.08333333       0.00000000 </v>
   <v name="genvec3">      0.00000000       0.00000000       0.08333333 </v>
   <v name="shift">      0.00000000       0.00000000       0.00000000 </v>
  </generation>
  <varray name="kpointlist" >
   <v>       0.00000000       0.00000000       0.00000000 </v>
   <v>       0.04000000       0.00000000       0.00000000 </v>
   <v>       0.08000000       0.00000000       0.00000000 </v>
   <v>       0.12000000       0.00000000       0.00000000 </v>
   <v>       0.16000000       0.00000000       0.00000000 </v>
   <v>       0.20000000       0.00000000       0.00000000 </v>
   <v>       0.24000000       0.00000000       0.00000000 </v>
   <v>       0.28000000       0.00000000       0.00000000 </v>
   <v>       0.32000000       0.00000000       0.00000000 </v>
   <v>       0.36000000       0.00000000       0.00000000 </v>
   <v>       0.40000000       0.00000000       0.00000000 </v>
   <v>       0.44000000       0.00000000       0.00000000 </v>
   <v>       0.48000000       0.00000000       0.00000000 </v>
   <v>       0.00000000       0.08333333       0.00000000 </v>
   <v>       0.04000000       0.08333333       0.00000000 </v>
   <v>       0.08000000       0.08333333       0.00000000 </v>
   <v>       0.12000000       0.08333333       0.00000000 </v>
   <v>       0.16000000       0.08333333       0.00000000 </v>
   <v>       0.20000000       0.08333333       0.00000000 </v>
   <v>       0.24000000       0.08333333       0.00000000 </v>
   <v>       0.28000000       0.08333333       0.00000000 </v>
   <v>       0.32000000       0.08333333       0.00000000 </v>
   <v>       0.36000000       0.08333333       0.00000000 </v>
   <v>       0.40000000       0.08333333       0.00000000 </v>
   <v>       0.44000000       0.08333333       0.00000000 </v>
   <v>       0.48000000       0.08333333       0.00000000 </v>
   <v>      -0.48000000       0.08333333       0.00000000 </v>
   <v>      -0.44000000       0.08333333       0.00000000 </v>
   <v>      -0.40000000       0.08333333       0.00000000 </v>
   <v>      -0.36000000       0.08333333       0.00000000 </v>
   <v>      -0.32000000       0.08333333       0.00000000 </v>
   <v>      -0.28000000       0.08333333       0.00000000 </v>
   <v>      -0.24000000       0.08333333       0.00000000 </v>
   <v>      -0.20000000       0.08333333       0.00000000 </v>
   <v>      -0.16000000       0.08333333       0.00000000 </v>
   <v>      -0.12000000       0.08333333       0.00000000 </v>
   <v>      -0.08000000       0.08333333       0.00000000 </v>
   <v>      -0.04000000       0.08333333       0.00000000 </v>
   <v>       0.00000000       0.16666667       0.00000000 </v>
   <v>       0.04000000       0.16666667       0.00000000 </v>
   <v>       0.08000000       0.16666667       0.00000000 </v>
   <v>       0.12000000       0.16666667       0.00000000 </v>
   <v>       0.16000000       0.16666667       0.00000000 </v>
   <v>       0.20000000       0.16666667       0.00000000 </v>
   <v>       0.24000000       0.16666667       0.00000000 </v>
   <v>       0.28000000       0.16666667       0.00000000 </v>
   <v>       0.32000000       0.16666667       0.00000000 </v>
   <v>       0.36000000       0.16666667       0.00000000 </v>
   <v>       0.40000000       0.16666667       0.00000000 </v>
   <v>       0.44000000       0.16666667       0.00000000 </v>
   <v>       0.48000000       0.16666667       0.00000000 </v>
   <v>      -0.48000000       0.16666667       0.00000000 </v>
   <v>      -0.44000000       0.16666667       0.00000000 </v>
   <v>      -0.40000000       0.16666667       0.00000000 </v>
   <v>      -0.36000000       0.16666667       0.00000000 </v>
   <v>      -0.32000000       0.16666667       0.00000000 </v>
   <v>      -0.28000000       0.16666667       0.00000000 </v>
   <v>      -0.24000000       0.16666667       0.00000000 </v>
   <v>      -0.20000000       0.16666667       0.00000000 </v>
   <v>      -0.16000000       0.16666667       0.00000000 </v>
   <v>      -0.12000000       0.16666667       0.00000000 </v>
   <v>      -0.08000000       0.16666667       0.00000000 </v>
   <v>      -0.04000000       0.16666667       0.00000000 </v>
   <v>       0.00000000       0.25000000       0.00000000 </v>
   <v>       0.04000000       0.25000000       0.00000000 </v>
   <v>       0.08000000       0.25000000       0.00000000 </v>
   <v>       0.12000000       0.25000000       0.00000000 </v>
   <v>       0.16000000       0.25000000       0.00000000 </v>
   <v>       0.20000000       0.25000000       0.00000000 </v>
   <v>       0.24000000       0.25000000       0.00000000 </v>
   <v>       0.28000000       0.25000000       0.00000000 </v>
   <v>       0.32000000       0.25000000       0.00000000 </v>
   <v>       0.36000000       0.25000000       0.00000000 </v>
   <v>       0.40000000       0.25000000       0.00000000 </v>
   <v>       0.44000000       0.25000000       0.00000000 </v>
   <v>       0.48000000       0.25000000       0.00000000 </v>
   <v>      -0.48000000       0.25000000       0.00000000 </v>
   <v>      -0.44000000       0.25000000       0.00000000 </v>
   <v>      -0.40000000       0.25000000       0.00000000 </v>
   <v>      -0.36000000       0.25000000       0.00000000 </v>
   <v>      -0.32000000       0.25000000       0.00000000 </v>
   <v>      -0.28000000       0.25000000       0.00000000 </v>
   <v>      -0.24000000       0.25000000       0.00000000 </v>
   <v>      -0.20000000       0.25000000       0.00000000 </v>
   <v>      -0.16000000       0.25000000       0.00000000 </v>
   <v>      -0.12000000       0.25000000       0.00000000 </v>
   <v>      -0.08000000       0.25000000       0.00000000 </v>
   <v>      -0.04000000       0.25000000       0.00000000 </v>
   <v>       0.00000000       0.33333333       0.00000000 </v>
   <v>       0.04000000       0.33333333       0.00000000 </v>
   <v>       0.08000000       0.33333333       0.00000000 </v>
   <v>       0.12000000       0.33333333       0.00000000 </v>
   <v>       0.16000000       0.33333333       0.00000000 </v>
   <v>       0.20000000       0.33333333       0.00000000 </v>
   <v>       0.24000000       0.33333333       0.00000000 </v>
   <v>       0.28000000       0.33333333       0.00000000 </v>
   <v>       0.32000000       0.33333333       0.00000000 </v>
   <v>       0.36000000       0.33333333       0.00000000 </v>
   <v>       0.40000000       0.33333333       0.00000000 </v>
   <v>       0.44000000       0.33333333       0.00000000 </v>
   <v>       0.48000000       0.33333333       0.00000000 </v>
   <v>      -0.48000000       0.33333333       0.00000000 </v>
   <v>      -0.44000000       0.33333333       0.00000000 </v>
   <v>      -0.40000000       0.33333333       0.00000000 </v>
   <v>      -0.36000000       0.33333333       0.00000000 </v>
   <v>      -0.32000000       0.33333333       0.00000000 </v>
   <v>      -0.28000000       0.33333333       0.00000000 </v>
   <v>      -0.24000000       0.33333333       0.00000000 </v>
   <v>      -0.20000000       0.33333333       0.00000000 </v>
   <v>      -0.16000000       0.33333333       0.00000000 </v>
   <v>      -0.12000000       0.33333333       0.00000000 </v>
   <v>      -0.08000000       0.33333333       0.00000000 </v>
   <v>      -0.04000000       0.33333333       0.00000000 </v>
   <v>       0.00000000       0.41666667       0.00000000 </v>
   <v>       0.04000000       0.41666667       0.00000000 </v>
   <v>       0.08000000       0.41666667       0.00000000 </v>
   <v>       0.12000000       0.41666667       0.00000000 </v>
   <v>       0.16000000       0.41666667       0.00000000 </v>
   <v>       0.20000000       0.41666667       0.00000000 </v>
   <v>       0.24000000       0.41666667       0.00000000 </v>
   <v>       0.28000000       0.41666667       0.00000000 </v>
   <v>       0.32000000       0.41666667       0.00000000 </v>
   <v>       0.36000000       0.41666667       0.00000000 </v>
   <v>       0.40000000       0.41666667       0.00000000 </v>
   <v>       0.44000000       0.41666667       0.00000000 </v>
   <v>       0.48000000       0.41666667       0.00000000 </v>
   <v>      -0.48000000       0.41666667       0.00000000 </v>
   <v>      -0.44000000       0.41666667       0.00000000 </v>
   <v>      -0.40000000       0.41666667       0.00000000 </v>
   <v>      -0.36000000       0.41666667       0.00000000 </v>
   <v>      -0.32000000       0.41666667       0.00000000 </v>
   <v>      -0.28000000       0.41666667       0.00000000 </v>
   <v>      -0.24000000       0.41666667       0.00000000 </v>
   <v>      -0.20000000       0.41666667       0.00000000 </v>
   <v>      -0.16000000       0.41666667       0.00000000 </v>
   <v>      -0.12000000       0.41666667       0.00000000 </v>
   <v>      -0.08000000       0.41666667       0.00000000 </v>
   <v>      -0.04000000       0.41666667       0.00000000 </v>
   <v>       0.00000000       0.50000000       0.00000000 </v>
   <v>       0.04000000       0.50000000       0.00000000 </v>
   <v>       0.08000000       0.50000000       0.00000000 </v>
   <v>       0.12000000       0.50000000       0.00000000 </v>
   <v>       0.16000000       0.50000000       0.00000000 </v>
   <v>       0.20000000       0.50000000       0.00000000 </v>
   <v>       0.24000000       0.50000000       0.00000000 </v>
   <v>       0.28000000       0.50000000       0.00000000 </v>
   <v>       0.32000000       0.50000000       0.00000000 </v>
   <v>       0.36000000       0.50000000       0.00000000 </v>
   <v>       0.40000000       0.50000000       0.00000000 </v>
   <v>       0.44000000       0.50000000       0.00000000 </v>
   <v>       0.48000000       0.50000000       0.00000000 </v>
   <v>       0.00000000       0.00000000       0.08333333 </v>
   <v>       0.04000000       0.00000000       0.08333333 </v>
   <v>       0.08000000       0.00000000       0.08333333 </v>
   <v>       0.12000000       0.00000000       0.08333333 </v>
   <v>       0.16000000       0.00000000       0.08333333 </v>
   <v>       0.20000000       0.00000000       0.08333333 </v>
   <v>       0.24000000       0.00000000       0.08333333 </v>
   <v>       0.28000000       0.00000000       0.08333333 </v>
   <v>       0.32000000       0.00000000       0.08333333 </v>
   <v>       0.36000000       0.00000000       0.08333333 </v>
   <v>       0.40000000       0.00000000       0.08333333 </v>
   <v>       0.44000000       0.00000000       0.08333333 </v>
   <v>       0.48000000       0.00000000       0.08333333 </v>
   <v>      -0.48000000       0.00000000       0.08333333 </v>
   <v>      -0.44000000       0.00000000       0.08333333 </v>
   <v>      -0.40000000       0.00000000       0.08333333 </v>
   <v>      -0.36000000       0.00000000       0.08333333 </v>
   <v>      -0.32000000       0.00000000       0.08333333 </v>
   <v>      -0.28000000       0.00000000       0.08333333 </v>
   <v>      -0.24000000       0.00000000       0.08333333 </v>
   <v>      -0.20000000       0.00000000       0.08333333 </v>
   <v>      -0.16000000       0.00000000       0.08333333 </v>
   <v>      -0.12000000       0.00000000       0.08333333 </v>
   <v>      -0.08000000       0.00000000       0.08333333 </v>
   <v>      -0.04000000       0.00000000       0.08333333 </v>
   <v>       0.00000000       0.08333333       0.08333333 </v>
   <v>       0.04000000       0.08333333       0.08333333 </v>
   <v>       0.08000000       0.08333333       0.08333333 </v>
   <v>       0.12000000       0.08333333       0.08333333 </v>
   <v>       0.16000000       0.08333333       0.08333333 </v>
   <v>       0.20000000       0.08333333       0.08333333 </v>
   <v>       0.24000000       0.08333333       0.08333333 </v>
   <v>       0.28000000       0.08333333       0.08333333 </v>
   <v>       0.32000000       0.08333333       0.08333333 </v>
   <v>       0.36000000       0.08333333       0.08333333 </v>
   <v>       0.40000000       0.08333333       0.08333333 </v>
   <v>       0.44000000       0.08333333       0.08333333 </v>
   <v>       0.48000000       0.08333333       0.08333333 </v>
   <v>      -0.48000000       0.08333333       0.08333333 </v>
   <v>      -0.44000000       0.08333333       0.08333333 </v>
   <v>      -0.40000000       0.08333333       0.08333333 </v>
   <v>      -0.36000000       0.08333333       0.08333333 </v>
   <v>      -0.32000000       0.08333333       0.08333333 </v>
   <v>      -0.28000000       0.08333333       0.08333333 </v>
   <v>      -0.24000000       0.08333333       0.08333333 </v>
   <v>      -0.20000000       0.08333333       0.08333333 </v>
   <v>      -0.16000000       0.08333333       0.08333333 </v>
   <v>      -0.12000000       0.08333333       0.08333333 </v>
   <v>      -0.08000000       0.08333333       0.08333333 </v>
   <v>      -0.04000000       0.08333333       0.08333333 </v>
   <v>       0.00000000       0.16666667       0.08333333 </v>
   <v>       0.04000000       0.16666667       0.08333333 </v>
   <v>       0.08000000       0.16666667       0.08333333 </v>
   <v>       0.12000000       0.16666667       0.08333333 </v>
   <v>       0.16000000       0.16666667       0.08333333 </v>
   <v>       0.20000000       0.16666667       0.08333333 </v>
   <v>       0.24000000       0.16666667       0.08333333 </v>
   <v>       0.28000000       0.16666667       0.08333333 </v>
   <v>       0.32000000       0.16666667       0.08333333 </v>
   <v>       0.36000000       0.16666667       0.08333333 </v>
   <v>       0.40000000       0.16666667       0.08333333 </v>
   <v>       0.44000000       0.16666667       0.08333333 </v>
   <v>       0.48000000       0.16666667       0.08333333 </v>
   <v>      -0.48000000       0.16666667       0.08333333 </v>
   <v>      -0.44000000       0.16666667       0.08333333 </v>
   <v>      -0.40000000       0.16666667       0.08333333 </v>
   <v>      -0.36000000       0.16666667       0.08333333 </v>
   <v>      -0.32000000       0.16666667       0.08333333 </v>
   <v>      -0.28000000       0.16666667       0.08333333 </v>
   <v>      -0.24000000       0.16666667       0.08333333 </v>
   <v>      -0.20000000       0.16666667       0.08333333 </v>
   <v>      -0.16000000       0.16666667       0.08333333 </v>
   <v>      -0.12000000       0.16666667       0.08333333 </v>
   <v>      -0.08000000       0.16666667       0.08333333 </v>
   <v>      -0.04000000       0.16666667       0.08333333 </v>
   <v>       0.00000000       0.25000000       0.08333333 </v>
   <v>       0.04000000       0.25000000       0.08333333 </v>
   <v>       0.08000000       0.25000000       0.08333333 </v>
   <v>       0.12000000       0.25000000       0.08333333 </v>
   <v>       0.16000000       0.25000000       0.08333333 </v>
   <v>       0.20000000       0.25000000       0.08333333 </v>
   <v>       0.24000000       0.25000000       0.08333333 </v>
   <v>       0.28000000       0.25000000       0.08333333 </v>
   <v>       0.32000000       0.25000000       0.08333333 </v>
   <v>       0.36000000       0.25000000       0.08333333 </v>
   <v>       0.40000000       0.25000000       0.08333333 </v>
   <v>       0.44000000       0.25000000       0.08333333 </v>
   <v>       0.48000000       0.25000000       0.08333333 </v>
   <v>      -0.48000000       0.25000000       0.08333333 </v>
   <v>      -0.44000000       0.25000000       0.08333333 </v>
   <v>      -0.40000000       0.25000000       0.08333333 </v>
   <v>      -0.36000000       0.25000000       0.08333333 </v>
   <v>      -0.32000000       0.25000000       0.08333333 </v>
   <v>      -0.28000000       0.25000000       0.08333333 </v>
   <v>      -0.24000000       0.25000000       0.08333333 </v>
   <v>      -0.20000000       0.25000000       0.08333333 </v>
   <v>      -0.16000000       0.25000000       0.08333333 </v>
   <v>      -0.12000000       0.25000000       0.08333333 </v>
   <v>      -0.08000000       0.25000000       0.08333333 </v>
   <v>      -0.04000000       0.25000000       0.08333333 </v>
   <v>       0.00000000       0.33333333       0.08333333 </v>
   <v>       0.04000000       0.33333333       0.08333333 </v>
   <v>       0.08000000       0.33333333       0.08333333 </v>
   <v>       0.12000000       0.33333333       0.08333333 </v>
   <v>       0.16000000       0.33333333       0.08333333 </v>
   <v>       0.20000000       0.33333333       0.08333333 </v>
   <v>       0.24000000       0.33333333       0.08333333 </v>
   <v>       0.28000000       0.33333333       0.08333333 </v>
   <v>       0.32000000       0.33333333       0.08333333 </v>
   <v>       0.36000000       0.33333333       0.08333333 </v>
   <v>       0.40000000       0.33333333       0.08333333 </v>
   <v>       0.44000000       0.33333333       0.08333333 </v>
   <v>       0.48000000       0.33333333       0.08333333 </v>
   <v>      -0.48000000       0.33333333       0.08333333 </v>
   <v>      -0.44000000       0.33333333       0.08333333 </v>
   <v>      -0.40000000       0.33333333       0.08333333 </v>
   <v>      -0.36000000       0.33333333       0.08333333 </v>
   <v>      -0.32000000       0.33333333       0.08333333 </v>
   <v>      -0.28000000       0.33333333       0.08333333 </v>
   <v>      -0.24000000       0.33333333       0.08333333 </v>
   <v>      -0.20000000       0.33333333       0.08333333 </v>
   <v>      -0.16000000       0.33333333       0.08333333 </v>
   <v>      -0.12000000       0.33333333       0.08333333 </v>
   <v>      -0.08000000       0.33333333       0.08333333 </v>
   <v>      -0.04000000       0.33333333       0.08333333 </v>
   <v>       0.00000000       0.41666667       0.08333333 </v>
   <v>       0.04000000       0.41666667       0.08333333 </v>
   <v>       0.08000000       0.41666667       0.08333333 </v>
   <v>       0.12000000       0.41666667       0.08333333 </v>
   <v>       0.16000000       0.41666667       0.08333333 </v>
   <v>       0.20000000       0.41666667       0.08333333 </v>
   <v>       0.24000000       0.41666667       0.08333333 </v>
   <v>       0.28000000       0.41666667       0.08333333 </v>
   <v>       0.32000000       0.41666667       0.08333333 </v>
   <v>       0.36000000       0.41666667       0.08333333 </v>
   <v>       0.40000000       0.41666667       0.08333333 </v>
   <v>       0.44000000       0.41666667       0.08333333 </v>
   <v>       0.48000000       0.41666667       0.08333333 </v>
   <v>      -0.48000000       0.41666667       0.08333333 </v>
   <v>      -0.44000000       0.41666667       0.08333333 </v>
   <v>      -0.40000000       0.41666667       0.08333333 </v>
   <v>      -0.36000000       0.41666667       0.08333333 </v>
   <v>      -0.32000000       0.41666667       0.08333333 </v>
   <v>      -0.28000000       0.41666667       0.08333333 </v>
   <v>      -0.24000000       0.41666667       0.08333333 </v>
   <v>      -0.20000000       0.41666667       0.08333333 </v>
   <v>      -0.16000000       0.41666667       0.08333333 </v>
   <v>      -0.12000000       0.41666667       0.08333333 </v>
   <v>      -0.08000000       0.41666667       0.08333333 </v>
   <v>      -0.04000000       0.41666667       0.08333333 </v>
   <v>       0.00000000       0.50000000       0.08333333 </v>
   <v>       0.04000000       0.50000000       0.08333333 </v>
   <v>       0.08000000       0.50000000       0.08333333 </v>
   <v>       0.12000000       0.50000000       0.08333333 </v>
   <v>       0.16000000       0.50000000       0.08333333 </v>
   <v>       0.20000000       0.50000000       0.08333333 </v>
   <v>       0.24000000       0.50000000       0.08333333 </v>
   <v>       0.28000000       0.50000000       0.08333333 </v>
   <v>       0.32000000       0.50000000       0.08333333 </v>
   <v>       0.36000000       0.50000000       0.08333333 </v>
   <v>       0.40000000       0.50000000       0.08333333 </v>
   <v>       0.44000000       0.50000000       0.08333333 </v>
   <v>       0.48000000       0.50000000       0.08333333 </v>
   <v>      -0.48000000       0.50000000       0.08333333 </v>
   <v>      -0.44000000       0.50000000       0.08333333 </v>
   <v>      -0.40000000       0.50000000       0.08333333 </v>
   <v>      -0.36000000       0.50000000       0.08333333 </v>
   <v>      -0.32000000       0.50000000       0.08333333 </v>
   <v>      -0.28000000       0.50000000       0.08333333 </v>
   <v>      -0.24000000       0.50000000       0.08333333 </v>
   <v>      -0.20000000       0.50000000       0.08333333 </v>
   <v>      -0.16000000       0.50000000       0.08333333 </v>
   <v>      -0.12000000       0.50000000       0.08333333 </v>
   <v>      -0.08000000       0.50000000       0.08333333 </v>
   <v>      -0.04000000       0.50000000       0.08333333 </v>
   <v>       0.00000000      -0.41666667       0.08333333 </v>
   <v>       0.04000000      -0.41666667       0.08333333 </v>
   <v>       0.08000000      -0.41666667       0.08333333 </v>
   <v>       0.12000000      -0.41666667       0.08333333 </v>
   <v>       0.16000000      -0.41666667       0.08333333 </v>
   <v>       0.20000000      -0.41666667       0.08333333 </v>
   <v>       0.24000000      -0.41666667       0.08333333 </v>
   <v>       0.28000000      -0.41666667       0.08333333 </v>
   <v>       0.32000000      -0.41666667       0.08333333 </v>
   <v>       0.36000000      -0.41666667       0.08333333 </v>
   <v>       0.40000000      -0.41666667       0.08333333 </v>
   <v>       0.44000000      -0.41666667       0.08333333 </v>
   <v>       0.48000000      -0.41666667       0.08333333 </v>
   <v>      -0.48000000      -0.41666667       0.08333333 </v>
   <v>      -0.44000000      -0.41666667       0.08333333 </v>
   <v>      -0.40000000      -0.41666667       0.08333333 </v>
   <v>      -0.36000000      -0.41666667       0.08333333 </v>
   <v>      -0.32000000      -0.41666667       0.08333333 </v>
   <v>      -0.28000000      -0.41666667       0.08333333 </v>
   <v>      -0.24000000      -0.41666667       0.08333333 </v>
   <v>      -0.20000000      -0.41666667       0.08333333 </v>
   <v>      -0.16000000      -0.41666667       0.08333333 </v>
   <v>      -0.12000000      -0.41666667       0.08333333 </v>
   <v>      -0.08000000      -0.41666667       0.08333333 </v>
   <v>      -0.04000000      -0.41666667       0.08333333 </v>
   <v>       0.00000000      -0.33333333       0.08333333 </v>
   <v>       0.04000000      -0.33333333       0.08333333 </v>
   <v>       0.08000000      -0.33333333       0.08333333 </v>
   <v>       0.12000000      -0.33333333       0.08333333 </v>
   <v>       0.16000000      -0.33333333       0.08333333 </v>
   <v>       0.20000000      -0.33333333       0.08333333 </v>
   <v>       0.24000000      -0.33333333       0.08333333 </v>
   <v>       0.28000000      -0.33333333       0.08333333 </v>
   <v>       0.32000000      -0.33333333       0.08333333 </v>
   <v>       0.36000000      -0.33333333       0.08333333 </v>
   <v>       0.40000000      -0.33333333       0.08333333 </v>
   <v>       0.44000000      -0.33333333       0.08333333 </v>
   <v>       0.48000000      -0.33333333       0.08333333 </v>
   <v>      -0.48000000      -0.33333333       0.08333333 </v>
   <v>      -0.44000000      -0.33333333       0.08333333 </v>
   <v>      -0.40000000      -0.33333333       0.08333333 </v>
   <v>      -0.36000000      -0.33333333       0.08333333 </v>
   <v>      -0.32000000      -0.33333333       0.08333333 </v>
   <v>      -0.28000000      -0.33333333       0.08333333 </v>
   <v>      -0.24000000      -0.33333333       0.08333333 </v>
   <v>      -0.20000000      -0.33333333       0.08333333 </v>
   <v>      -0.16000000      -0.33333333       0.08333333 </v>
   <v>      -0.12000000      -0.33333333       0.08333333 </v>
   <v>      -0.08000000      -0.33333333       0.08333333 </v>
   <v>      -0.04000000      -0.33333333       0.08333333 </v>
   <v>       0.00000000      -0.25000000       0.08333333 </v>
   <v>       0.04000000      -0.25000000       0.08333333 </v>
   <v>       0.08000000      -0.25000000       0.08333333 </v>
   <v>       0.12000000      -0.25000000       0.08333333 </v>
   <v>       0.16000000      -0.25000000       0.08333333 </v>
   <v>       0.20000000      -0.25000000       0.08333333 </v>
   <v>       0.24000000      -0.25000000       0.08333333 </v>
   <v>       0.28000000      -0.25000000       0.08333333 </v>
   <v>       0.32000000      -0.25000000       0.08333333 </v>
   <v>       0.36000000      -0.25000000       0.08333333 </v>
   <v>       0.40000000      -0.25000000       0.08333333 </v>
   <v>       0.44000000      -0.25000000       0.08333333 </v>
   <v>       0.48000000      -0.25000000       0.08333333 </v>
   <v>      -0.48000000      -0.25000000       0.08333333 </v>
   <v>      -0.44000000      -0.25000000       0.08333333 </v>
   <v>      -0.40000000      -0.25000000       0.08333333 </v>
   <v>      -0.36000000      -0.25000000       0.08333333 </v>
   <v>      -0.32000000      -0.25000000       0.08333333 </v>
   <v>      -0.28000000      -0.25000000       0.08333333 </v>
   <v>      -0.24000000      -0.25000000       0.08333333 </v>
   <v>      -0.20000000      -0.25000000       0.08333333 </v>
   <v>      -0.16000000      -0.25000000       0.08333333 </v>
   <v>      -0.12000000      -0.25000000       0.08333333 </v>
   <v>      -0.08000000      -0.25000000       0.08333333 </v>
   <v>      -0.04000000      -0.25000000       0.08333333 </v>
   <v>       0.00000000      -0.16666667       0.08333333 </v>
   <v>       0.04000000      -0.16666667       0.08333333 </v>
   <v>       0.08000000      -0.16666667       0.08333333 </v>
   <v>       0.12000000      -0.16666667       0.08333333 </v>
   <v>       0.16000000      -0.16666667       0.08333333 </v>
   <v>       0.20000000      -0.16666667       0.08333333 </v>
   <v>       0.24000000      -0.16666667       0.08333333 </v>
   <v>       0.28000000      -0.16666667       0.08333333 </v>
   <v>       0.32000000      -0.16666667       0.08333333 </v>
   <v>       0.36000000      -0.16666667       0.08333333 </v>
   <v>       0.40000000      -0.16666667       0.08333333 </v>
   <v>       0.44000000      -0.16666667       0.08333333 </v>
   <v>       0.48000000      -0.16666667       0.08333333 </v>
   <v>      -0.48000000      -0.16666667       0.08333333 </v>
   <v>      -0.44000000      -0.16666667       0.08333333 </v>
   <v>      -0.40000000      -0.16666667       0.08333333 </v>
   <v>      -0.36000000      -0.16666667       0.08333333 </v>
   <v>      -0.32000000      -0.16666667       0.08333333 </v>
   <v>      -0.28000000      -0.16666667       0.08333333 </v>
   <v>      -0.24000000      -0.16666667       0.08333333 </v>
   <v>      -0.20000000      -0.16666667       0.08333333 </v>
   <v>      -0.16000000      -0.16666667       0.08333333 </v>
   <v>      -0.12000000      -0.16666667       0.08333333 </v>
   <v>      -0.08000000      -0.16666667       0.08333333 </v>
   <v>      -0.04000000      -0.16666667       0.08333333 </v>
   <v>       0.00000000      -0.08333333       0.08333333 </v>
   <v>       0.04000000      -0.08333333       0.08333333 </v>
   <v>       0.08000000      -0.08333333       0.08333333 </v>
   <v>       0.12000000      -0.08333333       0.08333333 </v>
   <v>       0.16000000      -0.08333333       0.08333333 </v>
   <v>       0.20000000      -0.08333333       0.08333333 </v>
   <v>       0.24000000      -0.08333333       0.08333333 </v>
   <v>       0.28000000      -0.08333333       0.08333333 </v>
   <v>       0.32000000      -0.08333333       0.08333333 </v>
   <v>       0.36000000      -0.08333333       0.08333333 </v>
   <v>       0.40000000      -0.08333333       0.08333333 </v>
   <v>       0.44000000      -0.08333333       0.08333333 </v>
   <v>       0.48000000      -0.08333333       0.08333333 </v>
   <v>      -0.48000000      -0.08333333       0.08333333 </v>
   <v>      -0.44000000      -0.08333333       0.08333333 </v>
   <v>      -0.40000000      -0.08333333       0.08333333 </v>
   <v>      -0.36000000      -0.08333333       0.08333333 </v>
   <v>      -0.32000000      -0.08333333       0.08333333 </v>
   <v>      -0.28000000      -0.08333333       0.08333333 </v>
   <v>      -0.24000000      -0.08333333       0.08333333 </v>
   <v>      -0.20000000      -0.08333333       0.08333333 </v>
   <v>      -0.16000000      -0.08333333       0.08333333 </v>
   <v>      -0.12000000      -0.08333333       0.08333333 </v>
   <v>      -0.08000000      -0.08333333       0.08333333 </v>
   <v>      -0.04000000      -0.08333333       0.08333333 </v>
   <v>       0.00000000       0.00000000       0.16666667 </v>
   <v>       0.04000000       0.00000000       0.16666667 </v>
   <v>       0.08000000       0.00000000       0.16666667 </v>
   <v>       0.12000000       0.00000000       0.16666667 </v>
   <v>       0.16000000       0.00000000       0.16666667 </v>
   <v>       0.20000000       0.00000000       0.16666667 </v>
   <v>       0.24000000       0.00000000       0.16666667 </v>
   <v>       0.28000000       0.00000000       0.16666667 </v>
   <v>       0.32000000       0.00000000       0.16666667 </v>
   <v>       0.36000000       0.00000000       0.16666667 </v>
   <v>       0.40000000       0.00000000       0.16666667 </v>
   <v>       0.44000000       0.00000000       0.16666667 </v>
   <v>       0.48000000       0.00000000       0.16666667 </v>
   <v>      -0.48000000       0.00000000       0.16666667 </v>
   <v>      -0.44000000       0.00000000       0.16666667 </v>
   <v>      -0.40000000       0.00000000       0.16666667 </v>
   <v>      -0.36000000       0.00000000       0.16666667 </v>
   <v>      -0.32000000       0.00000000       0.16666667 </v>
   <v>      -0.28000000       0.00000000       0.16666667 </v>
   <v>      -0.24000000       0.00000000       0.16666667 </v>
   <v>      -0.20000000       0.00000000       0.16666667 </v>
   <v>      -0.16000000       0.00000000       0.16666667 </v>
   <v>      -0.12000000       0.00000000       0.16666667 </v>
   <v>      -0.08000000       0.00000000       0.16666667 </v>
   <v>      -0.04000000       0.00000000       0.16666667 </v>
   <v>       0.00000000       0.08333333       0.16666667 </v>
   <v>       0.04000000       0.08333333       0.16666667 </v>
   <v>       0.08000000       0.08333333       0.16666667 </v>
   <v>       0.12000000       0.08333333       0.16666667 </v>
   <v>       0.16000000       0.08333333       0.16666667 </v>
   <v>       0.20000000       0.08333333       0.16666667 </v>
   <v>       0.24000000       0.08333333       0.16666667 </v>
   <v>       0.28000000       0.08333333       0.16666667 </v>
   <v>       0.32000000       0.08333333       0.16666667 </v>
   <v>       0.36000000       0.08333333       0.16666667 </v>
   <v>       0.40000000       0.08333333       0.16666667 </v>
   <v>       0.44000000       0.08333333       0.16666667 </v>
   <v>       0.48000000       0.08333333       0.16666667 </v>
   <v>      -0.48000000       0.08333333       0.16666667 </v>
   <v>      -0.44000000       0.08333333       0.16666667 </v>
   <v>      -0.40000000       0.08333333       0.16666667 </v>
   <v>      -0.36000000       0.08333333       0.16666667 </v>
   <v>      -0.32000000       0.08333333       0.16666667 </v>
   <v>      -0.28000000       0.08333333       0.16666667 </v>
   <v>      -0.24000000       0.08333333       0.16666667 </v>
   <v>      -0.20000000       0.08333333       0.16666667 </v>
   <v>      -0.16000000       0.08333333       0.16666667 </v>
   <v>      -0.12000000       0.08333333       0.16666667 </v>
   <v>      -0.08000000       0.08333333       0.16666667 </v>
   <v>      -0.04000000       0.08333333       0.16666667 </v>
   <v>       0.00000000       0.16666667       0.16666667 </v>
   <v>       0.04000000       0.16666667       0.16666667 </v>
   <v>       0.08000000       0.16666667       0.16666667 </v>
   <v>       0.12000000       0.16666667       0.16666667 </v>
   <v>       0.16000000       0.16666667       0.16666667 </v>
   <v>       0.20000000       0.16666667       0.16666667 </v>
   <v>       0.24000000       0.16666667       0.16666667 </v>
   <v>       0.28000000       0.16666667       0.16666667 </v>
   <v>       0.32000000       0.16666667       0.16666667 </v>
   <v>       0.36000000       0.16666667       0.16666667 </v>
   <v>       0.40000000       0.16666667       0.16666667 </v>
   <v>       0.44000000       0.16666667       0.16666667 </v>
   <v>       0.48000000       0.16666667       0.16666667 </v>
   <v>      -0.48000000       0.16666667       0.16666667 </v>
   <v>      -0.44000000       0.16666667       0.16666667 </v>
   <v>      -0.40000000       0.16666667       0.16666667 </v>
   <v>      -0.36000000       0.16666667       0.16666667 </v>
   <v>      -0.32000000       0.16666667       0.16666667 </v>
   <v>      -0.28000000       0.16666667       0.16666667 </v>
   <v>      -0.24000000       0.16666667       0.16666667 </v>
   <v>      -0.20000000       0.16666667       0.16666667 </v>
   <v>      -0.16000000       0.16666667       0.16666667 </v>
   <v>      -0.12000000       0.16666667       0.16666667 </v>
   <v>      -0.08000000       0.16666667       0.16666667 </v>
   <v>      -0.04000000       0.16666667       0.16666667 </v>
   <v>       0.00000000       0.25000000       0.16666667 </v>
   <v>       0.04000000       0.25000000       0.16666667 </v>
   <v>       0.08000000       0.25000000       0.16666667 </v>
   <v>       0.12000000       0.25000000       0.16666667 </v>
   <v>       0.16000000       0.25000000       0.16666667 </v>
   <v>       0.20000000       0.25000000       0.16666667 </v>
   <v>       0.24000000       0.25000000       0.16666667 </v>
   <v>       0.28000000       0.25000000       0.16666667 </v>
   <v>       0.32000000       0.25000000       0.16666667 </v>
   <v>       0.36000000       0.25000000       0.16666667 </v>
   <v>       0.40000000       0.25000000       0.16666667 </v>
   <v>       0.44000000       0.25000000       0.16666667 </v>
   <v>       0.48000000       0.25000000       0.16666667 </v>
   <v>      -0.48000000       0.25000000       0.16666667 </v>
   <v>      -0.44000000       0.25000000       0.16666667 </v>
   <v>      -0.40000000       0.25000000       0.16666667 </v>
   <v>      -0.36000000       0.25000000       0.16666667 </v>
   <v>      -0.32000000       0.25000000       0.16666667 </v>
   <v>      -0.28000000       0.25000000       0.16666667 </v>
   <v>      -0.24000000       0.25000000       0.16666667 </v>
   <v>      -0.20000000       0.25000000       0.16666667 </v>
   <v>      -0.16000000       0.25000000       0.16666667 </v>
   <v>      -0.12000000       0.25000000       0.16666667 </v>
   <v>      -0.08000000       0.25000000       0.16666667 </v>
   <v>      -0.04000000       0.25000000       0.16666667 </v>
   <v>       0.00000000       0.33333333       0.16666667 </v>
   <v>       0.04000000       0.33333333       0.16666667 </v>
   <v>       0.08000000       0.33333333       0.16666667 </v>
   <v>       0.12000000       0.33333333       0.16666667 </v>
   <v>       0.16000000       0.33333333       0.16666667 </v>
   <v>       0.20000000       0.33333333       0.16666667 </v>
   <v>       0.24000000       0.33333333       0.16666667 </v>
   <v>       0.28000000       0.33333333       0.16666667 </v>
   <v>       0.32000000       0.33333333       0.16666667 </v>
   <v>       0.36000000       0.33333333       0.16666667 </v>
   <v>       0.40000000       0.33333333       0.16666667 </v>
   <v>       0.44000000       0.33333333       0.16666667 </v>
   <v>       0.48000000       0.33333333       0.16666667 </v>
   <v>      -0.48000000       0.33333333       0.16666667 </v>
   <v>      -0.44000000       0.33333333       0.16666667 </v>
   <v>      -0.40000000       0.33333333       0.16666667 </v>
   <v>      -0.36000000       0.33333333       0.16666667 </v>
   <v>      -0.32000000       0.33333333       0.16666667 </v>
   <v>      -0.28000000       0.33333333       0.16666667 </v>
   <v>      -0.24000000       0.33333333       0.16666667 </v>
   <v>      -0.20000000       0.33333333       0.16666667 </v>
   <v>      -0.16000000       0.33333333       0.16666667 </v>
   <v>      -0.12000000       0.33333333       0.16666667 </v>
   <v>      -0.08000000       0.33333333       0.16666667 </v>
   <v>      -0.04000000       0.33333333       0.16666667 </v>
   <v>       0.00000000       0.41666667       0.16666667 </v>
   <v>       0.04000000       0.41666667       0.16666667 </v>
   <v>       0.08000000       0.41666667       0.16666667 </v>
   <v>       0.12000000       0.41666667       0.16666667 </v>
   <v>       0.16000000       0.41666667       0.16666667 </v>
   <v>       0.20000000       0.41666667       0.16666667 </v>
   <v>       0.24000000       0.41666667       0.16666667 </v>
   <v>       0.28000000       0.41666667       0.16666667 </v>
   <v>       0.32000000       0.41666667       0.16666667 </v>
   <v>       0.36000000       0.41666667       0.16666667 </v>
   <v>       0.40000000       0.41666667       0.16666667 </v>
   <v>       0.44000000       0.41666667       0.16666667 </v>
   <v>       0.48000000       0.41666667       0.16666667 </v>
   <v>      -0.48000000       0.41666667       0.16666667 </v>
   <v>      -0.44000000       0.41666667       0.16666667 </v>
   <v>      -0.40000000       0.41666667       0.16666667 </v>
   <v>      -0.36000000       0.41666667       0.16666667 </v>
   <v>      -0.32000000       0.41666667       0.16666667 </v>
   <v>      -0.28000000       0.41666667       0.16666667 </v>
   <v>      -0.24000000       0.41666667       0.16666667 </v>
   <v>      -0.20000000       0.41666667       0.16666667 </v>
   <v>      -0.16000000       0.41666667       0.16666667 </v>
   <v>      -0.12000000       0.41666667       0.16666667 </v>
   <v>      -0.08000000       0.41666667       0.16666667 </v>
   <v>      -0.04000000       0.41666667       0.16666667 </v>
   <v>       0.00000000       0.50000000       0.16666667 </v>
   <v>       0.04000000       0.50000000       0.16666667 </v>
   <v>       0.08000000       0.50000000       0.16666667 </v>
   <v>       0.12000000       0.50000000       0.16666667 </v>
   <v>       0.16000000       0.50000000       0.16666667 </v>
   <v>       0.20000000       0.50000000       0.16666667 </v>
   <v>       0.24000000       0.50000000       0.16666667 </v>
   <v>       0.28000000       0.50000000       0.16666667 </v>
   <v>       0.32000000       0.50000000       0.16666667 </v>
   <v>       0.36000000       0.50000000       0.16666667 </v>
   <v>       0.40000000       0.50000000       0.16666667 </v>
   <v>       0.44000000       0.50000000       0.16666667 </v>
   <v>       0.48000000       0.50000000       0.16666667 </v>
   <v>      -0.48000000       0.50000000       0.16666667 </v>
   <v>      -0.44000000       0.50000000       0.16666667 </v>
   <v>      -0.40000000       0.50000000       0.16666667 </v>
   <v>      -0.36000000       0.50000000       0.16666667 </v>
   <v>      -0.32000000       0.50000000       0.16666667 </v>
   <v>      -0.28000000       0.50000000       0.16666667 </v>
   <v>      -0.24000000       0.50000000       0.16666667 </v>
   <v>      -0.20000000       0.50000000       0.16666667 </v>
   <v>      -0.16000000       0.50000000       0.16666667 </v>
   <v>      -0.12000000       0.50000000       0.16666667 </v>
   <v>      -0.08000000       0.50000000       0.16666667 </v>
   <v>      -0.04000000       0.50000000       0.16666667 </v>
   <v>       0.00000000      -0.41666667       0.16666667 </v>
   <v>       0.04000000      -0.41666667       0.16666667 </v>
   <v>       0.08000000      -0.41666667       0.16666667 </v>
   <v>       0.12000000      -0.41666667       0.16666667 </v>
   <v>       0.16000000      -0.41666667       0.16666667 </v>
   <v>       0.20000000      -0.41666667       0.16666667 </v>
   <v>       0.24000000      -0.41666667       0.16666667 </v>
   <v>       0.28000000      -0.41666667       0.16666667 </v>
   <v>       0.32000000      -0.41666667       0.16666667 </v>
   <v>       0.36000000      -0.41666667       0.16666667 </v>
   <v>       0.40000000      -0.41666667       0.16666667 </v>
   <v>       0.44000000      -0.41666667       0.16666667 </v>
   <v>       0.48000000      -0.41666667       0.16666667 </v>
   <v>      -0.48000000      -0.41666667       0.16666667 </v>
   <v>      -0.44000000      -0.41666667       0.16666667 </v>
   <v>      -0.40000000      -0.41666667       0.16666667 </v>
   <v>      -0.36000000      -0.41666667       0.16666667 </v>
   <v>      -0.32000000      -0.41666667       0.16666667 </v>
   <v>      -0.28000000      -0.41666667       0.16666667 </v>
   <v>      -0.24000000      -0.41666667       0.16666667 </v>
   <v>      -0.20000000      -0.41666667       0.16666667 </v>
   <v>      -0.16000000      -0.41666667       0.16666667 </v>
   <v>      -0.12000000      -0.41666667       0.16666667 </v>
   <v>      -0.08000000      -0.41666667       0.16666667 </v>
   <v>      -0.04000000      -0.41666667       0.16666667 </v>
   <v>       0.00000000      -0.33333333       0.16666667 </v>
   <v>       0.04000000      -0.33333333       0.16666667 </v>
   <v>       0.08000000      -0.33333333       0.16666667 </v>
   <v>       0.12000000      -0.33333333       0.16666667 </v>
   <v>       0.16000000      -0.33333333       0.16666667 </v>
   <v>       0.20000000      -0.33333333       0.16666667 </v>
   <v>       0.24000000      -0.33333333       0.16666667 </v>
   <v>       0.28000000      -0.33333333       0.16666667 </v>
   <v>       0.32000000      -0.33333333       0.16666667 </v>
   <v>       0.36000000      -0.33333333       0.16666667 </v>
   <v>       0.40000000      -0.33333333       0.16666667 </v>
   <v>       0.44000000      -0.33333333       0.16666667 </v>
   <v>       0.48000000      -0.33333333       0.16666667 </v>
   <v>      -0.48000000      -0.33333333       0.16666667 </v>
   <v>      -0.44000000      -0.33333333       0.16666667 </v>
   <v>      -0.40000000      -0.33333333       0.16666667 </v>
   <v>      -0.36000000      -0.33333333       0.16666667 </v>
   <v>      -0.32000000      -0.33333333       0.16666667 </v>
   <v>      -0.28000000      -0.33333333       0.16666667 </v>
   <v>      -0.24000000      -0.33333333       0.16666667 </v>
   <v>      -0.20000000      -0.33333333       0.16666667 </v>
   <v>      -0.16000000      -0.33333333       0.16666667 </v>
   <v>      -0.12000000      -0.33333333       0.16666667 </v>
   <v>      -0.08000000      -0.33333333       0.16666667 </v>
   <v>      -0.04000000      -0.33333333       0.16666667 </v>
   <v>       0.00000000      -0.25000000       0.16666667 </v>
   <v>       0.04000000      -0.25000000       0.16666667 </v>
   <v>       0.08000000      -0.25000000       0.16666667 </v>
   <v>       0.12000000      -0.25000000       0.16666667 </v>
   <v>       0.16000000      -0.25000000       0.16666667 </v>
   <v>       0.20000000      -0.25000000       0.16666667 </v>
   <v>       0.24000000      -0.25000000       0.16666667 </v>
   <v>       0.28000000      -0.25000000       0.16666667 </v>
   <v>       0.32000000      -0.25000000       0.16666667 </v>
   <v>       0.36000000      -0.25000000       0.16666667 </v>
   <v>       0.40000000      -0.25000000       0.16666667 </v>
   <v>       0.44000000      -0.25000000       0.16666667 </v>
   <v>       0.48000000      -0.25000000       0.16666667 </v>
   <v>      -0.48000000      -0.25000000       0.16666667 </v>
   <v>      -0.44000000      -0.25000000       0.16666667 </v>
   <v>      -0.40000000      -0.25000000       0.16666667 </v>
   <v>      -0.36000000      -0.25000000       0.16666667 </v>
   <v>      -0.32000000      -0.25000000       0.16666667 </v>
   <v>      -0.28000000      -0.25000000       0.16666667 </v>
   <v>      -0.24000000      -0.25000000       0.16666667 </v>
   <v>      -0.20000000      -0.25000000       0.16666667 </v>
   <v>      -0.16000000      -0.25000000       0.16666667 </v>
   <v>      -0.12000000      -0.25000000       0.16666667 </v>
   <v>      -0.08000000      -0.25000000       0.16666667 </v>
   <v>      -0.04000000      -0.25000000       0.16666667 </v>
   <v>       0.00000000      -0.16666667       0.16666667 </v>
   <v>       0.04000000      -0.16666667       0.16666667 </v>
   <v>       0.08000000      -0.16666667       0.16666667 </v>
   <v>       0.12000000      -0.16666667       0.16666667 </v>
   <v>       0.16000000      -0.16666667       0.16666667 </v>
   <v>       0.20000000      -0.16666667       0.16666667 </v>
   <v>       0.24000000      -0.16666667       0.16666667 </v>
   <v>       0.28000000      -0.16666667       0.16666667 </v>
   <v>       0.32000000      -0.16666667       0.16666667 </v>
   <v>       0.36000000      -0.16666667       0.16666667 </v>
   <v>       0.40000000      -0.16666667       0.16666667 </v>
   <v>       0.44000000      -0.16666667       0.16666667 </v>
   <v>       0.48000000      -0.16666667       0.16666667 </v>
   <v>      -0.48000000      -0.16666667       0.16666667 </v>
   <v>      -0.44000000      -0.16666667       0.16666667 </v>
   <v>      -0.40000000      -0.16666667       0.16666667 </v>
   <v>      -0.36000000      -0.16666667       0.16666667 </v>
   <v>      -0.32000000      -0.16666667       0.16666667 </v>
   <v>      -0.28000000      -0.16666667       0.16666667 </v>
   <v>      -0.24000000      -0.16666667       0.16666667 </v>
   <v>      -0.20000000      -0.16666667       0.16666667 </v>
   <v>      -0.16000000      -0.16666667       0.16666667 </v>
   <v>      -0.12000000      -0.16666667       0.16666667 </v>
   <v>      -0.08000000      -0.16666667       0.16666667 </v>
   <v>      -0.04000000      -0.16666667       0.16666667 </v>
   <v>       0.00000000      -0.08333333       0.16666667 </v>
   <v>       0.04000000      -0.08333333       0.16666667 </v>
   <v>       0.08000000      -0.08333333       0.16666667 </v>
   <v>       0.12000000      -0.08333333       0.16666667 </v>
   <v>       0.16000000      -0.08333333       0.16666667 </v>
   <v>       0.20000000      -0.08333333       0.16666667 </v>
   <v>       0.24000000      -0.08333333       0.16666667 </v>
   <v>       0.28000000      -0.08333333       0.16666667 </v>
   <v>       0.32000000      -0.08333333       0.16666667 </v>
   <v>       0.36000000      -0.08333333       0.16666667 </v>
   <v>       0.40000000      -0.08333333       0.16666667 </v>
   <v>       0.44000000      -0.08333333       0.16666667 </v>
   <v>       0.48000000      -0.08333333       0.16666667 </v>
   <v>      -0.48000000      -0.08333333       0.16666667 </v>
   <v>      -0.44000000      -0.08333333       0.16666667 </v>
   <v>      -0.40000000      -0.08333333       0.16666667 </v>
   <v>      -0.36000000      -0.08333333       0.16666667 </v>
   <v>      -0.32000000      -0.08333333       0.16666667 </v>
   <v>      -0.28000000      -0.08333333       0.16666667 </v>
   <v>      -0.24000000      -0.08333333       0.16666667 </v>
   <v>      -0.20000000      -0.08333333       0.16666667 </v>
   <v>      -0.16000000      -0.08333333       0.16666667 </v>
   <v>      -0.12000000      -0.08333333       0.16666667 </v>
   <v>      -0.08000000      -0.08333333       0.16666667 </v>
   <v>      -0.04000000      -0.08333333       0.16666667 </v>
   <v>       0.00000000       0.00000000       0.25000000 </v>
   <v>       0.04000000       0.00000000       0.25000000 </v>
   <v>       0.08000000       0.00000000       0.25000000 </v>
   <v>       0.12000000       0.00000000       0.25000000 </v>
   <v>       0.16000000       0.00000000       0.25000000 </v>
   <v>       0.20000000       0.00000000       0.25000000 </v>
   <v>       0.24000000       0.00000000       0.25000000 </v>
   <v>       0.28000000       0.00000000       0.25000000 </v>
   <v>       0.32000000       0.00000000       0.25000000 </v>
   <v>       0.36000000       0.00000000       0.25000000 </v>
   <v>       0.40000000       0.00000000       0.25000000 </v>
   <v>       0.44000000       0.00000000       0.25000000 </v>
   <v>       0.48000000       0.00000000       0.25000000 </v>
   <v>      -0.48000000       0.00000000       0.25000000 </v>
   <v>      -0.44000000       0.00000000       0.25000000 </v>
   <v>      -0.40000000       0.00000000       0.25000000 </v>
   <v>      -0.36000000       0.00000000       0.25000000 </v>
   <v>      -0.32000000       0.00000000       0.25000000 </v>
   <v>      -0.28000000       0.00000000       0.25000000 </v>
   <v>      -0.24000000       0.00000000       0.25000000 </v>
   <v>      -0.20000000       0.00000000       0.25000000 </v>
   <v>      -0.16000000       0.00000000       0.25000000 </v>
   <v>      -0.12000000       0.00000000       0.25000000 </v>
   <v>      -0.08000000       0.00000000       0.25000000 </v>
   <v>      -0.04000000       0.00000000       0.25000000 </v>
   <v>       0.00000000       0.08333333       0.25000000 </v>
   <v>       0.04000000       0.08333333       0.25000000 </v>
   <v>       0.08000000       0.08333333       0.25000000 </v>
   <v>       0.12000000       0.08333333       0.25000000 </v>
   <v>       0.16000000       0.08333333       0.25000000 </v>
   <v>       0.20000000       0.08333333       0.25000000 </v>
   <v>       0.24000000       0.08333333       0.25000000 </v>
   <v>       0.28000000       0.08333333       0.25000000 </v>
   <v>       0.32000000       0.08333333       0.25000000 </v>
   <v>       0.36000000       0.08333333       0.25000000 </v>
   <v>       0.40000000       0.08333333       0.25000000 </v>
   <v>       0.44000000       0.08333333       0.25000000 </v>
   <v>       0.48000000       0.08333333       0.25000000 </v>
   <v>      -0.48000000       0.08333333       0.25000000 </v>
   <v>      -0.44000000       0.08333333       0.25000000 </v>
   <v>      -0.40000000       0.08333333       0.25000000 </v>
   <v>      -0.36000000       0.08333333       0.25000000 </v>
   <v>      -0.32000000       0.08333333       0.25000000 </v>
   <v>      -0.28000000       0.08333333       0.25000000 </v>
   <v>      -0.24000000       0.08333333       0.25000000 </v>
   <v>      -0.20000000       0.08333333       0.25000000 </v>
   <v>      -0.16000000       0.08333333       0.25000000 </v>
   <v>      -0.12000000       0.08333333       0.25000000 </v>
   <v>      -0.08000000       0.08333333       0.25000000 </v>
   <v>      -0.04000000       0.08333333       0.25000000 </v>
   <v>       0.00000000       0.16666667       0.25000000 </v>
   <v>       0.04000000       0.16666667       0.25000000 </v>
   <v>       0.08000000       0.16666667       0.25000000 </v>
   <v>       0.12000000       0.16666667       0.25000000 </v>
   <v>       0.16000000       0.16666667       0.25000000 </v>
   <v>       0.20000000       0.16666667       0.25000000 </v>
   <v>       0.24000000       0.16666667       0.25000000 </v>
   <v>       0.28000000       0.16666667       0.25000000 </v>
   <v>       0.32000000       0.16666667       0.25000000 </v>
   <v>       0.36000000       0.16666667       0.25000000 </v>
   <v>       0.40000000       0.16666667       0.25000000 </v>
   <v>       0.44000000       0.16666667       0.25000000 </v>
   <v>       0.48000000       0.16666667       0.25000000 </v>
   <v>      -0.48000000       0.16666667       0.25000000 </v>
   <v>      -0.44000000       0.16666667       0.25000000 </v>
   <v>      -0.40000000       0.16666667       0.25000000 </v>
   <v>      -0.36000000       0.16666667       0.25000000 </v>
   <v>      -0.32000000       0.16666667       0.25000000 </v>
   <v>      -0.28000000       0.16666667       0.25000000 </v>
   <v>      -0.24000000       0.16666667       0.25000000 </v>
   <v>      -0.20000000       0.16666667       0.25000000 </v>
   <v>      -0.16000000       0.16666667       0.25000000 </v>
   <v>      -0.12000000       0.16666667       0.25000000 </v>
   <v>      -0.08000000       0.16666667       0.25000000 </v>
   <v>      -0.04000000       0.16666667       0.25000000 </v>
   <v>       0.00000000       0.25000000       0.25000000 </v>
   <v>       0.04000000       0.25000000       0.25000000 </v>
   <v>       0.08000000       0.25000000       0.25000000 </v>
   <v>       0.12000000       0.25000000       0.25000000 </v>
   <v>       0.16000000       0.25000000       0.25000000 </v>
   <v>       0.20000000       0.25000000       0.25000000 </v>
   <v>       0.24000000       0.25000000       0.25000000 </v>
   <v>       0.28000000       0.25000000       0.25000000 </v>
   <v>       0.32000000       0.25000000       0.25000000 </v>
   <v>       0.36000000       0.25000000       0.25000000 </v>
   <v>       0.40000000       0.25000000       0.25000000 </v>
   <v>       0.44000000       0.25000000       0.25000000 </v>
   <v>       0.48000000       0.25000000       0.25000000 </v>
   <v>      -0.48000000       0.25000000       0.25000000 </v>
   <v>      -0.44000000       0.25000000       0.25000000 </v>
   <v>      -0.40000000       0.25000000       0.25000000 </v>
   <v>      -0.36000000       0.25000000       0.25000000 </v>
   <v>      -0.32000000       0.25000000       0.25000000 </v>
   <v>      -0.28000000       0.25000000       0.25000000 </v>
   <v>      -0.24000000       0.25000000       0.25000000 </v>
   <v>      -0.20000000       0.25000000       0.25000000 </v>
   <v>      -0.16000000       0.25000000       0.25000000 </v>
   <v>      -0.12000000       0.25000000       0.25000000 </v>
   <v>      -0.08000000       0.25000000       0.25000000 </v>
   <v>      -0.04000000       0.25000000       0.25000000 </v>
   <v>       0.00000000       0.33333333       0.25000000 </v>
   <v>       0.04000000       0.33333333       0.25000000 </v>
   <v>       0.08000000       0.33333333       0.25000000 </v>
   <v>       0.12000000       0.33333333       0.25000000 </v>
   <v>       0.16000000       0.33333333       0.25000000 </v>
   <v>       0.20000000       0.33333333       0.25000000 </v>
   <v>       0.24000000       0.33333333       0.25000000 </v>
   <v>       0.28000000       0.33333333       0.25000000 </v>
   <v>       0.32000000       0.33333333       0.25000000 </v>
   <v>       0.36000000       0.33333333       0.25000000 </v>
   <v>       0.40000000       0.33333333       0.25000000 </v>
   <v>       0.44000000       0.33333333       0.25000000 </v>
   <v>       0.48000000       0.33333333       0.25000000 </v>
   <v>      -0.48000000       0.33333333       0.25000000 </v>
   <v>      -0.44000000       0.33333333       0.25000000 </v>
   <v>      -0.40000000       0.33333333       0.25000000 </v>
   <v>      -0.36000000       0.33333333       0.25000000 </v>
   <v>      -0.32000000       0.33333333       0.25000000 </v>
   <v>      -0.28000000       0.33333333       0.25000000 </v>
   <v>      -0.24000000       0.33333333       0.25000000 </v>
   <v>      -0.20000000       0.33333333       0.25000000 </v>
   <v>      -0.16000000       0.33333333       0.25000000 </v>
   <v>      -0.12000000       0.33333333       0.25000000 </v>
   <v>      -0.08000000       0.33333333       0.25000000 </v>
   <v>      -0.04000000       0.33333333       0.25000000 </v>
   <v>       0.00000000       0.41666667       0.25000000 </v>
   <v>       0.04000000       0.41666667       0.25000000 </v>
   <v>       0.08000000       0.41666667       0.25000000 </v>
   <v>       0.12000000       0.41666667       0.25000000 </v>
   <v>       0.16000000       0.41666667       0.25000000 </v>
   <v>       0.20000000       0.41666667       0.25000000 </v>
   <v>       0.24000000       0.41666667       0.25000000 </v>
   <v>       0.28000000       0.41666667       0.25000000 </v>
   <v>       0.32000000       0.41666667       0.25000000 </v>
   <v>       0.36000000       0.41666667       0.25000000 </v>
   <v>       0.40000000       0.41666667       0.25000000 </v>
   <v>       0.44000000       0.41666667       0.25000000 </v>
   <v>       0.48000000       0.41666667       0.25000000 </v>
   <v>      -0.48000000       0.41666667       0.25000000 </v>
   <v>      -0.44000000       0.41666667       0.25000000 </v>
   <v>      -0.40000000       0.41666667       0.25000000 </v>
   <v>      -0.36000000       0.41666667       0.25000000 </v>
   <v>      -0.32000000       0.41666667       0.25000000 </v>
   <v>      -0.28000000       0.41666667       0.25000000 </v>
   <v>      -0.24000000       0.41666667       0.25000000 </v>
   <v>      -0.20000000       0.41666667       0.25000000 </v>
   <v>      -0.16000000       0.41666667       0.25000000 </v>
   <v>      -0.12000000       0.41666667       0.25000000 </v>
   <v>      -0.08000000       0.41666667       0.25000000 </v>
   <v>      -0.04000000       0.41666667       0.25000000 </v>
   <v>       0.00000000       0.50000000       0.25000000 </v>
   <v>       0.04000000       0.50000000       0.25000000 </v>
   <v>       0.08000000       0.50000000       0.25000000 </v>
   <v>       0.12000000       0.50000000       0.25000000 </v>
   <v>       0.16000000       0.50000000       0.25000000 </v>
   <v>       0.20000000       0.50000000       0.25000000 </v>
   <v>       0.24000000       0.50000000       0.25000000 </v>
   <v>       0.28000000       0.50000000       0.25000000 </v>
   <v>       0.32000000       0.50000000       0.25000000 </v>
   <v>       0.36000000       0.50000000       0.25000000 </v>
   <v>       0.40000000       0.50000000       0.25000000 </v>
   <v>       0.44000000       0.50000000       0.25000000 </v>
   <v>       0.48000000       0.50000000       0.25000000 </v>
   <v>      -0.48000000       0.50000000       0.25000000 </v>
   <v>      -0.44000000       0.50000000       0.25000000 </v>
   <v>      -0.40000000       0.50000000       0.25000000 </v>
   <v>      -0.36000000       0.50000000       0.25000000 </v>
   <v>      -0.32000000       0.50000000       0.25000000 </v>
   <v>      -0.28000000       0.50000000       0.25000000 </v>
   <v>      -0.24000000       0.50000000       0.25000000 </v>
   <v>      -0.20000000       0.50000000       0.25000000 </v>
   <v>      -0.16000000       0.50000000       0.25000000 </v>
   <v>      -0.12000000       0.50000000       0.25000000 </v>
   <v>      -0.08000000       0.50000000       0.25000000 </v>
   <v>      -0.04000000       0.50000000       0.25000000 </v>
   <v>       0.00000000      -0.41666667       0.25000000 </v>
   <v>       0.04000000      -0.41666667       0.25000000 </v>
   <v>       0.08000000      -0.41666667       0.25000000 </v>
   <v>       0.12000000      -0.41666667       0.25000000 </v>
   <v>       0.16000000      -0.41666667       0.25000000 </v>
   <v>       0.20000000      -0.41666667       0.25000000 </v>
   <v>       0.24000000      -0.41666667       0.25000000 </v>
   <v>       0.28000000      -0.41666667       0.25000000 </v>
   <v>       0.32000000      -0.41666667       0.25000000 </v>
   <v>       0.36000000      -0.41666667       0.25000000 </v>
   <v>       0.40000000      -0.41666667       0.25000000 </v>
   <v>       0.44000000      -0.41666667       0.25000000 </v>
   <v>       0.48000000      -0.41666667       0.25000000 </v>
   <v>      -0.48000000      -0.41666667       0.25000000 </v>
   <v>      -0.44000000      -0.41666667       0.25000000 </v>
   <v>      -0.40000000      -0.41666667       0.25000000 </v>
   <v>      -0.36000000      -0.41666667       0.25000000 </v>
   <v>      -0.32000000      -0.41666667       0.25000000 </v>
   <v>      -0.28000000      -0.41666667       0.25000000 </v>
   <v>      -0.24000000      -0.41666667       0.25000000 </v>
   <v>      -0.20000000      -0.41666667       0.25000000 </v>
   <v>      -0.16000000      -0.41666667       0.25000000 </v>
   <v>      -0.12000000      -0.41666667       0.25000000 </v>
   <v>      -0.08000000      -0.41666667       0.25000000 </v>
   <v>      -0.04000000      -0.41666667       0.25000000 </v>
   <v>       0.00000000      -0.33333333       0.25000000 </v>
   <v>       0.04000000      -0.33333333       0.25000000 </v>
   <v>       0.08000000      -0.33333333       0.25000000 </v>
   <v>       0.12000000      -0.33333333       0.25000000 </v>
   <v>       0.16000000      -0.33333333       0.25000000 </v>
   <v>       0.20000000      -0.33333333       0.25000000 </v>
   <v>       0.24000000      -0.33333333       0.25000000 </v>
   <v>       0.28000000      -0.33333333       0.25000000 </v>
   <v>       0.32000000      -0.33333333       0.25000000 </v>
   <v>       0.36000000      -0.33333333       0.25000000 </v>
   <v>       0.40000000      -0.33333333       0.25000000 </v>
   <v>       0.44000000      -0.33333333       0.25000000 </v>
   <v>       0.48000000      -0.33333333       0.25000000 </v>
   <v>      -0.48000000      -0.33333333       0.25000000 </v>
   <v>      -0.44000000      -0.33333333       0.25000000 </v>
   <v>      -0.40000000      -0.33333333       0.25000000 </v>
   <v>      -0.36000000      -0.33333333       0.25000000 </v>
   <v>      -0.32000000      -0.33333333       0.25000000 </v>
   <v>      -0.28000000      -0.33333333       0.25000000 </v>
   <v>      -0.24000000      -0.33333333       0.25000000 </v>
   <v>      -0.20000000      -0.33333333       0.25000000 </v>
   <v>      -0.16000000      -0.33333333       0.25000000 </v>
   <v>      -0.12000000      -0.33333333       0.25000000 </v>
   <v>      -0.08000000      -0.33333333       0.25000000 </v>
   <v>      -0.04000000      -0.33333333       0.25000000 </v>
   <v>       0.00000000      -0.25000000       0.25000000 </v>
   <v>       0.04000000      -0.25000000       0.25000000 </v>
   <v>       0.08000000      -0.25000000       0.25000000 </v>
   <v>       0.12000000      -0.25000000       0.25000000 </v>
   <v>       0.16000000      -0.25000000       0.25000000 </v>
   <v>       0.20000000      -0.25000000       0.25000000 </v>
   <v>       0.24000000      -0.25000000       0.25000000 </v>
   <v>       0.28000000      -0.25000000       0.25000000 </v>
   <v>       0.32000000      -0.25000000       0.25000000 </v>
   <v>       0.36000000      -0.25000000       0.25000000 </v>
   <v>       0.40000000      -0.25000000       0.25000000 </v>
   <v>       0.44000000      -0.25000000       0.25000000 </v>
   <v>       0.48000000      -0.25000000       0.25000000 </v>
   <v>      -0.48000000      -0.25000000       0.25000000 </v>
   <v>      -0.44000000      -0.25000000       0.25000000 </v>
   <v>      -0.40000000      -0.25000000       0.25000000 </v>
   <v>      -0.36000000      -0.25000000       0.25000000 </v>
   <v>      -0.32000000      -0.25000000       0.25000000 </v>
   <v>      -0.28000000      -0.25000000       0.25000000 </v>
   <v>      -0.24000000      -0.25000000       0.25000000 </v>
   <v>      -0.20000000      -0.25000000       0.25000000 </v>
   <v>      -0.16000000      -0.25000000       0.25000000 </v>
   <v>      -0.12000000      -0.25000000       0.25000000 </v>
   <v>      -0.08000000      -0.25000000       0.25000000 </v>
   <v>      -0.04000000      -0.25000000       0.25000000 </v>
   <v>       0.00000000      -0.16666667       0.25000000 </v>
   <v>       0.04000000      -0.16666667       0.25000000 </v>
   <v>       0.08000000      -0.16666667       0.25000000 </v>
   <v>       0.12000000      -0.16666667       0.25000000 </v>
   <v>       0.16000000      -0.16666667       0.25000000 </v>
   <v>       0.20000000      -0.16666667       0.25000000 </v>
   <v>       0.24000000      -0.16666667       0.25000000 </v>
   <v>       0.28000000      -0.16666667       0.25000000 </v>
   <v>       0.32000000      -0.16666667       0.25000000 </v>
   <v>       0.36000000      -0.16666667       0.25000000 </v>
   <v>       0.40000000      -0.16666667       0.25000000 </v>
   <v>       0.44000000      -0.16666667       0.25000000 </v>
   <v>       0.48000000      -0.16666667       0.25000000 </v>
   <v>      -0.48000000      -0.16666667       0.25000000 </v>
   <v>      -0.44000000      -0.16666667       0.25000000 </v>
   <v>      -0.40000000      -0.16666667       0.25000000 </v>
   <v>      -0.36000000      -0.16666667       0.25000000 </v>
   <v>      -0.32000000      -0.16666667       0.25000000 </v>
   <v>      -0.28000000      -0.16666667       0.25000000 </v>
   <v>      -0.24000000      -0.16666667       0.25000000 </v>
   <v>      -0.20000000      -0.16666667       0.25000000 </v>
   <v>      -0.16000000      -0.16666667       0.25000000 </v>
   <v>      -0.12000000      -0.16666667       0.25000000 </v>
   <v>      -0.08000000      -0.16666667       0.25000000 </v>
   <v>      -0.04000000      -0.16666667       0.25000000 </v>
   <v>       0.00000000      -0.08333333       0.25000000 </v>
   <v>       0.04000000      -0.08333333       0.25000000 </v>
   <v>       0.08000000      -0.08333333       0.25000000 </v>
   <v>       0.12000000      -0.08333333       0.25000000 </v>
   <v>       0.16000000      -0.08333333       0.25000000 </v>
   <v>       0.20000000      -0.08333333       0.25000000 </v>
   <v>       0.24000000      -0.08333333       0.25000000 </v>
   <v>       0.28000000      -0.08333333       0.25000000 </v>
   <v>       0.32000000      -0.08333333       0.25000000 </v>
   <v>       0.36000000      -0.08333333       0.25000000 </v>
   <v>       0.40000000      -0.08333333       0.25000000 </v>
   <v>       0.44000000      -0.08333333       0.25000000 </v>
   <v>       0.48000000      -0.08333333       0.25000000 </v>
   <v>      -0.48000000      -0.08333333       0.25000000 </v>
   <v>      -0.44000000      -0.08333333       0.25000000 </v>
   <v>      -0.40000000      -0.08333333       0.25000000 </v>
   <v>      -0.36000000      -0.08333333       0.25000000 </v>
   <v>      -0.32000000      -0.08333333       0.25000000 </v>
   <v>      -0.28000000      -0.08333333       0.25000000 </v>
   <v>      -0.24000000      -0.08333333       0.25000000 </v>
   <v>      -0.20000000      -0.08333333       0.25000000 </v>
   <v>      -0.16000000      -0.08333333       0.25000000 </v>
   <v>      -0.12000000      -0.08333333       0.25000000 </v>
   <v>      -0.08000000      -0.08333333       0.25000000 </v>
   <v>      -0.04000000      -0.08333333       0.25000000 </v>
   <v>       0.00000000       0.00000000       0.33333333 </v>
   <v>       0.04000000       0.00000000       0.33333333 </v>
   <v>       0.08000000       0.00000000       0.33333333 </v>
   <v>       0.12000000       0.00000000       0.33333333 </v>
   <v>       0.16000000       0.00000000       0.33333333 </v>
   <v>       0.20000000       0.00000000       0.33333333 </v>
   <v>       0.24000000       0.00000000       0.33333333 </v>
   <v>       0.28000000       0.00000000       0.33333333 </v>
   <v>       0.32000000       0.00000000       0.33333333 </v>
   <v>       0.36000000       0.00000000       0.33333333 </v>
   <v>       0.40000000       0.00000000       0.33333333 </v>
   <v>       0.44000000       0.00000000       0.33333333 </v>
   <v>       0.48000000       0.00000000       0.33333333 </v>
   <v>      -0.48000000       0.00000000       0.33333333 </v>
   <v>      -0.44000000       0.00000000       0.33333333 </v>
   <v>      -0.40000000       0.00000000       0.33333333 </v>
   <v>      -0.36000000       0.00000000       0.33333333 </v>
   <v>      -0.32000000       0.00000000       0.33333333 </v>
   <v>      -0.28000000       0.00000000       0.33333333 </v>
   <v>      -0.24000000       0.00000000       0.33333333 </v>
   <v>      -0.20000000       0.00000000       0.33333333 </v>
   <v>      -0.16000000       0.00000000       0.33333333 </v>
   <v>      -0.12000000       0.00000000       0.33333333 </v>
   <v>      -0.08000000       0.00000000       0.33333333 </v>
   <v>      -0.04000000       0.00000000       0.33333333 </v>
   <v>       0.00000000       0.08333333       0.33333333 </v>
   <v>       0.04000000       0.08333333       0.33333333 </v>
   <v>       0.08000000       0.08333333       0.33333333 </v>
   <v>       0.12000000       0.08333333       0.33333333 </v>
   <v>       0.16000000       0.08333333       0.33333333 </v>
   <v>       0.20000000       0.08333333       0.33333333 </v>
   <v>       0.24000000       0.08333333       0.33333333 </v>
   <v>       0.28000000       0.08333333       0.33333333 </v>
   <v>       0.32000000       0.08333333       0.33333333 </v>
   <v>       0.36000000       0.08333333       0.33333333 </v>
   <v>       0.40000000       0.08333333       0.33333333 </v>
   <v>       0.44000000       0.08333333       0.33333333 </v>
   <v>       0.48000000       0.08333333       0.33333333 </v>
   <v>      -0.48000000       0.08333333       0.33333333 </v>
   <v>      -0.44000000       0.08333333       0.33333333 </v>
   <v>      -0.40000000       0.08333333       0.33333333 </v>
   <v>      -0.36000000       0.08333333       0.33333333 </v>
   <v>      -0.32000000       0.08333333       0.33333333 </v>
   <v>      -0.28000000       0.08333333       0.33333333 </v>
   <v>      -0.24000000       0.08333333       0.33333333 </v>
   <v>      -0.20000000       0.08333333       0.33333333 </v>
   <v>      -0.16000000       0.08333333       0.33333333 </v>
   <v>      -0.12000000       0.08333333       0.33333333 </v>
   <v>      -0.08000000       0.08333333       0.33333333 </v>
   <v>      -0.04000000       0.08333333       0.33333333 </v>
   <v>       0.00000000       0.16666667       0.33333333 </v>
   <v>       0.04000000       0.16666667       0.33333333 </v>
   <v>       0.08000000       0.16666667       0.33333333 </v>
   <v>       0.12000000       0.16666667       0.33333333 </v>
   <v>       0.16000000       0.16666667       0.33333333 </v>
   <v>       0.20000000       0.16666667       0.33333333 </v>
   <v>       0.24000000       0.16666667       0.33333333 </v>
   <v>       0.28000000       0.16666667       0.33333333 </v>
   <v>       0.32000000       0.16666667       0.33333333 </v>
   <v>       0.36000000       0.16666667       0.33333333 </v>
   <v>       0.40000000       0.16666667       0.33333333 </v>
   <v>       0.44000000       0.16666667       0.33333333 </v>
   <v>       0.48000000       0.16666667       0.33333333 </v>
   <v>      -0.48000000       0.16666667       0.33333333 </v>
   <v>      -0.44000000       0.16666667       0.33333333 </v>
   <v>      -0.40000000       0.16666667       0.33333333 </v>
   <v>      -0.36000000       0.16666667       0.33333333 </v>
   <v>      -0.32000000       0.16666667       0.33333333 </v>
   <v>      -0.28000000       0.16666667       0.33333333 </v>
   <v>      -0.24000000       0.16666667       0.33333333 </v>
   <v>      -0.20000000       0.16666667       0.33333333 </v>
   <v>      -0.16000000       0.16666667       0.33333333 </v>
   <v>      -0.12000000       0.16666667       0.33333333 </v>
   <v>      -0.08000000       0.16666667       0.33333333 </v>
   <v>      -0.04000000       0.16666667       0.33333333 </v>
   <v>       0.00000000       0.25000000       0.33333333 </v>
   <v>       0.04000000       0.25000000       0.33333333 </v>
   <v>       0.08000000       0.25000000       0.33333333 </v>
   <v>       0.12000000       0.25000000       0.33333333 </v>
   <v>       0.16000000       0.25000000       0.33333333 </v>
   <v>       0.20000000       0.25000000       0.33333333 </v>
   <v>       0.24000000       0.25000000       0.33333333 </v>
   <v>       0.28000000       0.25000000       0.33333333 </v>
   <v>       0.32000000       0.25000000       0.33333333 </v>
   <v>       0.36000000       0.25000000       0.33333333 </v>
   <v>       0.40000000       0.25000000       0.33333333 </v>
   <v>       0.44000000       0.25000000       0.33333333 </v>
   <v>       0.48000000       0.25000000       0.33333333 </v>
   <v>      -0.48000000       0.25000000       0.33333333 </v>
   <v>      -0.44000000       0.25000000       0.33333333 </v>
   <v>      -0.40000000       0.25000000       0.33333333 </v>
   <v>      -0.36000000       0.25000000       0.33333333 </v>
   <v>      -0.32000000       0.25000000       0.33333333 </v>
   <v>      -0.28000000       0.25000000       0.33333333 </v>
   <v>      -0.24000000       0.25000000       0.33333333 </v>
   <v>      -0.20000000       0.25000000       0.33333333 </v>
   <v>      -0.16000000       0.25000000       0.33333333 </v>
   <v>      -0.12000000       0.25000000       0.33333333 </v>
   <v>      -0.08000000       0.25000000       0.33333333 </v>
   <v>      -0.04000000       0.25000000       0.33333333 </v>
   <v>       0.00000000       0.33333333       0.33333333 </v>
   <v>       0.04000000       0.33333333       0.33333333 </v>
   <v>       0.08000000       0.33333333       0.33333333 </v>
   <v>       0.12000000       0.33333333       0.33333333 </v>
   <v>       0.16000000       0.33333333       0.33333333 </v>
   <v>       0.20000000       0.33333333       0.33333333 </v>
   <v>       0.24000000       0.33333333       0.33333333 </v>
   <v>       0.28000000       0.33333333       0.33333333 </v>
   <v>       0.32000000       0.33333333       0.33333333 </v>
   <v>       0.36000000       0.33333333       0.33333333 </v>
   <v>       0.40000000       0.33333333       0.33333333 </v>
   <v>       0.44000000       0.33333333       0.33333333 </v>
   <v>       0.48000000       0.33333333       0.33333333 </v>
   <v>      -0.48000000       0.33333333       0.33333333 </v>
   <v>      -0.44000000       0.33333333       0.33333333 </v>
   <v>      -0.40000000       0.33333333       0.33333333 </v>
   <v>      -0.36000000       0.33333333       0.33333333 </v>
   <v>      -0.32000000       0.33333333       0.33333333 </v>
   <v>      -0.28000000       0.33333333       0.33333333 </v>
   <v>      -0.24000000       0.33333333       0.33333333 </v>
   <v>      -0.20000000       0.33333333       0.33333333 </v>
   <v>      -0.16000000       0.33333333       0.33333333 </v>
   <v>      -0.12000000       0.33333333       0.33333333 </v>
   <v>      -0.08000000       0.33333333       0.33333333 </v>
   <v>      -0.04000000       0.33333333       0.33333333 </v>
   <v>       0.00000000       0.41666667       0.33333333 </v>
   <v>       0.04000000       0.41666667       0.33333333 </v>
   <v>       0.08000000       0.41666667       0.33333333 </v>
   <v>       0.12000000       0.41666667       0.33333333 </v>
   <v>       0.16000000       0.41666667       0.33333333 </v>
   <v>       0.20000000       0.41666667       0.33333333 </v>
   <v>       0.24000000       0.41666667       0.33333333 </v>
   <v>       0.28000000       0.41666667       0.33333333 </v>
   <v>       0.32000000       0.41666667       0.33333333 </v>
   <v>       0.36000000       0.41666667       0.33333333 </v>
   <v>       0.40000000       0.41666667       0.33333333 </v>
   <v>       0.44000000       0.41666667       0.33333333 </v>
   <v>       0.48000000       0.41666667       0.33333333 </v>
   <v>      -0.48000000       0.41666667       0.33333333 </v>
   <v>      -0.44000000       0.41666667       0.33333333 </v>
   <v>      -0.40000000       0.41666667       0.33333333 </v>
   <v>      -0.36000000       0.41666667       0.33333333 </v>
   <v>      -0.32000000       0.41666667       0.33333333 </v>
   <v>      -0.28000000       0.41666667       0.33333333 </v>
   <v>      -0.24000000       0.41666667       0.33333333 </v>
   <v>      -0.20000000       0.41666667       0.33333333 </v>
   <v>      -0.16000000       0.41666667       0.33333333 </v>
   <v>      -0.12000000       0.41666667       0.33333333 </v>
   <v>      -0.08000000       0.41666667       0.33333333 </v>
   <v>      -0.04000000       0.41666667       0.33333333 </v>
   <v>       0.00000000       0.50000000       0.33333333 </v>
   <v>       0.04000000       0.50000000       0.33333333 </v>
   <v>       0.08000000       0.50000000       0.33333333 </v>
   <v>       0.12000000       0.50000000       0.33333333 </v>
   <v>       0.16000000       0.50000000       0.33333333 </v>
   <v>       0.20000000       0.50000000       0.33333333 </v>
   <v>       0.24000000       0.50000000       0.33333333 </v>
   <v>       0.28000000       0.50000000       0.33333333 </v>
   <v>       0.32000000       0.50000000       0.33333333 </v>
   <v>       0.36000000       0.50000000       0.33333333 </v>
   <v>       0.40000000       0.50000000       0.33333333 </v>
   <v>       0.44000000       0.50000000       0.33333333 </v>
   <v>       0.48000000       0.50000000       0.33333333 </v>
   <v>      -0.48000000       0.50000000       0.33333333 </v>
   <v>      -0.44000000       0.50000000       0.33333333 </v>
   <v>      -0.40000000       0.50000000       0.33333333 </v>
   <v>      -0.36000000       0.50000000       0.33333333 </v>
   <v>      -0.32000000       0.50000000       0.33333333 </v>
   <v>      -0.28000000       0.50000000       0.33333333 </v>
   <v>      -0.24000000       0.50000000       0.33333333 </v>
   <v>      -0.20000000       0.50000000       0.33333333 </v>
   <v>      -0.16000000       0.50000000       0.33333333 </v>
   <v>      -0.12000000       0.50000000       0.33333333 </v>
   <v>      -0.08000000       0.50000000       0.33333333 </v>
   <v>      -0.04000000       0.50000000       0.33333333 </v>
   <v>       0.00000000      -0.41666667       0.33333333 </v>
   <v>       0.04000000      -0.41666667       0.33333333 </v>
   <v>       0.08000000      -0.41666667       0.33333333 </v>
   <v>       0.12000000      -0.41666667       0.33333333 </v>
   <v>       0.16000000      -0.41666667       0.33333333 </v>
   <v>       0.20000000      -0.41666667       0.33333333 </v>
   <v>       0.24000000      -0.41666667       0.33333333 </v>
   <v>       0.28000000      -0.41666667       0.33333333 </v>
   <v>       0.32000000      -0.41666667       0.33333333 </v>
   <v>       0.36000000      -0.41666667       0.33333333 </v>
   <v>       0.40000000      -0.41666667       0.33333333 </v>
   <v>       0.44000000      -0.41666667       0.33333333 </v>
   <v>       0.48000000      -0.41666667       0.33333333 </v>
   <v>      -0.48000000      -0.41666667       0.33333333 </v>
   <v>      -0.44000000      -0.41666667       0.33333333 </v>
   <v>      -0.40000000      -0.41666667       0.33333333 </v>
[...]
       <r>    5.3516    1.0000 </r>
       <r>    5.6981    1.0000 </r>
       <r>    5.9102    1.0000 </r>
       <r>    6.0916    1.0000 </r>
       <r>    6.1715    1.0000 </r>
       <r>    6.3173    1.0000 </r>
       <r>    6.4077    1.0000 </r>
       <r>    6.4990    1.0000 </r>
       <r>    6.6469    1.0000 </r>
       <r>    6.8861    1.0000 </r>
       <r>    7.7591    1.0091 </r>
       <r>    8.5389    0.0631 </r>
       <r>    9.8333    0.0000 </r>
       <r>   10.5410    0.0000 </r>
       <r>   11.2436    0.0000 </r>
       <r>   12.6412    0.0000 </r>
       <r>   13.0352    0.0000 </r>
       <r>   14.5070    0.0000 </r>
       <r>   15.2129    0.0000 </r>
      </set>
      <set comment="kpoint 1801">
       <r>    2.0507    1.0000 </r>
       <r>    2.2086    1.0000 </r>
       <r>    2.3359    1.0000 </r>
       <r>    2.5252    1.0000 </r>
       <r>    2.6302    1.0000 </r>
       <r>    2.6857    1.0000 </r>
       <r>    2.8502    1.0000 </r>
       <r>    2.9848    1.0000 </r>
       <r>    3.0842    1.0000 </r>
       <r>    3.1458    1.0000 </r>
       <r>    3.7514    1.0000 </r>
       <r>    3.9092    1.0000 </r>
       <r>    4.0100    1.0000 </r>
       <r>    4.1364    1.0000 </r>
       <r>    4.2112    1.0000 </r>
       <r>    4.3354    1.0000 </r>
       <r>    4.4270    1.0000 </r>
       <r>    4.7138    1.0000 </r>
       <r>    4.8497    1.0000 </r>
       <r>    4.8956    1.0000 </r>
       <r>    5.0928    1.0000 </r>
       <r>    5.4266    1.0000 </r>
       <r>    5.8577    1.0000 </r>
       <r>    6.0100    1.0000 </r>
       <r>    6.1417    1.0000 </r>
       <r>    6.3039    1.0000 </r>
       <r>    6.3510    1.0000 </r>
       <r>    6.4443    1.0000 </r>
       <r>    6.5599    1.0000 </r>
       <r>    6.6410    1.0000 </r>
       <r>    7.4252    1.0001 </r>
       <r>    8.2232    0.8185 </r>
       <r>    9.1870   -0.0003 </r>
       <r>    9.6563    0.0000 </r>
       <r>   10.3577    0.0000 </r>
       <r>   10.6101    0.0000 </r>
       <r>   11.8824    0.0000 </r>
       <r>   13.1029    0.0000 </r>
       <r>   13.5934    0.0000 </r>
       <r>   15.0197    0.0000 </r>
      </set>
      <set comment="kpoint 1802">
       <r>    2.0184    1.0000 </r>
       <r>    2.2210    1.0000 </r>
       <r>    2.3103    1.0000 </r>
       <r>    2.4984    1.0000 </r>
       <r>    2.6087    1.0000 </r>
       <r>    2.6585    1.0000 </r>
       <r>    2.8238    1.0000 </r>
       <r>    2.9690    1.0000 </r>
       <r>    3.0615    1.0000 </r>
       <r>    3.1288    1.0000 </r>
       <r>    3.7967    1.0000 </r>
       <r>    3.9553    1.0000 </r>
       <r>    4.0602    1.0000 </r>
       <r>    4.1884    1.0000 </r>
       <r>    4.2789    1.0000 </r>
       <r>    4.3532    1.0000 </r>
       <r>    4.4460    1.0000 </r>
       <r>    4.7292    1.0000 </r>
       <r>    4.8339    1.0000 </r>
       <r>    4.9022    1.0000 </r>
       <r>    5.0638    1.0000 </r>
       <r>    5.4658    1.0000 </r>
       <r>    5.9498    1.0000 </r>
       <r>    6.0682    1.0000 </r>
       <r>    6.1417    1.0000 </r>
       <r>    6.2890    1.0000 </r>
       <r>    6.4411    1.0000 </r>
       <r>    6.4762    1.0000 </r>
       <r>    6.5786    1.0000 </r>
       <r>    6.6369    1.0000 </r>
       <r>    8.0859    1.0059 </r>
       <r>    8.7709   -0.0313 </r>
       <r>    8.8950   -0.0134 </r>
       <r>    9.6338    0.0000 </r>
       <r>    9.9642    0.0000 </r>
       <r>   10.7672    0.0000 </r>
       <r>   11.5212    0.0000 </r>
       <r>   12.4366    0.0000 </r>
       <r>   13.7859    0.0000 </r>
       <r>   14.3644    0.0000 </r>
      </set>
     </set>
    </set>
   </array>
  </eigenvalues>
  <separator name="orbital magnetization" >
   <v name="MAGDIPOLOUT">      0.00000000      0.00000000      0.00000000</v>
  </separator>
  <dos>
   <i name="efermi">      8.34702808 </i>
   <total>
    <array>
     <dimension dim="1">gridpoints</dimension>
     <dimension dim="2">spin</dimension>
     <field>energy</field>
     <field>total</field>
     <field>integrated</field>
     <set>
      <set comment="spin 1">
       <r>    -3.7741     0.0000     0.0000 </r>
       <r>    -3.6939     0.0000     0.0000 </r>
       <r>    -3.6136     0.0000     0.0000 </r>
       <r>    -3.5334     0.0000     0.0000 </r>
       <r>    -3.4532     0.0000     0.0000 </r>
       <r>    -3.3729     0.0000     0.0000 </r>
       <r>    -3.2927     0.0000     0.0000 </r>
       <r>    -3.2125     0.0000     0.0000 </r>
       <r>    -3.1322     0.0000     0.0000 </r>
       <r>    -3.0520     0.0000     0.0000 </r>
       <r>    -2.9718     0.0000     0.0000 </r>
       <r>    -2.8915     0.0000     0.0000 </r>
       <r>    -2.8113     0.0000     0.0000 </r>
       <r>    -2.7311     0.0000     0.0000 </r>
       <r>    -2.6508     0.0000     0.0000 </r>
       <r>    -2.5706     0.0000     0.0000 </r>
       <r>    -2.4904     0.0000     0.0000 </r>
       <r>    -2.4101     0.0000     0.0000 </r>
       <r>    -2.3299     0.0000     0.0000 </r>
       <r>    -2.2496     0.0000     0.0000 </r>
       <r>    -2.1694     0.0000     0.0000 </r>
       <r>    -2.0892     0.0000     0.0000 </r>
       <r>    -2.0089     0.0000     0.0000 </r>
       <r>    -1.9287     0.0000     0.0000 </r>
       <r>    -1.8485     0.0000     0.0000 </r>
       <r>    -1.7682     0.0000     0.0000 </r>
       <r>    -1.6880     0.0000     0.0000 </r>
       <r>    -1.6078     0.0000     0.0000 </r>
       <r>    -1.5275    -0.0001     0.0000 </r>
       <r>    -1.4473    -0.0002     0.0000 </r>
       <r>    -1.3671    -0.0007    -0.0001 </r>
       <r>    -1.2868    -0.0018    -0.0002 </r>
       <r>    -1.2066    -0.0039    -0.0005 </r>
       <r>    -1.1264    -0.0065    -0.0011 </r>
       <r>    -1.0461    -0.0081    -0.0017 </r>
       <r>    -0.9659    -0.0050    -0.0021 </r>
       <r>    -0.8857     0.0083    -0.0015 </r>
       <r>    -0.8054     0.0363     0.0015 </r>
       <r>    -0.7252     0.0801     0.0079 </r>
       <r>    -0.6450     0.1360     0.0188 </r>
       <r>    -0.5647     0.1968     0.0346 </r>
       <r>    -0.4845     0.2554     0.0551 </r>
       <r>    -0.4043     0.3079     0.0798 </r>
       <r>    -0.3240     0.3539     0.1082 </r>
       <r>    -0.2438     0.3953     0.1399 </r>
       <r>    -0.1636     0.4348     0.1748 </r>
       <r>    -0.0833     0.4750     0.2129 </r>
       <r>    -0.0031     0.5179     0.2544 </r>
       <r>     0.0771     0.5641     0.2997 </r>
       <r>     0.1574     0.6120     0.3488 </r>
       <r>     0.2376     0.6580     0.4016 </r>
       <r>     0.3178     0.6976     0.4576 </r>
       <r>     0.3981     0.7277     0.5160 </r>
       <r>     0.4783     0.7479     0.5760 </r>
       <r>     0.5585     0.7624     0.6371 </r>
       <r>     0.6388     0.7795     0.6997 </r>
       <r>     0.7190     0.8082     0.7645 </r>
       <r>     0.7992     0.8518     0.8329 </r>
       <r>     0.8795     0.9062     0.9056 </r>
       <r>     0.9597     0.9628     0.9828 </r>
       <r>     1.0399     1.0148     1.0642 </r>
       <r>     1.1202     1.0618     1.1494 </r>
       <r>     1.2004     1.1131     1.2387 </r>
       <r>     1.2806     1.1935     1.3345 </r>
       <r>     1.3609     1.3470     1.4426 </r>
       <r>     1.4411     1.6276     1.5732 </r>
       <r>     1.5213     2.0735     1.7395 </r>
       <r>     1.6016     2.6830     1.9548 </r>
       <r>     1.6818     3.4146     2.2288 </r>
       <r>     1.7620     4.2106     2.5666 </r>
       <r>     1.8423     5.0205     2.9694 </r>
       <r>     1.9225     5.8085     3.4354 </r>
       <r>     2.0027     6.5552     3.9614 </r>
       <r>     2.0830     7.2670     4.5444 </r>
       <r>     2.1632     7.9808     5.1848 </r>
       <r>     2.2434     8.7406     5.8860 </r>
       <r>     2.3237     9.5556     6.6527 </r>
       <r>     2.4039    10.3777     7.4854 </r>
       <r>     2.4841    11.1148     8.3771 </r>
       <r>     2.5644    11.6637     9.3130 </r>
       <r>     2.6446    11.9404    10.2710 </r>
       <r>     2.7248    11.9130    11.2268 </r>
       <r>     2.8051    11.6354    12.1603 </r>
       <r>     2.8853    11.2514    13.0631 </r>
       <r>     2.9655    10.9386    13.9407 </r>
       <r>     3.0458    10.8167    14.8086 </r>
       <r>     3.1260    10.8814    15.6816 </r>
       <r>     3.2062    11.0197    16.5658 </r>
       <r>     3.2865    11.1031    17.4566 </r>
       <r>     3.3667    11.1017    18.3473 </r>
       <r>     3.4469    11.1290    19.2403 </r>
       <r>     3.5272    11.3680    20.1524 </r>
       <r>     3.6074    11.9219    21.1089 </r>
       <r>     3.6876    12.7171    22.1292 </r>
       <r>     3.7679    13.5489    23.2163 </r>
       <r>     3.8481    14.2259    24.3577 </r>
       <r>     3.9283    14.6714    25.5348 </r>
       <r>     4.0086    14.9035    26.7306 </r>
       <r>     4.0888    14.9514    27.9302 </r>
       <r>     4.1690    14.8138    29.1188 </r>
       <r>     4.2493    14.4864    30.2810 </r>
       <r>     4.3295    13.9990    31.4042 </r>
       <r>     4.4097    13.4135    32.4804 </r>
       <r>     4.4900    12.8034    33.5077 </r>
       <r>     4.5702    12.2535    34.4908 </r>
       <r>     4.6504    11.8741    35.4435 </r>
       <r>     4.7307    11.7777    36.3885 </r>
       <r>     4.8109    12.0098    37.3521 </r>
       <r>     4.8911    12.4919    38.3544 </r>
       <r>     4.9714    13.0457    39.4011 </r>
       <r>     5.0516    13.4887    40.4833 </r>
       <r>     5.1318    13.7134    41.5836 </r>
       <r>     5.2121    13.6909    42.6821 </r>
       <r>     5.2923    13.4260    43.7593 </r>
       <r>     5.3725    12.9301    44.7967 </r>
       <r>     5.4528    12.2363    45.7784 </r>
       <r>     5.5330    11.4233    46.6950 </r>
       <r>     5.6132    10.6161    47.5467 </r>
       <r>     5.6935     9.9574    48.3457 </r>
       <r>     5.7737     9.5592    49.1126 </r>
       <r>     5.8539     9.4607    49.8717 </r>
       <r>     5.9342     9.6360    50.6448 </r>
       <r>     6.0144    10.0730    51.4530 </r>
       <r>     6.0946    10.8596    52.3243 </r>
       <r>     6.1749    12.1619    53.3001 </r>
       <r>     6.2551    14.0454    54.4270 </r>
       <r>     6.3353    16.2555    55.7312 </r>
       <r>     6.4156    18.1620    57.1884 </r>
       <r>     6.4958    18.9733    58.7107 </r>
       <r>     6.5760    18.1230    60.1648 </r>
       <r>     6.6563    15.5914    61.4157 </r>
       <r>     6.7365    11.9557    62.3750 </r>
       <r>     6.8167     8.1278    63.0271 </r>
       <r>     6.8970     4.9406    63.4235 </r>
       <r>     6.9772     2.8296    63.6506 </r>
       <r>     7.0574     1.7704    63.7926 </r>
       <r>     7.1377     1.4452    63.9086 </r>
       <r>     7.2179     1.4795    64.0273 </r>
       <r>     7.2981     1.6046    64.1560 </r>
       <r>     7.3784     1.6981    64.2922 </r>
       <r>     7.4586     1.7432    64.4321 </r>
       <r>     7.5388     1.7640    64.5736 </r>
       <r>     7.6191     1.7809    64.7165 </r>
       <r>     7.6993     1.7962    64.8606 </r>
       <r>     7.7795     1.8015    65.0052 </r>
       <r>     7.8598     1.7898    65.1488 </r>
       <r>     7.9400     1.7633    65.2903 </r>
       <r>     8.0202     1.7348    65.4295 </r>
       <r>     8.1005     1.7210    65.5675 </r>
       <r>     8.1807     1.7305    65.7064 </r>
       <r>     8.2609     1.7551    65.8472 </r>
       <r>     8.3412     1.7743    65.9896 </r>
       <r>     8.4214     1.7714    66.1317 </r>
       <r>     8.5016     1.7481    66.2719 </r>
       <r>     8.5819     1.7214    66.4101 </r>
       <r>     8.6621     1.7087    66.5472 </r>
       <r>     8.7423     1.7134    66.6846 </r>
       <r>     8.8226     1.7232    66.8229 </r>
       <r>     8.9028     1.7205    66.9609 </r>
       <r>     8.9830     1.6963    67.0970 </r>
       <r>     9.0633     1.6577    67.2300 </r>
       <r>     9.1435     1.6242    67.3603 </r>
       <r>     9.2237     1.6135    67.4898 </r>
       <r>     9.3040     1.6292    67.6205 </r>
       <r>     9.3842     1.6589    67.7536 </r>
       <r>     9.4644     1.6847    67.8888 </r>
       <r>     9.5447     1.6944    68.0247 </r>
       <r>     9.6249     1.6864    68.1600 </r>
       <r>     9.7051     1.6665    68.2938 </r>
       <r>     9.7854     1.6427    68.4256 </r>
       <r>     9.8656     1.6207    68.5556 </r>
       <r>     9.9458     1.6035    68.6842 </r>
       <r>    10.0261     1.5920    68.8120 </r>
       <r>    10.1063     1.5857    68.9392 </r>
       <r>    10.1865     1.5823    69.0662 </r>
       <r>    10.2668     1.5777    69.1927 </r>
       <r>    10.3470     1.5664    69.3184 </r>
       <r>    10.4272     1.5436    69.4423 </r>
       <r>    10.5075     1.5071    69.5632 </r>
       <r>    10.5877     1.4601    69.6803 </r>
       <r>    10.6679     1.4135    69.7937 </r>
       <r>    10.7482     1.3814    69.9046 </r>
       <r>    10.8284     1.3747    70.0149 </r>
       <r>    10.9086     1.3965    70.1269 </r>
       <r>    10.9889     1.4444    70.2428 </r>
       <r>    11.0691     1.5162    70.3644 </r>
       <r>    11.1493     1.6107    70.4937 </r>
       <r>    11.2296     1.7227    70.6319 </r>
       <r>    11.3098     1.8384    70.7794 </r>
       <r>    11.3900     1.9370    70.9348 </r>
       <r>    11.4703     2.0011    71.0954 </r>
       <r>    11.5505     2.0266    71.2580 </r>
       <r>    11.6307     2.0241    71.4204 </r>
       <r>    11.7110     2.0101    71.5816 </r>
       <r>    11.7912     1.9955    71.7417 </r>
       <r>    11.8714     1.9821    71.9008 </r>
       <r>    11.9517     1.9683    72.0587 </r>
       <r>    12.0319     1.9557    72.2156 </r>
       <r>    12.1121     1.9466    72.3718 </r>
       <r>    12.1924     1.9383    72.5273 </r>
       <r>    12.2726     1.9200    72.6814 </r>
       <r>    12.3528     1.8802    72.8322 </r>
       <r>    12.4331     1.8183    72.9781 </r>
       <r>    12.5133     1.7496    73.1185 </r>
       <r>    12.5935     1.6986    73.2548 </r>
       <r>    12.6738     1.6829    73.3898 </r>
       <r>    12.7540     1.7026    73.5264 </r>
       <r>    12.8342     1.7422    73.6662 </r>
       <r>    12.9145     1.7825    73.8092 </r>
       <r>    12.9947     1.8106    73.9545 </r>
       <r>    13.0749     1.8216    74.1006 </r>
       <r>    13.1552     1.8160    74.2463 </r>
       <r>    13.2354     1.8012    74.3908 </r>
       <r>    13.3156     1.7939    74.5348 </r>
       <r>    13.3959     1.8153    74.6804 </r>
       <r>    13.4761     1.8764    74.8310 </r>
       <r>    13.5563     1.9664    74.9887 </r>
       <r>    13.6366     2.0579    75.1538 </r>
       <r>    13.7168     2.1228    75.3242 </r>
       <r>    13.7970     2.1462    75.4963 </r>
       <r>    13.8773     2.1292    75.6672 </r>
       <r>    13.9575     2.0840    75.8344 </r>
       <r>    14.0377     2.0281    75.9971 </r>
       <r>    14.1180     1.9783    76.1558 </r>
       <r>    14.1982     1.9456    76.3119 </r>
       <r>    14.2784     1.9325    76.4670 </r>
       <r>    14.3587     1.9337    76.6221 </r>
       <r>    14.4389     1.9396    76.7778 </r>
       <r>    14.5191     1.9404    76.9334 </r>
       <r>    14.5994     1.9292    77.0882 </r>
       <r>    14.6796     1.9037    77.2410 </r>
       <r>    14.7598     1.8665    77.3907 </r>
       <r>    14.8401     1.8229    77.5370 </r>
       <r>    14.9203     1.7778    77.6796 </r>
       <r>    15.0005     1.7313    77.8185 </r>
       <r>    15.0808     1.6792    77.9533 </r>
       <r>    15.1610     1.6182    78.0831 </r>
       <r>    15.2412     1.5506    78.2075 </r>
       <r>    15.3215     1.4831    78.3265 </r>
       <r>    15.4017     1.4221    78.4406 </r>
       <r>    15.4819     1.3701    78.5505 </r>
       <r>    15.5622     1.3263    78.6569 </r>
       <r>    15.6424     1.2887    78.7603 </r>
       <r>    15.7226     1.2543    78.8610 </r>
       <r>    15.8029     1.2181    78.9587 </r>
       <r>    15.8831     1.1740    79.0529 </r>
       <r>    15.9633     1.1203    79.1428 </r>
       <r>    16.0436     1.0643    79.2282 </r>
       <r>    16.1238     1.0196    79.3100 </r>
       <r>    16.2040     0.9960    79.3899 </r>
       <r>    16.2843     0.9937    79.4696 </r>
       <r>    16.3645     1.0056    79.5503 </r>
       <r>    16.4447     1.0221    79.6323 </r>
       <r>    16.5250     1.0280    79.7148 </r>
       <r>    16.6052     0.9981    79.7949 </r>
       <r>    16.6854     0.9036    79.8674 </r>
       <r>    16.7657     0.7348    79.9263 </r>
       <r>    16.8459     0.5166    79.9678 </r>
       <r>    16.9261     0.2999    79.9918 </r>
       <r>    17.0064     0.1315    80.0024 </r>
       <r>    17.0866     0.0309    80.0049 </r>
       <r>    17.1668    -0.0116    80.0039 </r>
       <r>    17.2471    -0.0196    80.0024 </r>
       <r>    17.3273    -0.0144    80.0012 </r>
       <r>    17.4075    -0.0077    80.0006 </r>
       <r>    17.4878    -0.0036    80.0003 </r>
       <r>    17.5680    -0.0017    80.0002 </r>
       <r>    17.6482    -0.0009    80.0001 </r>
       <r>    17.7285    -0.0006    80.0001 </r>
       <r>    17.8087    -0.0004    80.0000 </r>
       <r>    17.8889    -0.0002    80.0000 </r>
       <r>    17.9692    -0.0001    80.0000 </r>
       <r>    18.0494     0.0000    80.0000 </r>
       <r>    18.1296     0.0000    80.0000 </r>
       <r>    18.2099     0.0000    80.0000 </r>
       <r>    18.2901     0.0000    80.0000 </r>
       <r>    18.3703     0.0000    80.0000 </r>
       <r>    18.4506     0.0000    80.0000 </r>
       <r>    18.5308     0.0000    80.0000 </r>
       <r>    18.6110     0.0000    80.0000 </r>
       <r>    18.6913     0.0000    80.0000 </r>
       <r>    18.7715     0.0000    80.0000 </r>
       <r>    18.8517     0.0000    80.0000 </r>
       <r>    18.9320     0.0000    80.0000 </r>
       <r>    19.0122     0.0000    80.0000 </r>
       <r>    19.0924     0.0000    80.0000 </r>
       <r>    19.1727     0.0000    80.0000 </r>
       <r>    19.2529     0.0000    80.0000 </r>
       <r>    19.3331     0.0000    80.0000 </r>
       <r>    19.4134     0.0000    80.0000 </r>
       <r>    19.4936     0.0000    80.0000 </r>
       <r>    19.5738     0.0000    80.0000 </r>
       <r>    19.6541     0.0000    80.0000 </r>
       <r>    19.7343     0.0000    80.0000 </r>
       <r>    19.8145     0.0000    80.0000 </r>
       <r>    19.8948     0.0000    80.0000 </r>
       <r>    19.9750     0.0000    80.0000 </r>
       <r>    20.0552     0.0000    80.0000 </r>
       <r>    20.1355     0.0000    80.0000 </r>
       <r>    20.2157     0.0000    80.0000 </r>
       <r>    20.2959     0.0000    80.0000 </r>
      </set>
     </set>
    </array>
   </total>
  </dos>
 </calculation>
 <structure name="finalpos" >
  <crystal>
   <varray name="basis" >
    <v>       0.00000000       2.05973221       2.05973221 </v>
    <v>       0.03182804      -4.11941430       4.11941430 </v>
    <v>       6.01166359      -0.02411351      -2.03561870 </v>
   </varray>
   <i name="volume">    102.14848120 </i>
   <varray name="rec_basis" >
    <v>       0.08306428       0.24307089       0.24242911 </v>
    <v>       0.04056019      -0.12121979       0.12121979 </v>
    <v>       0.16612857       0.00064178      -0.00064178 </v>
   </varray>
  </crystal>
  <varray name="positions" >
   <v>       0.33229021       0.16221879       0.66458042 </v>
   <v>       0.99897114       0.49511168       0.99794229 </v>
   <v>       0.99206988       0.00958494       0.98413976 </v>
   <v>       0.66905165       0.84230574       0.33810330 </v>
   <v>       0.33417551       0.66295346       0.66835102 </v>
   <v>       0.67344160       0.32782540       0.34688321 </v>
  </varray>
 </structure>
</modeling>
