<?xml version="1.0" encoding="ISO-8859-1"?>
<modeling>
 <generator>
  <i name="program" type="string">vasp </i>
  <i name="version" type="string">5.3.5  </i>
  <i name="subversion" type="string">31Mar14 (build Jun 20 2014 13:15:13) complex                          parallel </i>
  <i name="platform" type="string">LinuxIFC </i>
  <i name="date" type="string">2025 11 28 </i>
  <i name="time" type="string">12:30:58 </i>
 </generator>
 <incar>
  <i type="string" name="PREC">accurate</i>
  <i type="int" name="IALGO">    68</i>
  <i type="logical" name="ADDGRID"> T  </i>
  <i type="int" name="NELM">   200</i>
  <i type="int" name="NELMIN">     4</i>
  <i type="int" name="IBRION">     2</i>
  <i name="EDIFF">      0.00000100</i>
  <i name="EDIFFG">     -0.02000000</i>
  <i type="int" name="NSW">    30</i>
  <i type="int" name="ISIF">     3</i>
  <i name="ENCUT">    500.00000000</i>
  <i type="logical" name="LREAL"> F  </i>
  <i type="int" name="ISMEAR">     1</i>
  <i name="SIGMA">      0.30000000</i>
  <i type="logical" name="LWAVE"> F  </i>
  <i type="logical" name="LCHARG"> F  </i>
  <i type="int" name="NELM">   200</i>
 </incar>
 <kpoints>
  <generation param="Auto">
   <i name="subdivisionlength">     70.00000000 </i>
   <v type="int" name="divisions">      24       24        6 </v>
   <v name="usershift">      0.00000000       0.00000000       0.00000000 </v>
   <v name="genvec1">      0.04166667       0.00000000       0.00000000 </v>
   <v name="genvec2">      0.00000000       0.04166667       0.00000000 </v>
   <v name="genvec3">      0.00000000       0.00000000       0.16666667 </v>
   <v name="shift">      0.00000000       0.00000000       0.00000000 </v>
  </generation>
  <varray name="kpointlist" >
   <v>       0.00000000       0.00000000       0.00000000 </v>
   <v>       0.04166667       0.00000000       0.00000000 </v>
   <v>       0.08333333       0.00000000       0.00000000 </v>
   <v>       0.12500000       0.00000000       0.00000000 </v>
   <v>       0.16666667       0.00000000       0.00000000 </v>
   <v>       0.20833333       0.00000000       0.00000000 </v>
   <v>       0.25000000       0.00000000       0.00000000 </v>
   <v>       0.29166667       0.00000000       0.00000000 </v>
   <v>       0.33333333       0.00000000       0.00000000 </v>
   <v>       0.37500000       0.00000000       0.00000000 </v>
   <v>       0.41666667       0.00000000       0.00000000 </v>
   <v>       0.45833333       0.00000000       0.00000000 </v>
   <v>       0.50000000       0.00000000       0.00000000 </v>
   <v>       0.04166667       0.04166667       0.00000000 </v>
   <v>       0.08333333       0.04166667       0.00000000 </v>
   <v>       0.12500000       0.04166667       0.00000000 </v>
   <v>       0.16666667       0.04166667       0.00000000 </v>
   <v>       0.20833333       0.04166667       0.00000000 </v>
   <v>       0.25000000       0.04166667       0.00000000 </v>
   <v>       0.29166667       0.04166667       0.00000000 </v>
   <v>       0.33333333       0.04166667       0.00000000 </v>
   <v>       0.37500000       0.04166667       0.00000000 </v>
   <v>       0.41666667       0.04166667       0.00000000 </v>
   <v>       0.45833333       0.04166667       0.00000000 </v>
   <v>       0.50000000       0.04166667       0.00000000 </v>
   <v>       0.08333333       0.08333333       0.00000000 </v>
   <v>       0.12500000       0.08333333       0.00000000 </v>
   <v>       0.16666667       0.08333333       0.00000000 </v>
   <v>       0.20833333       0.08333333       0.00000000 </v>
   <v>       0.25000000       0.08333333       0.00000000 </v>
   <v>       0.29166667       0.08333333       0.00000000 </v>
   <v>       0.33333333       0.08333333       0.00000000 </v>
   <v>       0.37500000       0.08333333       0.00000000 </v>
   <v>       0.41666667       0.08333333       0.00000000 </v>
   <v>       0.45833333       0.08333333       0.00000000 </v>
   <v>       0.50000000       0.08333333       0.00000000 </v>
   <v>       0.12500000       0.12500000       0.00000000 </v>
   <v>       0.16666667       0.12500000       0.00000000 </v>
   <v>       0.20833333       0.12500000       0.00000000 </v>
   <v>       0.25000000       0.12500000       0.00000000 </v>
   <v>       0.29166667       0.12500000       0.00000000 </v>
   <v>       0.33333333       0.12500000       0.00000000 </v>
   <v>       0.37500000       0.12500000       0.00000000 </v>
   <v>       0.41666667       0.12500000       0.00000000 </v>
   <v>       0.45833333       0.12500000       0.00000000 </v>
   <v>       0.50000000       0.12500000       0.00000000 </v>
   <v>       0.16666667       0.16666667       0.00000000 </v>
   <v>       0.20833333       0.16666667       0.00000000 </v>
   <v>       0.25000000       0.16666667       0.00000000 </v>
   <v>       0.29166667       0.16666667       0.00000000 </v>
   <v>       0.33333333       0.16666667       0.00000000 </v>
   <v>       0.37500000       0.16666667       0.00000000 </v>
   <v>       0.41666667       0.16666667       0.00000000 </v>
   <v>       0.45833333       0.16666667       0.00000000 </v>
   <v>       0.50000000       0.16666667       0.00000000 </v>
   <v>       0.20833333       0.20833333       0.00000000 </v>
   <v>       0.25000000       0.20833333       0.00000000 </v>
   <v>       0.29166667       0.20833333       0.00000000 </v>
   <v>       0.33333333       0.20833333       0.00000000 </v>
   <v>       0.37500000       0.20833333       0.00000000 </v>
   <v>       0.41666667       0.20833333       0.00000000 </v>
   <v>       0.45833333       0.20833333       0.00000000 </v>
   <v>       0.50000000       0.20833333       0.00000000 </v>
   <v>       0.25000000       0.25000000       0.00000000 </v>
   <v>       0.29166667       0.25000000       0.00000000 </v>
   <v>       0.33333333       0.25000000       0.00000000 </v>
   <v>       0.37500000       0.25000000       0.00000000 </v>
   <v>       0.41666667       0.25000000       0.00000000 </v>
   <v>       0.45833333       0.25000000       0.00000000 </v>
   <v>       0.50000000       0.25000000       0.00000000 </v>
   <v>       0.29166667       0.29166667       0.00000000 </v>
   <v>       0.33333333       0.29166667       0.00000000 </v>
   <v>       0.37500000       0.29166667       0.00000000 </v>
   <v>       0.41666667       0.29166667       0.00000000 </v>
   <v>       0.45833333       0.29166667       0.00000000 </v>
   <v>       0.50000000       0.29166667       0.00000000 </v>
   <v>       0.33333333       0.33333333       0.00000000 </v>
   <v>       0.37500000       0.33333333       0.00000000 </v>
   <v>       0.41666667       0.33333333       0.00000000 </v>
   <v>       0.45833333       0.33333333       0.00000000 </v>
   <v>       0.50000000       0.33333333       0.00000000 </v>
   <v>       0.37500000       0.37500000       0.00000000 </v>
   <v>       0.41666667       0.37500000       0.00000000 </v>
   <v>       0.45833333       0.37500000       0.00000000 </v>
   <v>       0.50000000       0.37500000       0.00000000 </v>
   <v>       0.41666667       0.41666667       0.00000000 </v>
   <v>       0.45833333       0.41666667       0.00000000 </v>
   <v>       0.50000000       0.41666667       0.00000000 </v>
   <v>       0.45833333       0.45833333       0.00000000 </v>
   <v>       0.50000000       0.45833333       0.00000000 </v>
   <v>       0.50000000       0.50000000       0.00000000 </v>
   <v>       0.00000000       0.00000000       0.16666667 </v>
   <v>       0.04166667       0.00000000       0.16666667 </v>
   <v>       0.08333333       0.00000000       0.16666667 </v>
   <v>       0.12500000       0.00000000       0.16666667 </v>
   <v>       0.16666667       0.00000000       0.16666667 </v>
   <v>       0.20833333       0.00000000       0.16666667 </v>
   <v>       0.25000000       0.00000000       0.16666667 </v>
   <v>       0.29166667       0.00000000       0.16666667 </v>
   <v>       0.33333333       0.00000000       0.16666667 </v>
   <v>       0.37500000       0.00000000       0.16666667 </v>
   <v>       0.41666667       0.00000000       0.16666667 </v>
   <v>       0.45833333       0.00000000       0.16666667 </v>
   <v>       0.50000000       0.00000000       0.16666667 </v>
   <v>       0.04166667       0.04166667       0.16666667 </v>
   <v>       0.08333333       0.04166667       0.16666667 </v>
   <v>       0.12500000       0.04166667       0.16666667 </v>
   <v>       0.16666667       0.04166667       0.16666667 </v>
   <v>       0.20833333       0.04166667       0.16666667 </v>
   <v>       0.25000000       0.04166667       0.16666667 </v>
   <v>       0.29166667       0.04166667       0.16666667 </v>
   <v>       0.33333333       0.04166667       0.16666667 </v>
   <v>       0.37500000       0.04166667       0.16666667 </v>
   <v>       0.41666667       0.04166667       0.16666667 </v>
   <v>       0.45833333       0.04166667       0.16666667 </v>
   <v>       0.50000000       0.04166667       0.16666667 </v>
   <v>       0.08333333       0.08333333       0.16666667 </v>
   <v>       0.12500000       0.08333333       0.16666667 </v>
   <v>       0.16666667       0.08333333       0.16666667 </v>
   <v>       0.20833333       0.08333333       0.16666667 </v>
   <v>       0.25000000       0.08333333       0.16666667 </v>
   <v>       0.29166667       0.08333333       0.16666667 </v>
   <v>       0.33333333       0.08333333       0.16666667 </v>
   <v>       0.37500000       0.08333333       0.16666667 </v>
   <v>       0.41666667       0.08333333       0.16666667 </v>
   <v>       0.45833333       0.08333333       0.16666667 </v>
   <v>       0.50000000       0.08333333       0.16666667 </v>
   <v>       0.12500000       0.12500000       0.16666667 </v>
   <v>       0.16666667       0.12500000       0.16666667 </v>
   <v>       0.20833333       0.12500000       0.16666667 </v>
   <v>       0.25000000       0.12500000       0.16666667 </v>
   <v>       0.29166667       0.12500000       0.16666667 </v>
   <v>       0.33333333       0.12500000       0.16666667 </v>
   <v>       0.37500000       0.12500000       0.16666667 </v>
   <v>       0.41666667       0.12500000       0.16666667 </v>
   <v>       0.45833333       0.12500000       0.16666667 </v>
   <v>       0.50000000       0.12500000       0.16666667 </v>
   <v>       0.16666667       0.16666667       0.16666667 </v>
   <v>       0.20833333       0.16666667       0.16666667 </v>
   <v>       0.25000000       0.16666667       0.16666667 </v>
   <v>       0.29166667       0.16666667       0.16666667 </v>
   <v>       0.33333333       0.16666667       0.16666667 </v>
   <v>       0.37500000       0.16666667       0.16666667 </v>
   <v>       0.41666667       0.16666667       0.16666667 </v>
   <v>       0.45833333       0.16666667       0.16666667 </v>
   <v>       0.50000000       0.16666667       0.16666667 </v>
   <v>       0.20833333       0.20833333       0.16666667 </v>
   <v>       0.25000000       0.20833333       0.16666667 </v>
   <v>       0.29166667       0.20833333       0.16666667 </v>
   <v>       0.33333333       0.20833333       0.16666667 </v>
   <v>       0.37500000       0.20833333       0.16666667 </v>
   <v>       0.41666667       0.20833333       0.16666667 </v>
   <v>       0.45833333       0.20833333       0.16666667 </v>
   <v>       0.50000000       0.20833333       0.16666667 </v>
   <v>       0.25000000       0.25000000       0.16666667 </v>
   <v>       0.29166667       0.25000000       0.16666667 </v>
   <v>       0.33333333       0.25000000       0.16666667 </v>
   <v>       0.37500000       0.25000000       0.16666667 </v>
   <v>       0.41666667       0.25000000       0.16666667 </v>
   <v>       0.45833333       0.25000000       0.16666667 </v>
   <v>       0.50000000       0.25000000       0.16666667 </v>
   <v>       0.29166667       0.29166667       0.16666667 </v>
   <v>       0.33333333       0.29166667       0.16666667 </v>
   <v>       0.37500000       0.29166667       0.16666667 </v>
   <v>       0.41666667       0.29166667       0.16666667 </v>
   <v>       0.45833333       0.29166667       0.16666667 </v>
   <v>       0.50000000       0.29166667       0.16666667 </v>
   <v>       0.33333333       0.33333333       0.16666667 </v>
   <v>       0.37500000       0.33333333       0.16666667 </v>
   <v>       0.41666667       0.33333333       0.16666667 </v>
   <v>       0.45833333       0.33333333       0.16666667 </v>
   <v>       0.50000000       0.33333333       0.16666667 </v>
   <v>       0.37500000       0.37500000       0.16666667 </v>
   <v>       0.41666667       0.37500000       0.16666667 </v>
   <v>       0.45833333       0.37500000       0.16666667 </v>
   <v>       0.50000000       0.37500000       0.16666667 </v>
   <v>       0.41666667       0.41666667       0.16666667 </v>
   <v>       0.45833333       0.41666667       0.16666667 </v>
   <v>       0.50000000       0.41666667       0.16666667 </v>
   <v>       0.45833333       0.45833333       0.16666667 </v>
   <v>       0.50000000       0.45833333       0.16666667 </v>
   <v>       0.50000000       0.50000000       0.16666667 </v>
   <v>       0.00000000       0.00000000       0.33333333 </v>
   <v>       0.04166667       0.00000000       0.33333333 </v>
   <v>       0.08333333       0.00000000       0.33333333 </v>
   <v>       0.12500000       0.00000000       0.33333333 </v>
   <v>       0.16666667       0.00000000       0.33333333 </v>
   <v>       0.20833333       0.00000000       0.33333333 </v>
   <v>       0.25000000       0.00000000       0.33333333 </v>
   <v>       0.29166667       0.00000000       0.33333333 </v>
   <v>       0.33333333       0.00000000       0.33333333 </v>
   <v>       0.37500000       0.00000000       0.33333333 </v>
   <v>       0.41666667       0.00000000       0.33333333 </v>
   <v>       0.45833333       0.00000000       0.33333333 </v>
   <v>       0.50000000       0.00000000       0.33333333 </v>
   <v>       0.04166667       0.04166667       0.33333333 </v>
   <v>       0.08333333       0.04166667       0.33333333 </v>
   <v>       0.12500000       0.04166667       0.33333333 </v>
   <v>       0.16666667       0.04166667       0.33333333 </v>
   <v>       0.20833333       0.04166667       0.33333333 </v>
   <v>       0.25000000       0.04166667       0.33333333 </v>
   <v>       0.29166667       0.04166667       0.33333333 </v>
   <v>       0.33333333       0.04166667       0.33333333 </v>
   <v>       0.37500000       0.04166667       0.33333333 </v>
   <v>       0.41666667       0.04166667       0.33333333 </v>
   <v>       0.45833333       0.04166667       0.33333333 </v>
   <v>       0.50000000       0.04166667       0.33333333 </v>
   <v>       0.08333333       0.08333333       0.33333333 </v>
   <v>       0.12500000       0.08333333       0.33333333 </v>
   <v>       0.16666667       0.08333333       0.33333333 </v>
   <v>       0.20833333       0.08333333       0.33333333 </v>
   <v>       0.25000000       0.08333333       0.33333333 </v>
   <v>       0.29166667       0.08333333       0.33333333 </v>
   <v>       0.33333333       0.08333333       0.33333333 </v>
   <v>       0.37500000       0.08333333       0.33333333 </v>
   <v>       0.41666667       0.08333333       0.33333333 </v>
   <v>       0.45833333       0.08333333       0.33333333 </v>
   <v>       0.50000000       0.08333333       0.33333333 </v>
   <v>       0.12500000       0.12500000       0.33333333 </v>
   <v>       0.16666667       0.12500000       0.33333333 </v>
   <v>       0.20833333       0.12500000       0.33333333 </v>
   <v>       0.25000000       0.12500000       0.33333333 </v>
   <v>       0.29166667       0.12500000       0.33333333 </v>
   <v>       0.33333333       0.12500000       0.33333333 </v>
   <v>       0.37500000       0.12500000       0.33333333 </v>
   <v>       0.41666667       0.12500000       0.33333333 </v>
   <v>       0.45833333       0.12500000       0.33333333 </v>
   <v>       0.50000000       0.12500000       0.33333333 </v>
   <v>       0.16666667       0.16666667       0.33333333 </v>
   <v>       0.20833333       0.16666667       0.33333333 </v>
   <v>       0.25000000       0.16666667       0.33333333 </v>
   <v>       0.29166667       0.16666667       0.33333333 </v>
   <v>       0.33333333       0.16666667       0.33333333 </v>
   <v>       0.37500000       0.16666667       0.33333333 </v>
   <v>       0.41666667       0.16666667       0.33333333 </v>
   <v>       0.45833333       0.16666667       0.33333333 </v>
   <v>       0.50000000       0.16666667       0.33333333 </v>
   <v>       0.20833333       0.20833333       0.33333333 </v>
   <v>       0.25000000       0.20833333       0.33333333 </v>
   <v>       0.29166667       0.20833333       0.33333333 </v>
   <v>       0.33333333       0.20833333       0.33333333 </v>
   <v>       0.37500000       0.20833333       0.33333333 </v>
   <v>       0.41666667       0.20833333       0.33333333 </v>
   <v>       0.45833333       0.20833333       0.33333333 </v>
   <v>       0.50000000       0.20833333       0.33333333 </v>
   <v>       0.25000000       0.25000000       0.33333333 </v>
   <v>       0.29166667       0.25000000       0.33333333 </v>
   <v>       0.33333333       0.25000000       0.33333333 </v>
   <v>       0.37500000       0.25000000       0.33333333 </v>
   <v>       0.41666667       0.25000000       0.33333333 </v>
   <v>       0.45833333       0.25000000       0.33333333 </v>
   <v>       0.50000000       0.25000000       0.33333333 </v>
   <v>       0.29166667       0.29166667       0.33333333 </v>
   <v>       0.33333333       0.29166667       0.33333333 </v>
   <v>       0.37500000       0.29166667       0.33333333 </v>
   <v>       0.41666667       0.29166667       0.33333333 </v>
   <v>       0.45833333       0.29166667       0.33333333 </v>
   <v>       0.50000000       0.29166667       0.33333333 </v>
   <v>       0.33333333       0.33333333       0.33333333 </v>
   <v>       0.37500000       0.33333333       0.33333333 </v>
   <v>       0.41666667       0.33333333       0.33333333 </v>
   <v>       0.45833333       0.33333333       0.33333333 </v>
   <v>       0.50000000       0.33333333       0.33333333 </v>
   <v>       0.37500000       0.37500000       0.33333333 </v>
   <v>       0.41666667       0.37500000       0.33333333 </v>
   <v>       0.45833333       0.37500000       0.33333333 </v>
   <v>       0.50000000       0.37500000       0.33333333 </v>
   <v>       0.41666667       0.41666667       0.33333333 </v>
   <v>       0.45833333       0.41666667       0.33333333 </v>
   <v>       0.50000000       0.41666667       0.33333333 </v>
   <v>       0.45833333       0.45833333       0.33333333 </v>
   <v>       0.50000000       0.45833333       0.33333333 </v>
   <v>       0.50000000       0.50000000       0.33333333 </v>
   <v>       0.00000000       0.00000000       0.50000000 </v>
   <v>       0.04166667       0.00000000       0.50000000 </v>
   <v>       0.08333333       0.00000000       0.50000000 </v>
   <v>       0.12500000       0.00000000       0.50000000 </v>
   <v>       0.16666667       0.00000000       0.50000000 </v>
   <v>       0.20833333       0.00000000       0.50000000 </v>
   <v>       0.25000000       0.00000000       0.50000000 </v>
   <v>       0.29166667       0.00000000       0.50000000 </v>
   <v>       0.33333333       0.00000000       0.50000000 </v>
   <v>       0.37500000       0.00000000       0.50000000 </v>
   <v>       0.41666667       0.00000000       0.50000000 </v>
   <v>       0.45833333       0.00000000       0.50000000 </v>
   <v>       0.50000000       0.00000000       0.50000000 </v>
   <v>       0.04166667       0.04166667       0.50000000 </v>
   <v>       0.08333333       0.04166667       0.50000000 </v>
   <v>       0.12500000       0.04166667       0.50000000 </v>
   <v>       0.16666667       0.04166667       0.50000000 </v>
   <v>       0.20833333       0.04166667       0.50000000 </v>
   <v>       0.25000000       0.04166667       0.50000000 </v>
   <v>       0.29166667       0.04166667       0.50000000 </v>
   <v>       0.33333333       0.04166667       0.50000000 </v>
   <v>       0.37500000       0.04166667       0.50000000 </v>
   <v>       0.41666667       0.04166667       0.50000000 </v>
   <v>       0.45833333       0.04166667       0.50000000 </v>
   <v>       0.50000000       0.04166667       0.50000000 </v>
   <v>       0.08333333       0.08333333       0.50000000 </v>
   <v>       0.12500000       0.08333333       0.50000000 </v>
   <v>       0.16666667       0.08333333       0.50000000 </v>
   <v>       0.20833333       0.08333333       0.50000000 </v>
   <v>       0.25000000       0.08333333       0.50000000 </v>
   <v>       0.29166667       0.08333333       0.50000000 </v>
   <v>       0.33333333       0.08333333       0.50000000 </v>
   <v>       0.37500000       0.08333333       0.50000000 </v>
   <v>       0.41666667       0.08333333       0.50000000 </v>
   <v>       0.45833333       0.08333333       0.50000000 </v>
   <v>       0.50000000       0.08333333       0.50000000 </v>
   <v>       0.12500000       0.12500000       0.50000000 </v>
   <v>       0.16666667       0.12500000       0.50000000 </v>
   <v>       0.20833333       0.12500000       0.50000000 </v>
   <v>       0.25000000       0.12500000       0.50000000 </v>
   <v>       0.29166667       0.12500000       0.50000000 </v>
   <v>       0.33333333       0.12500000       0.50000000 </v>
   <v>       0.37500000       0.12500000       0.50000000 </v>
   <v>       0.41666667       0.12500000       0.50000000 </v>
   <v>       0.45833333       0.12500000       0.50000000 </v>
   <v>       0.50000000       0.12500000       0.50000000 </v>
   <v>       0.16666667       0.16666667       0.50000000 </v>
   <v>       0.20833333       0.16666667       0.50000000 </v>
   <v>       0.25000000       0.16666667       0.50000000 </v>
   <v>       0.29166667       0.16666667       0.50000000 </v>
   <v>       0.33333333       0.16666667       0.50000000 </v>
   <v>       0.37500000       0.16666667       0.50000000 </v>
   <v>       0.41666667       0.16666667       0.50000000 </v>
   <v>       0.45833333       0.16666667       0.50000000 </v>
   <v>       0.50000000       0.16666667       0.50000000 </v>
   <v>       0.20833333       0.20833333       0.50000000 </v>
   <v>       0.25000000       0.20833333       0.50000000 </v>
   <v>       0.29166667       0.20833333       0.50000000 </v>
   <v>       0.33333333       0.20833333       0.50000000 </v>
   <v>       0.37500000       0.20833333       0.50000000 </v>
   <v>       0.41666667       0.20833333       0.50000000 </v>
   <v>       0.45833333       0.20833333       0.50000000 </v>
   <v>       0.50000000       0.20833333       0.50000000 </v>
   <v>       0.25000000       0.25000000       0.50000000 </v>
   <v>       0.29166667       0.25000000       0.50000000 </v>
   <v>       0.33333333       0.25000000       0.50000000 </v>
   <v>       0.37500000       0.25000000       0.50000000 </v>
   <v>       0.41666667       0.25000000       0.50000000 </v>
   <v>       0.45833333       0.25000000       0.50000000 </v>
   <v>       0.50000000       0.25000000       0.50000000 </v>
   <v>       0.29166667       0.29166667       0.50000000 </v>
   <v>       0.33333333       0.29166667       0.50000000 </v>
   <v>       0.37500000       0.29166667       0.50000000 </v>
   <v>       0.41666667       0.29166667       0.50000000 </v>
   <v>       0.45833333       0.29166667       0.50000000 </v>
   <v>       0.50000000       0.29166667       0.50000000 </v>
   <v>       0.33333333       0.33333333       0.50000000 </v>
   <v>       0.37500000       0.33333333       0.50000000 </v>
   <v>       0.41666667       0.33333333       0.50000000 </v>
   <v>       0.45833333       0.33333333       0.50000000 </v>
   <v>       0.50000000       0.33333333       0.50000000 </v>
   <v>       0.37500000       0.37500000       0.50000000 </v>
   <v>       0.41666667       0.37500000       0.50000000 </v>
   <v>       0.45833333       0.37500000       0.50000000 </v>
   <v>       0.50000000       0.37500000       0.50000000 </v>
   <v>       0.41666667       0.41666667       0.50000000 </v>
   <v>       0.45833333       0.41666667       0.50000000 </v>
   <v>       0.50000000       0.41666667       0.50000000 </v>
   <v>       0.45833333       0.45833333       0.50000000 </v>
   <v>       0.50000000       0.45833333       0.50000000 </v>
   <v>       0.50000000       0.50000000       0.50000000 </v>
  </varray>
  <varray name="weights" >
   <v>       0.00028935 </v>
   <v>       0.00115741 </v>
   <v>       0.00115741 </v>
   <v>       0.00115741 </v>
   <v>       0.00115741 </v>
   <v>       0.00115741 </v>
   <v>       0.00115741 </v>
   <v>       0.00115741 </v>
   <v>       0.00115741 </v>
   <v>       0.00115741 </v>
   <v>       0.00115741 </v>
   <v>       0.00115741 </v>
   <v>       0.00057870 </v>
   <v>       0.00115741 </v>
   <v>       0.00231481 </v>
   <v>       0.00231481 </v>
   <v>       0.00231481 </v>
   <v>       0.00231481 </v>
   <v>       0.00231481 </v>
   <v>       0.00231481 </v>
   <v>       0.00231481 </v>
   <v>       0.00231481 </v>
   <v>       0.00231481 </v>
   <v>       0.00231481 </v>
   <v>       0.00115741 </v>
   <v>       0.00115741 </v>
   <v>       0.00231481 </v>
   <v>       0.00231481 </v>
   <v>       0.00231481 </v>
   <v>       0.00231481 </v>
   <v>       0.00231481 </v>
   <v>       0.00231481 </v>
   <v>       0.00231481 </v>
   <v>       0.00231481 </v>
   <v>       0.00231481 </v>
   <v>       0.00115741 </v>
   <v>       0.00115741 </v>
   <v>       0.00231481 </v>
   <v>       0.00231481 </v>
   <v>       0.00231481 </v>
   <v>       0.00231481 </v>
   <v>       0.00231481 </v>
   <v>       0.00231481 </v>
   <v>       0.00231481 </v>
   <v>       0.00231481 </v>
   <v>       0.00115741 </v>
   <v>       0.00115741 </v>
   <v>       0.00231481 </v>
   <v>       0.00231481 </v>
   <v>       0.00231481 </v>
   <v>       0.00231481 </v>
   <v>       0.00231481 </v>
   <v>       0.00231481 </v>
   <v>       0.00231481 </v>
   <v>       0.00115741 </v>
   <v>       0.00115741 </v>
   <v>       0.00231481 </v>
   <v>       0.00231481 </v>
   <v>       0.00231481 </v>
   <v>       0.00231481 </v>
   <v>       0.00231481 </v>
   <v>       0.00231481 </v>
   <v>       0.00115741 </v>
   <v>       0.00115741 </v>
   <v>       0.00231481 </v>
   <v>       0.00231481 </v>
   <v>       0.00231481 </v>
   <v>       0.00231481 </v>
   <v>       0.00231481 </v>
   <v>       0.00115741 </v>
   <v>       0.00115741 </v>
   <v>       0.00231481 </v>
   <v>       0.00231481 </v>
   <v>       0.00231481 </v>
   <v>       0.00231481 </v>
   <v>       0.00115741 </v>
   <v>       0.00115741 </v>
   <v>       0.00231481 </v>
   <v>       0.00231481 </v>
   <v>       0.00231481 </v>
   <v>       0.00115741 </v>
   <v>       0.00115741 </v>
   <v>       0.00231481 </v>
   <v>       0.00231481 </v>
   <v>       0.00115741 </v>
   <v>       0.00115741 </v>
   <v>       0.00231481 </v>
   <v>       0.00115741 </v>
   <v>       0.00115741 </v>
   <v>       0.00115741 </v>
   <v>       0.00028935 </v>
   <v>       0.00057870 </v>
   <v>       0.00231481 </v>
   <v>       0.00231481 </v>
   <v>       0.00231481 </v>
   <v>       0.00231481 </v>
   <v>       0.00231481 </v>
   <v>       0.00231481 </v>
   <v>       0.00231481 </v>
   <v>       0.00231481 </v>
   <v>       0.00231481 </v>
   <v>       0.00231481 </v>
   <v>       0.00231481 </v>
   <v>       0.00115741 </v>
   <v>       0.00231481 </v>
   <v>       0.00462963 </v>
   <v>       0.00462963 </v>
   <v>       0.00462963 </v>
   <v>       0.00462963 </v>
   <v>       0.00462963 </v>
   <v>       0.00462963 </v>
   <v>       0.00462963 </v>
   <v>       0.00462963 </v>
   <v>       0.00462963 </v>
   <v>       0.00462963 </v>
   <v>       0.00231481 </v>
   <v>       0.00231481 </v>
   <v>       0.00462963 </v>
   <v>       0.00462963 </v>
   <v>       0.00462963 </v>
   <v>       0.00462963 </v>
   <v>       0.00462963 </v>
   <v>       0.00462963 </v>
   <v>       0.00462963 </v>
   <v>       0.00462963 </v>
   <v>       0.00462963 </v>
   <v>       0.00231481 </v>
   <v>       0.00231481 </v>
   <v>       0.00462963 </v>
   <v>       0.00462963 </v>
   <v>       0.00462963 </v>
   <v>       0.00462963 </v>
   <v>       0.00462963 </v>
   <v>       0.00462963 </v>
   <v>       0.00462963 </v>
   <v>       0.00462963 </v>
   <v>       0.00231481 </v>
   <v>       0.00231481 </v>
   <v>       0.00462963 </v>
   <v>       0.00462963 </v>
   <v>       0.00462963 </v>
   <v>       0.00462963 </v>
   <v>       0.00462963 </v>
   <v>       0.00462963 </v>
   <v>       0.00462963 </v>
   <v>       0.00231481 </v>
   <v>       0.00231481 </v>
   <v>       0.00462963 </v>
   <v>       0.00462963 </v>
   <v>       0.00462963 </v>
   <v>       0.00462963 </v>
   <v>       0.00462963 </v>
   <v>       0.00462963 </v>
   <v>       0.00231481 </v>
   <v>       0.00231481 </v>
   <v>       0.00462963 </v>
   <v>       0.00462963 </v>
   <v>       0.00462963 </v>
   <v>       0.00462963 </v>
   <v>       0.00462963 </v>
   <v>       0.00231481 </v>
   <v>       0.00231481 </v>
   <v>       0.00462963 </v>
   <v>       0.00462963 </v>
   <v>       0.00462963 </v>
   <v>       0.00462963 </v>
   <v>       0.00231481 </v>
   <v>       0.00231481 </v>
   <v>       0.00462963 </v>
   <v>       0.00462963 </v>
   <v>       0.00462963 </v>
   <v>       0.00231481 </v>
   <v>       0.00231481 </v>
   <v>       0.00462963 </v>
   <v>       0.00462963 </v>
   <v>       0.00231481 </v>
   <v>       0.00231481 </v>
   <v>       0.00462963 </v>
   <v>       0.00231481 </v>
   <v>       0.00231481 </v>
   <v>       0.00231481 </v>
   <v>       0.00057870 </v>
   <v>       0.00057870 </v>
   <v>       0.00231481 </v>
   <v>       0.00231481 </v>
   <v>       0.00231481 </v>
   <v>       0.00231481 </v>
   <v>       0.00231481 </v>
   <v>       0.00231481 </v>
   <v>       0.00231481 </v>
   <v>       0.00231481 </v>
   <v>       0.00231481 </v>
   <v>       0.00231481 </v>
   <v>       0.00231481 </v>
   <v>       0.00115741 </v>
   <v>       0.00231481 </v>
   <v>       0.00462963 </v>
   <v>       0.00462963 </v>
   <v>       0.00462963 </v>
   <v>       0.00462963 </v>
   <v>       0.00462963 </v>
   <v>       0.00462963 </v>
   <v>       0.00462963 </v>
   <v>       0.00462963 </v>
   <v>       0.00462963 </v>
   <v>       0.00462963 </v>
   <v>       0.00231481 </v>
   <v>       0.00231481 </v>
   <v>       0.00462963 </v>
   <v>       0.00462963 </v>
   <v>       0.00462963 </v>
   <v>       0.00462963 </v>
   <v>       0.00462963 </v>
   <v>       0.00462963 </v>
   <v>       0.00462963 </v>
   <v>       0.00462963 </v>
   <v>       0.00462963 </v>
   <v>       0.00231481 </v>
   <v>       0.00231481 </v>
   <v>       0.00462963 </v>
   <v>       0.00462963 </v>
   <v>       0.00462963 </v>
   <v>       0.00462963 </v>
   <v>       0.00462963 </v>
   <v>       0.00462963 </v>
   <v>       0.00462963 </v>
   <v>       0.00462963 </v>
   <v>       0.00231481 </v>
   <v>       0.00231481 </v>
   <v>       0.00462963 </v>
   <v>       0.00462963 </v>
   <v>       0.00462963 </v>
   <v>       0.00462963 </v>
   <v>       0.00462963 </v>
   <v>       0.00462963 </v>
   <v>       0.00462963 </v>
   <v>       0.00231481 </v>
   <v>       0.00231481 </v>
   <v>       0.00462963 </v>
   <v>       0.00462963 </v>
   <v>       0.00462963 </v>
   <v>       0.00462963 </v>
   <v>       0.00462963 </v>
   <v>       0.00462963 </v>
   <v>       0.00231481 </v>
   <v>       0.00231481 </v>
   <v>       0.00462963 </v>
   <v>       0.00462963 </v>
   <v>       0.00462963 </v>
   <v>       0.00462963 </v>
   <v>       0.00462963 </v>
   <v>       0.00231481 </v>
   <v>       0.00231481 </v>
   <v>       0.00462963 </v>
   <v>       0.00462963 </v>
   <v>       0.00462963 </v>
   <v>       0.00462963 </v>
   <v>       0.00231481 </v>
   <v>       0.00231481 </v>
   <v>       0.00462963 </v>
   <v>       0.00462963 </v>
   <v>       0.00462963 </v>
   <v>       0.00231481 </v>
   <v>       0.00231481 </v>
   <v>       0.00462963 </v>
   <v>       0.00462963 </v>
   <v>       0.00231481 </v>
   <v>       0.00231481 </v>
   <v>       0.00462963 </v>
   <v>       0.00231481 </v>
   <v>       0.00231481 </v>
   <v>       0.00231481 </v>
   <v>       0.00057870 </v>
   <v>       0.00028935 </v>
   <v>       0.00115741 </v>
   <v>       0.00115741 </v>
   <v>       0.00115741 </v>
   <v>       0.00115741 </v>
   <v>       0.00115741 </v>
   <v>       0.00115741 </v>
   <v>       0.00115741 </v>
   <v>       0.00115741 </v>
   <v>       0.00115741 </v>
   <v>       0.00115741 </v>
   <v>       0.00115741 </v>
   <v>       0.00057870 </v>
   <v>       0.00115741 </v>
   <v>       0.00231481 </v>
   <v>       0.00231481 </v>
   <v>       0.00231481 </v>
   <v>       0.00231481 </v>
   <v>       0.00231481 </v>
   <v>       0.00231481 </v>
   <v>       0.00231481 </v>
   <v>       0.00231481 </v>
   <v>       0.00231481 </v>
   <v>       0.00231481 </v>
   <v>       0.00115741 </v>
   <v>       0.00115741 </v>
   <v>       0.00231481 </v>
   <v>       0.00231481 </v>
   <v>       0.00231481 </v>
   <v>       0.00231481 </v>
   <v>       0.00231481 </v>
   <v>       0.00231481 </v>
   <v>       0.00231481 </v>
   <v>       0.00231481 </v>
   <v>       0.00231481 </v>
   <v>       0.00115741 </v>
   <v>       0.00115741 </v>
   <v>       0.00231481 </v>
   <v>       0.00231481 </v>
   <v>       0.00231481 </v>
   <v>       0.00231481 </v>
   <v>       0.00231481 </v>
   <v>       0.00231481 </v>
   <v>       0.00231481 </v>
   <v>       0.00231481 </v>
   <v>       0.00115741 </v>
   <v>       0.00115741 </v>
   <v>       0.00231481 </v>
   <v>       0.00231481 </v>
   <v>       0.00231481 </v>
   <v>       0.00231481 </v>
   <v>       0.00231481 </v>
   <v>       0.00231481 </v>
   <v>       0.00231481 </v>
   <v>       0.00115741 </v>
   <v>       0.00115741 </v>
   <v>       0.00231481 </v>
   <v>       0.00231481 </v>
   <v>       0.00231481 </v>
   <v>       0.00231481 </v>
   <v>       0.00231481 </v>
   <v>       0.00231481 </v>
   <v>       0.00115741 </v>
   <v>       0.00115741 </v>
   <v>       0.00231481 </v>
   <v>       0.00231481 </v>
   <v>       0.00231481 </v>
   <v>       0.00231481 </v>
   <v>       0.00231481 </v>
   <v>       0.00115741 </v>
   <v>       0.00115741 </v>
   <v>       0.00231481 </v>
   <v>       0.00231481 </v>
   <v>       0.00231481 </v>
   <v>       0.00231481 </v>
   <v>       0.00115741 </v>
   <v>       0.00115741 </v>
   <v>       0.00231481 </v>
   <v>       0.00231481 </v>
   <v>       0.00231481 </v>
   <v>       0.00115741 </v>
   <v>       0.00115741 </v>
   <v>       0.00231481 </v>
   <v>       0.00231481 </v>
   <v>       0.00115741 </v>
   <v>       0.00115741 </v>
   <v>       0.00231481 </v>
   <v>       0.00115741 </v>
   <v>       0.00115741 </v>
   <v>       0.00115741 </v>
   <v>       0.00028935 </v>
  </varray>
 </kpoints>
 <parameters>
  <separator name="general" >
   <i type="string" name="SYSTEM">unknown system</i>
   <i type="logical" name="LCOMPAT"> F  </i>
  </separator>
  <separator name="electronic" >
   <i type="string" name="PREC">accura</i>
   <i name="ENMAX">    500.00000000</i>
   <i name="ENAUG">    586.98000000</i>
   <i name="EDIFF">      0.00000100</i>
   <i type="int" name="IALGO">    68</i>
   <i type="int" name="IWAVPR">    11</i>
   <i type="int" name="NBANDS">    40</i>
   <i name="NELECT">     66.00000000</i>
   <i type="int" name="TURBO">     0</i>
   <i type="int" name="IRESTART">     0</i>
   <i type="int" name="NREBOOT">     0</i>
   <i type="int" name="NMIN">     0</i>
   <i name="EREF">      0.00000000</i>
   <separator name="electronic smearing" >
    <i type="int" name="ISMEAR">     1</i>
    <i name="SIGMA">      0.30000000</i>
    <i name="KSPACING">      0.50000000</i>
    <i type="logical" name="KGAMMA"> T  </i>
   </separator>
   <separator name="electronic projectors" >
    <i type="logical" name="LREAL"> F  </i>
    <v name="ROPT">      0.00000000      0.00000000      0.00000000</v>
    <i type="int" name="LMAXPAW">  -100</i>
    <i type="int" name="LMAXMIX">     2</i>
    <i type="logical" name="NLSPLINE"> F  </i>
   </separator>
   <separator name="electronic startup" >
    <i type="int" name="ISTART">     0</i>
    <i type="int" name="ICHARG">     2</i>
    <i type="int" name="INIWAV">     1</i>
   </separator>
   <separator name="electronic spin" >
    <i type="int" name="ISPIN">     1</i>
    <i type="logical" name="LNONCOLLINEAR"> F  </i>
    <v name="MAGMOM">      1.00000000      1.00000000      1.00000000      1.00000000      1.00000000      1.00000000</v>
    <i name="NUPDOWN">     -1.00000000</i>
    <i type="logical" name="LSORBIT"> F  </i>
    <v name="SAXIS">      0.00000000      0.00000000      1.00000000</v>
    <i type="logical" name="LSPIRAL"> F  </i>
    <v name="QSPIRAL">      0.00000000      0.00000000      0.00000000</v>
    <i type="logical" name="LZEROZ"> F  </i>
   </separator>
   <separator name="electronic exchange-correlation" >
    <i type="logical" name="LASPH"> F  </i>
    <i type="logical" name="LMETAGGA"> F  </i>
   </separator>
   <separator name="electronic convergence" >
    <i type="int" name="NELM">   200</i>
    <i type="int" name="NELMDL">     0</i>
    <i type="int" name="NELMIN">     4</i>
    <i name="ENINI">    500.00000000</i>
    <separator name="electronic convergence detail" >
     <i type="logical" name="LDIAG"> T  </i>
     <i type="logical" name="LSUBROT"> F  </i>
     <i name="WEIMIN">      0.00100000</i>
     <i name="EBREAK">      0.00000001</i>
     <i name="DEPER">      0.30000000</i>
     <i type="int" name="NRMM">     4</i>
     <i name="TIME">      0.40000000</i>
    </separator>
   </separator>
   <separator name="electronic mixer" >
    <i name="AMIX">      0.40000000</i>
    <i name="BMIX">      1.00000000</i>
    <i name="AMIN">      0.10000000</i>
    <i name="AMIX_MAG">      1.60000000</i>
    <i name="BMIX_MAG">      1.00000000</i>
    <separator name="electronic mixer details" >
     <i type="int" name="IMIX">     4</i>
     <i type="int" name="MAXMIX">   -45</i>
     <i name="WC">    100.00000000</i>
     <i type="int" name="INIMIX">     1</i>
     <i type="int" name="MIXPRE">     1</i>
     <i type="int" name="MREMOVE">     5</i>
    </separator>
   </separator>
   <separator name="electronic dipolcorrection" >
    <i type="logical" name="LDIPOL"> F  </i>
    <i type="logical" name="LMONO"> F  </i>
    <i type="int" name="IDIPOL">     0</i>
    <i name="EPSILON">      1.00000000</i>
    <v name="DIPOL">   -100.00000000   -100.00000000   -100.00000000</v>
    <i name="EFIELD">      0.00000000</i>
   </separator>
  </separator>
  <separator name="grids" >
   <i type="int" name="NGX">    24</i>
   <i type="int" name="NGY">    24</i>
   <i type="int" name="NGZ">    84</i>
   <i type="int" name="NGXF">    48</i>
   <i type="int" name="NGYF">    48</i>
   <i type="int" name="NGZF">   168</i>
   <i type="logical" name="ADDGRID"> T  </i>
  </separator>
  <separator name="ionic" >
   <i type="int" name="NSW">    30</i>
   <i type="int" name="IBRION">     2</i>
   <i type="int" name="ISIF">     3</i>
   <i name="PSTRESS">      0.00000000</i>
   <i name="EDIFFG">     -0.02000000</i>
   <i type="int" name="NFREE">     1</i>
   <i name="POTIM">      0.50000000</i>
   <i name="SMASS">     -3.00000000</i>
   <i name="SCALEE">      1.00000000</i>
  </separator>
  <separator name="ionic md" >
   <i name="TEBEG">      0.00010000</i>
   <i name="TEEND">      0.00010000</i>
   <i type="int" name="NBLOCK">     1</i>
   <i type="int" name="KBLOCK">    30</i>
   <i type="int" name="NPACO">   256</i>
   <i name="APACO">     16.00000000</i>
  </separator>
  <separator name="symmetry" >
   <i type="int" name="ISYM">     2</i>
   <i name="SYMPREC">      0.00001000</i>
  </separator>
  <separator name="dos" >
   <i type="logical" name="LORBIT"> F  </i>
   <v name="RWIGS">     -1.00000000     -1.00000000     -1.00000000</v>
   <i type="int" name="NEDOS">   301</i>
   <i name="EMIN">     10.00000000</i>
   <i name="EMAX">    -10.00000000</i>
   <i name="EFERMI">      0.00000000</i>
  </separator>
  <separator name="writing" >
   <i type="int" name="NWRITE">     2</i>
   <i type="logical" name="LWAVE"> F  </i>
   <i type="logical" name="LCHARG"> F  </i>
   <i type="logical" name="LPARD"> F  </i>
   <i type="logical" name="LVTOT"> F  </i>
   <i type="logical" name="LVHAR"> F  </i>
   <i type="logical" name="LELF"> F  </i>
   <i type="logical" name="LOPTICS"> F  </i>
   <v name="STM">      0.00000000      0.00000000      0.00000000      0.00000000      0.00000000      0.00000000      0.00000000</v>
  </separator>
  <separator name="performance" >
   <i type="int" name="NPAR">     4</i>
   <i type="int" name="NSIM">     4</i>
   <i type="int" name="NBLK">    -1</i>
   <i type="logical" name="LPLANE"> T  </i>
   <i type="logical" name="LSCALAPACK"> T  </i>
   <i type="logical" name="LSCAAWARE"> F  </i>
   <i type="logical" name="LSCALU"> F  </i>
   <i type="logical" name="LASYNC"> F  </i>
   <i type="logical" name="LORBITALREAL"> F  </i>
  </separator>
  <separator name="miscellaneous" >
   <i type="int" name="IDIOT">     3</i>
   <i type="logical" name="LMUSIC"> F  </i>
   <v name="POMASS">     63.54600000    107.86800000    196.96600000</v>
   <v name="DARWINR">      0.00000000      0.00000000      0.00000000</v>
   <v name="DARWINV">      1.00000000      1.00000000      1.00000000</v>
   <i type="logical" name="LCORR"> T  </i>
  </separator>
  <i type="logical" name="GGA_COMPAT"> T  </i>
  <i type="logical" name="LBERRY"> F  </i>
  <i type="int" name="ICORELEVEL">     0</i>
  <i type="logical" name="LDAU"> F  </i>
  <i type="int" name="I_CONSTRAINED_M">     0</i>
  <separator name="electronic exchange-correlation" >
   <i type="string" name="GGA">--</i>
   <i type="int" name="VOSKOWN">     0</i>
   <i type="logical" name="LHFCALC"> F  </i>
   <i type="string" name="PRECFOCK"></i>
   <i type="logical" name="LSYMGRAD"> F  </i>
   <i type="logical" name="LHFONE"> F  </i>
   <i type="logical" name="LRHFCALC"> F  </i>
   <i type="logical" name="LTHOMAS"> F  </i>
   <i type="logical" name="LMODELHF"> F  </i>
   <i name="ENCUT4O">     -1.00000000</i>
   <i type="int" name="EXXOEP">     0</i>
   <i type="int" name="FOURORBIT">     0</i>
   <i name="AEXX">      0.00000000</i>
   <i name="HFALPHA">      0.00000000</i>
   <i name="MCALPHA">      0.00000000</i>
   <i name="ALDAX">      1.00000000</i>
   <i name="AGGAX">      1.00000000</i>
   <i name="ALDAC">      1.00000000</i>
   <i name="AGGAC">      1.00000000</i>
   <i type="int" name="NKREDX">     1</i>
   <i type="int" name="NKREDY">     1</i>
   <i type="int" name="NKREDZ">     1</i>
   <i type="logical" name="SHIFTRED"> F  </i>
   <i type="logical" name="ODDONLY"> F  </i>
   <i type="logical" name="EVENONLY"> F  </i>
   <i type="int" name="LMAXFOCK">     0</i>
   <i type="int" name="NMAXFOCKAE">     0</i>
   <i type="logical" name="LFOCKAEDFT"> F  </i>
   <i name="HFSCREEN">      0.00000000</i>
   <i name="HFSCREENC">      0.00000000</i>
   <i type="int" name="NBANDSGWLOW">     0</i>
  </separator>
  <separator name="vdW DFT" >
   <i type="logical" name="LUSE_VDW"> F  </i>
   <i name="Zab_VDW">     -0.84910000</i>
   <i name="PARAM1">      0.12340000</i>
   <i name="PARAM2">      1.00000000</i>
   <i name="PARAM3">      0.00000000</i>
  </separator>
  <separator name="model GW" >
   <i type="int" name="MODEL_GW">     0</i>
   <i name="MODEL_EPS0">      9.55467963</i>
   <i name="MODEL_ALPHA">      1.00000000</i>
  </separator>
  <separator name="linear response parameters" >
   <i type="logical" name="LEPSILON"> F  </i>
   <i type="logical" name="LRPA"> F  </i>
   <i type="logical" name="LNABLA"> F  </i>
   <i type="logical" name="LVEL"> F  </i>
   <i type="int" name="KINTER">     0</i>
   <i name="CSHIFT">      0.10000000</i>
   <i name="OMEGAMAX">     -1.00000000</i>
   <i name="DEG_THRESHOLD">      0.00200000</i>
  </separator>
  <separator name="orbital magnetization" >
   <i type="logical" name="NUCIND"> F  </i>
   <v name="MAGPOS">      0.00000000      0.00000000      0.00000000</v>
   <i type="logical" name="LNICSALL"> T  </i>
   <i type="logical" name="ORBITALMAG"> F  </i>
   <i type="logical" name="LMAGBLOCH"> F  </i>
   <i type="logical" name="LCHIMAG"> F  </i>
   <i type="logical" name="LGAUGE"> T  </i>
   <i type="int" name="MAGATOM">     0</i>
   <v name="MAGDIPOL">      0.00000000      0.00000000      0.00000000</v>
   <v name="AVECCONST">      0.00000000      0.00000000      0.00000000</v>
  </separator>
  <separator name="response functions" >
   <i type="logical" name="LADDER"> F  </i>
   <i type="logical" name="LFXC"> F  </i>
   <i type="logical" name="LHARTREE"> T  </i>
   <i type="int" name="IBSE">     0</i>
   <i type="logical" name="LTCTE"> F  </i>
   <i type="logical" name="LTETE"> F  </i>
   <i type="logical" name="LTRIPLET"> F  </i>
   <i type="logical" name="LFXCEPS"> F  </i>
   <i type="logical" name="LFXHEG"> F  </i>
   <i type="logical" name="L2ORDER"> F  </i>
   <i type="logical" name="LUSEW"> F  </i>
   <i name="ENCUTGW">     -2.00000000</i>
   <i name="ENCUTGWSOFT">     -2.00000000</i>
   <i name="ENCUTLF">     -1.00000000</i>
   <i type="int" name="LMAXMP2">    -1</i>
   <i name="SCISSOR">      0.00000000</i>
   <i type="int" name="NOMEGA">     0</i>
   <i type="int" name="NOMEGAR">     0</i>
   <i type="int" name="NBANDSGW">    -1</i>
   <i type="int" name="NBANDSO">    -1</i>
   <i type="int" name="NBANDSV">    -1</i>
   <i type="int" name="NELM">   200</i>
   <i type="int" name="DIM">     3</i>
   <i type="int" name="ANTIRES">     0</i>
   <i name="OMEGAMAX">    -30.00000000</i>
   <i name="OMEGAMIN">    -30.00000000</i>
   <i name="OMEGATL">   -200.00000000</i>
   <i type="int" name="OMEGAGRID">     0</i>
   <i name="CSHIFT">     -0.10000000</i>
   <i type="logical" name="SELFENERGY"> F  </i>
   <i type="logical" name="LSPECTRAL"> F  </i>
   <i type="logical" name="ODDONLYGW"> F  </i>
   <i type="logical" name="EVENONLYGW"> F  </i>
   <i type="int" name="NKREDLFX">     1</i>
   <i type="int" name="NKREDLFY">     1</i>
   <i type="int" name="NKREDLFZ">     1</i>
   <i type="int" name="MAXMEM">  1800</i>
   <i type="int" name="TELESCOPE">     0</i>
   <i type="int" name="TAUPAR">     1</i>
  </separator>
  <separator name="External order field" >
   <i name="OFIELD_KAPPA">      0.00000000</i>
   <v name="OFIELD_K">      0.00000000      0.00000000      0.00000000</v>
   <i name="OFIELD_Q6_NEAR">      0.00000000</i>
   <i name="OFIELD_Q6_FAR">      0.00000000</i>
   <i name="OFIELD_A">      0.00000000</i>
  </separator>
 </parameters>
 <atominfo>
  <atoms>       6 </atoms>
  <types>       3 </types>
  <array name="atoms" >
   <dimension dim="1">ion</dimension>
   <field type="string">element</field>
   <field type="int">atomtype</field>
   <set>
    <rc><c>Cu</c><c>   1</c></rc>
    <rc><c>Cu</c><c>   1</c></rc>
    <rc><c>Ag</c><c>   2</c></rc>
    <rc><c>Ag</c><c>   2</c></rc>
    <rc><c>Au</c><c>   3</c></rc>
    <rc><c>Au</c><c>   3</c></rc>
   </set>
  </array>
  <array name="atomtypes" >
   <dimension dim="1">type</dimension>
   <field type="int">atomspertype</field>
   <field type="string">element</field>
   <field>mass</field>
   <field>valence</field>
   <field type="string">pseudopotential</field>
   <set>
    <rc><c>   2</c><c>Cu</c><c>     63.54600000</c><c>     11.00000000</c><c>  PAW_PBE Cu 22Jun2005                  </c></rc>
    <rc><c>   2</c><c>Ag</c><c>    107.86800000</c><c>     11.00000000</c><c>  PAW_PBE Ag 02Apr2005                  </c></rc>
    <rc><c>   2</c><c>Au</c><c>    196.96600000</c><c>     11.00000000</c><c>  PAW_PBE Au 04Oct2007                  </c></rc>
   </set>
  </array>
 </atominfo>
 <structure name="initialpos" >
  <crystal>
   <varray name="basis" >
    <v>       0.00000000       2.03460870      -2.03460870 </v>
    <v>       0.00000000      -2.03460870      -2.03460870 </v>
    <v>     -11.54049246       0.00000000       0.00000000 </v>
   </varray>
   <i name="volume">     95.54679629 </i>
   <varray name="rec_basis" >
    <v>       0.00000000       0.24574750      -0.24574750 </v>
    <v>       0.00000000      -0.24574750      -0.24574750 </v>
    <v>      -0.08665141       0.00000000       0.00000000 </v>
   </varray>
  </crystal>
  <varray name="positions" >
   <v>       0.00000000       0.00000000       0.31323676 </v>
   <v>       0.50000000       0.50000000       0.18676324 </v>
   <v>       0.00000000       0.00000000       0.02886856 </v>
   <v>       0.50000000       0.50000000       0.47113144 </v>
   <v>       0.50000000       0.50000000       0.84411856 </v>
   <v>       0.00000000       0.00000000       0.65588144 </v>
  </varray>
 </structure>
 <calculation>
  <scstep>
   <time name="dav">    4.17    4.18</time>
   <time name="total">    4.22    4.23</time>
   <energy>
    <i name="alphaZ">    344.96631128 </i>
    <i name="ewald">  -5779.61419376 </i>
    <i name="hartreedc">  -1676.56792061 </i>
    <i name="XCdc">    101.29855088 </i>
    <i name="pawpsdc">   6211.53262512 </i>
    <i name="pawaedc">  -6284.81575236 </i>
    <i name="eentropy">     -0.00221079 </i>
    <i name="bandstr">    985.07739942 </i>
    <i name="atom">   6708.64263504 </i>
    <i name="e_fr_energy">    610.51744422 </i>
    <i name="e_wo_entrp">    610.51965501 </i>
    <i name="e_0_energy">    610.51818115 </i>
   </energy>
  </scstep>
  <scstep>
   <time name="dav">    4.44    4.44</time>
   <time name="total">    4.46    4.47</time>
   <energy>
    <i name="e_fr_energy">     35.40053706 </i>
    <i name="e_wo_entrp">     35.39804924 </i>
    <i name="e_0_energy">     35.39970778 </i>
   </energy>
  </scstep>
  <scstep>
   <time name="dav">    4.72    4.72</time>
   <time name="total">    4.74    4.75</time>
   <energy>
    <i name="e_fr_energy">    -20.31132782 </i>
    <i name="e_wo_entrp">    -20.31133489 </i>
    <i name="e_0_energy">    -20.31133018 </i>
   </energy>
  </scstep>
  <scstep>
   <time name="dav">    4.97    4.98</time>
   <time name="total">    4.99    5.01</time>
   <energy>
    <i name="e_fr_energy">    -21.81798642 </i>
    <i name="e_wo_entrp">    -21.81767159 </i>
    <i name="e_0_energy">    -21.81788148 </i>
   </energy>
  </scstep>
  <scstep>
   <time name="dav">    5.24    5.24</time>
   <time name="total">    5.54    5.55</time>
   <energy>
    <i name="e_fr_energy">    -21.85616853 </i>
    <i name="e_wo_entrp">    -21.85584594 </i>
    <i name="e_0_energy">    -21.85606100 </i>
   </energy>
  </scstep>
  <scstep>
   <time name="diag">    1.14    1.14</time>
   <time name="diis">    1.87    1.87</time>
   <time name="orth">    0.18    0.18</time>
   <time name="total">    3.53    3.55</time>
   <energy>
    <i name="e_fr_energy">    -20.34367965 </i>
    <i name="e_wo_entrp">    -20.34463058 </i>
    <i name="e_0_energy">    -20.34399663 </i>
   </energy>
  </scstep>
  <scstep>
   <time name="diag">    1.20    1.20</time>
   <time name="diis">    1.96    1.96</time>
   <time name="orth">    0.18    0.18</time>
   <time name="total">    3.68    3.70</time>
   <energy>
    <i name="e_fr_energy">    -19.48050373 </i>
    <i name="e_wo_entrp">    -19.48192917 </i>
    <i name="e_0_energy">    -19.48097888 </i>
   </energy>
  </scstep>
  <scstep>
   <time name="diag">    1.15    1.15</time>
   <time name="diis">    1.90    1.90</time>
   <time name="orth">    0.18    0.18</time>
   <time name="total">    3.56    3.57</time>
   <energy>
    <i name="e_fr_energy">    -19.21780551 </i>
    <i name="e_wo_entrp">    -19.21623985 </i>
    <i name="e_0_energy">    -19.21728363 </i>
   </energy>
  </scstep>
  <scstep>
   <time name="diag">    1.14    1.14</time>
   <time name="diis">    1.91    1.91</time>
   <time name="orth">    0.18    0.18</time>
   <time name="total">    3.61    3.62</time>
   <energy>
    <i name="e_fr_energy">    -19.21419939 </i>
    <i name="e_wo_entrp">    -19.21303872 </i>
    <i name="e_0_energy">    -19.21381250 </i>
   </energy>
  </scstep>
  <scstep>
   <time name="diag">    1.14    1.14</time>
   <time name="diis">    1.92    1.92</time>
   <time name="orth">    0.19    0.19</time>
   <time name="total">    3.58    3.60</time>
   <energy>
    <i name="e_fr_energy">    -19.20406360 </i>
    <i name="e_wo_entrp">    -19.20256685 </i>
    <i name="e_0_energy">    -19.20356468 </i>
   </energy>
  </scstep>
  <scstep>
   <time name="diag">    1.14    1.14</time>
   <time name="diis">    2.08    2.08</time>
   <time name="orth">    0.18    0.18</time>
   <time name="total">    3.76    3.78</time>
   <energy>
    <i name="e_fr_energy">    -19.20419009 </i>
    <i name="e_wo_entrp">    -19.20270305 </i>
    <i name="e_0_energy">    -19.20369441 </i>
   </energy>
  </scstep>
  <scstep>
   <time name="diag">    1.14    1.14</time>
   <time name="diis">    1.96    1.96</time>
   <time name="orth">    0.19    0.19</time>
   <time name="total">    3.65    3.66</time>
   <energy>
    <i name="e_fr_energy">    -19.20413932 </i>
    <i name="e_wo_entrp">    -19.20265556 </i>
    <i name="e_0_energy">    -19.20364473 </i>
   </energy>
  </scstep>
  <scstep>
   <time name="diag">    1.15    1.15</time>
   <time name="diis">    2.22    2.22</time>
   <time name="orth">    0.18    0.18</time>
   <time name="total">    3.90    3.92</time>
   <energy>
    <i name="e_fr_energy">    -19.20413619 </i>
    <i name="e_wo_entrp">    -19.20264900 </i>
    <i name="e_0_energy">    -19.20364046 </i>
   </energy>
  </scstep>
  <scstep>
   <time name="diag">    1.14    1.14</time>
   <time name="diis">    1.49    1.49</time>
   <time name="orth">    0.18    0.18</time>
   <time name="total">    2.87    2.88</time>
   <energy>
    <i name="alphaZ">    344.96631128 </i>
    <i name="ewald">  -5779.61419376 </i>
    <i name="hartreedc">  -1588.77836346 </i>
    <i name="XCdc">     97.36614028 </i>
    <i name="pawpsdc">   6872.21948872 </i>
    <i name="pawaedc">  -6959.34609087 </i>
    <i name="eentropy">     -0.00148598 </i>
    <i name="bandstr">    285.34142274 </i>
    <i name="atom">   6708.64263504 </i>
    <i name="e_fr_energy">    -19.20413601 </i>
    <i name="e_wo_entrp">    -19.20265003 </i>
    <i name="e_0_energy">    -19.20364069 </i>
   </energy>
  </scstep>
  <structure>
   <crystal>
    <varray name="basis" >
     <v>       0.00000000       2.03460870      -2.03460870 </v>
     <v>       0.00000000      -2.03460870      -2.03460870 </v>
     <v>     -11.54049246       0.00000000       0.00000000 </v>
    </varray>
    <i name="volume">     95.54679629 </i>
    <varray name="rec_basis" >
     <v>       0.00000000       0.24574750      -0.24574750 </v>
     <v>       0.00000000      -0.24574750      -0.24574750 </v>
     <v>      -0.08665141       0.00000000       0.00000000 </v>
    </varray>
   </crystal>
   <varray name="positions" >
    <v>       0.00000000       0.00000000       0.31323676 </v>
    <v>       0.50000000       0.50000000       0.18676324 </v>
    <v>       0.00000000       0.00000000       0.02886856 </v>
    <v>       0.50000000       0.50000000       0.47113144 </v>
    <v>       0.50000000       0.50000000       0.84411856 </v>
    <v>       0.00000000       0.00000000       0.65588144 </v>
   </varray>
  </structure>
  <varray name="forces" >
   <v>       0.01783195       0.00000000       0.00000000 </v>
   <v>      -0.01783195       0.00000000       0.00000000 </v>
   <v>      -0.00905975       0.00000000       0.00000000 </v>
   <v>       0.00905975       0.00000000       0.00000000 </v>
   <v>      -0.00664506       0.00000000       0.00000000 </v>
   <v>       0.00664506       0.00000000       0.00000000 </v>
  </varray>
  <varray name="stress" >
   <v>      -0.68088647       0.00000000       0.00000000 </v>
   <v>       0.00000000       1.66666372       0.00000000 </v>
   <v>       0.00000000       0.00000000       1.66666372 </v>
  </varray>
  <energy>
   <i name="e_fr_energy">    -19.20413601 </i>
   <i name="e_wo_entrp">    -19.20364069 </i>
   <i name="e_0_energy">     -0.00148598 </i>
  </energy>
  <time name="totalsc">   59.34   59.59</time>
  <eigenvalues>
   <array>
    <dimension dim="1">band</dimension>
    <dimension dim="2">kpoint</dimension>
    <dimension dim="3">spin</dimension>
    <field>eigene</field>
    <field>occ</field>
    <set>
     <set comment="spin 1">
      <set comment="kpoint 1">
       <r>   -0.7350    1.0000 </r>
       <r>    0.3971    1.0000 </r>
       <r>    0.8608    1.0000 </r>
       <r>    1.5706    1.0000 </r>
       <r>    1.8189    1.0000 </r>
       <r>    2.1087    1.0000 </r>
       <r>    2.1685    1.0000 </r>
       <r>    2.5592    1.0000 </r>
       <r>    3.0201    1.0000 </r>
       <r>    3.1149    1.0000 </r>
       <r>    3.7029    1.0000 </r>
       <r>    3.7029    1.0000 </r>
       <r>    3.8858    1.0000 </r>
       <r>    3.8858    1.0000 </r>
       <r>    4.3732    1.0000 </r>
       <r>    4.4343    1.0000 </r>
       <r>    4.5672    1.0000 </r>
       <r>    4.5950    1.0000 </r>
       <r>    4.6172    1.0000 </r>
       <r>    4.6642    1.0000 </r>
       <r>    4.6642    1.0000 </r>
       <r>    5.4703    1.0000 </r>
       <r>    5.4767    1.0000 </r>
       <r>    5.4767    1.0000 </r>
       <r>    5.5395    1.0000 </r>
       <r>    5.6140    1.0000 </r>
       <r>    5.6654    1.0000 </r>
       <r>    5.6884    1.0000 </r>
       <r>    5.6884    1.0000 </r>
       <r>    5.8690    1.0000 </r>
       <r>    6.1733    1.0000 </r>
       <r>    6.3115    1.0000 </r>
       <r>    6.3115    1.0000 </r>
       <r>    6.3785    1.0000 </r>
       <r>    6.5361    1.0000 </r>
       <r>   10.7727    0.0000 </r>
       <r>   14.8221    0.0000 </r>
       <r>   16.3914    0.0000 </r>
       <r>   14.3112    0.0000 </r>
       <r>   17.4106    0.0000 </r>
      </set>
      <set comment="kpoint 2">
       <r>   -0.6966    1.0000 </r>
       <r>    0.4265    1.0000 </r>
       <r>    0.8944    1.0000 </r>
       <r>    1.5965    1.0000 </r>
       <r>    1.8393    1.0000 </r>
       <r>    2.1284    1.0000 </r>
       <r>    2.1862    1.0000 </r>
       <r>    2.5726    1.0000 </r>
       <r>    3.0344    1.0000 </r>
       <r>    3.1217    1.0000 </r>
       <r>    3.6884    1.0000 </r>
       <r>    3.7099    1.0000 </r>
       <r>    3.8695    1.0000 </r>
       <r>    3.8850    1.0000 </r>
       <r>    4.3919    1.0000 </r>
       <r>    4.4333    1.0000 </r>
       <r>    4.4583    1.0000 </r>
       <r>    4.5344    1.0000 </r>
       <r>    4.5509    1.0000 </r>
       <r>    4.7079    1.0000 </r>
       <r>    4.8004    1.0000 </r>
       <r>    5.3107    1.0000 </r>
       <r>    5.4434    1.0000 </r>
       <r>    5.4525    1.0000 </r>
       <r>    5.4668    1.0000 </r>
       <r>    5.6045    1.0000 </r>
       <r>    5.6197    1.0000 </r>
       <r>    5.7572    1.0000 </r>
       <r>    5.8187    1.0000 </r>
       <r>    5.8570    1.0000 </r>
       <r>    6.2611    1.0000 </r>
       <r>    6.2734    1.0000 </r>
       <r>    6.3120    1.0000 </r>
       <r>    6.3772    1.0000 </r>
       <r>    6.6469    1.0000 </r>
       <r>   10.8538    0.0000 </r>
       <r>   14.8106    0.0000 </r>
       <r>   14.9979    0.0000 </r>
       <r>   14.3786    0.0000 </r>
       <r>   17.1578    0.0000 </r>
      </set>
      <set comment="kpoint 3">
       <r>   -0.5828    1.0000 </r>
       <r>    0.5124    1.0000 </r>
       <r>    0.9905    1.0000 </r>
       <r>    1.6659    1.0000 </r>
       <r>    1.9064    1.0000 </r>
       <r>    2.1641    1.0000 </r>
       <r>    2.2607    1.0000 </r>
       <r>    2.6142    1.0000 </r>
       <r>    3.0776    1.0000 </r>
       <r>    3.1397    1.0000 </r>
       <r>    3.6481    1.0000 </r>
       <r>    3.7305    1.0000 </r>
       <r>    3.8280    1.0000 </r>
       <r>    3.8825    1.0000 </r>
       <r>    4.2453    1.0000 </r>
       <r>    4.4376    1.0000 </r>
       <r>    4.4421    1.0000 </r>
       <r>    4.4613    1.0000 </r>
       <r>    4.5032    1.0000 </r>
       <r>    4.7531    1.0000 </r>
       <r>    4.9292    1.0000 </r>
       <r>    4.9855    1.0000 </r>
       <r>    5.3629    1.0000 </r>
       <r>    5.4095    1.0000 </r>
       <r>    5.4417    1.0000 </r>
       <r>    5.5625    1.0000 </r>
       <r>    5.6333    1.0000 </r>
       <r>    5.8198    1.0000 </r>
       <r>    5.8226    1.0000 </r>
       <r>    5.8749    1.0000 </r>
       <r>    6.2162    1.0000 </r>
       <r>    6.3148    1.0000 </r>
       <r>    6.3753    1.0000 </r>
       <r>    6.4822    1.0000 </r>
       <r>    6.9072    1.0000 </r>
       <r>   11.0889    0.0000 </r>
       <r>   14.7686    0.0000 </r>
       <r>   15.9378    0.0000 </r>
       <r>   14.6605    0.0000 </r>
       <r>   16.0845    0.0000 </r>
      </set>
      <set comment="kpoint 4">
       <r>   -0.3976    1.0000 </r>
       <r>    0.6477    1.0000 </r>
       <r>    1.1350    1.0000 </r>
       <r>    1.7576    1.0000 </r>
       <r>    2.0345    1.0000 </r>
       <r>    2.2009    1.0000 </r>
       <r>    2.4018    1.0000 </r>
       <r>    2.6885    1.0000 </r>
       <r>    3.1510    1.0000 </r>
       <r>    3.1608    1.0000 </r>
       <r>    3.5898    1.0000 </r>
       <r>    3.7628    1.0000 </r>
       <r>    3.7761    1.0000 </r>
       <r>    3.8777    1.0000 </r>
       <r>    4.0534    1.0000 </r>
       <r>    4.3307    1.0000 </r>
       <r>    4.4280    1.0000 </r>
       <r>    4.4914    1.0000 </r>
       <r>    4.5016    1.0000 </r>
       <r>    4.6724    1.0000 </r>
       <r>    4.7703    1.0000 </r>
       <r>    5.0377    1.0000 </r>
       <r>    5.2518    1.0000 </r>
       <r>    5.3804    1.0000 </r>
       <r>    5.4138    1.0000 </r>
       <r>    5.5394    1.0000 </r>
       <r>    5.6282    1.0000 </r>
       <r>    5.7567    1.0000 </r>
       <r>    5.8580    1.0000 </r>
       <r>    5.8636    1.0000 </r>
       <r>    6.1712    1.0000 </r>
       <r>    6.3227    1.0000 </r>
       <r>    6.3764    1.0000 </r>
       <r>    6.7776    1.0000 </r>
       <r>    7.2386    1.0005 </r>
       <r>   11.4581    0.0000 </r>
       <r>   14.6600    0.0000 </r>
       <r>   15.7255    0.0000 </r>
       <r>   14.5205    0.0000 </r>
       <r>   15.1740    0.0000 </r>
      </set>
      <set comment="kpoint 5">
       <r>   -0.1479    1.0000 </r>
       <r>    0.8196    1.0000 </r>
       <r>    1.3018    1.0000 </r>
       <r>    1.8545    1.0000 </r>
       <r>    2.2266    1.0000 </r>
       <r>    2.2436    1.0000 </r>
       <r>    2.5947    1.0000 </r>
       <r>    2.7987    1.0000 </r>
       <r>    3.1770    1.0000 </r>
       <r>    3.2572    1.0000 </r>
       <r>    3.5206    1.0000 </r>
       <r>    3.7263    1.0000 </r>
       <r>    3.8031    1.0000 </r>
       <r>    3.8698    1.0000 </r>
       <r>    3.9144    1.0000 </r>
       <r>    4.2205    1.0000 </r>
       <r>    4.3164    1.0000 </r>
       <r>    4.3314    1.0000 </r>
       <r>    4.5345    1.0000 </r>
       <r>    4.6493    1.0000 </r>
       <r>    4.7523    1.0000 </r>
       <r>    5.1300    1.0000 </r>
       <r>    5.1316    1.0000 </r>
       <r>    5.3760    1.0000 </r>
       <r>    5.3962    1.0000 </r>
       <r>    5.5235    1.0000 </r>
       <r>    5.5596    1.0000 </r>
       <r>    5.6736    1.0000 </r>
       <r>    5.8590    1.0000 </r>
       <r>    5.8750    1.0000 </r>
       <r>    6.1344    1.0000 </r>
       <r>    6.3376    1.0000 </r>
       <r>    6.3817    1.0000 </r>
       <r>    7.1135    1.0001 </r>
       <r>    7.5981    1.0290 </r>
       <r>   11.9375    0.0000 </r>
       <r>   14.3002    0.0000 </r>
       <r>   14.8685    0.0000 </r>
       <r>   15.7957    0.0000 </r>
       <r>   15.3556    0.0000 </r>
      </set>
      <set comment="kpoint 6">
       <r>    0.1557    1.0000 </r>
       <r>    1.0101    1.0000 </r>
       <r>    1.4559    1.0000 </r>
       <r>    1.9530    1.0000 </r>
       <r>    2.2905    1.0000 </r>
       <r>    2.4611    1.0000 </r>
       <r>    2.8235    1.0000 </r>
       <r>    2.9074    1.0000 </r>
       <r>    3.2291    1.0000 </r>
       <r>    3.3976    1.0000 </r>
       <r>    3.4456    1.0000 </r>
       <r>    3.6877    1.0000 </r>
       <r>    3.8437    1.0000 </r>
       <r>    3.8581    1.0000 </r>
       <r>    3.8685    1.0000 </r>
       <r>    4.0536    1.0000 </r>
       <r>    4.1148    1.0000 </r>
       <r>    4.2212    1.0000 </r>
       <r>    4.5948    1.0000 </r>
       <r>    4.7018    1.0000 </r>
       <r>    4.7769    1.0000 </r>
       <r>    5.0130    1.0000 </r>
       <r>    5.2043    1.0000 </r>
       <r>    5.3915    1.0000 </r>
       <r>    5.4009    1.0000 </r>
       <r>    5.4416    1.0000 </r>
       <r>    5.5113    1.0000 </r>
       <r>    5.5839    1.0000 </r>
       <r>    5.8586    1.0000 </r>
       <r>    5.8954    1.0000 </r>
       <r>    6.1011    1.0000 </r>
       <r>    6.3579    1.0000 </r>
       <r>    6.3895    1.0000 </r>
       <r>    7.4719    1.0112 </r>
       <r>    7.9671    0.6962 </r>
       <r>   12.5051    0.0000 </r>
       <r>   13.4140    0.0000 </r>
       <r>   14.2955    0.0000 </r>
       <r>   15.7515    0.0000 </r>
       <r>   16.1347    0.0000 </r>
      </set>
      <set comment="kpoint 7">
       <r>    0.4956    1.0000 </r>
       <r>    1.2022    1.0000 </r>
       <r>    1.5672    1.0000 </r>
       <r>    2.0487    1.0000 </r>
       <r>    2.3357    1.0000 </r>
       <r>    2.6901    1.0000 </r>
       <r>    2.9259    1.0000 </r>
       <r>    3.0534    1.0000 </r>
       <r>    3.3634    1.0000 </r>
       <r>    3.4517    1.0000 </r>
       <r>    3.5405    1.0000 </r>
       <r>    3.6753    1.0000 </r>
       <r>    3.8422    1.0000 </r>
       <r>    3.8649    1.0000 </r>
       <r>    3.8943    1.0000 </r>
       <r>    3.9256    1.0000 </r>
       <r>    4.0308    1.0000 </r>
       <r>    4.1058    1.0000 </r>
       <r>    4.6339    1.0000 </r>
       <r>    4.6800    1.0000 </r>
       <r>    4.9035    1.0000 </r>
       <r>    4.9382    1.0000 </r>
       <r>    5.2599    1.0000 </r>
       <r>    5.3243    1.0000 </r>
       <r>    5.3791    1.0000 </r>
       <r>    5.4542    1.0000 </r>
       <r>    5.5010    1.0000 </r>
       <r>    5.5164    1.0000 </r>
       <r>    5.8209    1.0000 </r>
       <r>    5.9314    1.0000 </r>
       <r>    6.0818    1.0000 </r>
       <r>    6.3791    1.0000 </r>
       <r>    6.3977    1.0000 </r>
       <r>    7.8411    0.9449 </r>
       <r>    8.3346   -0.0236 </r>
       <r>   12.4050    0.0000 </r>
       <r>   13.1411    0.0000 </r>
       <r>   13.5880    0.0000 </r>
       <r>   14.6684    0.0000 </r>
       <r>   15.9738    0.0000 </r>
      </set>
      <set comment="kpoint 8">
       <r>    0.8387    1.0000 </r>
       <r>    1.3958    1.0000 </r>
       <r>    1.6246    1.0000 </r>
       <r>    2.1329    1.0000 </r>
       <r>    2.3705    1.0000 </r>
       <r>    2.7658    1.0000 </r>
       <r>    3.0221    1.0000 </r>
       <r>    3.1860    1.0000 </r>
       <r>    3.3143    1.0000 </r>
       <r>    3.5499    1.0000 </r>
       <r>    3.7289    1.0000 </r>
       <r>    3.7635    1.0000 </r>
       <r>    3.8219    1.0000 </r>
       <r>    3.8317    1.0000 </r>
       <r>    3.9941    1.0000 </r>
       <r>    3.9964    1.0000 </r>
       <r>    3.9966    1.0000 </r>
       <r>    4.1127    1.0000 </r>
       <r>    4.5708    1.0000 </r>
       <r>    4.8019    1.0000 </r>
       <r>    4.8086    1.0000 </r>
       <r>    5.0759    1.0000 </r>
       <r>    5.2997    1.0000 </r>
       <r>    5.3091    1.0000 </r>
       <r>    5.3260    1.0000 </r>
       <r>    5.4887    1.0000 </r>
       <r>    5.5070    1.0000 </r>
       <r>    5.5231    1.0000 </r>
       <r>    5.7712    1.0000 </r>
       <r>    5.9277    1.0000 </r>
       <r>    6.1066    1.0000 </r>
       <r>    6.3975    1.0000 </r>
       <r>    6.4046    1.0000 </r>
       <r>    8.2056    0.1009 </r>
       <r>    8.6847   -0.0047 </r>
       <r>   11.4394    0.0000 </r>
       <r>   12.7205    0.0000 </r>
       <r>   13.5923    0.0000 </r>
       <r>   13.8772    0.0000 </r>
       <r>   15.9346    0.0000 </r>
      </set>
      <set comment="kpoint 9">
       <r>    1.1182    1.0000 </r>
       <r>    1.6329    1.0000 </r>
       <r>    1.6349    1.0000 </r>
       <r>    2.1950    1.0000 </r>
       <r>    2.3853    1.0000 </r>
       <r>    2.7343    1.0000 </r>
       <r>    3.1635    1.0000 </r>
       <r>    3.1931    1.0000 </r>
       <r>    3.2778    1.0000 </r>
       <r>    3.5180    1.0000 </r>
       <r>    3.7649    1.0000 </r>
       <r>    3.7962    1.0000 </r>
       <r>    3.8965    1.0000 </r>
       <r>    3.9141    1.0000 </r>
       <r>    3.9581    1.0000 </r>
       <r>    3.9826    1.0000 </r>
       <r>    4.2725    1.0000 </r>
       <r>    4.4756    1.0000 </r>
       <r>    4.5332    1.0000 </r>
       <r>    4.7317    1.0000 </r>
       <r>    4.9784    1.0000 </r>
       <r>    5.0825    1.0000 </r>
       <r>    5.2599    1.0000 </r>
       <r>    5.3795    1.0000 </r>
       <r>    5.4674    1.0000 </r>
       <r>    5.5230    1.0000 </r>
       <r>    5.5304    1.0000 </r>
       <r>    5.5934    1.0000 </r>
       <r>    5.7206    1.0000 </r>
       <r>    5.8881    1.0000 </r>
       <r>    6.1755    1.0000 </r>
       <r>    6.4097    1.0000 </r>
       <r>    6.4108    1.0000 </r>
       <r>    8.5164   -0.0235 </r>
       <r>    8.9756    0.0000 </r>
       <r>   10.5838    0.0000 </r>
       <r>   11.8269    0.0000 </r>
       <r>   12.7235    0.0000 </r>
       <r>   14.5536    0.0000 </r>
       <r>   15.8950    0.0000 </r>
      </set>
      <set comment="kpoint 10">
       <r>    1.2828    1.0000 </r>
       <r>    1.6126    1.0000 </r>
       <r>    1.9454    1.0000 </r>
       <r>    2.2268    1.0000 </r>
       <r>    2.3773    1.0000 </r>
       <r>    2.7290    1.0000 </r>
       <r>    3.1068    1.0000 </r>
       <r>    3.2344    1.0000 </r>
       <r>    3.3354    1.0000 </r>
       <r>    3.4847    1.0000 </r>
       <r>    3.7023    1.0000 </r>
       <r>    3.7554    1.0000 </r>
       <r>    3.8320    1.0000 </r>
       <r>    3.9521    1.0000 </r>
       <r>    4.0241    1.0000 </r>
       <r>    4.1489    1.0000 </r>
       <r>    4.5284    1.0000 </r>
       <r>    4.5549    1.0000 </r>
       <r>    4.6739    1.0000 </r>
       <r>    4.8259    1.0000 </r>
       <r>    5.1417    1.0000 </r>
       <r>    5.1922    1.0000 </r>
       <r>    5.2102    1.0000 </r>
       <r>    5.4285    1.0000 </r>
       <r>    5.5603    1.0000 </r>
       <r>    5.5780    1.0000 </r>
       <r>    5.6697    1.0000 </r>
       <r>    5.6809    1.0000 </r>
       <r>    5.8340    1.0000 </r>
       <r>    5.8923    1.0000 </r>
       <r>    6.2850    1.0000 </r>
       <r>    6.4132    1.0000 </r>
       <r>    6.4187    1.0000 </r>
       <r>    8.5945   -0.0125 </r>
       <r>    9.0965    0.0000 </r>
       <r>    9.9396    0.0000 </r>
       <r>   11.0765    0.0000 </r>
       <r>   12.0828    0.0000 </r>
       <r>   14.6274    0.0000 </r>
       <r>   15.2102    0.0000 </r>
      </set>
      <set comment="kpoint 11">
       <r>    1.3717    1.0000 </r>
       <r>    1.5725    1.0000 </r>
       <r>    2.2361    1.0000 </r>
       <r>    2.2426    1.0000 </r>
       <r>    2.3844    1.0000 </r>
       <r>    2.7540    1.0000 </r>
       <r>    3.0764    1.0000 </r>
       <r>    3.2077    1.0000 </r>
       <r>    3.4007    1.0000 </r>
       <r>    3.4490    1.0000 </r>
       <r>    3.6565    1.0000 </r>
       <r>    3.7001    1.0000 </r>
       <r>    3.8092    1.0000 </r>
       <r>    3.9076    1.0000 </r>
       <r>    4.1001    1.0000 </r>
       <r>    4.2431    1.0000 </r>
       <r>    4.5446    1.0000 </r>
       <r>    4.6334    1.0000 </r>
       <r>    4.7686    1.0000 </r>
       <r>    5.0199    1.0000 </r>
       <r>    5.1891    1.0000 </r>
       <r>    5.3021    1.0000 </r>
       <r>    5.3098    1.0000 </r>
       <r>    5.3706    1.0000 </r>
       <r>    5.5881    1.0000 </r>
       <r>    5.6564    1.0000 </r>
       <r>    5.6911    1.0000 </r>
       <r>    5.7868    1.0000 </r>
       <r>    6.1341    1.0000 </r>
       <r>    6.3421    1.0000 </r>
       <r>    6.4158    1.0000 </r>
       <r>    6.4220    1.0000 </r>
       <r>    6.5065    1.0000 </r>
       <r>    8.2314    0.0621 </r>
       <r>    8.8756   -0.0003 </r>
       <r>    9.3730    0.0000 </r>
       <r>   10.8707    0.0000 </r>
       <r>   11.8830    0.0000 </r>
       <r>   13.7316    0.0000 </r>
       <r>   14.3100    0.0000 </r>
      </set>
      <set comment="kpoint 12">
       <r>    1.4301    1.0000 </r>
       <r>    1.5260    1.0000 </r>
       <r>    2.2415    1.0000 </r>
       <r>    2.2797    1.0000 </r>
       <r>    2.5889    1.0000 </r>
       <r>    2.7759    1.0000 </r>
       <r>    3.0793    1.0000 </r>
       <r>    3.1704    1.0000 </r>
       <r>    3.4143    1.0000 </r>
       <r>    3.4197    1.0000 </r>
       <r>    3.6324    1.0000 </r>
       <r>    3.6555    1.0000 </r>
       <r>    3.8102    1.0000 </r>
       <r>    3.8631    1.0000 </r>
       <r>    4.1585    1.0000 </r>
       <r>    4.2462    1.0000 </r>
       <r>    4.5660    1.0000 </r>
       <r>    4.6060    1.0000 </r>
       <r>    4.9337    1.0000 </r>
       <r>    5.0846    1.0000 </r>
       <r>    5.2011    1.0000 </r>
       <r>    5.3040    1.0000 </r>
       <r>    5.3870    1.0000 </r>
       <r>    5.4279    1.0000 </r>
       <r>    5.6108    1.0000 </r>
       <r>    5.6414    1.0000 </r>
       <r>    5.7244    1.0000 </r>
       <r>    5.7537    1.0000 </r>
       <r>    6.4181    1.0000 </r>
       <r>    6.4221    1.0000 </r>
       <r>    6.7013    1.0000 </r>
       <r>    6.8191    1.0000 </r>
       <r>    7.0617    1.0000 </r>
       <r>    7.6719    1.0355 </r>
       <r>    8.3247   -0.0195 </r>
       <r>    8.6248   -0.0093 </r>
       <r>   11.2690    0.0000 </r>
       <r>   12.0978    0.0000 </r>
       <r>   12.8816    0.0000 </r>
       <r>   13.4872    0.0000 </r>
      </set>
      <set comment="kpoint 13">
       <r>    1.4787    1.0000 </r>
       <r>    1.4787    1.0000 </r>
       <r>    2.2561    1.0000 </r>
       <r>    2.2561    1.0000 </r>
       <r>    2.7413    1.0000 </r>
       <r>    2.7413    1.0000 </r>
       <r>    3.1179    1.0000 </r>
       <r>    3.1179    1.0000 </r>
       <r>    3.4089    1.0000 </r>
       <r>    3.4089    1.0000 </r>
       <r>    3.6320    1.0000 </r>
       <r>    3.6320    1.0000 </r>
       <r>    3.8289    1.0000 </r>
       <r>    3.8289    1.0000 </r>
       <r>    4.2087    1.0000 </r>
       <r>    4.2087    1.0000 </r>
       <r>    4.5856    1.0000 </r>
       <r>    4.5856    1.0000 </r>
       <r>    5.0467    1.0000 </r>
       <r>    5.0467    1.0000 </r>
       <r>    5.2429    1.0000 </r>
       <r>    5.2429    1.0000 </r>
       <r>    5.4425    1.0000 </r>
       <r>    5.4425    1.0000 </r>
       <r>    5.6278    1.0000 </r>
       <r>    5.6278    1.0000 </r>
       <r>    5.7406    1.0000 </r>
       <r>    5.7406    1.0000 </r>
       <r>    6.4204    1.0000 </r>
       <r>    6.4204    1.0000 </r>
       <r>    7.1300    1.0001 </r>
       <r>    7.1300    1.0001 </r>
       <r>    7.4983    1.0144 </r>
       <r>    7.4983    1.0144 </r>
       <r>    7.9064    0.8364 </r>
       <r>    7.9064    0.8364 </r>
       <r>   11.9046    0.0000 </r>
       <r>   11.9046    0.0000 </r>
       <r>   12.8104    0.0000 </r>
       <r>   12.8104    0.0000 </r>
      </set>
      <set comment="kpoint 14">
       <r>   -0.6583    1.0000 </r>
       <r>    0.4560    1.0000 </r>
       <r>    0.9283    1.0000 </r>
       <r>    1.6232    1.0000 </r>
       <r>    1.8587    1.0000 </r>
       <r>    2.1525    1.0000 </r>
       <r>    2.1992    1.0000 </r>
       <r>    2.5856    1.0000 </r>
       <r>    3.0481    1.0000 </r>
       <r>    3.1290    1.0000 </r>
       <r>    3.6674    1.0000 </r>
       <r>    3.7216    1.0000 </r>
       <r>    3.8690    1.0000 </r>
       <r>    3.8705    1.0000 </r>
       <r>    4.3543    1.0000 </r>
       <r>    4.4067    1.0000 </r>
       <r>    4.4446    1.0000 </r>
       <r>    4.5350    1.0000 </r>
       <r>    4.5566    1.0000 </r>
       <r>    4.6529    1.0000 </r>
       <r>    4.8874    1.0000 </r>
       <r>    5.1646    1.0000 </r>
       <r>    5.4198    1.0000 </r>
       <r>    5.4484    1.0000 </r>
       <r>    5.4819    1.0000 </r>
       <r>    5.6073    1.0000 </r>
       <r>    5.6439    1.0000 </r>
       <r>    5.6991    1.0000 </r>
       <r>    5.8355    1.0000 </r>
       <r>    5.8728    1.0000 </r>
       <r>    6.2551    1.0000 </r>
       <r>    6.3048    1.0000 </r>
       <r>    6.3148    1.0000 </r>
       <r>    6.4122    1.0000 </r>
       <r>    6.7451    1.0000 </r>
       <r>   10.9331    0.0000 </r>
       <r>   14.8003    0.0000 </r>
       <r>   15.2373    0.0000 </r>
       <r>   14.2727    0.0000 </r>
       <r>   17.1128    0.0000 </r>
      </set>
      <set comment="kpoint 15">
       <r>   -0.5446    1.0000 </r>
       <r>    0.5422    1.0000 </r>
       <r>    1.0255    1.0000 </r>
       <r>    1.6952    1.0000 </r>
       <r>    1.9228    1.0000 </r>
       <r>    2.1943    1.0000 </r>
       <r>    2.2674    1.0000 </r>
       <r>    2.6261    1.0000 </r>
       <r>    3.0895    1.0000 </r>
       <r>    3.1481    1.0000 </r>
       <r>    3.6232    1.0000 </r>
       <r>    3.7389    1.0000 </r>
       <r>    3.8304    1.0000 </r>
       <r>    3.8700    1.0000 </r>
       <r>    4.1933    1.0000 </r>
       <r>    4.4366    1.0000 </r>
       <r>    4.4491    1.0000 </r>
       <r>    4.4736    1.0000 </r>
       <r>    4.4980    1.0000 </r>
       <r>    4.6858    1.0000 </r>
       <r>    4.8978    1.0000 </r>
       <r>    4.9916    1.0000 </r>
       <r>    5.3846    1.0000 </r>
       <r>    5.3881    1.0000 </r>
       <r>    5.4718    1.0000 </r>
       <r>    5.5692    1.0000 </r>
       <r>    5.6339    1.0000 </r>
       <r>    5.7617    1.0000 </r>
       <r>    5.7888    1.0000 </r>
       <r>    5.8786    1.0000 </r>
       <r>    6.2209    1.0000 </r>
       <r>    6.3177    1.0000 </r>
       <r>    6.3307    1.0000 </r>
       <r>    6.5888    1.0000 </r>
       <r>    6.9915    1.0000 </r>
       <r>   11.1635    0.0000 </r>
       <r>   14.7623    0.0000 </r>
       <r>   16.1627    0.0000 </r>
       <r>   14.3918    0.0000 </r>
       <r>   16.1880    0.0000 </r>
      </set>
      <set comment="kpoint 16">
       <r>   -0.3595    1.0000 </r>
       <r>    0.6780    1.0000 </r>
       <r>    1.1717    1.0000 </r>
       <r>    1.7895    1.0000 </r>
       <r>    2.0475    1.0000 </r>
       <r>    2.2305    1.0000 </r>
       <r>    2.4083    1.0000 </r>
       <r>    2.6986    1.0000 </r>
       <r>    3.1592    1.0000 </r>
       <r>    3.1702    1.0000 </r>
       <r>    3.5660    1.0000 </r>
       <r>    3.7494    1.0000 </r>
       <r>    3.7807    1.0000 </r>
       <r>    3.8697    1.0000 </r>
       <r>    4.0388    1.0000 </r>
       <r>    4.3411    1.0000 </r>
       <r>    4.3799    1.0000 </r>
       <r>    4.4935    1.0000 </r>
       <r>    4.5209    1.0000 </r>
       <r>    4.6230    1.0000 </r>
       <r>    4.7168    1.0000 </r>
       <r>    5.0747    1.0000 </r>
       <r>    5.2729    1.0000 </r>
       <r>    5.3788    1.0000 </r>
[...]
       <r>    5.5065    1.0000 </r>
       <r>    5.9657    1.0000 </r>
       <r>    5.9879    1.0000 </r>
       <r>    6.1550    1.0000 </r>
       <r>    6.1576    1.0000 </r>
       <r>    6.2593    1.0000 </r>
       <r>    6.2943    1.0000 </r>
       <r>    6.4584    1.0000 </r>
       <r>    6.4874    1.0000 </r>
       <r>    9.2077    0.0000 </r>
       <r>    9.7087    0.0000 </r>
       <r>    9.8235    0.0000 </r>
       <r>   10.5474    0.0000 </r>
       <r>   12.4858    0.0000 </r>
       <r>   12.7719    0.0000 </r>
       <r>   13.2216    0.0000 </r>
       <r>   13.8007    0.0000 </r>
       <r>   14.1522    0.0000 </r>
       <r>   14.2019    0.0000 </r>
      </set>
      <set comment="kpoint 363">
       <r>    1.7162    1.0000 </r>
       <r>    1.7162    1.0000 </r>
       <r>    1.9718    1.0000 </r>
       <r>    1.9718    1.0000 </r>
       <r>    2.0917    1.0000 </r>
       <r>    2.0917    1.0000 </r>
       <r>    2.5310    1.0000 </r>
       <r>    2.5310    1.0000 </r>
       <r>    3.3700    1.0000 </r>
       <r>    3.3700    1.0000 </r>
       <r>    3.6892    1.0000 </r>
       <r>    3.6892    1.0000 </r>
       <r>    4.4685    1.0000 </r>
       <r>    4.4685    1.0000 </r>
       <r>    4.9877    1.0000 </r>
       <r>    4.9877    1.0000 </r>
       <r>    5.1076    1.0000 </r>
       <r>    5.1076    1.0000 </r>
       <r>    5.2798    1.0000 </r>
       <r>    5.2798    1.0000 </r>
       <r>    5.5192    1.0000 </r>
       <r>    5.5192    1.0000 </r>
       <r>    5.9918    1.0000 </r>
       <r>    5.9918    1.0000 </r>
       <r>    6.1605    1.0000 </r>
       <r>    6.1605    1.0000 </r>
       <r>    6.2842    1.0000 </r>
       <r>    6.2842    1.0000 </r>
       <r>    6.5263    1.0000 </r>
       <r>    6.5263    1.0000 </r>
       <r>    9.5848    0.0000 </r>
       <r>    9.5848    0.0000 </r>
       <r>   10.2034    0.0000 </r>
       <r>   10.2034    0.0000 </r>
       <r>   13.0325    0.0000 </r>
       <r>   13.0331    0.0000 </r>
       <r>   13.3785    0.0000 </r>
       <r>   13.3795    0.0000 </r>
       <r>   13.7613    0.0000 </r>
       <r>   13.7637    0.0000 </r>
      </set>
      <set comment="kpoint 364">
       <r>    1.6975    1.0000 </r>
       <r>    1.6975    1.0000 </r>
       <r>    1.9628    1.0000 </r>
       <r>    1.9628    1.0000 </r>
       <r>    2.0688    1.0000 </r>
       <r>    2.0688    1.0000 </r>
       <r>    2.5252    1.0000 </r>
       <r>    2.5252    1.0000 </r>
       <r>    3.3769    1.0000 </r>
       <r>    3.3769    1.0000 </r>
       <r>    3.6863    1.0000 </r>
       <r>    3.6863    1.0000 </r>
       <r>    4.4734    1.0000 </r>
       <r>    4.4734    1.0000 </r>
       <r>    4.9919    1.0000 </r>
       <r>    4.9919    1.0000 </r>
       <r>    5.1442    1.0000 </r>
       <r>    5.1442    1.0000 </r>
       <r>    5.2955    1.0000 </r>
       <r>    5.2955    1.0000 </r>
       <r>    5.5337    1.0000 </r>
       <r>    5.5337    1.0000 </r>
       <r>    6.0075    1.0000 </r>
       <r>    6.0075    1.0000 </r>
       <r>    6.1636    1.0000 </r>
       <r>    6.1636    1.0000 </r>
       <r>    6.2908    1.0000 </r>
       <r>    6.2908    1.0000 </r>
       <r>    6.5850    1.0000 </r>
       <r>    6.5850    1.0000 </r>
       <r>    9.6853    0.0000 </r>
       <r>    9.6853    0.0000 </r>
       <r>   10.3234    0.0000 </r>
       <r>   10.3234    0.0000 </r>
       <r>   13.1835    0.0000 </r>
       <r>   13.1836    0.0000 </r>
       <r>   13.3182    0.0000 </r>
       <r>   13.3239    0.0000 </r>
       <r>   14.0244    0.0000 </r>
       <r>   14.0465    0.0000 </r>
      </set>
     </set>
    </set>
   </array>
  </eigenvalues>
  <separator name="orbital magnetization" >
   <v name="MAGDIPOLOUT">      0.00000000      0.00000000      0.00000000</v>
  </separator>
  <dos>
   <i name="efermi">      8.03891822 </i>
   <total>
    <array>
     <dimension dim="1">gridpoints</dimension>
     <dimension dim="2">spin</dimension>
     <field>energy</field>
     <field>total</field>
     <field>integrated</field>
     <set>
      <set comment="spin 1">
       <r>    -3.7350     0.0000     0.0000 </r>
       <r>    -3.6545     0.0000     0.0000 </r>
       <r>    -3.5740     0.0000     0.0000 </r>
       <r>    -3.4935     0.0000     0.0000 </r>
       <r>    -3.4130     0.0000     0.0000 </r>
       <r>    -3.3325     0.0000     0.0000 </r>
       <r>    -3.2520     0.0000     0.0000 </r>
       <r>    -3.1716     0.0000     0.0000 </r>
       <r>    -3.0911     0.0000     0.0000 </r>
       <r>    -3.0106     0.0000     0.0000 </r>
       <r>    -2.9301     0.0000     0.0000 </r>
       <r>    -2.8496     0.0000     0.0000 </r>
       <r>    -2.7691     0.0000     0.0000 </r>
       <r>    -2.6886     0.0000     0.0000 </r>
       <r>    -2.6082     0.0000     0.0000 </r>
       <r>    -2.5277     0.0000     0.0000 </r>
       <r>    -2.4472     0.0000     0.0000 </r>
       <r>    -2.3667     0.0000     0.0000 </r>
       <r>    -2.2862     0.0000     0.0000 </r>
       <r>    -2.2057     0.0000     0.0000 </r>
       <r>    -2.1253     0.0000     0.0000 </r>
       <r>    -2.0448     0.0000     0.0000 </r>
       <r>    -1.9643     0.0000     0.0000 </r>
       <r>    -1.8838     0.0000     0.0000 </r>
       <r>    -1.8033     0.0000     0.0000 </r>
       <r>    -1.7228     0.0000     0.0000 </r>
       <r>    -1.6423     0.0000     0.0000 </r>
       <r>    -1.5619     0.0000     0.0000 </r>
       <r>    -1.4814    -0.0001     0.0000 </r>
       <r>    -1.4009    -0.0003     0.0000 </r>
       <r>    -1.3204    -0.0010    -0.0001 </r>
       <r>    -1.2399    -0.0024    -0.0003 </r>
       <r>    -1.1594    -0.0049    -0.0007 </r>
       <r>    -1.0789    -0.0080    -0.0014 </r>
       <r>    -0.9985    -0.0089    -0.0021 </r>
       <r>    -0.9180    -0.0026    -0.0023 </r>
       <r>    -0.8375     0.0178    -0.0008 </r>
       <r>    -0.7570     0.0564     0.0037 </r>
       <r>    -0.6765     0.1113     0.0126 </r>
       <r>    -0.5960     0.1728     0.0266 </r>
       <r>    -0.5155     0.2281     0.0449 </r>
       <r>    -0.4351     0.2676     0.0665 </r>
       <r>    -0.3546     0.2898     0.0898 </r>
       <r>    -0.2741     0.3015     0.1140 </r>
       <r>    -0.1936     0.3127     0.1392 </r>
       <r>    -0.1131     0.3321     0.1659 </r>
       <r>    -0.0326     0.3641     0.1952 </r>
       <r>     0.0479     0.4084     0.2281 </r>
       <r>     0.1283     0.4617     0.2653 </r>
       <r>     0.2088     0.5189     0.3070 </r>
       <r>     0.2893     0.5749     0.3533 </r>
       <r>     0.3698     0.6261     0.4037 </r>
       <r>     0.4503     0.6707     0.4577 </r>
       <r>     0.5308     0.7075     0.5146 </r>
       <r>     0.6112     0.7365     0.5739 </r>
       <r>     0.6917     0.7612     0.6352 </r>
       <r>     0.7722     0.7884     0.6986 </r>
       <r>     0.8527     0.8253     0.7650 </r>
       <r>     0.9332     0.8768     0.8356 </r>
       <r>     1.0137     0.9473     0.9119 </r>
       <r>     1.0942     1.0457     0.9960 </r>
       <r>     1.1746     1.1891     1.0917 </r>
       <r>     1.2551     1.4002     1.2044 </r>
       <r>     1.3356     1.7008     1.3413 </r>
       <r>     1.4161     2.1022     1.5105 </r>
       <r>     1.4966     2.6001     1.7198 </r>
       <r>     1.5771     3.1772     1.9755 </r>
       <r>     1.6576     3.8148     2.2825 </r>
       <r>     1.7380     4.5105     2.6456 </r>
       <r>     1.8185     5.2861     3.0710 </r>
       <r>     1.8990     6.1749     3.5680 </r>
       <r>     1.9795     7.1903     4.1467 </r>
       <r>     2.0600     8.2960     4.8144 </r>
       <r>     2.1405     9.3966     5.5707 </r>
       <r>     2.2210    10.3629     6.4048 </r>
       <r>     2.3014    11.0837     7.2968 </r>
       <r>     2.3819    11.5071     8.2230 </r>
       <r>     2.4624    11.6363     9.1595 </r>
       <r>     2.5429    11.4904    10.0844 </r>
       <r>     2.6234    11.0910    10.9770 </r>
       <r>     2.7039    10.5030    11.8223 </r>
       <r>     2.7844     9.8789    12.6175 </r>
       <r>     2.8648     9.4335    13.3767 </r>
       <r>     2.9453     9.3469    14.1290 </r>
       <r>     3.0258     9.6791    14.9080 </r>
       <r>     3.1063    10.3679    15.7425 </r>
       <r>     3.1868    11.2859    16.6508 </r>
       <r>     3.2673    12.2783    17.6391 </r>
       <r>     3.3477    13.1698    18.6990 </r>
       <r>     3.4282    13.8149    19.8109 </r>
       <r>     3.5087    14.2104    20.9547 </r>
       <r>     3.5892    14.5375    22.1247 </r>
       <r>     3.6697    15.0077    23.3326 </r>
       <r>     3.7502    15.6061    24.5887 </r>
       <r>     3.8307    15.9959    25.8761 </r>
       <r>     3.9111    15.7257    27.1418 </r>
       <r>     3.9916    14.5832    28.3155 </r>
       <r>     4.0721    12.7979    29.3456 </r>
       <r>     4.1526    10.9538    30.2272 </r>
       <r>     4.2331     9.7171    31.0093 </r>
       <r>     4.3136     9.5572    31.7785 </r>
       <r>     4.3941    10.5547    32.6280 </r>
       <r>     4.4745    12.3317    33.6205 </r>
       <r>     4.5550    14.1679    34.7608 </r>
       <r>     4.6355    15.3159    35.9935 </r>
       <r>     4.7160    15.3686    37.2305 </r>
       <r>     4.7965    14.4414    38.3928 </r>
       <r>     4.8770    13.0646    39.4443 </r>
       <r>     4.9575    11.8963    40.4018 </r>
       <r>     5.0379    11.4410    41.3226 </r>
       <r>     5.1184    11.8833    42.2790 </r>
       <r>     5.1989    13.0654    43.3306 </r>
       <r>     5.2794    14.5878    44.5047 </r>
       <r>     5.3599    15.9846    45.7912 </r>
       <r>     5.4404    16.8981    47.1513 </r>
       <r>     5.5209    17.1909    48.5349 </r>
       <r>     5.6013    16.9574    49.8997 </r>
       <r>     5.6818    16.4328    51.2223 </r>
       <r>     5.7623    15.8602    52.4988 </r>
       <r>     5.8428    15.4143    53.7395 </r>
       <r>     5.9233    15.2130    54.9639 </r>
       <r>     6.0038    15.3193    56.1969 </r>
       <r>     6.0842    15.6549    57.4568 </r>
       <r>     6.1647    15.9009    58.7366 </r>
       <r>     6.2452    15.5603    59.9890 </r>
       <r>     6.3257    14.2193    61.1335 </r>
       <r>     6.4062    11.8386    62.0863 </r>
       <r>     6.4867     8.8407    62.7978 </r>
       <r>     6.5672     5.9068    63.2732 </r>
       <r>     6.6476     3.6233    63.5649 </r>
       <r>     6.7281     2.2272    63.7441 </r>
       <r>     6.8086     1.6018    63.8730 </r>
       <r>     6.8891     1.4605    63.9906 </r>
       <r>     6.9696     1.5380    64.1144 </r>
       <r>     7.0501     1.6703    64.2488 </r>
       <r>     7.1306     1.7784    64.3919 </r>
       <r>     7.2110     1.8292    64.5392 </r>
       <r>     7.2915     1.8197    64.6856 </r>
       <r>     7.3720     1.7737    64.8284 </r>
       <r>     7.4525     1.7278    64.9674 </r>
       <r>     7.5330     1.7068    65.1048 </r>
       <r>     7.6135     1.7113    65.2425 </r>
       <r>     7.6940     1.7299    65.3818 </r>
       <r>     7.7744     1.7559    65.5231 </r>
       <r>     7.8549     1.7864    65.6669 </r>
       <r>     7.9354     1.8112    65.8126 </r>
       <r>     8.0159     1.8133    65.9586 </r>
       <r>     8.0964     1.7839    66.1022 </r>
       <r>     8.1769     1.7332    66.2417 </r>
       <r>     8.2574     1.6845    66.3772 </r>
       <r>     8.3378     1.6583    66.5107 </r>
       <r>     8.4183     1.6604    66.6443 </r>
       <r>     8.4988     1.6815    66.7797 </r>
       <r>     8.5793     1.7054    66.9169 </r>
       <r>     8.6598     1.7185    67.0553 </r>
       <r>     8.7403     1.7147    67.1933 </r>
       <r>     8.8207     1.6933    67.3295 </r>
       <r>     8.9012     1.6555    67.4628 </r>
       <r>     8.9817     1.6060    67.5920 </r>
       <r>     9.0622     1.5570    67.7174 </r>
       <r>     9.1427     1.5282    67.8404 </r>
       <r>     9.2232     1.5364    67.9640 </r>
       <r>     9.3037     1.5792    68.0911 </r>
       <r>     9.3841     1.6292    68.2222 </r>
       <r>     9.4646     1.6498    68.3550 </r>
       <r>     9.5451     1.6218    68.4856 </r>
       <r>     9.6256     1.5585    68.6110 </r>
       <r>     9.7061     1.4928    68.7311 </r>
       <r>     9.7866     1.4495    68.8478 </r>
       <r>     9.8671     1.4301    68.9629 </r>
       <r>     9.9475     1.4209    69.0773 </r>
       <r>    10.0280     1.4100    69.1908 </r>
       <r>    10.1085     1.3935    69.3029 </r>
       <r>    10.1890     1.3706    69.4132 </r>
       <r>    10.2695     1.3432    69.5213 </r>
       <r>    10.3500     1.3182    69.6274 </r>
       <r>    10.4305     1.3062    69.7326 </r>
       <r>    10.5109     1.3102    69.8380 </r>
       <r>    10.5914     1.3206    69.9443 </r>
       <r>    10.6719     1.3233    70.0508 </r>
       <r>    10.7524     1.3139    70.1566 </r>
       <r>    10.8329     1.3025    70.2614 </r>
       <r>    10.9134     1.3083    70.3667 </r>
       <r>    10.9939     1.3492    70.4753 </r>
       <r>    11.0743     1.4351    70.5908 </r>
       <r>    11.1548     1.5654    70.7168 </r>
       <r>    11.2353     1.7278    70.8558 </r>
       <r>    11.3158     1.8974    71.0085 </r>
       <r>    11.3963     2.0376    71.1725 </r>
       <r>    11.4768     2.1121    71.3425 </r>
       <r>    11.5572     2.1031    71.5118 </r>
       <r>    11.6377     2.0234    71.6747 </r>
       <r>    11.7182     1.9106    71.8284 </r>
       <r>    11.7987     1.8079    71.9739 </r>
       <r>    11.8792     1.7465    72.1145 </r>
       <r>    11.9597     1.7366    72.2543 </r>
       <r>    12.0402     1.7680    72.3966 </r>
       <r>    12.1206     1.8133    72.5425 </r>
       <r>    12.2011     1.8392    72.6905 </r>
       <r>    12.2816     1.8234    72.8373 </r>
       <r>    12.3621     1.7686    72.9797 </r>
       <r>    12.4426     1.7001    73.1165 </r>
       <r>    12.5231     1.6460    73.2490 </r>
       <r>    12.6036     1.6207    73.3794 </r>
       <r>    12.6840     1.6211    73.5099 </r>
       <r>    12.7645     1.6361    73.6416 </r>
       <r>    12.8450     1.6553    73.7748 </r>
       <r>    12.9255     1.6735    73.9095 </r>
       <r>    13.0060     1.6924    74.0457 </r>
       <r>    13.0865     1.7177    74.1839 </r>
       <r>    13.1670     1.7554    74.3252 </r>
       <r>    13.2474     1.8057    74.4705 </r>
       <r>    13.3279     1.8618    74.6204 </r>
       <r>    13.4084     1.9115    74.7742 </r>
       <r>    13.4889     1.9437    74.9307 </r>
       <r>    13.5694     1.9556    75.0881 </r>
       <r>    13.6499     1.9571    75.2456 </r>
       <r>    13.7304     1.9640    75.4037 </r>
       <r>    13.8108     1.9835    75.5633 </r>
       <r>    13.8913     2.0025    75.7245 </r>
       <r>    13.9718     1.9974    75.8852 </r>
       <r>    14.0523     1.9607    76.0430 </r>
       <r>    14.1328     1.9213    76.1977 </r>
       <r>    14.2133     1.9318    76.3532 </r>
       <r>    14.2937     2.0277    76.5164 </r>
       <r>    14.3742     2.1916    76.6928 </r>
       <r>    14.4547     2.3589    76.8826 </r>
       <r>    14.5352     2.4634    77.0809 </r>
       <r>    14.6157     2.4838    77.2808 </r>
       <r>    14.6962     2.4497    77.4780 </r>
       <r>    14.7767     2.4027    77.6713 </r>
       <r>    14.8571     2.3552    77.8609 </r>
       <r>    14.9376     2.2834    78.0447 </r>
       <r>    15.0181     2.1586    78.2184 </r>
       <r>    15.0986     1.9807    78.3778 </r>
       <r>    15.1791     1.7824    78.5213 </r>
       <r>    15.2596     1.6037    78.6504 </r>
       <r>    15.3401     1.4634    78.7681 </r>
       <r>    15.4205     1.3576    78.8774 </r>
       <r>    15.5010     1.2804    78.9805 </r>
       <r>    15.5815     1.2400    79.0803 </r>
       <r>    15.6620     1.2487    79.1808 </r>
       <r>    15.7425     1.3020    79.2856 </r>
       <r>    15.8230     1.3718    79.3960 </r>
       <r>    15.9035     1.4210    79.5103 </r>
       <r>    15.9839     1.4183    79.6245 </r>
       <r>    16.0644     1.3406    79.7324 </r>
       <r>    16.1449     1.1729    79.8268 </r>
       <r>    16.2254     0.9210    79.9009 </r>
       <r>    16.3059     0.6246    79.9512 </r>
       <r>    16.3864     0.3478    79.9792 </r>
       <r>    16.4669     0.1457    79.9909 </r>
       <r>    16.5473     0.0356    79.9938 </r>
       <r>    16.6278    -0.0029    79.9935 </r>
       <r>    16.7083    -0.0052    79.9931 </r>
       <r>    16.7888     0.0017    79.9933 </r>
       <r>    16.8693     0.0065    79.9938 </r>
       <r>    16.9498     0.0087    79.9945 </r>
       <r>    17.0302     0.0109    79.9954 </r>
       <r>    17.1107     0.0134    79.9964 </r>
       <r>    17.1912     0.0146    79.9976 </r>
       <r>    17.2717     0.0132    79.9987 </r>
       <r>    17.3522     0.0096    79.9994 </r>
       <r>    17.4327     0.0055    79.9999 </r>
       <r>    17.5132     0.0023    80.0001 </r>
       <r>    17.5936     0.0005    80.0001 </r>
       <r>    17.6741    -0.0003    80.0001 </r>
       <r>    17.7546    -0.0004    80.0001 </r>
       <r>    17.8351    -0.0003    80.0000 </r>
       <r>    17.9156    -0.0002    80.0000 </r>
       <r>    17.9961    -0.0001    80.0000 </r>
       <r>    18.0766    -0.0001    80.0000 </r>
       <r>    18.1570     0.0000    80.0000 </r>
       <r>    18.2375     0.0000    80.0000 </r>
       <r>    18.3180     0.0000    80.0000 </r>
       <r>    18.3985     0.0000    80.0000 </r>
       <r>    18.4790     0.0000    80.0000 </r>
       <r>    18.5595     0.0000    80.0000 </r>
       <r>    18.6400     0.0000    80.0000 </r>
       <r>    18.7204     0.0000    80.0000 </r>
       <r>    18.8009     0.0000    80.0000 </r>
       <r>    18.8814     0.0000    80.0000 </r>
       <r>    18.9619     0.0000    80.0000 </r>
       <r>    19.0424     0.0000    80.0000 </r>
       <r>    19.1229     0.0000    80.0000 </r>
       <r>    19.2034     0.0000    80.0000 </r>
       <r>    19.2838     0.0000    80.0000 </r>
       <r>    19.3643     0.0000    80.0000 </r>
       <r>    19.4448     0.0000    80.0000 </r>
       <r>    19.5253     0.0000    80.0000 </r>
       <r>    19.6058     0.0000    80.0000 </r>
       <r>    19.6863     0.0000    80.0000 </r>
       <r>    19.7667     0.0000    80.0000 </r>
       <r>    19.8472     0.0000    80.0000 </r>
       <r>    19.9277     0.0000    80.0000 </r>
       <r>    20.0082     0.0000    80.0000 </r>
       <r>    20.0887     0.0000    80.0000 </r>
       <r>    20.1692     0.0000    80.0000 </r>
       <r>    20.2497     0.0000    80.0000 </r>
       <r>    20.3301     0.0000    80.0000 </r>
       <r>    20.4106     0.0000    80.0000 </r>
      </set>
     </set>
    </array>
   </total>
  </dos>
 </calculation>
 <structure name="finalpos" >
  <crystal>
   <varray name="basis" >
    <v>       0.00000000       2.03460870      -2.03460870 </v>
    <v>       0.00000000      -2.03460870      -2.03460870 </v>
    <v>     -11.54049246       0.00000000       0.00000000 </v>
   </varray>
   <i name="volume">     95.54679629 </i>
   <varray name="rec_basis" >
    <v>       0.00000000       0.24574750      -0.24574750 </v>
    <v>       0.00000000      -0.24574750      -0.24574750 </v>
    <v>      -0.08665141       0.00000000       0.00000000 </v>
   </varray>
  </crystal>
  <varray name="positions" >
   <v>       0.00000000       0.00000000       0.31323676 </v>
   <v>       0.50000000       0.50000000       0.18676324 </v>
   <v>       0.00000000       0.00000000       0.02886856 </v>
   <v>       0.50000000       0.50000000       0.47113144 </v>
   <v>       0.50000000       0.50000000       0.84411856 </v>
   <v>       0.00000000       0.00000000       0.65588144 </v>
  </varray>
 </structure>
</modeling>
