<?xml version="1.0" encoding="ISO-8859-1"?>
<modeling>
 <generator>
  <i name="program" type="string">vasp </i>
  <i name="version" type="string">5.3.5  </i>
  <i name="subversion" type="string">31Mar14 (build Jun 20 2014 13:15:13) complex                          parallel </i>
  <i name="platform" type="string">LinuxIFC </i>
  <i name="date" type="string">2025 12 12 </i>
  <i name="time" type="string">13:46:46 </i>
 </generator>
 <incar>
  <i type="string" name="PREC">accurate</i>
  <i type="int" name="IALGO">    38</i>
  <i type="logical" name="ADDGRID"> T  </i>
  <i type="int" name="ISPIN">     2</i>
  <i type="int" name="NELM">   100</i>
  <i type="int" name="NELMIN">     4</i>
  <i name="EDIFF">      0.00000100</i>
  <i name="ENCUT">    500.00000000</i>
  <i type="logical" name="LREAL"> F  </i>
  <i type="int" name="ISMEAR">     0</i>
  <i name="SIGMA">      0.05000000</i>
  <i type="logical" name="LWAVE"> F  </i>
  <i type="logical" name="LCHARG"> F  </i>
  <i type="int" name="NELM">   100</i>
  <i type="logical" name="LDAU"> T  </i>
  <v name="LDAUU">      0.00000000      4.00000000      0.00000000</v>
  <v name="LDAUJ">      0.00000000      0.00000000      0.00000000</v>
 </incar>
 <kpoints>
  <generation param="Auto">
   <i name="subdivisionlength">     20.00000000 </i>
   <v type="int" name="divisions">       3        3        3 </v>
   <v name="usershift">      0.00000000       0.00000000       0.00000000 </v>
   <v name="genvec1">      0.33333333       0.00000000       0.00000000 </v>
   <v name="genvec2">      0.00000000       0.33333333       0.00000000 </v>
   <v name="genvec3">      0.00000000       0.00000000       0.33333333 </v>
   <v name="shift">      0.00000000       0.00000000       0.00000000 </v>
  </generation>
  <varray name="kpointlist" >
   <v>       0.00000000       0.00000000       0.00000000 </v>
   <v>       0.33333333       0.00000000       0.00000000 </v>
   <v>       0.00000000       0.33333333       0.00000000 </v>
   <v>       0.33333333       0.33333333       0.00000000 </v>
   <v>       0.00000000       0.00000000       0.33333333 </v>
   <v>       0.33333333       0.00000000       0.33333333 </v>
   <v>      -0.33333333       0.00000000       0.33333333 </v>
   <v>       0.00000000       0.33333333       0.33333333 </v>
   <v>       0.33333333       0.33333333       0.33333333 </v>
   <v>      -0.33333333       0.33333333       0.33333333 </v>
  </varray>
  <varray name="weights" >
   <v>       0.03703704 </v>
   <v>       0.07407407 </v>
   <v>       0.07407407 </v>
   <v>       0.14814815 </v>
   <v>       0.07407407 </v>
   <v>       0.07407407 </v>
   <v>       0.07407407 </v>
   <v>       0.14814815 </v>
   <v>       0.14814815 </v>
   <v>       0.14814815 </v>
  </varray>
 </kpoints>
 <parameters>
  <separator name="general" >
   <i type="string" name="SYSTEM">unknown system</i>
   <i type="logical" name="LCOMPAT"> F  </i>
  </separator>
  <separator name="electronic" >
   <i type="string" name="PREC">accura</i>
   <i name="ENMAX">    500.00000000</i>
   <i name="ENAUG">    586.98000000</i>
   <i name="EDIFF">      0.00000100</i>
   <i type="int" name="IALGO">    38</i>
   <i type="int" name="IWAVPR">    10</i>
   <i type="int" name="NBANDS">   184</i>
   <i name="NELECT">    276.00000000</i>
   <i type="int" name="TURBO">     0</i>
   <i type="int" name="IRESTART">     0</i>
   <i type="int" name="NREBOOT">     0</i>
   <i type="int" name="NMIN">     0</i>
   <i name="EREF">      0.00000000</i>
   <separator name="electronic smearing" >
    <i type="int" name="ISMEAR">     0</i>
    <i name="SIGMA">      0.05000000</i>
    <i name="KSPACING">      0.50000000</i>
    <i type="logical" name="KGAMMA"> T  </i>
   </separator>
   <separator name="electronic projectors" >
    <i type="logical" name="LREAL"> F  </i>
    <v name="ROPT">      0.00000000      0.00000000      0.00000000</v>
    <i type="int" name="LMAXPAW">  -100</i>
    <i type="int" name="LMAXMIX">     2</i>
    <i type="logical" name="NLSPLINE"> F  </i>
   </separator>
   <separator name="electronic startup" >
    <i type="int" name="ISTART">     0</i>
    <i type="int" name="ICHARG">     2</i>
    <i type="int" name="INIWAV">     1</i>
   </separator>
   <separator name="electronic spin" >
    <i type="int" name="ISPIN">     2</i>
    <i type="logical" name="LNONCOLLINEAR"> F  </i>
    <v name="MAGMOM">      1.00000000      1.00000000      1.00000000      1.00000000      1.00000000      1.00000000      1.00000000      1.00000000      1.00000000      1.00000000      1.00000000      1.00000000      1.00000000      1.00000000      1.00000000      1.00000000      1.00000000      1.00000000      1.00000000      1.00000000
      1.00000000      1.00000000      1.00000000      1.00000000      1.00000000      1.00000000      1.00000000      1.00000000      1.00000000      1.00000000      1.00000000      1.00000000      1.00000000      1.00000000</v>
    <i name="NUPDOWN">     -1.00000000</i>
    <i type="logical" name="LSORBIT"> F  </i>
    <v name="SAXIS">      0.00000000      0.00000000      1.00000000</v>
    <i type="logical" name="LSPIRAL"> F  </i>
    <v name="QSPIRAL">      0.00000000      0.00000000      0.00000000</v>
    <i type="logical" name="LZEROZ"> F  </i>
   </separator>
   <separator name="electronic exchange-correlation" >
    <i type="logical" name="LASPH"> F  </i>
    <i type="logical" name="LMETAGGA"> F  </i>
   </separator>
   <separator name="electronic convergence" >
    <i type="int" name="NELM">   100</i>
    <i type="int" name="NELMDL">    -5</i>
    <i type="int" name="NELMIN">     4</i>
    <i name="ENINI">    500.00000000</i>
    <separator name="electronic convergence detail" >
     <i type="logical" name="LDIAG"> T  </i>
     <i type="logical" name="LSUBROT"> F  </i>
     <i name="WEIMIN">      0.00000000</i>
     <i name="EBREAK">      0.00000000</i>
     <i name="DEPER">      0.30000000</i>
     <i type="int" name="NRMM">     4</i>
     <i name="TIME">      0.40000000</i>
    </separator>
   </separator>
   <separator name="electronic mixer" >
    <i name="AMIX">      0.40000000</i>
    <i name="BMIX">      1.00000000</i>
    <i name="AMIN">      0.10000000</i>
    <i name="AMIX_MAG">      1.60000000</i>
    <i name="BMIX_MAG">      1.00000000</i>
    <separator name="electronic mixer details" >
     <i type="int" name="IMIX">     4</i>
     <i type="int" name="MAXMIX">   -45</i>
     <i name="WC">    100.00000000</i>
     <i type="int" name="INIMIX">     1</i>
     <i type="int" name="MIXPRE">     1</i>
     <i type="int" name="MREMOVE">     5</i>
    </separator>
   </separator>
   <separator name="electronic dipolcorrection" >
    <i type="logical" name="LDIPOL"> F  </i>
    <i type="logical" name="LMONO"> F  </i>
    <i type="int" name="IDIPOL">     0</i>
    <i name="EPSILON">      1.00000000</i>
    <v name="DIPOL">   -100.00000000   -100.00000000   -100.00000000</v>
    <i name="EFIELD">      0.00000000</i>
   </separator>
  </separator>
  <separator name="grids" >
   <i type="int" name="NGX">    60</i>
   <i type="int" name="NGY">    60</i>
   <i type="int" name="NGZ">    60</i>
   <i type="int" name="NGXF">   120</i>
   <i type="int" name="NGYF">   120</i>
   <i type="int" name="NGZF">   120</i>
   <i type="logical" name="ADDGRID"> T  </i>
  </separator>
  <separator name="ionic" >
   <i type="int" name="NSW">     0</i>
   <i type="int" name="IBRION">    -1</i>
   <i type="int" name="ISIF">     2</i>
   <i name="PSTRESS">      0.00000000</i>
   <i name="EDIFFG">      0.00001000</i>
   <i type="int" name="NFREE">     0</i>
   <i name="POTIM">      0.50000000</i>
   <i name="SMASS">     -3.00000000</i>
   <i name="SCALEE">      1.00000000</i>
  </separator>
  <separator name="ionic md" >
   <i name="TEBEG">      0.00010000</i>
   <i name="TEEND">      0.00010000</i>
   <i type="int" name="NBLOCK">     1</i>
   <i type="int" name="KBLOCK">     1</i>
   <i type="int" name="NPACO">   256</i>
   <i name="APACO">     16.00000000</i>
  </separator>
  <separator name="symmetry" >
   <i type="int" name="ISYM">     2</i>
   <i name="SYMPREC">      0.00001000</i>
  </separator>
  <separator name="dos" >
   <i type="logical" name="LORBIT"> F  </i>
   <v name="RWIGS">     -1.00000000     -1.00000000     -1.00000000</v>
   <i type="int" name="NEDOS">   301</i>
   <i name="EMIN">     10.00000000</i>
   <i name="EMAX">    -10.00000000</i>
   <i name="EFERMI">      0.00000000</i>
  </separator>
  <separator name="writing" >
   <i type="int" name="NWRITE">     2</i>
   <i type="logical" name="LWAVE"> F  </i>
   <i type="logical" name="LCHARG"> F  </i>
   <i type="logical" name="LPARD"> F  </i>
   <i type="logical" name="LVTOT"> F  </i>
   <i type="logical" name="LVHAR"> F  </i>
   <i type="logical" name="LELF"> F  </i>
   <i type="logical" name="LOPTICS"> F  </i>
   <v name="STM">      0.00000000      0.00000000      0.00000000      0.00000000      0.00000000      0.00000000      0.00000000</v>
  </separator>
  <separator name="performance" >
   <i type="int" name="NPAR">     4</i>
   <i type="int" name="NSIM">     4</i>
   <i type="int" name="NBLK">    -1</i>
   <i type="logical" name="LPLANE"> T  </i>
   <i type="logical" name="LSCALAPACK"> T  </i>
   <i type="logical" name="LSCAAWARE"> F  </i>
   <i type="logical" name="LSCALU"> F  </i>
   <i type="logical" name="LASYNC"> F  </i>
   <i type="logical" name="LORBITALREAL"> F  </i>
  </separator>
  <separator name="miscellaneous" >
   <i type="int" name="IDIOT">     3</i>
   <i type="logical" name="LMUSIC"> F  </i>
   <v name="POMASS">     87.62000000     63.54600000     16.00000000</v>
   <v name="DARWINR">      0.00000000      0.00000000      0.00000000</v>
   <v name="DARWINV">      1.00000000      1.00000000      1.00000000</v>
   <i type="logical" name="LCORR"> T  </i>
  </separator>
  <i type="logical" name="GGA_COMPAT"> T  </i>
  <i type="logical" name="LBERRY"> F  </i>
  <i type="int" name="ICORELEVEL">     0</i>
  <i type="logical" name="LDAU"> T  </i>
  <v type="int" name="LDAUTYPE">     2</v>
  <v type="int" name="LDAUL">     2</v>
  <v name="LDAUU">      0.00000000</v>
  <v name="LDAUJ">      0.00000000</v>
  <i type="int" name="LDAUPRINT">     0</i>
  <i type="int" name="I_CONSTRAINED_M">     0</i>
  <separator name="electronic exchange-correlation" >
   <i type="string" name="GGA">--</i>
   <i type="int" name="VOSKOWN">     0</i>
   <i type="logical" name="LHFCALC"> F  </i>
   <i type="string" name="PRECFOCK"></i>
   <i type="logical" name="LSYMGRAD"> F  </i>
   <i type="logical" name="LHFONE"> F  </i>
   <i type="logical" name="LRHFCALC"> F  </i>
   <i type="logical" name="LTHOMAS"> F  </i>
   <i type="logical" name="LMODELHF"> F  </i>
   <i name="ENCUT4O">     -1.00000000</i>
   <i type="int" name="EXXOEP">     0</i>
   <i type="int" name="FOURORBIT">     0</i>
   <i name="AEXX">      0.00000000</i>
   <i name="HFALPHA">      0.00000000</i>
   <i name="MCALPHA">      0.00000000</i>
   <i name="ALDAX">      1.00000000</i>
   <i name="AGGAX">      1.00000000</i>
   <i name="ALDAC">      1.00000000</i>
   <i name="AGGAC">      1.00000000</i>
   <i type="int" name="NKREDX">     1</i>
   <i type="int" name="NKREDY">     1</i>
   <i type="int" name="NKREDZ">     1</i>
   <i type="logical" name="SHIFTRED"> F  </i>
   <i type="logical" name="ODDONLY"> F  </i>
   <i type="logical" name="EVENONLY"> F  </i>
   <i type="int" name="LMAXFOCK">     0</i>
   <i type="int" name="NMAXFOCKAE">     0</i>
   <i type="logical" name="LFOCKAEDFT"> F  </i>
   <i name="HFSCREEN">      0.00000000</i>
   <i name="HFSCREENC">      0.00000000</i>
   <i type="int" name="NBANDSGWLOW">     0</i>
  </separator>
  <separator name="vdW DFT" >
   <i type="logical" name="LUSE_VDW"> F  </i>
   <i name="Zab_VDW">     -0.84910000</i>
   <i name="PARAM1">      0.12340000</i>
   <i name="PARAM2">      1.00000000</i>
   <i name="PARAM3">      0.00000000</i>
  </separator>
  <separator name="model GW" >
   <i type="int" name="MODEL_GW">     0</i>
   <i name="MODEL_EPS0">      9.03529412</i>
   <i name="MODEL_ALPHA">      1.00000000</i>
  </separator>
  <separator name="linear response parameters" >
   <i type="logical" name="LEPSILON"> F  </i>
   <i type="logical" name="LRPA"> F  </i>
   <i type="logical" name="LNABLA"> F  </i>
   <i type="logical" name="LVEL"> F  </i>
   <i type="int" name="KINTER">     0</i>
   <i name="CSHIFT">      0.10000000</i>
   <i name="OMEGAMAX">     -1.00000000</i>
   <i name="DEG_THRESHOLD">      0.00200000</i>
  </separator>
  <separator name="orbital magnetization" >
   <i type="logical" name="NUCIND"> F  </i>
   <v name="MAGPOS">      0.00000000      0.00000000      0.00000000</v>
   <i type="logical" name="LNICSALL"> T  </i>
   <i type="logical" name="ORBITALMAG"> F  </i>
   <i type="logical" name="LMAGBLOCH"> F  </i>
   <i type="logical" name="LCHIMAG"> F  </i>
   <i type="logical" name="LGAUGE"> T  </i>
   <i type="int" name="MAGATOM">     0</i>
   <v name="MAGDIPOL">      0.00000000      0.00000000      0.00000000</v>
   <v name="AVECCONST">      0.00000000      0.00000000      0.00000000</v>
  </separator>
  <separator name="response functions" >
   <i type="logical" name="LADDER"> F  </i>
   <i type="logical" name="LFXC"> F  </i>
   <i type="logical" name="LHARTREE"> T  </i>
   <i type="int" name="IBSE">     0</i>
   <i type="logical" name="LTCTE"> F  </i>
   <i type="logical" name="LTETE"> F  </i>
   <i type="logical" name="LTRIPLET"> F  </i>
   <i type="logical" name="LFXCEPS"> F  </i>
   <i type="logical" name="LFXHEG"> F  </i>
   <i type="logical" name="L2ORDER"> F  </i>
   <i type="logical" name="LUSEW"> F  </i>
   <i name="ENCUTGW">     -2.00000000</i>
   <i name="ENCUTGWSOFT">     -2.00000000</i>
   <i name="ENCUTLF">     -1.00000000</i>
   <i type="int" name="LMAXMP2">    -1</i>
   <i name="SCISSOR">      0.00000000</i>
   <i type="int" name="NOMEGA">     0</i>
   <i type="int" name="NOMEGAR">     0</i>
   <i type="int" name="NBANDSGW">    -1</i>
   <i type="int" name="NBANDSO">    -1</i>
   <i type="int" name="NBANDSV">    -1</i>
   <i type="int" name="NELM">   100</i>
   <i type="int" name="DIM">     3</i>
   <i type="int" name="ANTIRES">     0</i>
   <i name="OMEGAMAX">    -30.00000000</i>
   <i name="OMEGAMIN">    -30.00000000</i>
   <i name="OMEGATL">   -200.00000000</i>
   <i type="int" name="OMEGAGRID">     0</i>
   <i name="CSHIFT">     -0.10000000</i>
   <i type="logical" name="SELFENERGY"> F  </i>
   <i type="logical" name="LSPECTRAL"> F  </i>
   <i type="logical" name="ODDONLYGW"> F  </i>
   <i type="logical" name="EVENONLYGW"> F  </i>
   <i type="int" name="NKREDLFX">     1</i>
   <i type="int" name="NKREDLFY">     1</i>
   <i type="int" name="NKREDLFZ">     1</i>
   <i type="int" name="MAXMEM">  1800</i>
   <i type="int" name="TELESCOPE">     0</i>
   <i type="int" name="TAUPAR">     1</i>
  </separator>
  <separator name="External order field" >
   <i name="OFIELD_KAPPA">      0.00000000</i>
   <v name="OFIELD_K">      0.00000000      0.00000000      0.00000000</v>
   <i name="OFIELD_Q6_NEAR">      0.00000000</i>
   <i name="OFIELD_Q6_FAR">      0.00000000</i>
   <i name="OFIELD_A">      0.00000000</i>
  </separator>
 </parameters>
 <atominfo>
  <atoms>      34 </atoms>
  <types>       3 </types>
  <array name="atoms" >
   <dimension dim="1">ion</dimension>
   <field type="string">element</field>
   <field type="int">atomtype</field>
   <set>
    <rc><c>Sr</c><c>   1</c></rc>
    <rc><c>Sr</c><c>   1</c></rc>
    <rc><c>Sr</c><c>   1</c></rc>
    <rc><c>Sr</c><c>   1</c></rc>
    <rc><c>Sr</c><c>   1</c></rc>
    <rc><c>Sr</c><c>   1</c></rc>
    <rc><c>Sr</c><c>   1</c></rc>
    <rc><c>Sr</c><c>   1</c></rc>
    <rc><c>Cu</c><c>   2</c></rc>
    <rc><c>Cu</c><c>   2</c></rc>
    <rc><c>Cu</c><c>   2</c></rc>
    <rc><c>Cu</c><c>   2</c></rc>
    <rc><c>Cu</c><c>   2</c></rc>
    <rc><c>Cu</c><c>   2</c></rc>
    <rc><c>Cu</c><c>   2</c></rc>
    <rc><c>Cu</c><c>   2</c></rc>
    <rc><c>O </c><c>   3</c></rc>
    <rc><c>O </c><c>   3</c></rc>
    <rc><c>O </c><c>   3</c></rc>
    <rc><c>O </c><c>   3</c></rc>
    <rc><c>O </c><c>   3</c></rc>
    <rc><c>O </c><c>   3</c></rc>
    <rc><c>O </c><c>   3</c></rc>
    <rc><c>O </c><c>   3</c></rc>
    <rc><c>O </c><c>   3</c></rc>
    <rc><c>O </c><c>   3</c></rc>
    <rc><c>O </c><c>   3</c></rc>
    <rc><c>O </c><c>   3</c></rc>
    <rc><c>O </c><c>   3</c></rc>
    <rc><c>O </c><c>   3</c></rc>
    <rc><c>O </c><c>   3</c></rc>
    <rc><c>O </c><c>   3</c></rc>
    <rc><c>O </c><c>   3</c></rc>
    <rc><c>O </c><c>   3</c></rc>
   </set>
  </array>
  <array name="atomtypes" >
   <dimension dim="1">type</dimension>
   <field type="int">atomspertype</field>
   <field type="string">element</field>
   <field>mass</field>
   <field>valence</field>
   <field type="string">pseudopotential</field>
   <set>
    <rc><c>   8</c><c>Sr</c><c>     87.62000000</c><c>     10.00000000</c><c>  PAW_PBE Sr_sv 07Sep2000               </c></rc>
    <rc><c>   8</c><c>Cu</c><c>     63.54600000</c><c>     11.00000000</c><c>  PAW_PBE Cu 22Jun2005                  </c></rc>
    <rc><c>  18</c><c>O </c><c>     16.00000000</c><c>      6.00000000</c><c>  PAW_PBE O_s 07Sep2000                 </c></rc>
   </set>
  </array>
 </atominfo>
 <structure name="initialpos" >
  <crystal>
   <varray name="basis" >
    <v>       8.00000000       0.00000000       0.00000000 </v>
    <v>       0.00000000       8.00000000       0.00000000 </v>
    <v>       0.00000000       0.00000000       8.00000000 </v>
   </varray>
   <i name="volume">    512.00000000 </i>
   <varray name="rec_basis" >
    <v>       0.12500000       0.00000000       0.00000000 </v>
    <v>       0.00000000       0.12500000       0.00000000 </v>
    <v>       0.00000000       0.00000000       0.12500000 </v>
   </varray>
  </crystal>
  <varray name="positions" >
   <v>       0.50000000       0.75000000       0.75000000 </v>
   <v>       0.50000000       0.75000000       0.25000000 </v>
   <v>       0.00000000       0.75000000       0.75000000 </v>
   <v>       0.00000000       0.75000000       0.25000000 </v>
   <v>       0.00000000       0.25000000       0.75000000 </v>
   <v>       0.00000000       0.25000000       0.25000000 </v>
   <v>       0.50000000       0.25000000       0.75000000 </v>
   <v>       0.50000000       0.25000000       0.25000000 </v>
   <v>       0.75000000       0.50000000       0.50000000 </v>
   <v>       0.75000000       0.50000000       0.00000000 </v>
   <v>       0.75000000       0.00000000       0.50000000 </v>
   <v>       0.75000000       0.00000000       0.00000000 </v>
   <v>       0.25000000       0.00000000       0.50000000 </v>
   <v>       0.25000000       0.00000000       0.00000000 </v>
   <v>       0.25000000       0.50000000       0.50000000 </v>
   <v>       0.25000000       0.50000000       0.00000000 </v>
   <v>       0.00000000       0.50000000       0.00000000 </v>
   <v>       0.00000000       0.00000000       0.50000000 </v>
   <v>       0.00000000       0.00000000       0.00000000 </v>
   <v>       0.25000000       0.75000000       0.50000000 </v>
   <v>       0.25000000       0.75000000       0.00000000 </v>
   <v>       0.75000000       0.75000000       0.50000000 </v>
   <v>       0.75000000       0.75000000       0.00000000 </v>
   <v>       0.75000000       0.50000000       0.25000000 </v>
   <v>       0.75000000       0.00000000       0.75000000 </v>
   <v>       0.50000000       0.00000000       0.00000000 </v>
   <v>       0.50000000       0.50000000       0.50000000 </v>
   <v>       0.50000000       0.50000000       0.00000000 </v>
   <v>       0.75000000       0.25000000       0.50000000 </v>
   <v>       0.75000000       0.25000000       0.00000000 </v>
   <v>       0.25000000       0.25000000       0.50000000 </v>
   <v>       0.25000000       0.25000000       0.00000000 </v>
   <v>       0.25000000       0.00000000       0.25000000 </v>
   <v>       0.25000000       0.50000000       0.75000000 </v>
  </varray>
 </structure>
 <calculation>
  <scstep>
   <time name="dav">    9.77    9.78</time>
   <time name="total">   10.08   10.09</time>
   <energy>
    <i name="alphaZ">   1271.29833366 </i>
    <i name="ewald"> -18248.32537161 </i>
    <i name="hartreedc">  -7624.07639431 </i>
    <i name="XCdc">   1142.42980058 </i>
    <i name="pawpsdc">  21065.97634094 </i>
    <i name="pawaedc"> -21731.86537179 </i>
    <i name="eentropy">     -0.01215553 </i>
    <i name="bandstr">   2103.00855901 </i>
    <i name="atom">  25654.75912617 </i>
    <i name="e_fr_energy">   3633.19286711 </i>
    <i name="e_wo_entrp">   3633.20502265 </i>
    <i name="e_0_energy">   3633.19894488 </i>
   </energy>
  </scstep>
  <scstep>
   <time name="dav">    9.93    9.93</time>
   <time name="total">    9.93    9.95</time>
   <energy>
    <i name="e_fr_energy">    412.57545306 </i>
    <i name="e_wo_entrp">    412.58483987 </i>
    <i name="e_0_energy">    412.58014647 </i>
   </energy>
  </scstep>
  <scstep>
   <time name="dav">    9.88    9.89</time>
   <time name="total">    9.88    9.90</time>
   <energy>
    <i name="e_fr_energy">   -157.30129926 </i>
    <i name="e_wo_entrp">   -157.27918449 </i>
    <i name="e_0_energy">   -157.29024188 </i>
   </energy>
  </scstep>
  <scstep>
   <time name="dav">   13.00   13.01</time>
   <time name="total">   13.01   13.03</time>
   <energy>
    <i name="e_fr_energy">   -209.82387965 </i>
    <i name="e_wo_entrp">   -209.78281006 </i>
    <i name="e_0_energy">   -209.80334485 </i>
   </energy>
  </scstep>
  <scstep>
   <time name="dav">   15.81   15.82</time>
   <time name="total">   16.39   16.42</time>
   <energy>
    <i name="e_fr_energy">   -212.99756025 </i>
    <i name="e_wo_entrp">   -212.95487802 </i>
    <i name="e_0_energy">   -212.97621913 </i>
   </energy>
  </scstep>
  <scstep>
   <time name="dav">   13.86   13.87</time>
   <time name="total">   14.74   14.76</time>
   <energy>
    <i name="e_fr_energy">   -196.65003982 </i>
    <i name="e_wo_entrp">   -196.61635345 </i>
    <i name="e_0_energy">   -196.63319664 </i>
   </energy>
  </scstep>
  <scstep>
   <time name="dav">   13.12   13.13</time>
   <time name="total">   13.99   14.01</time>
   <energy>
    <i name="e_fr_energy">   -170.49777227 </i>
    <i name="e_wo_entrp">   -170.47051191 </i>
    <i name="e_0_energy">   -170.48414209 </i>
   </energy>
  </scstep>
  <scstep>
   <time name="dav">   14.04   14.05</time>
   <time name="total">   14.93   14.95</time>
   <energy>
    <i name="e_fr_energy">   -171.47084736 </i>
    <i name="e_wo_entrp">   -171.45643055 </i>
    <i name="e_0_energy">   -171.46363895 </i>
   </energy>
  </scstep>
  <scstep>
   <time name="dav">   14.18   14.19</time>
   <time name="total">   15.06   15.08</time>
   <energy>
    <i name="e_fr_energy">   -170.34525230 </i>
    <i name="e_wo_entrp">   -170.32414868 </i>
    <i name="e_0_energy">   -170.33470049 </i>
   </energy>
  </scstep>
  <scstep>
   <time name="dav">   13.73   13.74</time>
   <time name="total">   14.60   14.63</time>
   <energy>
    <i name="e_fr_energy">   -168.85296852 </i>
    <i name="e_wo_entrp">   -168.83570522 </i>
    <i name="e_0_energy">   -168.84433687 </i>
   </energy>
  </scstep>
  <scstep>
   <time name="dav">   13.60   13.61</time>
   <time name="total">   14.48   14.50</time>
   <energy>
    <i name="e_fr_energy">   -168.10427298 </i>
    <i name="e_wo_entrp">   -168.07783065 </i>
    <i name="e_0_energy">   -168.09105181 </i>
   </energy>
  </scstep>
  <scstep>
   <time name="dav">   14.27   14.28</time>
   <time name="total">   15.14   15.17</time>
   <energy>
    <i name="e_fr_energy">   -168.14758598 </i>
    <i name="e_wo_entrp">   -168.12582669 </i>
    <i name="e_0_energy">   -168.13670634 </i>
   </energy>
  </scstep>
  <scstep>
   <time name="dav">   13.87   13.88</time>
   <time name="total">   14.75   14.77</time>
   <energy>
    <i name="e_fr_energy">   -168.15517735 </i>
    <i name="e_wo_entrp">   -168.13289179 </i>
    <i name="e_0_energy">   -168.14403457 </i>
   </energy>
  </scstep>
  <scstep>
   <time name="dav">   13.12   13.13</time>
   <time name="total">   14.00   14.02</time>
   <energy>
    <i name="e_fr_energy">   -168.16032804 </i>
    <i name="e_wo_entrp">   -168.13935502 </i>
    <i name="e_0_energy">   -168.14984153 </i>
   </energy>
  </scstep>
  <scstep>
   <time name="dav">   13.41   13.42</time>
   <time name="total">   14.28   14.31</time>
   <energy>
    <i name="e_fr_energy">   -168.15896678 </i>
    <i name="e_wo_entrp">   -168.13769982 </i>
    <i name="e_0_energy">   -168.14833330 </i>
   </energy>
  </scstep>
  <scstep>
   <time name="dav">   13.48   13.49</time>
   <time name="total">   14.36   14.38</time>
   <energy>
    <i name="e_fr_energy">   -168.16031789 </i>
    <i name="e_wo_entrp">   -168.13892012 </i>
    <i name="e_0_energy">   -168.14961901 </i>
   </energy>
  </scstep>
  <scstep>
   <time name="dav">   12.88   12.89</time>
   <time name="total">   13.76   13.78</time>
   <energy>
    <i name="e_fr_energy">   -168.16069412 </i>
    <i name="e_wo_entrp">   -168.13945968 </i>
    <i name="e_0_energy">   -168.15007690 </i>
   </energy>
  </scstep>
  <scstep>
   <time name="dav">   13.85   13.86</time>
   <time name="total">   14.73   14.75</time>
   <energy>
    <i name="e_fr_energy">   -168.16062420 </i>
    <i name="e_wo_entrp">   -168.13958791 </i>
    <i name="e_0_energy">   -168.15010606 </i>
   </energy>
  </scstep>
  <scstep>
   <time name="dav">   12.91   12.91</time>
   <time name="total">   13.78   13.81</time>
   <energy>
    <i name="e_fr_energy">   -168.16075880 </i>
    <i name="e_wo_entrp">   -168.13972683 </i>
    <i name="e_0_energy">   -168.15024281 </i>
   </energy>
  </scstep>
  <scstep>
   <time name="dav">   13.04   13.05</time>
   <time name="total">   13.92   13.94</time>
   <energy>
    <i name="e_fr_energy">   -168.16079675 </i>
    <i name="e_wo_entrp">   -168.13979406 </i>
    <i name="e_0_energy">   -168.15029540 </i>
   </energy>
  </scstep>
  <scstep>
   <time name="dav">   13.45   13.46</time>
   <time name="total">   14.33   14.35</time>
   <energy>
    <i name="e_fr_energy">   -168.16080833 </i>
    <i name="e_wo_entrp">   -168.13982102 </i>
    <i name="e_0_energy">   -168.15031468 </i>
   </energy>
  </scstep>
  <scstep>
   <time name="dav">   12.68   12.69</time>
   <time name="total">   13.56   13.58</time>
   <energy>
    <i name="e_fr_energy">   -168.16081411 </i>
    <i name="e_wo_entrp">   -168.13983720 </i>
    <i name="e_0_energy">   -168.15032566 </i>
   </energy>
  </scstep>
  <scstep>
   <time name="dav">   10.46   10.47</time>
   <time name="total">   11.34   11.36</time>
   <energy>
    <i name="e_fr_energy">   -168.16081611 </i>
    <i name="e_wo_entrp">   -168.13983351 </i>
    <i name="e_0_energy">   -168.15032481 </i>
   </energy>
  </scstep>
  <scstep>
   <time name="dav">    7.86    7.86</time>
   <time name="total">    8.74    8.76</time>
   <energy>
    <i name="e_fr_energy">   -168.16081721 </i>
    <i name="e_wo_entrp">   -168.13982943 </i>
    <i name="e_0_energy">   -168.15032332 </i>
   </energy>
  </scstep>
  <scstep>
   <time name="dav">    7.38    7.38</time>
   <time name="total">    7.67    7.70</time>
   <energy>
    <i name="alphaZ">   1271.29833366 </i>
    <i name="ewald"> -18248.32537161 </i>
    <i name="hartreedc">  -7616.40071902 </i>
    <i name="XCdc">   1142.92960978 </i>
    <i name="pawpsdc">  32607.36947682 </i>
    <i name="pawaedc"> -33349.68721693 </i>
    <i name="eentropy">     -0.02099357 </i>
    <i name="bandstr">  -1630.08306341 </i>
    <i name="atom">  25654.75912617 </i>
    <i name="e_fr_energy">   -168.16081811 </i>
    <i name="e_wo_entrp">   -168.13982454 </i>
    <i name="e_0_energy">   -168.15032133 </i>
   </energy>
  </scstep>
  <structure>
   <crystal>
    <varray name="basis" >
     <v>       8.00000000       0.00000000       0.00000000 </v>
     <v>       0.00000000       8.00000000       0.00000000 </v>
     <v>       0.00000000       0.00000000       8.00000000 </v>
    </varray>
    <i name="volume">    512.00000000 </i>
    <varray name="rec_basis" >
     <v>       0.12500000       0.00000000       0.00000000 </v>
     <v>       0.00000000       0.12500000       0.00000000 </v>
     <v>       0.00000000       0.00000000       0.12500000 </v>
    </varray>
   </crystal>
   <varray name="positions" >
    <v>       0.50000000       0.75000000       0.75000000 </v>
    <v>       0.50000000       0.75000000       0.25000000 </v>
    <v>       0.00000000       0.75000000       0.75000000 </v>
    <v>       0.00000000       0.75000000       0.25000000 </v>
    <v>       0.00000000       0.25000000       0.75000000 </v>
    <v>       0.00000000       0.25000000       0.25000000 </v>
    <v>       0.50000000       0.25000000       0.75000000 </v>
    <v>       0.50000000       0.25000000       0.25000000 </v>
    <v>       0.75000000       0.50000000       0.50000000 </v>
    <v>       0.75000000       0.50000000       0.00000000 </v>
    <v>       0.75000000       0.00000000       0.50000000 </v>
    <v>       0.75000000       0.00000000       0.00000000 </v>
    <v>       0.25000000       0.00000000       0.50000000 </v>
    <v>       0.25000000       0.00000000       0.00000000 </v>
    <v>       0.25000000       0.50000000       0.50000000 </v>
    <v>       0.25000000       0.50000000       0.00000000 </v>
    <v>       0.00000000       0.50000000       0.00000000 </v>
    <v>       0.00000000       0.00000000       0.50000000 </v>
    <v>       0.00000000       0.00000000       0.00000000 </v>
    <v>       0.25000000       0.75000000       0.50000000 </v>
    <v>       0.25000000       0.75000000       0.00000000 </v>
    <v>       0.75000000       0.75000000       0.50000000 </v>
    <v>       0.75000000       0.75000000       0.00000000 </v>
    <v>       0.75000000       0.50000000       0.25000000 </v>
    <v>       0.75000000       0.00000000       0.75000000 </v>
    <v>       0.50000000       0.00000000       0.00000000 </v>
    <v>       0.50000000       0.50000000       0.50000000 </v>
    <v>       0.50000000       0.50000000       0.00000000 </v>
    <v>       0.75000000       0.25000000       0.50000000 </v>
    <v>       0.75000000       0.25000000       0.00000000 </v>
    <v>       0.25000000       0.25000000       0.50000000 </v>
    <v>       0.25000000       0.25000000       0.00000000 </v>
    <v>       0.25000000       0.00000000       0.25000000 </v>
    <v>       0.25000000       0.50000000       0.75000000 </v>
   </varray>
  </structure>
  <varray name="forces" >
   <v>       0.01122864      -0.65786080       0.79427776 </v>
   <v>      -0.01122864      -0.65786080      -0.79427776 </v>
   <v>       0.01122864       0.65786080       0.79427776 </v>
   <v>      -0.01122864       0.65786080      -0.79427776 </v>
   <v>       0.01122864      -0.65786080       0.79427776 </v>
   <v>      -0.01122864      -0.65786080      -0.79427776 </v>
   <v>       0.01122864       0.65786080       0.79427776 </v>
   <v>      -0.01122864       0.65786080      -0.79427776 </v>
   <v>      -1.27160644       0.00000000      -1.45078373 </v>
   <v>       0.04110696       0.00000000       1.34432672 </v>
   <v>       1.27160644       0.00000000       1.45078373 </v>
   <v>      -0.04110696       0.00000000      -1.34432672 </v>
   <v>      -1.27160644       0.00000000      -1.45078373 </v>
   <v>       0.04110696       0.00000000       1.34432672 </v>
   <v>       1.27160644       0.00000000       1.45078373 </v>
   <v>      -0.04110696       0.00000000      -1.34432672 </v>
   <v>       0.00000000       0.00000000       0.00000000 </v>
   <v>       0.00000000       0.00000000       0.00000000 </v>
   <v>       0.00000000       0.00000000       0.00000000 </v>
   <v>       0.00000000       0.00000000       0.00000000 </v>
   <v>       0.00000000       0.00000000       0.00000000 </v>
   <v>       0.00000000       0.00000000       0.00000000 </v>
   <v>       0.00000000       0.00000000       0.00000000 </v>
   <v>       0.58064660       0.00000000       0.62966999 </v>
   <v>      -0.58064660       0.00000000      -0.62966999 </v>
   <v>       0.00000000       0.00000000       0.00000000 </v>
   <v>       0.00000000       0.00000000       0.00000000 </v>
   <v>       0.00000000       0.00000000       0.00000000 </v>
   <v>       0.00000000       0.00000000       0.00000000 </v>
   <v>       0.00000000       0.00000000       0.00000000 </v>
   <v>       0.00000000       0.00000000       0.00000000 </v>
   <v>       0.00000000       0.00000000       0.00000000 </v>
   <v>       0.58064660       0.00000000       0.62966999 </v>
   <v>      -0.58064660       0.00000000      -0.62966999 </v>
  </varray>
  <varray name="stress" >
   <v>     -80.70833074       0.00000000     -14.25457799 </v>
   <v>       0.00000000     -89.62839700       0.00000000 </v>
   <v>     -14.25457747       0.00000000     -94.48694918 </v>
  </varray>
  <energy>
   <i name="e_fr_energy">   -168.16081811 </i>
   <i name="e_wo_entrp">   -168.15032133 </i>
   <i name="e_0_energy">     -0.02099357 </i>
  </energy>
  <time name="totalsc">  345.31  345.96</time>
  <eigenvalues>
   <array>
    <dimension dim="1">band</dimension>
    <dimension dim="2">kpoint</dimension>
    <dimension dim="3">spin</dimension>
    <field>eigene</field>
    <field>occ</field>
    <set>
     <set comment="spin 1">
      <set comment="kpoint 1">
       <r>  -31.0723    1.0000 </r>
       <r>  -31.0583    1.0000 </r>
       <r>  -31.0582    1.0000 </r>
       <r>  -31.0581    1.0000 </r>
       <r>  -31.0454    1.0000 </r>
       <r>  -31.0453    1.0000 </r>
       <r>  -31.0452    1.0000 </r>
       <r>  -31.0333    1.0000 </r>
       <r>  -14.9583    1.0000 </r>
       <r>  -14.8886    1.0000 </r>
       <r>  -14.7665    1.0000 </r>
       <r>  -14.6902    1.0000 </r>
       <r>  -14.4277    1.0000 </r>
       <r>  -14.4120    1.0000 </r>
       <r>  -14.2217    1.0000 </r>
       <r>  -14.1906    1.0000 </r>
       <r>  -14.1425    1.0000 </r>
       <r>  -13.9722    1.0000 </r>
       <r>  -13.9508    1.0000 </r>
       <r>  -13.9183    1.0000 </r>
       <r>  -13.9051    1.0000 </r>
       <r>  -13.8819    1.0000 </r>
       <r>  -13.8534    1.0000 </r>
       <r>  -13.7856    1.0000 </r>
       <r>  -13.6923    1.0000 </r>
       <r>  -13.4619    1.0000 </r>
       <r>  -13.2984    1.0000 </r>
       <r>  -13.2615    1.0000 </r>
       <r>  -13.1312    1.0000 </r>
       <r>  -13.1285    1.0000 </r>
       <r>  -13.1234    1.0000 </r>
       <r>  -13.0777    1.0000 </r>
       <r>  -13.0721    1.0000 </r>
       <r>  -13.0182    1.0000 </r>
       <r>  -13.0055    1.0000 </r>
       <r>  -12.9822    1.0000 </r>
       <r>  -12.9683    1.0000 </r>
       <r>  -12.9273    1.0000 </r>
       <r>  -12.9227    1.0000 </r>
       <r>  -12.8912    1.0000 </r>
       <r>  -12.8586    1.0000 </r>
       <r>  -12.8563    1.0000 </r>
       <r>  -12.8443    1.0000 </r>
       <r>  -12.7337    1.0000 </r>
       <r>  -12.6605    1.0000 </r>
       <r>  -12.5527    1.0000 </r>
       <r>  -12.5217    1.0000 </r>
       <r>  -12.4257    1.0000 </r>
       <r>  -12.4094    1.0000 </r>
       <r>  -12.4011    1.0000 </r>
       <r>   -3.0696    1.0000 </r>
       <r>   -2.9199    1.0000 </r>
       <r>   -2.8181    1.0000 </r>
       <r>   -2.6650    1.0000 </r>
       <r>   -2.6208    1.0000 </r>
       <r>   -2.3798    1.0000 </r>
       <r>   -2.1335    1.0000 </r>
       <r>   -2.1238    1.0000 </r>
       <r>   -2.0660    1.0000 </r>
       <r>   -2.0551    1.0000 </r>
       <r>   -2.0455    1.0000 </r>
       <r>   -2.0152    1.0000 </r>
       <r>   -2.0035    1.0000 </r>
       <r>   -1.9627    1.0000 </r>
       <r>   -1.8089    1.0000 </r>
       <r>   -1.6877    1.0000 </r>
       <r>   -1.5874    1.0000 </r>
       <r>   -1.5387    1.0000 </r>
       <r>   -1.3685    1.0000 </r>
       <r>   -1.3439    1.0000 </r>
       <r>   -1.3382    1.0000 </r>
       <r>   -1.2151    1.0000 </r>
       <r>   -1.1870    1.0000 </r>
       <r>   -1.1351    1.0000 </r>
       <r>   -1.0905    1.0000 </r>
       <r>   -1.0556    1.0000 </r>
       <r>   -1.0193    1.0000 </r>
       <r>   -0.9701    1.0000 </r>
       <r>   -0.9544    1.0000 </r>
       <r>   -0.9262    1.0000 </r>
       <r>   -0.8386    1.0000 </r>
       <r>   -0.7959    1.0000 </r>
       <r>   -0.7656    1.0000 </r>
       <r>   -0.7443    1.0000 </r>
       <r>   -0.6783    1.0000 </r>
       <r>   -0.6349    1.0000 </r>
       <r>   -0.6341    1.0000 </r>
       <r>   -0.6262    1.0000 </r>
       <r>   -0.6015    1.0000 </r>
       <r>   -0.6011    1.0000 </r>
       <r>   -0.5521    1.0000 </r>
       <r>   -0.4393    1.0000 </r>
       <r>   -0.3529    1.0000 </r>
       <r>   -0.3035    1.0000 </r>
       <r>   -0.2021    1.0000 </r>
       <r>   -0.1605    1.0000 </r>
       <r>   -0.1545    1.0000 </r>
       <r>    0.0177    1.0000 </r>
       <r>    0.2537    1.0000 </r>
       <r>    0.2684    1.0000 </r>
       <r>    0.3231    1.0000 </r>
       <r>    0.4546    1.0000 </r>
       <r>    0.5623    1.0000 </r>
       <r>    0.6445    1.0000 </r>
       <r>    0.7568    1.0000 </r>
       <r>    0.7684    1.0000 </r>
       <r>    0.9569    1.0000 </r>
       <r>    0.9748    1.0000 </r>
       <r>    0.9846    1.0000 </r>
       <r>    1.0363    1.0000 </r>
       <r>    1.0577    1.0000 </r>
       <r>    1.0921    1.0000 </r>
       <r>    1.1520    1.0000 </r>
       <r>    1.2021    1.0000 </r>
       <r>    1.2447    1.0000 </r>
       <r>    1.2598    1.0000 </r>
       <r>    1.3770    1.0000 </r>
       <r>    1.4190    1.0000 </r>
       <r>    1.4250    1.0000 </r>
       <r>    1.4461    1.0000 </r>
       <r>    1.4588    1.0000 </r>
       <r>    1.5190    1.0000 </r>
       <r>    1.5416    1.0000 </r>
       <r>    1.5562    1.0000 </r>
       <r>    1.5602    1.0000 </r>
       <r>    1.6031    1.0000 </r>
       <r>    1.7066    1.0000 </r>
       <r>    1.7793    1.0000 </r>
       <r>    1.8264    1.0000 </r>
       <r>    1.8520    1.0000 </r>
       <r>    1.8520    1.0000 </r>
       <r>    1.8716    1.0000 </r>
       <r>    1.9411    1.0000 </r>
       <r>    2.0394    1.0000 </r>
       <r>    2.0500    1.0000 </r>
       <r>    2.1012    1.0000 </r>
       <r>    2.1442    1.0000 </r>
       <r>    2.3261    1.0000 </r>
       <r>    2.6499    0.7805 </r>
       <r>    2.8871    0.0000 </r>
       <r>    2.9282    0.0000 </r>
       <r>    2.9471    0.0000 </r>
       <r>    3.2648    0.0000 </r>
       <r>    3.4553    0.0000 </r>
       <r>    4.4193    0.0000 </r>
       <r>    5.0705    0.0000 </r>
       <r>    5.2767    0.0000 </r>
       <r>    5.5397    0.0000 </r>
       <r>    5.7937    0.0000 </r>
       <r>    6.8784    0.0000 </r>
       <r>    7.1944    0.0000 </r>
       <r>    7.4739    0.0000 </r>
       <r>    7.6875    0.0000 </r>
       <r>    7.7433    0.0000 </r>
       <r>    7.8809    0.0000 </r>
       <r>    8.1034    0.0000 </r>
       <r>    8.2914    0.0000 </r>
       <r>    8.3615    0.0000 </r>
       <r>    8.3739    0.0000 </r>
       <r>    8.4534    0.0000 </r>
       <r>    8.6519    0.0000 </r>
       <r>    8.9158    0.0000 </r>
       <r>    9.2425    0.0000 </r>
       <r>    9.2710    0.0000 </r>
       <r>    9.3160    0.0000 </r>
       <r>    9.4808    0.0000 </r>
       <r>    9.8441    0.0000 </r>
       <r>    9.8819    0.0000 </r>
       <r>    9.8860    0.0000 </r>
       <r>    9.9639    0.0000 </r>
       <r>   10.0020    0.0000 </r>
       <r>   10.0304    0.0000 </r>
       <r>   10.0446    0.0000 </r>
       <r>   10.1292    0.0000 </r>
       <r>   10.2228    0.0000 </r>
       <r>   10.2600    0.0000 </r>
       <r>   10.3878    0.0000 </r>
       <r>   10.4206    0.0000 </r>
       <r>   10.5402    0.0000 </r>
       <r>   10.5676    0.0000 </r>
       <r>   10.5845    0.0000 </r>
       <r>   10.6454    0.0000 </r>
       <r>   10.8329    0.0000 </r>
       <r>   10.9290    0.0000 </r>
      </set>
      <set comment="kpoint 2">
       <r>  -31.0688    1.0000 </r>
       <r>  -31.0617    1.0000 </r>
       <r>  -31.0550    1.0000 </r>
       <r>  -31.0549    1.0000 </r>
       <r>  -31.0486    1.0000 </r>
       <r>  -31.0484    1.0000 </r>
       <r>  -31.0423    1.0000 </r>
       <r>  -31.0363    1.0000 </r>
       <r>  -14.8729    1.0000 </r>
       <r>  -14.8456    1.0000 </r>
       <r>  -14.7169    1.0000 </r>
       <r>  -14.6927    1.0000 </r>
       <r>  -14.4973    1.0000 </r>
       <r>  -14.3821    1.0000 </r>
       <r>  -14.3623    1.0000 </r>
       <r>  -14.3548    1.0000 </r>
       <r>  -13.9977    1.0000 </r>
       <r>  -13.9912    1.0000 </r>
       <r>  -13.9838    1.0000 </r>
       <r>  -13.9349    1.0000 </r>
       <r>  -13.8905    1.0000 </r>
       <r>  -13.8883    1.0000 </r>
       <r>  -13.8591    1.0000 </r>
       <r>  -13.7989    1.0000 </r>
       <r>  -13.7467    1.0000 </r>
       <r>  -13.5602    1.0000 </r>
       <r>  -13.2182    1.0000 </r>
       <r>  -13.1949    1.0000 </r>
       <r>  -13.1532    1.0000 </r>
       <r>  -13.0903    1.0000 </r>
       <r>  -13.0730    1.0000 </r>
       <r>  -13.0666    1.0000 </r>
       <r>  -13.0521    1.0000 </r>
       <r>  -13.0121    1.0000 </r>
       <r>  -12.9905    1.0000 </r>
       <r>  -12.9266    1.0000 </r>
       <r>  -12.9042    1.0000 </r>
       <r>  -12.9037    1.0000 </r>
       <r>  -12.9005    1.0000 </r>
       <r>  -12.8905    1.0000 </r>
       <r>  -12.8647    1.0000 </r>
       <r>  -12.7880    1.0000 </r>
       <r>  -12.7759    1.0000 </r>
       <r>  -12.6957    1.0000 </r>
       <r>  -12.6627    1.0000 </r>
       <r>  -12.6321    1.0000 </r>
       <r>  -12.6245    1.0000 </r>
       <r>  -12.5068    1.0000 </r>
       <r>  -12.4607    1.0000 </r>
       <r>  -12.4435    1.0000 </r>
       <r>   -2.9120    1.0000 </r>
       <r>   -2.8528    1.0000 </r>
       <r>   -2.8285    1.0000 </r>
       <r>   -2.6517    1.0000 </r>
       <r>   -2.3445    1.0000 </r>
       <r>   -2.2100    1.0000 </r>
       <r>   -2.1190    1.0000 </r>
       <r>   -2.0947    1.0000 </r>
       <r>   -2.0549    1.0000 </r>
       <r>   -2.0469    1.0000 </r>
       <r>   -2.0187    1.0000 </r>
       <r>   -2.0140    1.0000 </r>
       <r>   -1.9500    1.0000 </r>
       <r>   -1.8622    1.0000 </r>
       <r>   -1.6970    1.0000 </r>
       <r>   -1.6803    1.0000 </r>
       <r>   -1.6089    1.0000 </r>
       <r>   -1.5486    1.0000 </r>
       <r>   -1.5469    1.0000 </r>
       <r>   -1.4301    1.0000 </r>
       <r>   -1.4026    1.0000 </r>
       <r>   -1.3394    1.0000 </r>
       <r>   -1.3112    1.0000 </r>
       <r>   -1.3014    1.0000 </r>
       <r>   -1.2703    1.0000 </r>
       <r>   -1.2265    1.0000 </r>
       <r>   -1.2259    1.0000 </r>
       <r>   -1.0734    1.0000 </r>
       <r>   -1.0251    1.0000 </r>
       <r>   -0.9851    1.0000 </r>
       <r>   -0.9764    1.0000 </r>
       <r>   -0.9644    1.0000 </r>
       <r>   -0.8524    1.0000 </r>
       <r>   -0.7764    1.0000 </r>
       <r>   -0.6678    1.0000 </r>
       <r>   -0.6494    1.0000 </r>
       <r>   -0.6327    1.0000 </r>
       <r>   -0.6291    1.0000 </r>
       <r>   -0.6112    1.0000 </r>
       <r>   -0.5948    1.0000 </r>
       <r>   -0.4856    1.0000 </r>
       <r>   -0.4548    1.0000 </r>
       <r>   -0.3081    1.0000 </r>
       <r>   -0.2849    1.0000 </r>
       <r>   -0.2272    1.0000 </r>
       <r>   -0.1619    1.0000 </r>
       <r>   -0.0836    1.0000 </r>
       <r>    0.1409    1.0000 </r>
       <r>    0.2003    1.0000 </r>
       <r>    0.3725    1.0000 </r>
       <r>    0.4786    1.0000 </r>
       <r>    0.4898    1.0000 </r>
       <r>    0.6231    1.0000 </r>
       <r>    0.7387    1.0000 </r>
       <r>    0.7916    1.0000 </r>
       <r>    0.8737    1.0000 </r>
       <r>    0.9059    1.0000 </r>
       <r>    0.9272    1.0000 </r>
       <r>    0.9797    1.0000 </r>
       <r>    1.0297    1.0000 </r>
       <r>    1.0693    1.0000 </r>
       <r>    1.1776    1.0000 </r>
       <r>    1.2096    1.0000 </r>
       <r>    1.2309    1.0000 </r>
       <r>    1.2919    1.0000 </r>
       <r>    1.3446    1.0000 </r>
       <r>    1.3453    1.0000 </r>
       <r>    1.3665    1.0000 </r>
       <r>    1.4045    1.0000 </r>
       <r>    1.4257    1.0000 </r>
       <r>    1.5097    1.0000 </r>
       <r>    1.5159    1.0000 </r>
       <r>    1.5256    1.0000 </r>
       <r>    1.5946    1.0000 </r>
       <r>    1.6098    1.0000 </r>
       <r>    1.6693    1.0000 </r>
       <r>    1.6999    1.0000 </r>
       <r>    1.7356    1.0000 </r>
       <r>    1.7485    1.0000 </r>
       <r>    1.8285    1.0000 </r>
       <r>    1.8652    1.0000 </r>
       <r>    1.9710    1.0000 </r>
       <r>    2.0055    1.0000 </r>
       <r>    2.0571    1.0000 </r>
       <r>    2.1269    1.0000 </r>
       <r>    2.1897    1.0000 </r>
       <r>    2.2795    1.0000 </r>
       <r>    2.4263    1.0000 </r>
       <r>    2.6018    0.9836 </r>
       <r>    2.6667    0.6174 </r>
       <r>    2.7404    0.0370 </r>
       <r>    3.2795    0.0000 </r>
       <r>    3.3607    0.0000 </r>
       <r>    3.3912    0.0000 </r>
       <r>    3.9964    0.0000 </r>
       <r>    4.3345    0.0000 </r>
       <r>    5.4673    0.0000 </r>
       <r>    5.8311    0.0000 </r>
       <r>    5.9013    0.0000 </r>
       <r>    6.6167    0.0000 </r>
       <r>    7.4073    0.0000 </r>
       <r>    7.6497    0.0000 </r>
       <r>    7.6642    0.0000 </r>
       <r>    8.1792    0.0000 </r>
       <r>    8.2579    0.0000 </r>
       <r>    8.3120    0.0000 </r>
       <r>    8.3615    0.0000 </r>
       <r>    8.5337    0.0000 </r>
       <r>    8.5773    0.0000 </r>
       <r>    8.7630    0.0000 </r>
       <r>    8.7653    0.0000 </r>
       <r>    8.9676    0.0000 </r>
       <r>    8.9796    0.0000 </r>
       <r>    8.9886    0.0000 </r>
       <r>    9.4371    0.0000 </r>
       <r>    9.4525    0.0000 </r>
       <r>    9.5521    0.0000 </r>
       <r>    9.6170    0.0000 </r>
       <r>    9.9170    0.0000 </r>
       <r>    9.9389    0.0000 </r>
       <r>    9.9734    0.0000 </r>
       <r>   10.0101    0.0000 </r>
       <r>   10.0708    0.0000 </r>
       <r>   10.1289    0.0000 </r>
       <r>   10.2424    0.0000 </r>
       <r>   10.2860    0.0000 </r>
       <r>   10.3403    0.0000 </r>
       <r>   10.3600    0.0000 </r>
       <r>   10.4141    0.0000 </r>
       <r>   10.4600    0.0000 </r>
       <r>   10.5203    0.0000 </r>
       <r>   10.5302    0.0000 </r>
       <r>   10.5839    0.0000 </r>
       <r>   10.6019    0.0000 </r>
      </set>
      <set comment="kpoint 3">
       <r>  -31.0688    1.0000 </r>
       <r>  -31.0618    1.0000 </r>
       <r>  -31.0549    1.0000 </r>
       <r>  -31.0549    1.0000 </r>
       <r>  -31.0485    1.0000 </r>
       <r>  -31.0484    1.0000 </r>
       <r>  -31.0424    1.0000 </r>
       <r>  -31.0363    1.0000 </r>
       <r>  -14.8627    1.0000 </r>
       <r>  -14.7980    1.0000 </r>
       <r>  -14.7263    1.0000 </r>
       <r>  -14.6874    1.0000 </r>
       <r>  -14.6181    1.0000 </r>
       <r>  -14.5778    1.0000 </r>
       <r>  -14.1344    1.0000 </r>
       <r>  -14.1170    1.0000 </r>
       <r>  -14.0908    1.0000 </r>
       <r>  -14.0030    1.0000 </r>
       <r>  -13.9883    1.0000 </r>
       <r>  -13.9176    1.0000 </r>
       <r>  -13.9166    1.0000 </r>
       <r>  -13.8856    1.0000 </r>
       <r>  -13.8478    1.0000 </r>
       <r>  -13.8100    1.0000 </r>
       <r>  -13.7636    1.0000 </r>
       <r>  -13.5789    1.0000 </r>
       <r>  -13.2523    1.0000 </r>
       <r>  -13.2159    1.0000 </r>
       <r>  -13.1685    1.0000 </r>
       <r>  -13.1678    1.0000 </r>
       <r>  -13.0455    1.0000 </r>
       <r>  -13.0370    1.0000 </r>
       <r>  -13.0349    1.0000 </r>
       <r>  -13.0188    1.0000 </r>
       <r>  -12.9652    1.0000 </r>
       <r>  -12.9562    1.0000 </r>
       <r>  -12.9333    1.0000 </r>
       <r>  -12.9130    1.0000 </r>
       <r>  -12.8816    1.0000 </r>
       <r>  -12.8727    1.0000 </r>
       <r>  -12.8642    1.0000 </r>
       <r>  -12.8524    1.0000 </r>
       <r>  -12.7861    1.0000 </r>
       <r>  -12.7356    1.0000 </r>
       <r>  -12.7172    1.0000 </r>
       <r>  -12.5336    1.0000 </r>
       <r>  -12.5260    1.0000 </r>
       <r>  -12.5048    1.0000 </r>
       <r>  -12.4596    1.0000 </r>
       <r>  -12.4448    1.0000 </r>
       <r>   -2.8550    1.0000 </r>
       <r>   -2.6906    1.0000 </r>
       <r>   -2.5636    1.0000 </r>
       <r>   -2.4703    1.0000 </r>
       <r>   -2.3010    1.0000 </r>
       <r>   -2.1922    1.0000 </r>
       <r>   -2.1591    1.0000 </r>
       <r>   -2.0436    1.0000 </r>
       <r>   -2.0386    1.0000 </r>
       <r>   -2.0275    1.0000 </r>
       <r>   -2.0267    1.0000 </r>
       <r>   -2.0249    1.0000 </r>
       <r>   -1.9604    1.0000 </r>
       <r>   -1.8129    1.0000 </r>
       <r>   -1.7361    1.0000 </r>
       <r>   -1.6376    1.0000 </r>
       <r>   -1.5972    1.0000 </r>
       <r>   -1.5693    1.0000 </r>
       <r>   -1.5439    1.0000 </r>
       <r>   -1.4414    1.0000 </r>
       <r>   -1.4280    1.0000 </r>
       <r>   -1.3831    1.0000 </r>
       <r>   -1.3769    1.0000 </r>
       <r>   -1.2854    1.0000 </r>
       <r>   -1.2700    1.0000 </r>
       <r>   -1.2525    1.0000 </r>
       <r>   -1.2177    1.0000 </r>
       <r>   -1.1972    1.0000 </r>
       <r>   -1.1126    1.0000 </r>
       <r>   -1.0895    1.0000 </r>
       <r>   -1.0773    1.0000 </r>
       <r>   -1.0457    1.0000 </r>
       <r>   -1.0422    1.0000 </r>
       <r>   -1.0376    1.0000 </r>
       <r>   -0.9930    1.0000 </r>
       <r>   -0.8799    1.0000 </r>
       <r>   -0.8272    1.0000 </r>
       <r>   -0.7938    1.0000 </r>
       <r>   -0.6005    1.0000 </r>
       <r>   -0.5997    1.0000 </r>
       <r>   -0.5554    1.0000 </r>
       <r>   -0.4005    1.0000 </r>
       <r>   -0.3531    1.0000 </r>
       <r>   -0.3186    1.0000 </r>
       <r>   -0.2898    1.0000 </r>
       <r>   -0.1050    1.0000 </r>
       <r>    0.0323    1.0000 </r>
       <r>    0.1550    1.0000 </r>
       <r>    0.5458    1.0000 </r>
       <r>    0.5685    1.0000 </r>
       <r>    0.6355    1.0000 </r>
       <r>    0.6383    1.0000 </r>
       <r>    0.6499    1.0000 </r>
       <r>    0.8111    1.0000 </r>
       <r>    0.8182    1.0000 </r>
       <r>    0.8433    1.0000 </r>
       <r>    0.8742    1.0000 </r>
       <r>    0.9194    1.0000 </r>
       <r>    1.0139    1.0000 </r>
       <r>    1.0721    1.0000 </r>
       <r>    1.0902    1.0000 </r>
       <r>    1.1423    1.0000 </r>
       <r>    1.1918    1.0000 </r>
       <r>    1.2325    1.0000 </r>
       <r>    1.2656    1.0000 </r>
       <r>    1.2929    1.0000 </r>
       <r>    1.3679    1.0000 </r>
       <r>    1.3720    1.0000 </r>
       <r>    1.3964    1.0000 </r>
       <r>    1.3974    1.0000 </r>
       <r>    1.4063    1.0000 </r>
       <r>    1.5033    1.0000 </r>
       <r>    1.5356    1.0000 </r>
       <r>    1.6028    1.0000 </r>
       <r>    1.6534    1.0000 </r>
       <r>    1.6676    1.0000 </r>
       <r>    1.7642    1.0000 </r>
       <r>    1.8063    1.0000 </r>
       <r>    1.8084    1.0000 </r>
       <r>    1.8740    1.0000 </r>
       <r>    1.9043    1.0000 </r>
       <r>    1.9576    1.0000 </r>
       <r>    2.0048    1.0000 </r>
       <r>    2.0168    1.0000 </r>
       <r>    2.0444    1.0000 </r>
       <r>    2.2671    1.0000 </r>
       <r>    2.3960    1.0000 </r>
       <r>    2.4156    1.0000 </r>
       <r>    2.5477    0.9999 </r>
       <r>    2.8782    0.0000 </r>
       <r>    3.0435    0.0000 </r>
       <r>    3.1708    0.0000 </r>
       <r>    3.1739    0.0000 </r>
       <r>    3.6562    0.0000 </r>
       <r>    3.9968    0.0000 </r>
       <r>    4.9518    0.0000 </r>
       <r>    5.3871    0.0000 </r>
       <r>    5.4654    0.0000 </r>
       <r>    5.7261    0.0000 </r>
       <r>    6.0630    0.0000 </r>
       <r>    7.7017    0.0000 </r>
       <r>    7.7605    0.0000 </r>
       <r>    7.8283    0.0000 </r>
       <r>    8.0188    0.0000 </r>
       <r>    8.0556    0.0000 </r>
       <r>    8.1378    0.0000 </r>
       <r>    8.2108    0.0000 </r>
       <r>    8.4590    0.0000 </r>
       <r>    8.6282    0.0000 </r>
       <r>    8.7134    0.0000 </r>
       <r>    8.8162    0.0000 </r>
       <r>    8.8909    0.0000 </r>
       <r>    9.0977    0.0000 </r>
       <r>    9.2296    0.0000 </r>
       <r>    9.3203    0.0000 </r>
       <r>    9.3462    0.0000 </r>
       <r>    9.3924    0.0000 </r>
       <r>    9.4235    0.0000 </r>
       <r>    9.5603    0.0000 </r>
       <r>    9.9406    0.0000 </r>
       <r>    9.9538    0.0000 </r>
       <r>    9.9685    0.0000 </r>
       <r>   10.0978    0.0000 </r>
       <r>   10.2013    0.0000 </r>
       <r>   10.2205    0.0000 </r>
       <r>   10.2714    0.0000 </r>
       <r>   10.2826    0.0000 </r>
       <r>   10.3077    0.0000 </r>
       <r>   10.4218    0.0000 </r>
       <r>   10.4309    0.0000 </r>
       <r>   10.5868    0.0000 </r>
       <r>   10.6422    0.0000 </r>
       <r>   10.6530    0.0000 </r>
       <r>   10.6690    0.0000 </r>
      </set>
      <set comment="kpoint 4">
       <r>  -31.0653    1.0000 </r>
       <r>  -31.0585    1.0000 </r>
       <r>  -31.0584    1.0000 </r>
       <r>  -31.0519    1.0000 </r>
       <r>  -31.0517    1.0000 </r>
       <r>  -31.0456    1.0000 </r>
       <r>  -31.0453    1.0000 </r>
       <r>  -31.0394    1.0000 </r>
       <r>  -14.7928    1.0000 </r>
       <r>  -14.7821    1.0000 </r>
       <r>  -14.6881    1.0000 </r>
       <r>  -14.6581    1.0000 </r>
       <r>  -14.5429    1.0000 </r>
       <r>  -14.5394    1.0000 </r>
       <r>  -14.4222    1.0000 </r>
       <r>  -14.3102    1.0000 </r>
       <r>  -14.0921    1.0000 </r>
       <r>  -14.0633    1.0000 </r>
       <r>  -13.9218    1.0000 </r>
       <r>  -13.8938    1.0000 </r>
       <r>  -13.8792    1.0000 </r>
       <r>  -13.8521    1.0000 </r>
       <r>  -13.8225    1.0000 </r>
       <r>  -13.8059    1.0000 </r>
       <r>  -13.7441    1.0000 </r>
       <r>  -13.6316    1.0000 </r>
       <r>  -13.2045    1.0000 </r>
       <r>  -13.1901    1.0000 </r>
       <r>  -13.1597    1.0000 </r>
       <r>  -13.1357    1.0000 </r>
       <r>  -13.0963    1.0000 </r>
       <r>  -13.0932    1.0000 </r>
       <r>  -13.0550    1.0000 </r>
       <r>  -13.0402    1.0000 </r>
       <r>  -12.9184    1.0000 </r>
       <r>  -12.8996    1.0000 </r>
       <r>  -12.8982    1.0000 </r>
       <r>  -12.8977    1.0000 </r>
       <r>  -12.8724    1.0000 </r>
       <r>  -12.8488    1.0000 </r>
       <r>  -12.7853    1.0000 </r>
       <r>  -12.7835    1.0000 </r>
       <r>  -12.7285    1.0000 </r>
       <r>  -12.7109    1.0000 </r>
       <r>  -12.6893    1.0000 </r>
       <r>  -12.5976    1.0000 </r>
       <r>  -12.5939    1.0000 </r>
       <r>  -12.5440    1.0000 </r>
       <r>  -12.5350    1.0000 </r>
       <r>  -12.5026    1.0000 </r>
       <r>   -2.5768    1.0000 </r>
       <r>   -2.5371    1.0000 </r>
       <r>   -2.5202    1.0000 </r>
       <r>   -2.3580    1.0000 </r>
       <r>   -2.3215    1.0000 </r>
       <r>   -2.1341    1.0000 </r>
       <r>   -2.1334    1.0000 </r>
       <r>   -2.0897    1.0000 </r>
       <r>   -2.0357    1.0000 </r>
       <r>   -2.0329    1.0000 </r>
       <r>   -2.0221    1.0000 </r>
       <r>   -2.0209    1.0000 </r>
       <r>   -1.7886    1.0000 </r>
       <r>   -1.7506    1.0000 </r>
       <r>   -1.6630    1.0000 </r>
       <r>   -1.6581    1.0000 </r>
       <r>   -1.5598    1.0000 </r>
       <r>   -1.5138    1.0000 </r>
       <r>   -1.5076    1.0000 </r>
       <r>   -1.5020    1.0000 </r>
       <r>   -1.4667    1.0000 </r>
       <r>   -1.4439    1.0000 </r>
       <r>   -1.4337    1.0000 </r>
       <r>   -1.3947    1.0000 </r>
       <r>   -1.3810    1.0000 </r>
       <r>   -1.3626    1.0000 </r>
       <r>   -1.2455    1.0000 </r>
       <r>   -1.2232    1.0000 </r>
       <r>   -1.2218    1.0000 </r>
       <r>   -1.2102    1.0000 </r>
       <r>   -1.1833    1.0000 </r>
       <r>   -1.1659    1.0000 </r>
       <r>   -1.1074    1.0000 </r>
       <r>   -1.0164    1.0000 </r>
       <r>   -1.0120    1.0000 </r>
       <r>   -0.9801    1.0000 </r>
       <r>   -0.9694    1.0000 </r>
       <r>   -0.8703    1.0000 </r>
       <r>   -0.8630    1.0000 </r>
       <r>   -0.8346    1.0000 </r>
       <r>   -0.6612    1.0000 </r>
       <r>   -0.6517    1.0000 </r>
       <r>   -0.2498    1.0000 </r>
       <r>   -0.2093    1.0000 </r>
       <r>   -0.1521    1.0000 </r>
       <r>   -0.0720    1.0000 </r>
       <r>    0.1939    1.0000 </r>
       <r>    0.3583    1.0000 </r>
       <r>    0.4630    1.0000 </r>
       <r>    0.6094    1.0000 </r>
       <r>    0.6952    1.0000 </r>
       <r>    0.7078    1.0000 </r>
       <r>    0.8244    1.0000 </r>
       <r>    0.8607    1.0000 </r>
       <r>    0.8989    1.0000 </r>
       <r>    0.9495    1.0000 </r>
       <r>    1.0013    1.0000 </r>
       <r>    1.0315    1.0000 </r>
       <r>    1.0375    1.0000 </r>
       <r>    1.0455    1.0000 </r>
       <r>    1.1332    1.0000 </r>
       <r>    1.1665    1.0000 </r>
       <r>    1.1985    1.0000 </r>
       <r>    1.2137    1.0000 </r>
       <r>    1.2851    1.0000 </r>
       <r>    1.3299    1.0000 </r>
       <r>    1.3311    1.0000 </r>
       <r>    1.3700    1.0000 </r>
       <r>    1.3762    1.0000 </r>
       <r>    1.4136    1.0000 </r>
       <r>    1.4368    1.0000 </r>
       <r>    1.4818    1.0000 </r>
       <r>    1.4914    1.0000 </r>
       <r>    1.4973    1.0000 </r>
       <r>    1.5644    1.0000 </r>
       <r>    1.6116    1.0000 </r>
       <r>    1.6680    1.0000 </r>
       <r>    1.6856    1.0000 </r>
       <r>    1.7235    1.0000 </r>
       <r>    1.8238    1.0000 </r>
       <r>    1.9001    1.0000 </r>
       <r>    1.9417    1.0000 </r>
       <r>    1.9765    1.0000 </r>
       <r>    2.1878    1.0000 </r>
       <r>    2.3483    1.0000 </r>
       <r>    2.4050    1.0000 </r>
       <r>    2.4857    1.0000 </r>
       <r>    2.5052    1.0000 </r>
       <r>    2.7145    0.1460 </r>
       <r>    2.7218    0.1039 </r>
       <r>    2.9854    0.0000 </r>
       <r>    3.1009    0.0000 </r>
       <r>    3.1268    0.0000 </r>
       <r>    3.6857    0.0000 </r>
       <r>    3.9388    0.0000 </r>
       <r>    4.6205    0.0000 </r>
       <r>    5.2766    0.0000 </r>
       <r>    5.4194    0.0000 </r>
       <r>    5.9585    0.0000 </r>
       <r>    6.4431    0.0000 </r>
       <r>    7.3098    0.0000 </r>
       <r>    7.8106    0.0000 </r>
       <r>    8.0155    0.0000 </r>
       <r>    8.0697    0.0000 </r>
       <r>    8.1458    0.0000 </r>
       <r>    8.1944    0.0000 </r>
       <r>    8.4522    0.0000 </r>
       <r>    8.4647    0.0000 </r>
       <r>    8.5603    0.0000 </r>
       <r>    8.6059    0.0000 </r>
       <r>    8.7984    0.0000 </r>
       <r>    8.9709    0.0000 </r>
       <r>    9.0576    0.0000 </r>
       <r>    9.1287    0.0000 </r>
       <r>    9.1487    0.0000 </r>
       <r>    9.1822    0.0000 </r>
       <r>    9.4548    0.0000 </r>
       <r>    9.5539    0.0000 </r>
       <r>    9.6469    0.0000 </r>
       <r>    9.6565    0.0000 </r>
       <r>    9.7407    0.0000 </r>
       <r>    9.9626    0.0000 </r>
       <r>    9.9882    0.0000 </r>
       <r>   10.1126    0.0000 </r>
       <r>   10.1946    0.0000 </r>
       <r>   10.2222    0.0000 </r>
       <r>   10.2994    0.0000 </r>
       <r>   10.3617    0.0000 </r>
       <r>   10.4014    0.0000 </r>
       <r>   10.4403    0.0000 </r>
       <r>   10.5050    0.0000 </r>
       <r>   10.6109    0.0000 </r>
       <r>   10.7087    0.0000 </r>
       <r>   10.7989    0.0000 </r>
      </set>
      <set comment="kpoint 5">
       <r>  -31.0687    1.0000 </r>
       <r>  -31.0616    1.0000 </r>
       <r>  -31.0551    1.0000 </r>
       <r>  -31.0550    1.0000 </r>
       <r>  -31.0486    1.0000 </r>
       <r>  -31.0485    1.0000 </r>
       <r>  -31.0422    1.0000 </r>
       <r>  -31.0362    1.0000 </r>
       <r>  -14.8904    1.0000 </r>
       <r>  -14.8428    1.0000 </r>
       <r>  -14.7508    1.0000 </r>
       <r>  -14.7165    1.0000 </r>
       <r>  -14.3675    1.0000 </r>
       <r>  -14.3626    1.0000 </r>
       <r>  -14.3505    1.0000 </r>
       <r>  -14.2702    1.0000 </r>
       <r>  -14.1397    1.0000 </r>
       <r>  -14.0592    1.0000 </r>
       <r>  -14.0040    1.0000 </r>
       <r>  -13.9872    1.0000 </r>
       <r>  -13.9205    1.0000 </r>
       <r>  -13.9005    1.0000 </r>
       <r>  -13.7973    1.0000 </r>
       <r>  -13.7973    1.0000 </r>
       <r>  -13.7384    1.0000 </r>
       <r>  -13.4635    1.0000 </r>
       <r>  -13.1944    1.0000 </r>
       <r>  -13.1568    1.0000 </r>
       <r>  -13.1276    1.0000 </r>
       <r>  -13.1266    1.0000 </r>
       <r>  -13.1265    1.0000 </r>
       <r>  -13.0899    1.0000 </r>
       <r>  -13.0381    1.0000 </r>
       <r>  -13.0265    1.0000 </r>
       <r>  -13.0060    1.0000 </r>
       <r>  -12.9436    1.0000 </r>
       <r>  -12.9168    1.0000 </r>
       <r>  -12.8995    1.0000 </r>
       <r>  -12.8769    1.0000 </r>
       <r>  -12.8630    1.0000 </r>
       <r>  -12.8240    1.0000 </r>
       <r>  -12.7954    1.0000 </r>
       <r>  -12.7763    1.0000 </r>
       <r>  -12.7392    1.0000 </r>
       <r>  -12.6622    1.0000 </r>
       <r>  -12.6607    1.0000 </r>
       <r>  -12.5945    1.0000 </r>
       <r>  -12.5027    1.0000 </r>
       <r>  -12.4522    1.0000 </r>
       <r>  -12.4412    1.0000 </r>
       <r>   -3.0756    1.0000 </r>
       <r>   -2.9284    1.0000 </r>
       <r>   -2.8338    1.0000 </r>
       <r>   -2.6573    1.0000 </r>
       <r>   -2.6352    1.0000 </r>
       <r>   -2.3797    1.0000 </r>
       <r>   -2.1418    1.0000 </r>
       <r>   -2.0710    1.0000 </r>
       <r>   -2.0688    1.0000 </r>
       <r>   -2.0592    1.0000 </r>
       <r>   -2.0432    1.0000 </r>
       <r>   -2.0317    1.0000 </r>
       <r>   -2.0155    1.0000 </r>
       <r>   -1.8112    1.0000 </r>
       <r>   -1.7496    1.0000 </r>
       <r>   -1.7491    1.0000 </r>
       <r>   -1.5410    1.0000 </r>
       <r>   -1.5274    1.0000 </r>
       <r>   -1.4590    1.0000 </r>
       <r>   -1.4205    1.0000 </r>
       <r>   -1.3417    1.0000 </r>
       <r>   -1.3381    1.0000 </r>
       <r>   -1.2874    1.0000 </r>
       <r>   -1.2337    1.0000 </r>
       <r>   -1.1909    1.0000 </r>
       <r>   -0.9428    1.0000 </r>
       <r>   -0.9277    1.0000 </r>
       <r>   -0.9085    1.0000 </r>
       <r>   -0.8863    1.0000 </r>
       <r>   -0.8829    1.0000 </r>
       <r>   -0.8385    1.0000 </r>
       <r>   -0.8023    1.0000 </r>
       <r>   -0.7996    1.0000 </r>
       <r>   -0.7476    1.0000 </r>
       <r>   -0.7147    1.0000 </r>
       <r>   -0.7062    1.0000 </r>
       <r>   -0.6409    1.0000 </r>
       <r>   -0.6110    1.0000 </r>
       <r>   -0.5523    1.0000 </r>
       <r>   -0.5223    1.0000 </r>
       <r>   -0.4705    1.0000 </r>
       <r>   -0.3940    1.0000 </r>
       <r>   -0.2823    1.0000 </r>
       <r>   -0.2348    1.0000 </r>
       <r>   -0.1603    1.0000 </r>
       <r>   -0.0483    1.0000 </r>
       <r>   -0.0069    1.0000 </r>
       <r>    0.0167    1.0000 </r>
       <r>    0.1666    1.0000 </r>
       <r>    0.2004    1.0000 </r>
       <r>    0.2685    1.0000 </r>
       <r>    0.3650    1.0000 </r>
       <r>    0.5169    1.0000 </r>
       <r>    0.5572    1.0000 </r>
       <r>    0.6537    1.0000 </r>
       <r>    0.8381    1.0000 </r>
       <r>    0.8534    1.0000 </r>
       <r>    0.9657    1.0000 </r>
       <r>    1.0495    1.0000 </r>
       <r>    1.0506    1.0000 </r>
       <r>    1.1094    1.0000 </r>
       <r>    1.1253    1.0000 </r>
       <r>    1.1453    1.0000 </r>
       <r>    1.1707    1.0000 </r>
       <r>    1.2438    1.0000 </r>
       <r>    1.2870    1.0000 </r>
       <r>    1.3158    1.0000 </r>
       <r>    1.3364    1.0000 </r>
       <r>    1.4040    1.0000 </r>
       <r>    1.4079    1.0000 </r>
       <r>    1.4460    1.0000 </r>
       <r>    1.4910    1.0000 </r>
       <r>    1.5294    1.0000 </r>
       <r>    1.5859    1.0000 </r>
       <r>    1.7854    1.0000 </r>
       <r>    1.8142    1.0000 </r>
       <r>    1.8153    1.0000 </r>
       <r>    1.8338    1.0000 </r>
       <r>    1.8661    1.0000 </r>
       <r>    1.8796    1.0000 </r>
       <r>    1.8823    1.0000 </r>
       <r>    1.8915    1.0000 </r>
       <r>    1.9232    1.0000 </r>
       <r>    1.9921    1.0000 </r>
       <r>    2.0177    1.0000 </r>
       <r>    2.0788    1.0000 </r>
       <r>    2.0803    1.0000 </r>
       <r>    2.1994    1.0000 </r>
       <r>    2.6331    0.8940 </r>
       <r>    2.6484    0.7929 </r>
       <r>    2.8415    0.0000 </r>
       <r>    3.0562    0.0000 </r>
       <r>    3.2393    0.0000 </r>
       <r>    3.3460    0.0000 </r>
       <r>    4.4193    0.0000 </r>
       <r>    4.7528    0.0000 </r>
       <r>    5.1774    0.0000 </r>
       <r>    5.6077    0.0000 </r>
       <r>    5.8926    0.0000 </r>
       <r>    7.0045    0.0000 </r>
       <r>    7.4185    0.0000 </r>
       <r>    7.4947    0.0000 </r>
       <r>    7.5873    0.0000 </r>
       <r>    8.0457    0.0000 </r>
       <r>    8.1115    0.0000 </r>
       <r>    8.1746    0.0000 </r>
       <r>    8.1849    0.0000 </r>
       <r>    8.3151    0.0000 </r>
       <r>    8.4056    0.0000 </r>
       <r>    8.5250    0.0000 </r>
       <r>    9.0081    0.0000 </r>
       <r>    9.0855    0.0000 </r>
       <r>    9.1372    0.0000 </r>
       <r>    9.2497    0.0000 </r>
       <r>    9.3083    0.0000 </r>
       <r>    9.4249    0.0000 </r>
       <r>    9.5041    0.0000 </r>
       <r>    9.8896    0.0000 </r>
       <r>    9.9523    0.0000 </r>
       <r>   10.0265    0.0000 </r>
       <r>   10.0313    0.0000 </r>
       <r>   10.0826    0.0000 </r>
       <r>   10.1695    0.0000 </r>
       <r>   10.2109    0.0000 </r>
       <r>   10.2451    0.0000 </r>
       <r>   10.2776    0.0000 </r>
       <r>   10.3303    0.0000 </r>
       <r>   10.3605    0.0000 </r>
       <r>   10.3775    0.0000 </r>
       <r>   10.4206    0.0000 </r>
       <r>   10.5736    0.0000 </r>
       <r>   10.5894    0.0000 </r>
       <r>   10.6467    0.0000 </r>
       <r>   10.7979    0.0000 </r>
      </set>
      <set comment="kpoint 6">
       <r>  -31.0653    1.0000 </r>
       <r>  -31.0584    1.0000 </r>
       <r>  -31.0584    1.0000 </r>
       <r>  -31.0519    1.0000 </r>
       <r>  -31.0519    1.0000 </r>
       <r>  -31.0455    1.0000 </r>
       <r>  -31.0454    1.0000 </r>
       <r>  -31.0393    1.0000 </r>
       <r>  -14.8246    1.0000 </r>
       <r>  -14.8243    1.0000 </r>
       <r>  -14.7421    1.0000 </r>
       <r>  -14.6917    1.0000 </r>
       <r>  -14.4049    1.0000 </r>
       <r>  -14.3472    1.0000 </r>
       <r>  -14.3365    1.0000 </r>
       <r>  -14.3285    1.0000 </r>
       <r>  -14.2228    1.0000 </r>
       <r>  -14.0373    1.0000 </r>
       <r>  -14.0273    1.0000 </r>
       <r>  -14.0186    1.0000 </r>
       <r>  -14.0109    1.0000 </r>
       <r>  -13.8466    1.0000 </r>
       <r>  -13.7913    1.0000 </r>
       <r>  -13.7266    1.0000 </r>
       <r>  -13.7216    1.0000 </r>
       <r>  -13.5533    1.0000 </r>
       <r>  -13.1668    1.0000 </r>
       <r>  -13.1543    1.0000 </r>
       <r>  -13.1482    1.0000 </r>
       <r>  -13.1470    1.0000 </r>
       <r>  -13.1231    1.0000 </r>
       <r>  -13.0920    1.0000 </r>
       <r>  -13.0444    1.0000 </r>
       <r>  -13.0413    1.0000 </r>
       <r>  -12.9981    1.0000 </r>
       <r>  -12.9647    1.0000 </r>
       <r>  -12.9035    1.0000 </r>
       <r>  -12.8968    1.0000 </r>
       <r>  -12.8496    1.0000 </r>
       <r>  -12.7894    1.0000 </r>
       <r>  -12.7814    1.0000 </r>
       <r>  -12.7159    1.0000 </r>
       <r>  -12.7060    1.0000 </r>
       <r>  -12.6949    1.0000 </r>
       <r>  -12.6673    1.0000 </r>
       <r>  -12.6633    1.0000 </r>
       <r>  -12.6378    1.0000 </r>
       <r>  -12.5303    1.0000 </r>
       <r>  -12.5291    1.0000 </r>
       <r>  -12.5074    1.0000 </r>
       <r>   -2.9225    1.0000 </r>
       <r>   -2.8614    1.0000 </r>
       <r>   -2.8392    1.0000 </r>
       <r>   -2.6679    1.0000 </r>
       <r>   -2.3502    1.0000 </r>
       <r>   -2.2129    1.0000 </r>
       <r>   -2.1427    1.0000 </r>
       <r>   -2.1122    1.0000 </r>
       <r>   -2.0596    1.0000 </r>
       <r>   -2.0499    1.0000 </r>
       <r>   -2.0368    1.0000 </r>
       <r>   -2.0229    1.0000 </r>
       <r>   -1.9054    1.0000 </r>
       <r>   -1.7570    1.0000 </r>
       <r>   -1.7125    1.0000 </r>
       <r>   -1.6608    1.0000 </r>
       <r>   -1.5746    1.0000 </r>
       <r>   -1.5544    1.0000 </r>
       <r>   -1.5465    1.0000 </r>
       <r>   -1.4586    1.0000 </r>
       <r>   -1.4146    1.0000 </r>
       <r>   -1.3976    1.0000 </r>
       <r>   -1.3591    1.0000 </r>
       <r>   -1.3186    1.0000 </r>
       <r>   -1.2673    1.0000 </r>
       <r>   -1.2375    1.0000 </r>
       <r>   -1.2311    1.0000 </r>
       <r>   -1.0752    1.0000 </r>
       <r>   -1.0714    1.0000 </r>
       <r>   -1.0010    1.0000 </r>
       <r>   -0.9450    1.0000 </r>
       <r>   -0.9147    1.0000 </r>
       <r>   -0.8331    1.0000 </r>
       <r>   -0.7723    1.0000 </r>
       <r>   -0.7359    1.0000 </r>
       <r>   -0.6952    1.0000 </r>
       <r>   -0.6863    1.0000 </r>
       <r>   -0.6673    1.0000 </r>
       <r>   -0.5519    1.0000 </r>
       <r>   -0.5257    1.0000 </r>
       <r>   -0.4891    1.0000 </r>
       <r>   -0.3065    1.0000 </r>
       <r>   -0.2640    1.0000 </r>
       <r>   -0.2339    1.0000 </r>
       <r>   -0.1259    1.0000 </r>
       <r>   -0.0667    1.0000 </r>
       <r>    0.0359    1.0000 </r>
       <r>    0.0476    1.0000 </r>
       <r>    0.2737    1.0000 </r>
       <r>    0.3405    1.0000 </r>
       <r>    0.3641    1.0000 </r>
       <r>    0.4754    1.0000 </r>
       <r>    0.5136    1.0000 </r>
       <r>    0.6238    1.0000 </r>
       <r>    0.7276    1.0000 </r>
       <r>    0.8692    1.0000 </r>
       <r>    0.9815    1.0000 </r>
       <r>    1.0288    1.0000 </r>
       <r>    1.0645    1.0000 </r>
       <r>    1.0877    1.0000 </r>
       <r>    1.0999    1.0000 </r>
       <r>    1.1693    1.0000 </r>
       <r>    1.1952    1.0000 </r>
       <r>    1.2035    1.0000 </r>
       <r>    1.2837    1.0000 </r>
       <r>    1.2862    1.0000 </r>
       <r>    1.3220    1.0000 </r>
       <r>    1.3421    1.0000 </r>
       <r>    1.3969    1.0000 </r>
       <r>    1.4149    1.0000 </r>
       <r>    1.4567    1.0000 </r>
       <r>    1.4656    1.0000 </r>
       <r>    1.6148    1.0000 </r>
       <r>    1.6480    1.0000 </r>
       <r>    1.6933    1.0000 </r>
       <r>    1.7101    1.0000 </r>
       <r>    1.7183    1.0000 </r>
       <r>    1.7497    1.0000 </r>
       <r>    1.8031    1.0000 </r>
       <r>    1.8353    1.0000 </r>
       <r>    1.8536    1.0000 </r>
       <r>    1.8581    1.0000 </r>
       <r>    2.0264    1.0000 </r>
       <r>    2.0715    1.0000 </r>
       <r>    2.1317    1.0000 </r>
       <r>    2.1467    1.0000 </r>
       <r>    2.1539    1.0000 </r>
       <r>    2.4466    1.0000 </r>
       <r>    2.6434    0.8307 </r>
       <r>    2.7503    0.0194 </r>
       <r>    2.8444    0.0000 </r>
       <r>    3.0113    0.0000 </r>
       <r>    3.1009    0.0000 </r>
       <r>    3.6707    0.0000 </r>
       <r>    3.9911    0.0000 </r>
       <r>    4.3095    0.0000 </r>
       <r>    5.0413    0.0000 </r>
       <r>    5.6580    0.0000 </r>
       <r>    6.0417    0.0000 </r>
       <r>    6.8414    0.0000 </r>
       <r>    7.6336    0.0000 </r>
       <r>    7.6496    0.0000 </r>
       <r>    7.8911    0.0000 </r>
       <r>    8.0563    0.0000 </r>
       <r>    8.2554    0.0000 </r>
       <r>    8.3428    0.0000 </r>
       <r>    8.4291    0.0000 </r>
       <r>    8.5952    0.0000 </r>
       <r>    8.6087    0.0000 </r>
       <r>    8.7696    0.0000 </r>
       <r>    8.8505    0.0000 </r>
       <r>    8.9445    0.0000 </r>
       <r>    9.0106    0.0000 </r>
       <r>    9.1976    0.0000 </r>
       <r>    9.2299    0.0000 </r>
       <r>    9.3269    0.0000 </r>
       <r>    9.4071    0.0000 </r>
       <r>    9.7509    0.0000 </r>
       <r>    9.7686    0.0000 </r>
       <r>    9.9159    0.0000 </r>
       <r>    9.9686    0.0000 </r>
       <r>    9.9786    0.0000 </r>
       <r>   10.0090    0.0000 </r>
       <r>   10.1318    0.0000 </r>
       <r>   10.2015    0.0000 </r>
       <r>   10.2411    0.0000 </r>
       <r>   10.3018    0.0000 </r>
       <r>   10.3349    0.0000 </r>
       <r>   10.3406    0.0000 </r>
       <r>   10.4543    0.0000 </r>
       <r>   10.4710    0.0000 </r>
       <r>   10.5476    0.0000 </r>
       <r>   10.5800    0.0000 </r>
       <r>   10.5981    0.0000 </r>
      </set>
      <set comment="kpoint 7">
       <r>  -31.0653    1.0000 </r>
       <r>  -31.0584    1.0000 </r>
       <r>  -31.0584    1.0000 </r>
       <r>  -31.0519    1.0000 </r>
       <r>  -31.0519    1.0000 </r>
       <r>  -31.0455    1.0000 </r>
       <r>  -31.0454    1.0000 </r>
       <r>  -31.0393    1.0000 </r>
       <r>  -14.8511    1.0000 </r>
       <r>  -14.8208    1.0000 </r>
       <r>  -14.7231    1.0000 </r>
       <r>  -14.6295    1.0000 </r>
       <r>  -14.5305    1.0000 </r>
       <r>  -14.3372    1.0000 </r>
       <r>  -14.3293    1.0000 </r>
       <r>  -14.2869    1.0000 </r>
       <r>  -14.2034    1.0000 </r>
       <r>  -14.0878    1.0000 </r>
       <r>  -14.0250    1.0000 </r>
       <r>  -14.0167    1.0000 </r>
       <r>  -13.9488    1.0000 </r>
       <r>  -13.8844    1.0000 </r>
       <r>  -13.7699    1.0000 </r>
       <r>  -13.7446    1.0000 </r>
       <r>  -13.6866    1.0000 </r>
       <r>  -13.5734    1.0000 </r>
       <r>  -13.2094    1.0000 </r>
       <r>  -13.1996    1.0000 </r>
       <r>  -13.1478    1.0000 </r>
       <r>  -13.1322    1.0000 </r>
       <r>  -13.1320    1.0000 </r>
       <r>  -13.0708    1.0000 </r>
       <r>  -13.0217    1.0000 </r>
       <r>  -12.9886    1.0000 </r>
       <r>  -12.9721    1.0000 </r>
       <r>  -12.9539    1.0000 </r>
       <r>  -12.9435    1.0000 </r>
       <r>  -12.8835    1.0000 </r>
       <r>  -12.8245    1.0000 </r>
       <r>  -12.8113    1.0000 </r>
       <r>  -12.7920    1.0000 </r>
       <r>  -12.7504    1.0000 </r>
       <r>  -12.7302    1.0000 </r>
       <r>  -12.7165    1.0000 </r>
       <r>  -12.6469    1.0000 </r>
       <r>  -12.6377    1.0000 </r>
       <r>  -12.6279    1.0000 </r>
       <r>  -12.5283    1.0000 </r>
       <r>  -12.5272    1.0000 </r>
       <r>  -12.5116    1.0000 </r>
       <r>   -2.9124    1.0000 </r>
       <r>   -2.8625    1.0000 </r>
       <r>   -2.8466    1.0000 </r>
       <r>   -2.6648    1.0000 </r>
       <r>   -2.3472    1.0000 </r>
       <r>   -2.2147    1.0000 </r>
       <r>   -2.1398    1.0000 </r>
       <r>   -2.1079    1.0000 </r>
       <r>   -2.0592    1.0000 </r>
       <r>   -2.0540    1.0000 </r>
       <r>   -2.0302    1.0000 </r>
       <r>   -2.0288    1.0000 </r>
       <r>   -1.9089    1.0000 </r>
       <r>   -1.7634    1.0000 </r>
       <r>   -1.6888    1.0000 </r>
       <r>   -1.6023    1.0000 </r>
       <r>   -1.5759    1.0000 </r>
       <r>   -1.5692    1.0000 </r>
       <r>   -1.5365    1.0000 </r>
       <r>   -1.4431    1.0000 </r>
       <r>   -1.4075    1.0000 </r>
       <r>   -1.3924    1.0000 </r>
       <r>   -1.3751    1.0000 </r>
       <r>   -1.3589    1.0000 </r>
       <r>   -1.3504    1.0000 </r>
       <r>   -1.3074    1.0000 </r>
       <r>   -1.2656    1.0000 </r>
       <r>   -1.0762    1.0000 </r>
       <r>   -0.9658    1.0000 </r>
       <r>   -0.9517    1.0000 </r>
       <r>   -0.9382    1.0000 </r>
       <r>   -0.9171    1.0000 </r>
       <r>   -0.8482    1.0000 </r>
       <r>   -0.7562    1.0000 </r>
       <r>   -0.7251    1.0000 </r>
       <r>   -0.7093    1.0000 </r>
       <r>   -0.6898    1.0000 </r>
       <r>   -0.6815    1.0000 </r>
       <r>   -0.5421    1.0000 </r>
       <r>   -0.5301    1.0000 </r>
       <r>   -0.4956    1.0000 </r>
       <r>   -0.3040    1.0000 </r>
       <r>   -0.2961    1.0000 </r>
       <r>   -0.2711    1.0000 </r>
       <r>    0.0033    1.0000 </r>
       <r>    0.0177    1.0000 </r>
       <r>    0.0301    1.0000 </r>
       <r>    0.0518    1.0000 </r>
       <r>    0.1076    1.0000 </r>
       <r>    0.2834    1.0000 </r>
       <r>    0.3311    1.0000 </r>
       <r>    0.4714    1.0000 </r>
       <r>    0.5738    1.0000 </r>
       <r>    0.6676    1.0000 </r>
       <r>    0.7176    1.0000 </r>
       <r>    0.8465    1.0000 </r>
       <r>    0.9693    1.0000 </r>
       <r>    1.0025    1.0000 </r>
       <r>    1.0324    1.0000 </r>
       <r>    1.0545    1.0000 </r>
       <r>    1.1050    1.0000 </r>
       <r>    1.1555    1.0000 </r>
       <r>    1.1726    1.0000 </r>
       <r>    1.2620    1.0000 </r>
       <r>    1.2819    1.0000 </r>
       <r>    1.3160    1.0000 </r>
       <r>    1.3562    1.0000 </r>
       <r>    1.3671    1.0000 </r>
       <r>    1.4114    1.0000 </r>
       <r>    1.4224    1.0000 </r>
       <r>    1.4448    1.0000 </r>
       <r>    1.4491    1.0000 </r>
       <r>    1.4769    1.0000 </r>
       <r>    1.6357    1.0000 </r>
       <r>    1.7004    1.0000 </r>
       <r>    1.7679    1.0000 </r>
       <r>    1.7924    1.0000 </r>
       <r>    1.7968    1.0000 </r>
       <r>    1.8161    1.0000 </r>
       <r>    1.8489    1.0000 </r>
       <r>    1.8548    1.0000 </r>
       <r>    1.9369    1.0000 </r>
       <r>    2.0600    1.0000 </r>
       <r>    2.1264    1.0000 </r>
       <r>    2.1872    1.0000 </r>
       <r>    2.1971    1.0000 </r>
       <r>    2.2784    1.0000 </r>
       <r>    2.4337    1.0000 </r>
       <r>    2.4452    1.0000 </r>
       <r>    2.5367    1.0000 </r>
       <r>    2.7835    0.0013 </r>
       <r>    3.0298    0.0000 </r>
       <r>    3.1708    0.0000 </r>
       <r>    3.5087    0.0000 </r>
       <r>    3.9870    0.0000 </r>
       <r>    4.4193    0.0000 </r>
       <r>    5.0958    0.0000 </r>
       <r>    5.6708    0.0000 </r>
       <r>    6.2706    0.0000 </r>
       <r>    6.5263    0.0000 </r>
       <r>    7.5681    0.0000 </r>
       <r>    7.7849    0.0000 </r>
       <r>    7.8740    0.0000 </r>
       <r>    7.9674    0.0000 </r>
       <r>    8.2289    0.0000 </r>
       <r>    8.3332    0.0000 </r>
       <r>    8.4446    0.0000 </r>
       <r>    8.5911    0.0000 </r>
       <r>    8.6448    0.0000 </r>
       <r>    8.6987    0.0000 </r>
       <r>    8.7456    0.0000 </r>
       <r>    8.9810    0.0000 </r>
       <r>    9.1562    0.0000 </r>
       <r>    9.1866    0.0000 </r>
       <r>    9.3301    0.0000 </r>
       <r>    9.3555    0.0000 </r>
       <r>    9.4211    0.0000 </r>
       <r>    9.4846    0.0000 </r>
       <r>    9.8657    0.0000 </r>
       <r>    9.9062    0.0000 </r>
       <r>   10.0313    0.0000 </r>
       <r>   10.0577    0.0000 </r>
       <r>   10.0756    0.0000 </r>
       <r>   10.1109    0.0000 </r>
       <r>   10.1207    0.0000 </r>
       <r>   10.2736    0.0000 </r>
       <r>   10.3314    0.0000 </r>
       <r>   10.3411    0.0000 </r>
       <r>   10.3714    0.0000 </r>
[...]
       <r>     5.7906     1.4865   148.0242 </r>
       <r>     5.9446     1.9764   148.3286 </r>
       <r>     6.0986     3.2032   148.8219 </r>
       <r>     6.2526     0.3416   148.8745 </r>
       <r>     6.4066     1.8192   149.1547 </r>
       <r>     6.5607     3.7416   149.7310 </r>
       <r>     6.7147     0.5432   149.8146 </r>
       <r>     6.8687     0.4705   149.8871 </r>
       <r>     7.0227     0.5871   149.9775 </r>
       <r>     7.1767     0.2204   150.0114 </r>
       <r>     7.3307     0.9746   150.1615 </r>
       <r>     7.4847     3.3530   150.6779 </r>
       <r>     7.6387     2.7817   151.1064 </r>
       <r>     7.7927     5.4540   151.9463 </r>
       <r>     7.9468     6.0396   152.8765 </r>
       <r>     8.1008     6.8076   153.9249 </r>
       <r>     8.2548     8.6307   155.2542 </r>
       <r>     8.4088    10.8488   156.9250 </r>
       <r>     8.5628     9.1167   158.3290 </r>
       <r>     8.7168     9.6445   159.8144 </r>
       <r>     8.8708     6.6301   160.8355 </r>
       <r>     9.0248     7.7153   162.0237 </r>
       <r>     9.1788     9.6264   163.5063 </r>
       <r>     9.3328    10.1633   165.0715 </r>
       <r>     9.4869    11.9411   166.9106 </r>
       <r>     9.6409    10.2362   168.4871 </r>
       <r>     9.7949     7.5179   169.6449 </r>
       <r>     9.9489     9.9203   171.1727 </r>
       <r>    10.1029    15.4336   173.5497 </r>
       <r>    10.2569    14.1227   175.7247 </r>
       <r>    10.4109    17.9674   178.4919 </r>
       <r>    10.5649    15.5033   180.8795 </r>
       <r>    10.7189    15.8884   183.3265 </r>
       <r>    10.8729     4.0891   183.9563 </r>
       <r>    11.0270     0.2832   183.9999 </r>
       <r>    11.1810     0.0007   184.0000 </r>
       <r>    11.3350     0.0000   184.0000 </r>
       <r>    11.4890     0.0000   184.0000 </r>
       <r>    11.6430     0.0000   184.0000 </r>
       <r>    11.7970     0.0000   184.0000 </r>
       <r>    11.9510     0.0000   184.0000 </r>
       <r>    12.1050     0.0000   184.0000 </r>
       <r>    12.2590     0.0000   184.0000 </r>
       <r>    12.4131     0.0000   184.0000 </r>
       <r>    12.5671     0.0000   184.0000 </r>
       <r>    12.7211     0.0000   184.0000 </r>
       <r>    12.8751     0.0000   184.0000 </r>
       <r>    13.0291     0.0000   184.0000 </r>
      </set>
      <set comment="spin 2">
       <r>   -33.1740     0.0000     0.0000 </r>
       <r>   -33.0200     0.0000     0.0000 </r>
       <r>   -32.8660     0.0000     0.0000 </r>
       <r>   -32.7120     0.0000     0.0000 </r>
       <r>   -32.5580     0.0000     0.0000 </r>
       <r>   -32.4040     0.0000     0.0000 </r>
       <r>   -32.2500     0.0000     0.0000 </r>
       <r>   -32.0959     0.0000     0.0000 </r>
       <r>   -31.9419     0.0000     0.0000 </r>
       <r>   -31.7879     0.0000     0.0000 </r>
       <r>   -31.6339     0.0000     0.0000 </r>
       <r>   -31.4799     0.0000     0.0000 </r>
       <r>   -31.3259     0.0000     0.0000 </r>
       <r>   -31.1719     0.0286     0.0044 </r>
       <r>   -31.0179    43.5028     6.7043 </r>
       <r>   -30.8639     8.4131     8.0000 </r>
       <r>   -30.7098     0.0000     8.0000 </r>
       <r>   -30.5558     0.0000     8.0000 </r>
       <r>   -30.4018     0.0000     8.0000 </r>
       <r>   -30.2478     0.0000     8.0000 </r>
       <r>   -30.0938     0.0000     8.0000 </r>
       <r>   -29.9398     0.0000     8.0000 </r>
       <r>   -29.7858     0.0000     8.0000 </r>
       <r>   -29.6318     0.0000     8.0000 </r>
       <r>   -29.4778     0.0000     8.0000 </r>
       <r>   -29.3238     0.0000     8.0000 </r>
       <r>   -29.1697     0.0000     8.0000 </r>
       <r>   -29.0157     0.0000     8.0000 </r>
       <r>   -28.8617     0.0000     8.0000 </r>
       <r>   -28.7077     0.0000     8.0000 </r>
       <r>   -28.5537     0.0000     8.0000 </r>
       <r>   -28.3997     0.0000     8.0000 </r>
       <r>   -28.2457     0.0000     8.0000 </r>
       <r>   -28.0917     0.0000     8.0000 </r>
       <r>   -27.9377     0.0000     8.0000 </r>
       <r>   -27.7837     0.0000     8.0000 </r>
       <r>   -27.6296     0.0000     8.0000 </r>
       <r>   -27.4756     0.0000     8.0000 </r>
       <r>   -27.3216     0.0000     8.0000 </r>
       <r>   -27.1676     0.0000     8.0000 </r>
       <r>   -27.0136     0.0000     8.0000 </r>
       <r>   -26.8596     0.0000     8.0000 </r>
       <r>   -26.7056     0.0000     8.0000 </r>
       <r>   -26.5516     0.0000     8.0000 </r>
       <r>   -26.3976     0.0000     8.0000 </r>
       <r>   -26.2435     0.0000     8.0000 </r>
       <r>   -26.0895     0.0000     8.0000 </r>
       <r>   -25.9355     0.0000     8.0000 </r>
       <r>   -25.7815     0.0000     8.0000 </r>
       <r>   -25.6275     0.0000     8.0000 </r>
       <r>   -25.4735     0.0000     8.0000 </r>
       <r>   -25.3195     0.0000     8.0000 </r>
       <r>   -25.1655     0.0000     8.0000 </r>
       <r>   -25.0115     0.0000     8.0000 </r>
       <r>   -24.8575     0.0000     8.0000 </r>
       <r>   -24.7034     0.0000     8.0000 </r>
       <r>   -24.5494     0.0000     8.0000 </r>
       <r>   -24.3954     0.0000     8.0000 </r>
       <r>   -24.2414     0.0000     8.0000 </r>
       <r>   -24.0874     0.0000     8.0000 </r>
       <r>   -23.9334     0.0000     8.0000 </r>
       <r>   -23.7794     0.0000     8.0000 </r>
       <r>   -23.6254     0.0000     8.0000 </r>
       <r>   -23.4714     0.0000     8.0000 </r>
       <r>   -23.3174     0.0000     8.0000 </r>
       <r>   -23.1633     0.0000     8.0000 </r>
       <r>   -23.0093     0.0000     8.0000 </r>
       <r>   -22.8553     0.0000     8.0000 </r>
       <r>   -22.7013     0.0000     8.0000 </r>
       <r>   -22.5473     0.0000     8.0000 </r>
       <r>   -22.3933     0.0000     8.0000 </r>
       <r>   -22.2393     0.0000     8.0000 </r>
       <r>   -22.0853     0.0000     8.0000 </r>
       <r>   -21.9313     0.0000     8.0000 </r>
       <r>   -21.7772     0.0000     8.0000 </r>
       <r>   -21.6232     0.0000     8.0000 </r>
       <r>   -21.4692     0.0000     8.0000 </r>
       <r>   -21.3152     0.0000     8.0000 </r>
       <r>   -21.1612     0.0000     8.0000 </r>
       <r>   -21.0072     0.0000     8.0000 </r>
       <r>   -20.8532     0.0000     8.0000 </r>
       <r>   -20.6992     0.0000     8.0000 </r>
       <r>   -20.5452     0.0000     8.0000 </r>
       <r>   -20.3912     0.0000     8.0000 </r>
       <r>   -20.2371     0.0000     8.0000 </r>
       <r>   -20.0831     0.0000     8.0000 </r>
       <r>   -19.9291     0.0000     8.0000 </r>
       <r>   -19.7751     0.0000     8.0000 </r>
       <r>   -19.6211     0.0000     8.0000 </r>
       <r>   -19.4671     0.0000     8.0000 </r>
       <r>   -19.3131     0.0000     8.0000 </r>
       <r>   -19.1591     0.0000     8.0000 </r>
       <r>   -19.0051     0.0000     8.0000 </r>
       <r>   -18.8511     0.0000     8.0000 </r>
       <r>   -18.6970     0.0000     8.0000 </r>
       <r>   -18.5430     0.0000     8.0000 </r>
       <r>   -18.3890     0.0000     8.0000 </r>
       <r>   -18.2350     0.0000     8.0000 </r>
       <r>   -18.0810     0.0000     8.0000 </r>
       <r>   -17.9270     0.0000     8.0000 </r>
       <r>   -17.7730     0.0000     8.0000 </r>
       <r>   -17.6190     0.0000     8.0000 </r>
       <r>   -17.4650     0.0000     8.0000 </r>
       <r>   -17.3109     0.0000     8.0000 </r>
       <r>   -17.1569     0.0000     8.0000 </r>
       <r>   -17.0029     0.0000     8.0000 </r>
       <r>   -16.8489     0.0000     8.0000 </r>
       <r>   -16.6949     0.0000     8.0000 </r>
       <r>   -16.5409     0.0000     8.0000 </r>
       <r>   -16.3869     0.0000     8.0000 </r>
       <r>   -16.2329     0.0000     8.0000 </r>
       <r>   -16.0789     0.0000     8.0000 </r>
       <r>   -15.9249     0.0000     8.0000 </r>
       <r>   -15.7708     0.0000     8.0000 </r>
       <r>   -15.6168     0.0000     8.0000 </r>
       <r>   -15.4628     0.0000     8.0000 </r>
       <r>   -15.3088     0.0000     8.0000 </r>
       <r>   -15.1548     0.0000     8.0000 </r>
       <r>   -15.0008     0.0003     8.0000 </r>
       <r>   -14.8468     0.4860     8.0749 </r>
       <r>   -14.6928     9.6157     9.5558 </r>
       <r>   -14.5388    14.6122    11.8062 </r>
       <r>   -14.3847    11.7538    13.6164 </r>
       <r>   -14.2307    11.0844    15.3236 </r>
       <r>   -14.0767     4.5339    16.0218 </r>
       <r>   -13.9227    14.5368    18.2607 </r>
       <r>   -13.7687    17.7449    20.9935 </r>
       <r>   -13.6147    21.4746    24.3009 </r>
       <r>   -13.4607     9.0550    25.6954 </r>
       <r>   -13.3067     2.1027    26.0193 </r>
       <r>   -13.1527    16.2938    28.5287 </r>
       <r>   -12.9987    31.4731    33.3759 </r>
       <r>   -12.8446    34.2931    38.6574 </r>
       <r>   -12.6906    29.2303    43.1591 </r>
       <r>   -12.5366    25.7608    47.1266 </r>
       <r>   -12.3826    17.5426    49.8283 </r>
       <r>   -12.2286     1.1149    50.0000 </r>
       <r>   -12.0746     0.0000    50.0000 </r>
       <r>   -11.9206     0.0000    50.0000 </r>
       <r>   -11.7666     0.0000    50.0000 </r>
       <r>   -11.6126     0.0000    50.0000 </r>
       <r>   -11.4586     0.0000    50.0000 </r>
       <r>   -11.3045     0.0000    50.0000 </r>
       <r>   -11.1505     0.0000    50.0000 </r>
       <r>   -10.9965     0.0000    50.0000 </r>
       <r>   -10.8425     0.0000    50.0000 </r>
       <r>   -10.6885     0.0000    50.0000 </r>
       <r>   -10.5345     0.0000    50.0000 </r>
       <r>   -10.3805     0.0000    50.0000 </r>
       <r>   -10.2265     0.0000    50.0000 </r>
       <r>   -10.0725     0.0000    50.0000 </r>
       <r>    -9.9184     0.0000    50.0000 </r>
       <r>    -9.7644     0.0000    50.0000 </r>
       <r>    -9.6104     0.0000    50.0000 </r>
       <r>    -9.4564     0.0000    50.0000 </r>
       <r>    -9.3024     0.0000    50.0000 </r>
       <r>    -9.1484     0.0000    50.0000 </r>
       <r>    -8.9944     0.0000    50.0000 </r>
       <r>    -8.8404     0.0000    50.0000 </r>
       <r>    -8.6864     0.0000    50.0000 </r>
       <r>    -8.5324     0.0000    50.0000 </r>
       <r>    -8.3783     0.0000    50.0000 </r>
       <r>    -8.2243     0.0000    50.0000 </r>
       <r>    -8.0703     0.0000    50.0000 </r>
       <r>    -7.9163     0.0000    50.0000 </r>
       <r>    -7.7623     0.0000    50.0000 </r>
       <r>    -7.6083     0.0000    50.0000 </r>
       <r>    -7.4543     0.0000    50.0000 </r>
       <r>    -7.3003     0.0000    50.0000 </r>
       <r>    -7.1463     0.0000    50.0000 </r>
       <r>    -6.9923     0.0000    50.0000 </r>
       <r>    -6.8382     0.0000    50.0000 </r>
       <r>    -6.6842     0.0000    50.0000 </r>
       <r>    -6.5302     0.0000    50.0000 </r>
       <r>    -6.3762     0.0000    50.0000 </r>
       <r>    -6.2222     0.0000    50.0000 </r>
       <r>    -6.0682     0.0000    50.0000 </r>
       <r>    -5.9142     0.0000    50.0000 </r>
       <r>    -5.7602     0.0000    50.0000 </r>
       <r>    -5.6062     0.0000    50.0000 </r>
       <r>    -5.4521     0.0000    50.0000 </r>
       <r>    -5.2981     0.0000    50.0000 </r>
       <r>    -5.1441     0.0000    50.0000 </r>
       <r>    -4.9901     0.0000    50.0000 </r>
       <r>    -4.8361     0.0000    50.0000 </r>
       <r>    -4.6821     0.0000    50.0000 </r>
       <r>    -4.5281     0.0000    50.0000 </r>
       <r>    -4.3741     0.0000    50.0000 </r>
       <r>    -4.2201     0.0000    50.0000 </r>
       <r>    -4.0661     0.0000    50.0000 </r>
       <r>    -3.9120     0.0000    50.0000 </r>
       <r>    -3.7580     0.0000    50.0000 </r>
       <r>    -3.6040     0.0000    50.0000 </r>
       <r>    -3.4500     0.0000    50.0000 </r>
       <r>    -3.2960     0.0000    50.0000 </r>
       <r>    -3.1420     0.0000    50.0000 </r>
       <r>    -2.9880     0.2521    50.0388 </r>
       <r>    -2.8340     2.4182    50.4113 </r>
       <r>    -2.6800     5.1014    51.1969 </r>
       <r>    -2.5260     2.8127    51.6301 </r>
       <r>    -2.3719    12.8573    53.6103 </r>
       <r>    -2.2179     1.8811    53.9000 </r>
       <r>    -2.0639     7.9678    55.1271 </r>
       <r>    -1.9099    12.0329    56.9803 </r>
       <r>    -1.7559    32.7107    62.0181 </r>
       <r>    -1.6019    18.8034    64.9140 </r>
       <r>    -1.4479    20.2941    68.0395 </r>
       <r>    -1.2939    33.4314    73.1883 </r>
       <r>    -1.1399    26.8115    77.3175 </r>
       <r>    -0.9858    23.1238    80.8788 </r>
       <r>    -0.8318    28.3594    85.2465 </r>
       <r>    -0.6778    16.5195    87.7907 </r>
       <r>    -0.5238    17.4215    90.4738 </r>
       <r>    -0.3698     6.1745    91.4247 </r>
       <r>    -0.2158     4.3222    92.0904 </r>
       <r>    -0.0618     6.2853    93.0584 </r>
       <r>     0.0922     9.7423    94.5588 </r>
       <r>     0.2462    11.3501    96.3068 </r>
       <r>     0.4002    11.5681    98.0884 </r>
       <r>     0.5543     9.6520    99.5749 </r>
       <r>     0.7083    10.8170   101.2408 </r>
       <r>     0.8623    12.7850   103.2099 </r>
       <r>     1.0163    15.9705   105.6695 </r>
       <r>     1.1703    22.7805   109.1779 </r>
       <r>     1.3243    31.3375   114.0042 </r>
       <r>     1.4783    33.5454   119.1706 </r>
       <r>     1.6323    26.2033   123.2061 </r>
       <r>     1.7863    18.5477   126.0627 </r>
       <r>     1.9403    22.0908   129.4649 </r>
       <r>     2.0944    19.9731   132.5410 </r>
       <r>     2.2484    10.5422   134.1646 </r>
       <r>     2.4024     6.9353   135.2327 </r>
       <r>     2.5564     6.7439   136.2713 </r>
       <r>     2.7104     7.0774   137.3613 </r>
       <r>     2.8644     8.7261   138.7052 </r>
       <r>     3.0184     7.5158   139.8627 </r>
       <r>     3.1724     7.7440   141.0554 </r>
       <r>     3.3264     8.8525   142.4188 </r>
       <r>     3.4805     3.7140   142.9908 </r>
       <r>     3.6345     1.6933   143.2515 </r>
       <r>     3.7885     0.9979   143.4052 </r>
       <r>     3.9425     3.2214   143.9014 </r>
       <r>     4.0965     2.1546   144.2332 </r>
       <r>     4.2505     3.6891   144.8013 </r>
       <r>     4.4045     1.3770   145.0134 </r>
       <r>     4.5585     0.6698   145.1166 </r>
       <r>     4.7125     3.3725   145.6360 </r>
       <r>     4.8665     0.6728   145.7396 </r>
       <r>     5.0206     1.1107   145.9107 </r>
       <r>     5.1746     3.4080   146.4355 </r>
       <r>     5.3286     4.0202   147.0547 </r>
       <r>     5.4826     3.0605   147.5260 </r>
       <r>     5.6366     1.4097   147.7431 </r>
       <r>     5.7906     1.6259   147.9935 </r>
       <r>     5.9446     1.4673   148.2195 </r>
       <r>     6.0986     3.2673   148.7227 </r>
       <r>     6.2526     0.8568   148.8547 </r>
       <r>     6.4066     0.8032   148.9784 </r>
       <r>     6.5607     4.4629   149.6657 </r>
       <r>     6.7147     0.9531   149.8125 </r>
       <r>     6.8687     0.1581   149.8368 </r>
       <r>     7.0227     0.7046   149.9454 </r>
       <r>     7.1767     0.4261   150.0110 </r>
       <r>     7.3307     0.8711   150.1451 </r>
       <r>     7.4847     3.3862   150.6667 </r>
       <r>     7.6387     2.6274   151.0713 </r>
       <r>     7.7927     5.4306   151.9077 </r>
       <r>     7.9468     6.0757   152.8434 </r>
       <r>     8.1008     6.6755   153.8715 </r>
       <r>     8.2548     8.4938   155.1796 </r>
       <r>     8.4088    10.7182   156.8303 </r>
       <r>     8.5628     8.6219   158.1582 </r>
       <r>     8.7168    10.3555   159.7531 </r>
       <r>     8.8708     6.5999   160.7695 </r>
       <r>     9.0248     7.5484   161.9320 </r>
       <r>     9.1788     9.3217   163.3677 </r>
       <r>     9.3328     9.9735   164.9037 </r>
       <r>     9.4869    12.0573   166.7607 </r>
       <r>     9.6409    10.6579   168.4021 </r>
       <r>     9.7949     7.6211   169.5758 </r>
       <r>     9.9489     9.5821   171.0516 </r>
       <r>    10.1029    15.4440   173.4301 </r>
       <r>    10.2569    13.9450   175.5778 </r>
       <r>    10.4109    17.2634   178.2365 </r>
       <r>    10.5649    15.7079   180.6557 </r>
       <r>    10.7189    16.3920   183.1802 </r>
       <r>    10.8729     5.0121   183.9521 </r>
       <r>    11.0270     0.3108   184.0000 </r>
       <r>    11.1810     0.0000   184.0000 </r>
       <r>    11.3350     0.0000   184.0000 </r>
       <r>    11.4890     0.0000   184.0000 </r>
       <r>    11.6430     0.0000   184.0000 </r>
       <r>    11.7970     0.0000   184.0000 </r>
       <r>    11.9510     0.0000   184.0000 </r>
       <r>    12.1050     0.0000   184.0000 </r>
       <r>    12.2590     0.0000   184.0000 </r>
       <r>    12.4131     0.0000   184.0000 </r>
       <r>    12.5671     0.0000   184.0000 </r>
       <r>    12.7211     0.0000   184.0000 </r>
       <r>    12.8751     0.0000   184.0000 </r>
       <r>    13.0291     0.0000   184.0000 </r>
      </set>
     </set>
    </array>
   </total>
  </dos>
 </calculation>
 <structure name="finalpos" >
  <crystal>
   <varray name="basis" >
    <v>       8.00000000       0.00000000       0.00000000 </v>
    <v>       0.00000000       8.00000000       0.00000000 </v>
    <v>       0.00000000       0.00000000       8.00000000 </v>
   </varray>
   <i name="volume">    512.00000000 </i>
   <varray name="rec_basis" >
    <v>       0.12500000       0.00000000       0.00000000 </v>
    <v>       0.00000000       0.12500000       0.00000000 </v>
    <v>       0.00000000       0.00000000       0.12500000 </v>
   </varray>
  </crystal>
  <varray name="positions" >
   <v>       0.50000000       0.75000000       0.75000000 </v>
   <v>       0.50000000       0.75000000       0.25000000 </v>
   <v>       0.00000000       0.75000000       0.75000000 </v>
   <v>       0.00000000       0.75000000       0.25000000 </v>
   <v>       0.00000000       0.25000000       0.75000000 </v>
   <v>       0.00000000       0.25000000       0.25000000 </v>
   <v>       0.50000000       0.25000000       0.75000000 </v>
   <v>       0.50000000       0.25000000       0.25000000 </v>
   <v>       0.75000000       0.50000000       0.50000000 </v>
   <v>       0.75000000       0.50000000       0.00000000 </v>
   <v>       0.75000000       0.00000000       0.50000000 </v>
   <v>       0.75000000       0.00000000       0.00000000 </v>
   <v>       0.25000000       0.00000000       0.50000000 </v>
   <v>       0.25000000       0.00000000       0.00000000 </v>
   <v>       0.25000000       0.50000000       0.50000000 </v>
   <v>       0.25000000       0.50000000       0.00000000 </v>
   <v>       0.00000000       0.50000000       0.00000000 </v>
   <v>       0.00000000       0.00000000       0.50000000 </v>
   <v>       0.00000000       0.00000000       0.00000000 </v>
   <v>       0.25000000       0.75000000       0.50000000 </v>
   <v>       0.25000000       0.75000000       0.00000000 </v>
   <v>       0.75000000       0.75000000       0.50000000 </v>
   <v>       0.75000000       0.75000000       0.00000000 </v>
   <v>       0.75000000       0.50000000       0.25000000 </v>
   <v>       0.75000000       0.00000000       0.75000000 </v>
   <v>       0.50000000       0.00000000       0.00000000 </v>
   <v>       0.50000000       0.50000000       0.50000000 </v>
   <v>       0.50000000       0.50000000       0.00000000 </v>
   <v>       0.75000000       0.25000000       0.50000000 </v>
   <v>       0.75000000       0.25000000       0.00000000 </v>
   <v>       0.25000000       0.25000000       0.50000000 </v>
   <v>       0.25000000       0.25000000       0.00000000 </v>
   <v>       0.25000000       0.00000000       0.25000000 </v>
   <v>       0.25000000       0.50000000       0.75000000 </v>
  </varray>
 </structure>
</modeling>
