<?xml version="1.0" encoding="ISO-8859-1"?>
<modeling>
 <generator>
  <i name="program" type="string">vasp </i>
  <i name="version" type="string">5.3.5  </i>
  <i name="subversion" type="string">31Mar14 (build Jun 20 2014 13:15:13) complex                          parallel </i>
  <i name="platform" type="string">LinuxIFC </i>
  <i name="date" type="string">2025 11 27 </i>
  <i name="time" type="string">10:13:12 </i>
 </generator>
 <incar>
  <i type="string" name="PREC">accurate</i>
  <i type="int" name="IALGO">    68</i>
  <i type="logical" name="ADDGRID"> T  </i>
  <i type="int" name="NELM">   200</i>
  <i type="int" name="NELMIN">     4</i>
  <i type="int" name="IBRION">     2</i>
  <i name="EDIFF">      0.00000100</i>
  <i name="EDIFFG">     -0.02000000</i>
  <i type="int" name="NSW">    30</i>
  <i type="int" name="ISIF">     3</i>
  <i name="ENCUT">    500.00000000</i>
  <i type="logical" name="LREAL"> F  </i>
  <i type="int" name="ISMEAR">     1</i>
  <i name="SIGMA">      0.30000000</i>
  <i type="logical" name="LWAVE"> F  </i>
  <i type="logical" name="LCHARG"> F  </i>
  <i type="int" name="NELM">   200</i>
 </incar>
 <kpoints>
  <generation param="Auto">
   <i name="subdivisionlength">     70.00000000 </i>
   <v type="int" name="divisions">      25       18        8 </v>
   <v name="usershift">      0.00000000       0.00000000       0.00000000 </v>
   <v name="genvec1">      0.04000000       0.00000000       0.00000000 </v>
   <v name="genvec2">      0.00000000       0.05555556       0.00000000 </v>
   <v name="genvec3">      0.00000000       0.00000000       0.12500000 </v>
   <v name="shift">      0.00000000       0.00000000       0.00000000 </v>
  </generation>
  <varray name="kpointlist" >
   <v>       0.00000000       0.00000000       0.00000000 </v>
   <v>       0.04000000       0.00000000       0.00000000 </v>
   <v>       0.08000000       0.00000000       0.00000000 </v>
   <v>       0.12000000       0.00000000       0.00000000 </v>
   <v>       0.16000000       0.00000000       0.00000000 </v>
   <v>       0.20000000       0.00000000       0.00000000 </v>
   <v>       0.24000000       0.00000000       0.00000000 </v>
   <v>       0.28000000       0.00000000       0.00000000 </v>
   <v>       0.32000000       0.00000000       0.00000000 </v>
   <v>       0.36000000       0.00000000       0.00000000 </v>
   <v>       0.40000000       0.00000000       0.00000000 </v>
   <v>       0.44000000       0.00000000       0.00000000 </v>
   <v>       0.48000000       0.00000000       0.00000000 </v>
   <v>       0.00000000       0.05555556       0.00000000 </v>
   <v>       0.04000000       0.05555556       0.00000000 </v>
   <v>       0.08000000       0.05555556       0.00000000 </v>
   <v>       0.12000000       0.05555556       0.00000000 </v>
   <v>       0.16000000       0.05555556       0.00000000 </v>
   <v>       0.20000000       0.05555556       0.00000000 </v>
   <v>       0.24000000       0.05555556       0.00000000 </v>
   <v>       0.28000000       0.05555556       0.00000000 </v>
   <v>       0.32000000       0.05555556       0.00000000 </v>
   <v>       0.36000000       0.05555556       0.00000000 </v>
   <v>       0.40000000       0.05555556       0.00000000 </v>
   <v>       0.44000000       0.05555556       0.00000000 </v>
   <v>       0.48000000       0.05555556       0.00000000 </v>
   <v>       0.00000000       0.11111111       0.00000000 </v>
   <v>       0.04000000       0.11111111       0.00000000 </v>
   <v>       0.08000000       0.11111111       0.00000000 </v>
   <v>       0.12000000       0.11111111       0.00000000 </v>
   <v>       0.16000000       0.11111111       0.00000000 </v>
   <v>       0.20000000       0.11111111       0.00000000 </v>
   <v>       0.24000000       0.11111111       0.00000000 </v>
   <v>       0.28000000       0.11111111       0.00000000 </v>
   <v>       0.32000000       0.11111111       0.00000000 </v>
   <v>       0.36000000       0.11111111       0.00000000 </v>
   <v>       0.40000000       0.11111111       0.00000000 </v>
   <v>       0.44000000       0.11111111       0.00000000 </v>
   <v>       0.48000000       0.11111111       0.00000000 </v>
   <v>       0.00000000       0.16666667       0.00000000 </v>
   <v>       0.04000000       0.16666667       0.00000000 </v>
   <v>       0.08000000       0.16666667       0.00000000 </v>
   <v>       0.12000000       0.16666667       0.00000000 </v>
   <v>       0.16000000       0.16666667       0.00000000 </v>
   <v>       0.20000000       0.16666667       0.00000000 </v>
   <v>       0.24000000       0.16666667       0.00000000 </v>
   <v>       0.28000000       0.16666667       0.00000000 </v>
   <v>       0.32000000       0.16666667       0.00000000 </v>
   <v>       0.36000000       0.16666667       0.00000000 </v>
   <v>       0.40000000       0.16666667       0.00000000 </v>
   <v>       0.44000000       0.16666667       0.00000000 </v>
   <v>       0.48000000       0.16666667       0.00000000 </v>
   <v>       0.00000000       0.22222222       0.00000000 </v>
   <v>       0.04000000       0.22222222       0.00000000 </v>
   <v>       0.08000000       0.22222222       0.00000000 </v>
   <v>       0.12000000       0.22222222       0.00000000 </v>
   <v>       0.16000000       0.22222222       0.00000000 </v>
   <v>       0.20000000       0.22222222       0.00000000 </v>
   <v>       0.24000000       0.22222222       0.00000000 </v>
   <v>       0.28000000       0.22222222       0.00000000 </v>
   <v>       0.32000000       0.22222222       0.00000000 </v>
   <v>       0.36000000       0.22222222       0.00000000 </v>
   <v>       0.40000000       0.22222222       0.00000000 </v>
   <v>       0.44000000       0.22222222       0.00000000 </v>
   <v>       0.48000000       0.22222222       0.00000000 </v>
   <v>       0.00000000       0.27777778       0.00000000 </v>
   <v>       0.04000000       0.27777778       0.00000000 </v>
   <v>       0.08000000       0.27777778       0.00000000 </v>
   <v>       0.12000000       0.27777778       0.00000000 </v>
   <v>       0.16000000       0.27777778       0.00000000 </v>
   <v>       0.20000000       0.27777778       0.00000000 </v>
   <v>       0.24000000       0.27777778       0.00000000 </v>
   <v>       0.28000000       0.27777778       0.00000000 </v>
   <v>       0.32000000       0.27777778       0.00000000 </v>
   <v>       0.36000000       0.27777778       0.00000000 </v>
   <v>       0.40000000       0.27777778       0.00000000 </v>
   <v>       0.44000000       0.27777778       0.00000000 </v>
   <v>       0.48000000       0.27777778       0.00000000 </v>
   <v>       0.00000000       0.33333333       0.00000000 </v>
   <v>       0.04000000       0.33333333       0.00000000 </v>
   <v>       0.08000000       0.33333333       0.00000000 </v>
   <v>       0.12000000       0.33333333       0.00000000 </v>
   <v>       0.16000000       0.33333333       0.00000000 </v>
   <v>       0.20000000       0.33333333       0.00000000 </v>
   <v>       0.24000000       0.33333333       0.00000000 </v>
   <v>       0.28000000       0.33333333       0.00000000 </v>
   <v>       0.32000000       0.33333333       0.00000000 </v>
   <v>       0.36000000       0.33333333       0.00000000 </v>
   <v>       0.40000000       0.33333333       0.00000000 </v>
   <v>       0.44000000       0.33333333       0.00000000 </v>
   <v>       0.48000000       0.33333333       0.00000000 </v>
   <v>       0.00000000       0.38888889       0.00000000 </v>
   <v>       0.04000000       0.38888889       0.00000000 </v>
   <v>       0.08000000       0.38888889       0.00000000 </v>
   <v>       0.12000000       0.38888889       0.00000000 </v>
   <v>       0.16000000       0.38888889       0.00000000 </v>
   <v>       0.20000000       0.38888889       0.00000000 </v>
   <v>       0.24000000       0.38888889       0.00000000 </v>
   <v>       0.28000000       0.38888889       0.00000000 </v>
   <v>       0.32000000       0.38888889       0.00000000 </v>
   <v>       0.36000000       0.38888889       0.00000000 </v>
   <v>       0.40000000       0.38888889       0.00000000 </v>
   <v>       0.44000000       0.38888889       0.00000000 </v>
   <v>       0.48000000       0.38888889       0.00000000 </v>
   <v>       0.00000000       0.44444444       0.00000000 </v>
   <v>       0.04000000       0.44444444       0.00000000 </v>
   <v>       0.08000000       0.44444444       0.00000000 </v>
   <v>       0.12000000       0.44444444       0.00000000 </v>
   <v>       0.16000000       0.44444444       0.00000000 </v>
   <v>       0.20000000       0.44444444       0.00000000 </v>
   <v>       0.24000000       0.44444444       0.00000000 </v>
   <v>       0.28000000       0.44444444       0.00000000 </v>
   <v>       0.32000000       0.44444444       0.00000000 </v>
   <v>       0.36000000       0.44444444       0.00000000 </v>
   <v>       0.40000000       0.44444444       0.00000000 </v>
   <v>       0.44000000       0.44444444       0.00000000 </v>
   <v>       0.48000000       0.44444444       0.00000000 </v>
   <v>       0.00000000       0.50000000       0.00000000 </v>
   <v>       0.04000000       0.50000000       0.00000000 </v>
   <v>       0.08000000       0.50000000       0.00000000 </v>
   <v>       0.12000000       0.50000000       0.00000000 </v>
   <v>       0.16000000       0.50000000       0.00000000 </v>
   <v>       0.20000000       0.50000000       0.00000000 </v>
   <v>       0.24000000       0.50000000       0.00000000 </v>
   <v>       0.28000000       0.50000000       0.00000000 </v>
   <v>       0.32000000       0.50000000       0.00000000 </v>
   <v>       0.36000000       0.50000000       0.00000000 </v>
   <v>       0.40000000       0.50000000       0.00000000 </v>
   <v>       0.44000000       0.50000000       0.00000000 </v>
   <v>       0.48000000       0.50000000       0.00000000 </v>
   <v>       0.00000000       0.00000000       0.12500000 </v>
   <v>       0.04000000       0.00000000       0.12500000 </v>
   <v>       0.08000000       0.00000000       0.12500000 </v>
   <v>       0.12000000       0.00000000       0.12500000 </v>
   <v>       0.16000000       0.00000000       0.12500000 </v>
   <v>       0.20000000       0.00000000       0.12500000 </v>
   <v>       0.24000000       0.00000000       0.12500000 </v>
   <v>       0.28000000       0.00000000       0.12500000 </v>
   <v>       0.32000000       0.00000000       0.12500000 </v>
   <v>       0.36000000       0.00000000       0.12500000 </v>
   <v>       0.40000000       0.00000000       0.12500000 </v>
   <v>       0.44000000       0.00000000       0.12500000 </v>
   <v>       0.48000000       0.00000000       0.12500000 </v>
   <v>       0.00000000       0.05555556       0.12500000 </v>
   <v>       0.04000000       0.05555556       0.12500000 </v>
   <v>       0.08000000       0.05555556       0.12500000 </v>
   <v>       0.12000000       0.05555556       0.12500000 </v>
   <v>       0.16000000       0.05555556       0.12500000 </v>
   <v>       0.20000000       0.05555556       0.12500000 </v>
   <v>       0.24000000       0.05555556       0.12500000 </v>
   <v>       0.28000000       0.05555556       0.12500000 </v>
   <v>       0.32000000       0.05555556       0.12500000 </v>
   <v>       0.36000000       0.05555556       0.12500000 </v>
   <v>       0.40000000       0.05555556       0.12500000 </v>
   <v>       0.44000000       0.05555556       0.12500000 </v>
   <v>       0.48000000       0.05555556       0.12500000 </v>
   <v>       0.00000000       0.11111111       0.12500000 </v>
   <v>       0.04000000       0.11111111       0.12500000 </v>
   <v>       0.08000000       0.11111111       0.12500000 </v>
   <v>       0.12000000       0.11111111       0.12500000 </v>
   <v>       0.16000000       0.11111111       0.12500000 </v>
   <v>       0.20000000       0.11111111       0.12500000 </v>
   <v>       0.24000000       0.11111111       0.12500000 </v>
   <v>       0.28000000       0.11111111       0.12500000 </v>
   <v>       0.32000000       0.11111111       0.12500000 </v>
   <v>       0.36000000       0.11111111       0.12500000 </v>
   <v>       0.40000000       0.11111111       0.12500000 </v>
   <v>       0.44000000       0.11111111       0.12500000 </v>
   <v>       0.48000000       0.11111111       0.12500000 </v>
   <v>       0.00000000       0.16666667       0.12500000 </v>
   <v>       0.04000000       0.16666667       0.12500000 </v>
   <v>       0.08000000       0.16666667       0.12500000 </v>
   <v>       0.12000000       0.16666667       0.12500000 </v>
   <v>       0.16000000       0.16666667       0.12500000 </v>
   <v>       0.20000000       0.16666667       0.12500000 </v>
   <v>       0.24000000       0.16666667       0.12500000 </v>
   <v>       0.28000000       0.16666667       0.12500000 </v>
   <v>       0.32000000       0.16666667       0.12500000 </v>
   <v>       0.36000000       0.16666667       0.12500000 </v>
   <v>       0.40000000       0.16666667       0.12500000 </v>
   <v>       0.44000000       0.16666667       0.12500000 </v>
   <v>       0.48000000       0.16666667       0.12500000 </v>
   <v>       0.00000000       0.22222222       0.12500000 </v>
   <v>       0.04000000       0.22222222       0.12500000 </v>
   <v>       0.08000000       0.22222222       0.12500000 </v>
   <v>       0.12000000       0.22222222       0.12500000 </v>
   <v>       0.16000000       0.22222222       0.12500000 </v>
   <v>       0.20000000       0.22222222       0.12500000 </v>
   <v>       0.24000000       0.22222222       0.12500000 </v>
   <v>       0.28000000       0.22222222       0.12500000 </v>
   <v>       0.32000000       0.22222222       0.12500000 </v>
   <v>       0.36000000       0.22222222       0.12500000 </v>
   <v>       0.40000000       0.22222222       0.12500000 </v>
   <v>       0.44000000       0.22222222       0.12500000 </v>
   <v>       0.48000000       0.22222222       0.12500000 </v>
   <v>       0.00000000       0.27777778       0.12500000 </v>
   <v>       0.04000000       0.27777778       0.12500000 </v>
   <v>       0.08000000       0.27777778       0.12500000 </v>
   <v>       0.12000000       0.27777778       0.12500000 </v>
   <v>       0.16000000       0.27777778       0.12500000 </v>
   <v>       0.20000000       0.27777778       0.12500000 </v>
   <v>       0.24000000       0.27777778       0.12500000 </v>
   <v>       0.28000000       0.27777778       0.12500000 </v>
   <v>       0.32000000       0.27777778       0.12500000 </v>
   <v>       0.36000000       0.27777778       0.12500000 </v>
   <v>       0.40000000       0.27777778       0.12500000 </v>
   <v>       0.44000000       0.27777778       0.12500000 </v>
   <v>       0.48000000       0.27777778       0.12500000 </v>
   <v>       0.00000000       0.33333333       0.12500000 </v>
   <v>       0.04000000       0.33333333       0.12500000 </v>
   <v>       0.08000000       0.33333333       0.12500000 </v>
   <v>       0.12000000       0.33333333       0.12500000 </v>
   <v>       0.16000000       0.33333333       0.12500000 </v>
   <v>       0.20000000       0.33333333       0.12500000 </v>
   <v>       0.24000000       0.33333333       0.12500000 </v>
   <v>       0.28000000       0.33333333       0.12500000 </v>
   <v>       0.32000000       0.33333333       0.12500000 </v>
   <v>       0.36000000       0.33333333       0.12500000 </v>
   <v>       0.40000000       0.33333333       0.12500000 </v>
   <v>       0.44000000       0.33333333       0.12500000 </v>
   <v>       0.48000000       0.33333333       0.12500000 </v>
   <v>       0.00000000       0.38888889       0.12500000 </v>
   <v>       0.04000000       0.38888889       0.12500000 </v>
   <v>       0.08000000       0.38888889       0.12500000 </v>
   <v>       0.12000000       0.38888889       0.12500000 </v>
   <v>       0.16000000       0.38888889       0.12500000 </v>
   <v>       0.20000000       0.38888889       0.12500000 </v>
   <v>       0.24000000       0.38888889       0.12500000 </v>
   <v>       0.28000000       0.38888889       0.12500000 </v>
   <v>       0.32000000       0.38888889       0.12500000 </v>
   <v>       0.36000000       0.38888889       0.12500000 </v>
   <v>       0.40000000       0.38888889       0.12500000 </v>
   <v>       0.44000000       0.38888889       0.12500000 </v>
   <v>       0.48000000       0.38888889       0.12500000 </v>
   <v>       0.00000000       0.44444444       0.12500000 </v>
   <v>       0.04000000       0.44444444       0.12500000 </v>
   <v>       0.08000000       0.44444444       0.12500000 </v>
   <v>       0.12000000       0.44444444       0.12500000 </v>
   <v>       0.16000000       0.44444444       0.12500000 </v>
   <v>       0.20000000       0.44444444       0.12500000 </v>
   <v>       0.24000000       0.44444444       0.12500000 </v>
   <v>       0.28000000       0.44444444       0.12500000 </v>
   <v>       0.32000000       0.44444444       0.12500000 </v>
   <v>       0.36000000       0.44444444       0.12500000 </v>
   <v>       0.40000000       0.44444444       0.12500000 </v>
   <v>       0.44000000       0.44444444       0.12500000 </v>
   <v>       0.48000000       0.44444444       0.12500000 </v>
   <v>       0.00000000       0.50000000       0.12500000 </v>
   <v>       0.04000000       0.50000000       0.12500000 </v>
   <v>       0.08000000       0.50000000       0.12500000 </v>
   <v>       0.12000000       0.50000000       0.12500000 </v>
   <v>       0.16000000       0.50000000       0.12500000 </v>
   <v>       0.20000000       0.50000000       0.12500000 </v>
   <v>       0.24000000       0.50000000       0.12500000 </v>
   <v>       0.28000000       0.50000000       0.12500000 </v>
   <v>       0.32000000       0.50000000       0.12500000 </v>
   <v>       0.36000000       0.50000000       0.12500000 </v>
   <v>       0.40000000       0.50000000       0.12500000 </v>
   <v>       0.44000000       0.50000000       0.12500000 </v>
   <v>       0.48000000       0.50000000       0.12500000 </v>
   <v>       0.00000000       0.00000000       0.25000000 </v>
   <v>       0.04000000       0.00000000       0.25000000 </v>
   <v>       0.08000000       0.00000000       0.25000000 </v>
   <v>       0.12000000       0.00000000       0.25000000 </v>
   <v>       0.16000000       0.00000000       0.25000000 </v>
   <v>       0.20000000       0.00000000       0.25000000 </v>
   <v>       0.24000000       0.00000000       0.25000000 </v>
   <v>       0.28000000       0.00000000       0.25000000 </v>
   <v>       0.32000000       0.00000000       0.25000000 </v>
   <v>       0.36000000       0.00000000       0.25000000 </v>
   <v>       0.40000000       0.00000000       0.25000000 </v>
   <v>       0.44000000       0.00000000       0.25000000 </v>
   <v>       0.48000000       0.00000000       0.25000000 </v>
   <v>       0.00000000       0.05555556       0.25000000 </v>
   <v>       0.04000000       0.05555556       0.25000000 </v>
   <v>       0.08000000       0.05555556       0.25000000 </v>
   <v>       0.12000000       0.05555556       0.25000000 </v>
   <v>       0.16000000       0.05555556       0.25000000 </v>
   <v>       0.20000000       0.05555556       0.25000000 </v>
   <v>       0.24000000       0.05555556       0.25000000 </v>
   <v>       0.28000000       0.05555556       0.25000000 </v>
   <v>       0.32000000       0.05555556       0.25000000 </v>
   <v>       0.36000000       0.05555556       0.25000000 </v>
   <v>       0.40000000       0.05555556       0.25000000 </v>
   <v>       0.44000000       0.05555556       0.25000000 </v>
   <v>       0.48000000       0.05555556       0.25000000 </v>
   <v>       0.00000000       0.11111111       0.25000000 </v>
   <v>       0.04000000       0.11111111       0.25000000 </v>
   <v>       0.08000000       0.11111111       0.25000000 </v>
   <v>       0.12000000       0.11111111       0.25000000 </v>
   <v>       0.16000000       0.11111111       0.25000000 </v>
   <v>       0.20000000       0.11111111       0.25000000 </v>
   <v>       0.24000000       0.11111111       0.25000000 </v>
   <v>       0.28000000       0.11111111       0.25000000 </v>
   <v>       0.32000000       0.11111111       0.25000000 </v>
   <v>       0.36000000       0.11111111       0.25000000 </v>
   <v>       0.40000000       0.11111111       0.25000000 </v>
   <v>       0.44000000       0.11111111       0.25000000 </v>
   <v>       0.48000000       0.11111111       0.25000000 </v>
   <v>       0.00000000       0.16666667       0.25000000 </v>
   <v>       0.04000000       0.16666667       0.25000000 </v>
   <v>       0.08000000       0.16666667       0.25000000 </v>
   <v>       0.12000000       0.16666667       0.25000000 </v>
   <v>       0.16000000       0.16666667       0.25000000 </v>
   <v>       0.20000000       0.16666667       0.25000000 </v>
   <v>       0.24000000       0.16666667       0.25000000 </v>
   <v>       0.28000000       0.16666667       0.25000000 </v>
   <v>       0.32000000       0.16666667       0.25000000 </v>
   <v>       0.36000000       0.16666667       0.25000000 </v>
   <v>       0.40000000       0.16666667       0.25000000 </v>
   <v>       0.44000000       0.16666667       0.25000000 </v>
   <v>       0.48000000       0.16666667       0.25000000 </v>
   <v>       0.00000000       0.22222222       0.25000000 </v>
   <v>       0.04000000       0.22222222       0.25000000 </v>
   <v>       0.08000000       0.22222222       0.25000000 </v>
   <v>       0.12000000       0.22222222       0.25000000 </v>
   <v>       0.16000000       0.22222222       0.25000000 </v>
   <v>       0.20000000       0.22222222       0.25000000 </v>
   <v>       0.24000000       0.22222222       0.25000000 </v>
   <v>       0.28000000       0.22222222       0.25000000 </v>
   <v>       0.32000000       0.22222222       0.25000000 </v>
   <v>       0.36000000       0.22222222       0.25000000 </v>
   <v>       0.40000000       0.22222222       0.25000000 </v>
   <v>       0.44000000       0.22222222       0.25000000 </v>
   <v>       0.48000000       0.22222222       0.25000000 </v>
   <v>       0.00000000       0.27777778       0.25000000 </v>
   <v>       0.04000000       0.27777778       0.25000000 </v>
   <v>       0.08000000       0.27777778       0.25000000 </v>
   <v>       0.12000000       0.27777778       0.25000000 </v>
   <v>       0.16000000       0.27777778       0.25000000 </v>
   <v>       0.20000000       0.27777778       0.25000000 </v>
   <v>       0.24000000       0.27777778       0.25000000 </v>
   <v>       0.28000000       0.27777778       0.25000000 </v>
   <v>       0.32000000       0.27777778       0.25000000 </v>
   <v>       0.36000000       0.27777778       0.25000000 </v>
   <v>       0.40000000       0.27777778       0.25000000 </v>
   <v>       0.44000000       0.27777778       0.25000000 </v>
   <v>       0.48000000       0.27777778       0.25000000 </v>
   <v>       0.00000000       0.33333333       0.25000000 </v>
   <v>       0.04000000       0.33333333       0.25000000 </v>
   <v>       0.08000000       0.33333333       0.25000000 </v>
   <v>       0.12000000       0.33333333       0.25000000 </v>
   <v>       0.16000000       0.33333333       0.25000000 </v>
   <v>       0.20000000       0.33333333       0.25000000 </v>
   <v>       0.24000000       0.33333333       0.25000000 </v>
   <v>       0.28000000       0.33333333       0.25000000 </v>
   <v>       0.32000000       0.33333333       0.25000000 </v>
   <v>       0.36000000       0.33333333       0.25000000 </v>
   <v>       0.40000000       0.33333333       0.25000000 </v>
   <v>       0.44000000       0.33333333       0.25000000 </v>
   <v>       0.48000000       0.33333333       0.25000000 </v>
   <v>       0.00000000       0.38888889       0.25000000 </v>
   <v>       0.04000000       0.38888889       0.25000000 </v>
   <v>       0.08000000       0.38888889       0.25000000 </v>
   <v>       0.12000000       0.38888889       0.25000000 </v>
   <v>       0.16000000       0.38888889       0.25000000 </v>
   <v>       0.20000000       0.38888889       0.25000000 </v>
   <v>       0.24000000       0.38888889       0.25000000 </v>
   <v>       0.28000000       0.38888889       0.25000000 </v>
   <v>       0.32000000       0.38888889       0.25000000 </v>
   <v>       0.36000000       0.38888889       0.25000000 </v>
   <v>       0.40000000       0.38888889       0.25000000 </v>
   <v>       0.44000000       0.38888889       0.25000000 </v>
   <v>       0.48000000       0.38888889       0.25000000 </v>
   <v>       0.00000000       0.44444444       0.25000000 </v>
   <v>       0.04000000       0.44444444       0.25000000 </v>
   <v>       0.08000000       0.44444444       0.25000000 </v>
   <v>       0.12000000       0.44444444       0.25000000 </v>
   <v>       0.16000000       0.44444444       0.25000000 </v>
   <v>       0.20000000       0.44444444       0.25000000 </v>
   <v>       0.24000000       0.44444444       0.25000000 </v>
   <v>       0.28000000       0.44444444       0.25000000 </v>
   <v>       0.32000000       0.44444444       0.25000000 </v>
   <v>       0.36000000       0.44444444       0.25000000 </v>
   <v>       0.40000000       0.44444444       0.25000000 </v>
   <v>       0.44000000       0.44444444       0.25000000 </v>
   <v>       0.48000000       0.44444444       0.25000000 </v>
   <v>       0.00000000       0.50000000       0.25000000 </v>
   <v>       0.04000000       0.50000000       0.25000000 </v>
   <v>       0.08000000       0.50000000       0.25000000 </v>
   <v>       0.12000000       0.50000000       0.25000000 </v>
   <v>       0.16000000       0.50000000       0.25000000 </v>
   <v>       0.20000000       0.50000000       0.25000000 </v>
   <v>       0.24000000       0.50000000       0.25000000 </v>
   <v>       0.28000000       0.50000000       0.25000000 </v>
   <v>       0.32000000       0.50000000       0.25000000 </v>
   <v>       0.36000000       0.50000000       0.25000000 </v>
   <v>       0.40000000       0.50000000       0.25000000 </v>
   <v>       0.44000000       0.50000000       0.25000000 </v>
   <v>       0.48000000       0.50000000       0.25000000 </v>
   <v>       0.00000000       0.00000000       0.37500000 </v>
   <v>       0.04000000       0.00000000       0.37500000 </v>
   <v>       0.08000000       0.00000000       0.37500000 </v>
   <v>       0.12000000       0.00000000       0.37500000 </v>
   <v>       0.16000000       0.00000000       0.37500000 </v>
   <v>       0.20000000       0.00000000       0.37500000 </v>
   <v>       0.24000000       0.00000000       0.37500000 </v>
   <v>       0.28000000       0.00000000       0.37500000 </v>
   <v>       0.32000000       0.00000000       0.37500000 </v>
   <v>       0.36000000       0.00000000       0.37500000 </v>
   <v>       0.40000000       0.00000000       0.37500000 </v>
   <v>       0.44000000       0.00000000       0.37500000 </v>
   <v>       0.48000000       0.00000000       0.37500000 </v>
   <v>       0.00000000       0.05555556       0.37500000 </v>
   <v>       0.04000000       0.05555556       0.37500000 </v>
   <v>       0.08000000       0.05555556       0.37500000 </v>
   <v>       0.12000000       0.05555556       0.37500000 </v>
   <v>       0.16000000       0.05555556       0.37500000 </v>
   <v>       0.20000000       0.05555556       0.37500000 </v>
   <v>       0.24000000       0.05555556       0.37500000 </v>
   <v>       0.28000000       0.05555556       0.37500000 </v>
   <v>       0.32000000       0.05555556       0.37500000 </v>
   <v>       0.36000000       0.05555556       0.37500000 </v>
   <v>       0.40000000       0.05555556       0.37500000 </v>
   <v>       0.44000000       0.05555556       0.37500000 </v>
   <v>       0.48000000       0.05555556       0.37500000 </v>
   <v>       0.00000000       0.11111111       0.37500000 </v>
   <v>       0.04000000       0.11111111       0.37500000 </v>
   <v>       0.08000000       0.11111111       0.37500000 </v>
   <v>       0.12000000       0.11111111       0.37500000 </v>
   <v>       0.16000000       0.11111111       0.37500000 </v>
   <v>       0.20000000       0.11111111       0.37500000 </v>
   <v>       0.24000000       0.11111111       0.37500000 </v>
   <v>       0.28000000       0.11111111       0.37500000 </v>
   <v>       0.32000000       0.11111111       0.37500000 </v>
   <v>       0.36000000       0.11111111       0.37500000 </v>
   <v>       0.40000000       0.11111111       0.37500000 </v>
   <v>       0.44000000       0.11111111       0.37500000 </v>
   <v>       0.48000000       0.11111111       0.37500000 </v>
   <v>       0.00000000       0.16666667       0.37500000 </v>
   <v>       0.04000000       0.16666667       0.37500000 </v>
   <v>       0.08000000       0.16666667       0.37500000 </v>
   <v>       0.12000000       0.16666667       0.37500000 </v>
   <v>       0.16000000       0.16666667       0.37500000 </v>
   <v>       0.20000000       0.16666667       0.37500000 </v>
   <v>       0.24000000       0.16666667       0.37500000 </v>
   <v>       0.28000000       0.16666667       0.37500000 </v>
   <v>       0.32000000       0.16666667       0.37500000 </v>
   <v>       0.36000000       0.16666667       0.37500000 </v>
   <v>       0.40000000       0.16666667       0.37500000 </v>
   <v>       0.44000000       0.16666667       0.37500000 </v>
   <v>       0.48000000       0.16666667       0.37500000 </v>
   <v>       0.00000000       0.22222222       0.37500000 </v>
   <v>       0.04000000       0.22222222       0.37500000 </v>
   <v>       0.08000000       0.22222222       0.37500000 </v>
   <v>       0.12000000       0.22222222       0.37500000 </v>
   <v>       0.16000000       0.22222222       0.37500000 </v>
   <v>       0.20000000       0.22222222       0.37500000 </v>
   <v>       0.24000000       0.22222222       0.37500000 </v>
   <v>       0.28000000       0.22222222       0.37500000 </v>
   <v>       0.32000000       0.22222222       0.37500000 </v>
   <v>       0.36000000       0.22222222       0.37500000 </v>
   <v>       0.40000000       0.22222222       0.37500000 </v>
   <v>       0.44000000       0.22222222       0.37500000 </v>
   <v>       0.48000000       0.22222222       0.37500000 </v>
   <v>       0.00000000       0.27777778       0.37500000 </v>
   <v>       0.04000000       0.27777778       0.37500000 </v>
   <v>       0.08000000       0.27777778       0.37500000 </v>
   <v>       0.12000000       0.27777778       0.37500000 </v>
   <v>       0.16000000       0.27777778       0.37500000 </v>
   <v>       0.20000000       0.27777778       0.37500000 </v>
   <v>       0.24000000       0.27777778       0.37500000 </v>
   <v>       0.28000000       0.27777778       0.37500000 </v>
   <v>       0.32000000       0.27777778       0.37500000 </v>
   <v>       0.36000000       0.27777778       0.37500000 </v>
   <v>       0.40000000       0.27777778       0.37500000 </v>
   <v>       0.44000000       0.27777778       0.37500000 </v>
   <v>       0.48000000       0.27777778       0.37500000 </v>
   <v>       0.00000000       0.33333333       0.37500000 </v>
   <v>       0.04000000       0.33333333       0.37500000 </v>
   <v>       0.08000000       0.33333333       0.37500000 </v>
   <v>       0.12000000       0.33333333       0.37500000 </v>
   <v>       0.16000000       0.33333333       0.37500000 </v>
   <v>       0.20000000       0.33333333       0.37500000 </v>
   <v>       0.24000000       0.33333333       0.37500000 </v>
   <v>       0.28000000       0.33333333       0.37500000 </v>
   <v>       0.32000000       0.33333333       0.37500000 </v>
   <v>       0.36000000       0.33333333       0.37500000 </v>
   <v>       0.40000000       0.33333333       0.37500000 </v>
   <v>       0.44000000       0.33333333       0.37500000 </v>
   <v>       0.48000000       0.33333333       0.37500000 </v>
   <v>       0.00000000       0.38888889       0.37500000 </v>
   <v>       0.04000000       0.38888889       0.37500000 </v>
   <v>       0.08000000       0.38888889       0.37500000 </v>
   <v>       0.12000000       0.38888889       0.37500000 </v>
   <v>       0.16000000       0.38888889       0.37500000 </v>
   <v>       0.20000000       0.38888889       0.37500000 </v>
   <v>       0.24000000       0.38888889       0.37500000 </v>
   <v>       0.28000000       0.38888889       0.37500000 </v>
   <v>       0.32000000       0.38888889       0.37500000 </v>
   <v>       0.36000000       0.38888889       0.37500000 </v>
   <v>       0.40000000       0.38888889       0.37500000 </v>
   <v>       0.44000000       0.38888889       0.37500000 </v>
   <v>       0.48000000       0.38888889       0.37500000 </v>
   <v>       0.00000000       0.44444444       0.37500000 </v>
   <v>       0.04000000       0.44444444       0.37500000 </v>
   <v>       0.08000000       0.44444444       0.37500000 </v>
   <v>       0.12000000       0.44444444       0.37500000 </v>
   <v>       0.16000000       0.44444444       0.37500000 </v>
   <v>       0.20000000       0.44444444       0.37500000 </v>
   <v>       0.24000000       0.44444444       0.37500000 </v>
   <v>       0.28000000       0.44444444       0.37500000 </v>
   <v>       0.32000000       0.44444444       0.37500000 </v>
   <v>       0.36000000       0.44444444       0.37500000 </v>
   <v>       0.40000000       0.44444444       0.37500000 </v>
   <v>       0.44000000       0.44444444       0.37500000 </v>
   <v>       0.48000000       0.44444444       0.37500000 </v>
   <v>       0.00000000       0.50000000       0.37500000 </v>
   <v>       0.04000000       0.50000000       0.37500000 </v>
   <v>       0.08000000       0.50000000       0.37500000 </v>
   <v>       0.12000000       0.50000000       0.37500000 </v>
   <v>       0.16000000       0.50000000       0.37500000 </v>
   <v>       0.20000000       0.50000000       0.37500000 </v>
   <v>       0.24000000       0.50000000       0.37500000 </v>
   <v>       0.28000000       0.50000000       0.37500000 </v>
   <v>       0.32000000       0.50000000       0.37500000 </v>
   <v>       0.36000000       0.50000000       0.37500000 </v>
   <v>       0.40000000       0.50000000       0.37500000 </v>
   <v>       0.44000000       0.50000000       0.37500000 </v>
   <v>       0.48000000       0.50000000       0.37500000 </v>
   <v>       0.00000000       0.00000000       0.50000000 </v>
   <v>       0.04000000       0.00000000       0.50000000 </v>
   <v>       0.08000000       0.00000000       0.50000000 </v>
   <v>       0.12000000       0.00000000       0.50000000 </v>
   <v>       0.16000000       0.00000000       0.50000000 </v>
   <v>       0.20000000       0.00000000       0.50000000 </v>
   <v>       0.24000000       0.00000000       0.50000000 </v>
   <v>       0.28000000       0.00000000       0.50000000 </v>
   <v>       0.32000000       0.00000000       0.50000000 </v>
   <v>       0.36000000       0.00000000       0.50000000 </v>
   <v>       0.40000000       0.00000000       0.50000000 </v>
   <v>       0.44000000       0.00000000       0.50000000 </v>
   <v>       0.48000000       0.00000000       0.50000000 </v>
   <v>       0.00000000       0.05555556       0.50000000 </v>
   <v>       0.04000000       0.05555556       0.50000000 </v>
   <v>       0.08000000       0.05555556       0.50000000 </v>
   <v>       0.12000000       0.05555556       0.50000000 </v>
   <v>       0.16000000       0.05555556       0.50000000 </v>
   <v>       0.20000000       0.05555556       0.50000000 </v>
   <v>       0.24000000       0.05555556       0.50000000 </v>
   <v>       0.28000000       0.05555556       0.50000000 </v>
   <v>       0.32000000       0.05555556       0.50000000 </v>
   <v>       0.36000000       0.05555556       0.50000000 </v>
   <v>       0.40000000       0.05555556       0.50000000 </v>
   <v>       0.44000000       0.05555556       0.50000000 </v>
   <v>       0.48000000       0.05555556       0.50000000 </v>
   <v>       0.00000000       0.11111111       0.50000000 </v>
   <v>       0.04000000       0.11111111       0.50000000 </v>
   <v>       0.08000000       0.11111111       0.50000000 </v>
   <v>       0.12000000       0.11111111       0.50000000 </v>
   <v>       0.16000000       0.11111111       0.50000000 </v>
   <v>       0.20000000       0.11111111       0.50000000 </v>
   <v>       0.24000000       0.11111111       0.50000000 </v>
   <v>       0.28000000       0.11111111       0.50000000 </v>
   <v>       0.32000000       0.11111111       0.50000000 </v>
   <v>       0.36000000       0.11111111       0.50000000 </v>
   <v>       0.40000000       0.11111111       0.50000000 </v>
   <v>       0.44000000       0.11111111       0.50000000 </v>
   <v>       0.48000000       0.11111111       0.50000000 </v>
   <v>       0.00000000       0.16666667       0.50000000 </v>
   <v>       0.04000000       0.16666667       0.50000000 </v>
   <v>       0.08000000       0.16666667       0.50000000 </v>
   <v>       0.12000000       0.16666667       0.50000000 </v>
   <v>       0.16000000       0.16666667       0.50000000 </v>
   <v>       0.20000000       0.16666667       0.50000000 </v>
   <v>       0.24000000       0.16666667       0.50000000 </v>
   <v>       0.28000000       0.16666667       0.50000000 </v>
   <v>       0.32000000       0.16666667       0.50000000 </v>
   <v>       0.36000000       0.16666667       0.50000000 </v>
   <v>       0.40000000       0.16666667       0.50000000 </v>
   <v>       0.44000000       0.16666667       0.50000000 </v>
   <v>       0.48000000       0.16666667       0.50000000 </v>
   <v>       0.00000000       0.22222222       0.50000000 </v>
   <v>       0.04000000       0.22222222       0.50000000 </v>
   <v>       0.08000000       0.22222222       0.50000000 </v>
   <v>       0.12000000       0.22222222       0.50000000 </v>
   <v>       0.16000000       0.22222222       0.50000000 </v>
   <v>       0.20000000       0.22222222       0.50000000 </v>
   <v>       0.24000000       0.22222222       0.50000000 </v>
   <v>       0.28000000       0.22222222       0.50000000 </v>
   <v>       0.32000000       0.22222222       0.50000000 </v>
   <v>       0.36000000       0.22222222       0.50000000 </v>
   <v>       0.40000000       0.22222222       0.50000000 </v>
   <v>       0.44000000       0.22222222       0.50000000 </v>
   <v>       0.48000000       0.22222222       0.50000000 </v>
   <v>       0.00000000       0.27777778       0.50000000 </v>
   <v>       0.04000000       0.27777778       0.50000000 </v>
   <v>       0.08000000       0.27777778       0.50000000 </v>
   <v>       0.12000000       0.27777778       0.50000000 </v>
   <v>       0.16000000       0.27777778       0.50000000 </v>
   <v>       0.20000000       0.27777778       0.50000000 </v>
   <v>       0.24000000       0.27777778       0.50000000 </v>
   <v>       0.28000000       0.27777778       0.50000000 </v>
   <v>       0.32000000       0.27777778       0.50000000 </v>
   <v>       0.36000000       0.27777778       0.50000000 </v>
   <v>       0.40000000       0.27777778       0.50000000 </v>
   <v>       0.44000000       0.27777778       0.50000000 </v>
   <v>       0.48000000       0.27777778       0.50000000 </v>
   <v>       0.00000000       0.33333333       0.50000000 </v>
   <v>       0.04000000       0.33333333       0.50000000 </v>
   <v>       0.08000000       0.33333333       0.50000000 </v>
   <v>       0.12000000       0.33333333       0.50000000 </v>
   <v>       0.16000000       0.33333333       0.50000000 </v>
   <v>       0.20000000       0.33333333       0.50000000 </v>
   <v>       0.24000000       0.33333333       0.50000000 </v>
   <v>       0.28000000       0.33333333       0.50000000 </v>
   <v>       0.32000000       0.33333333       0.50000000 </v>
   <v>       0.36000000       0.33333333       0.50000000 </v>
   <v>       0.40000000       0.33333333       0.50000000 </v>
   <v>       0.44000000       0.33333333       0.50000000 </v>
   <v>       0.48000000       0.33333333       0.50000000 </v>
   <v>       0.00000000       0.38888889       0.50000000 </v>
   <v>       0.04000000       0.38888889       0.50000000 </v>
   <v>       0.08000000       0.38888889       0.50000000 </v>
   <v>       0.12000000       0.38888889       0.50000000 </v>
   <v>       0.16000000       0.38888889       0.50000000 </v>
   <v>       0.20000000       0.38888889       0.50000000 </v>
   <v>       0.24000000       0.38888889       0.50000000 </v>
   <v>       0.28000000       0.38888889       0.50000000 </v>
   <v>       0.32000000       0.38888889       0.50000000 </v>
   <v>       0.36000000       0.38888889       0.50000000 </v>
   <v>       0.40000000       0.38888889       0.50000000 </v>
   <v>       0.44000000       0.38888889       0.50000000 </v>
   <v>       0.48000000       0.38888889       0.50000000 </v>
   <v>       0.00000000       0.44444444       0.50000000 </v>
   <v>       0.04000000       0.44444444       0.50000000 </v>
   <v>       0.08000000       0.44444444       0.50000000 </v>
   <v>       0.12000000       0.44444444       0.50000000 </v>
   <v>       0.16000000       0.44444444       0.50000000 </v>
   <v>       0.20000000       0.44444444       0.50000000 </v>
   <v>       0.24000000       0.44444444       0.50000000 </v>
   <v>       0.28000000       0.44444444       0.50000000 </v>
   <v>       0.32000000       0.44444444       0.50000000 </v>
   <v>       0.36000000       0.44444444       0.50000000 </v>
   <v>       0.40000000       0.44444444       0.50000000 </v>
   <v>       0.44000000       0.44444444       0.50000000 </v>
   <v>       0.48000000       0.44444444       0.50000000 </v>
   <v>       0.00000000       0.50000000       0.50000000 </v>
   <v>       0.04000000       0.50000000       0.50000000 </v>
   <v>       0.08000000       0.50000000       0.50000000 </v>
   <v>       0.12000000       0.50000000       0.50000000 </v>
   <v>       0.16000000       0.50000000       0.50000000 </v>
   <v>       0.20000000       0.50000000       0.50000000 </v>
   <v>       0.24000000       0.50000000       0.50000000 </v>
   <v>       0.28000000       0.50000000       0.50000000 </v>
   <v>       0.32000000       0.50000000       0.50000000 </v>
   <v>       0.36000000       0.50000000       0.50000000 </v>
   <v>       0.40000000       0.50000000       0.50000000 </v>
   <v>       0.44000000       0.50000000       0.50000000 </v>
   <v>       0.48000000       0.50000000       0.50000000 </v>
  </varray>
  <varray name="weights" >
   <v>       0.00027778 </v>
   <v>       0.00055556 </v>
   <v>       0.00055556 </v>
   <v>       0.00055556 </v>
   <v>       0.00055556 </v>
   <v>       0.00055556 </v>
   <v>       0.00055556 </v>
   <v>       0.00055556 </v>
   <v>       0.00055556 </v>
   <v>       0.00055556 </v>
   <v>       0.00055556 </v>
   <v>       0.00055556 </v>
   <v>       0.00055556 </v>
   <v>       0.00055556 </v>
   <v>       0.00111111 </v>
   <v>       0.00111111 </v>
   <v>       0.00111111 </v>
   <v>       0.00111111 </v>
   <v>       0.00111111 </v>
   <v>       0.00111111 </v>
   <v>       0.00111111 </v>
   <v>       0.00111111 </v>
   <v>       0.00111111 </v>
   <v>       0.00111111 </v>
   <v>       0.00111111 </v>
   <v>       0.00111111 </v>
   <v>       0.00055556 </v>
   <v>       0.00111111 </v>
   <v>       0.00111111 </v>
   <v>       0.00111111 </v>
   <v>       0.00111111 </v>
   <v>       0.00111111 </v>
   <v>       0.00111111 </v>
   <v>       0.00111111 </v>
   <v>       0.00111111 </v>
   <v>       0.00111111 </v>
   <v>       0.00111111 </v>
   <v>       0.00111111 </v>
   <v>       0.00111111 </v>
   <v>       0.00055556 </v>
   <v>       0.00111111 </v>
   <v>       0.00111111 </v>
   <v>       0.00111111 </v>
   <v>       0.00111111 </v>
   <v>       0.00111111 </v>
   <v>       0.00111111 </v>
   <v>       0.00111111 </v>
   <v>       0.00111111 </v>
   <v>       0.00111111 </v>
   <v>       0.00111111 </v>
   <v>       0.00111111 </v>
   <v>       0.00111111 </v>
   <v>       0.00055556 </v>
   <v>       0.00111111 </v>
   <v>       0.00111111 </v>
   <v>       0.00111111 </v>
   <v>       0.00111111 </v>
   <v>       0.00111111 </v>
   <v>       0.00111111 </v>
   <v>       0.00111111 </v>
   <v>       0.00111111 </v>
   <v>       0.00111111 </v>
   <v>       0.00111111 </v>
   <v>       0.00111111 </v>
   <v>       0.00111111 </v>
   <v>       0.00055556 </v>
   <v>       0.00111111 </v>
   <v>       0.00111111 </v>
   <v>       0.00111111 </v>
   <v>       0.00111111 </v>
   <v>       0.00111111 </v>
   <v>       0.00111111 </v>
   <v>       0.00111111 </v>
   <v>       0.00111111 </v>
   <v>       0.00111111 </v>
   <v>       0.00111111 </v>
   <v>       0.00111111 </v>
   <v>       0.00111111 </v>
   <v>       0.00055556 </v>
   <v>       0.00111111 </v>
   <v>       0.00111111 </v>
   <v>       0.00111111 </v>
   <v>       0.00111111 </v>
   <v>       0.00111111 </v>
   <v>       0.00111111 </v>
   <v>       0.00111111 </v>
   <v>       0.00111111 </v>
   <v>       0.00111111 </v>
   <v>       0.00111111 </v>
   <v>       0.00111111 </v>
   <v>       0.00111111 </v>
   <v>       0.00055556 </v>
   <v>       0.00111111 </v>
   <v>       0.00111111 </v>
   <v>       0.00111111 </v>
   <v>       0.00111111 </v>
   <v>       0.00111111 </v>
   <v>       0.00111111 </v>
   <v>       0.00111111 </v>
   <v>       0.00111111 </v>
   <v>       0.00111111 </v>
   <v>       0.00111111 </v>
   <v>       0.00111111 </v>
   <v>       0.00111111 </v>
   <v>       0.00055556 </v>
   <v>       0.00111111 </v>
   <v>       0.00111111 </v>
   <v>       0.00111111 </v>
   <v>       0.00111111 </v>
   <v>       0.00111111 </v>
   <v>       0.00111111 </v>
   <v>       0.00111111 </v>
   <v>       0.00111111 </v>
   <v>       0.00111111 </v>
   <v>       0.00111111 </v>
   <v>       0.00111111 </v>
   <v>       0.00111111 </v>
   <v>       0.00027778 </v>
   <v>       0.00055556 </v>
   <v>       0.00055556 </v>
   <v>       0.00055556 </v>
   <v>       0.00055556 </v>
   <v>       0.00055556 </v>
   <v>       0.00055556 </v>
   <v>       0.00055556 </v>
   <v>       0.00055556 </v>
   <v>       0.00055556 </v>
   <v>       0.00055556 </v>
   <v>       0.00055556 </v>
   <v>       0.00055556 </v>
   <v>       0.00055556 </v>
   <v>       0.00111111 </v>
   <v>       0.00111111 </v>
   <v>       0.00111111 </v>
   <v>       0.00111111 </v>
   <v>       0.00111111 </v>
   <v>       0.00111111 </v>
   <v>       0.00111111 </v>
   <v>       0.00111111 </v>
   <v>       0.00111111 </v>
   <v>       0.00111111 </v>
   <v>       0.00111111 </v>
   <v>       0.00111111 </v>
   <v>       0.00111111 </v>
   <v>       0.00222222 </v>
   <v>       0.00222222 </v>
   <v>       0.00222222 </v>
   <v>       0.00222222 </v>
   <v>       0.00222222 </v>
   <v>       0.00222222 </v>
   <v>       0.00222222 </v>
   <v>       0.00222222 </v>
   <v>       0.00222222 </v>
   <v>       0.00222222 </v>
   <v>       0.00222222 </v>
   <v>       0.00222222 </v>
   <v>       0.00111111 </v>
   <v>       0.00222222 </v>
   <v>       0.00222222 </v>
   <v>       0.00222222 </v>
   <v>       0.00222222 </v>
   <v>       0.00222222 </v>
   <v>       0.00222222 </v>
   <v>       0.00222222 </v>
   <v>       0.00222222 </v>
   <v>       0.00222222 </v>
   <v>       0.00222222 </v>
   <v>       0.00222222 </v>
   <v>       0.00222222 </v>
   <v>       0.00111111 </v>
   <v>       0.00222222 </v>
   <v>       0.00222222 </v>
   <v>       0.00222222 </v>
   <v>       0.00222222 </v>
   <v>       0.00222222 </v>
   <v>       0.00222222 </v>
   <v>       0.00222222 </v>
   <v>       0.00222222 </v>
   <v>       0.00222222 </v>
   <v>       0.00222222 </v>
   <v>       0.00222222 </v>
   <v>       0.00222222 </v>
   <v>       0.00111111 </v>
   <v>       0.00222222 </v>
   <v>       0.00222222 </v>
   <v>       0.00222222 </v>
   <v>       0.00222222 </v>
   <v>       0.00222222 </v>
   <v>       0.00222222 </v>
   <v>       0.00222222 </v>
   <v>       0.00222222 </v>
   <v>       0.00222222 </v>
   <v>       0.00222222 </v>
   <v>       0.00222222 </v>
   <v>       0.00222222 </v>
   <v>       0.00111111 </v>
   <v>       0.00222222 </v>
   <v>       0.00222222 </v>
   <v>       0.00222222 </v>
   <v>       0.00222222 </v>
   <v>       0.00222222 </v>
   <v>       0.00222222 </v>
   <v>       0.00222222 </v>
   <v>       0.00222222 </v>
   <v>       0.00222222 </v>
   <v>       0.00222222 </v>
   <v>       0.00222222 </v>
   <v>       0.00222222 </v>
   <v>       0.00111111 </v>
   <v>       0.00222222 </v>
   <v>       0.00222222 </v>
   <v>       0.00222222 </v>
   <v>       0.00222222 </v>
   <v>       0.00222222 </v>
   <v>       0.00222222 </v>
   <v>       0.00222222 </v>
   <v>       0.00222222 </v>
   <v>       0.00222222 </v>
   <v>       0.00222222 </v>
   <v>       0.00222222 </v>
   <v>       0.00222222 </v>
   <v>       0.00111111 </v>
   <v>       0.00222222 </v>
   <v>       0.00222222 </v>
   <v>       0.00222222 </v>
   <v>       0.00222222 </v>
   <v>       0.00222222 </v>
   <v>       0.00222222 </v>
   <v>       0.00222222 </v>
   <v>       0.00222222 </v>
   <v>       0.00222222 </v>
   <v>       0.00222222 </v>
   <v>       0.00222222 </v>
   <v>       0.00222222 </v>
   <v>       0.00111111 </v>
   <v>       0.00222222 </v>
   <v>       0.00222222 </v>
   <v>       0.00222222 </v>
   <v>       0.00222222 </v>
   <v>       0.00222222 </v>
   <v>       0.00222222 </v>
   <v>       0.00222222 </v>
   <v>       0.00222222 </v>
   <v>       0.00222222 </v>
   <v>       0.00222222 </v>
   <v>       0.00222222 </v>
   <v>       0.00222222 </v>
   <v>       0.00055556 </v>
   <v>       0.00111111 </v>
   <v>       0.00111111 </v>
   <v>       0.00111111 </v>
   <v>       0.00111111 </v>
   <v>       0.00111111 </v>
   <v>       0.00111111 </v>
   <v>       0.00111111 </v>
   <v>       0.00111111 </v>
   <v>       0.00111111 </v>
   <v>       0.00111111 </v>
   <v>       0.00111111 </v>
   <v>       0.00111111 </v>
   <v>       0.00055556 </v>
   <v>       0.00111111 </v>
   <v>       0.00111111 </v>
   <v>       0.00111111 </v>
   <v>       0.00111111 </v>
   <v>       0.00111111 </v>
   <v>       0.00111111 </v>
   <v>       0.00111111 </v>
   <v>       0.00111111 </v>
   <v>       0.00111111 </v>
   <v>       0.00111111 </v>
   <v>       0.00111111 </v>
   <v>       0.00111111 </v>
   <v>       0.00111111 </v>
   <v>       0.00222222 </v>
   <v>       0.00222222 </v>
   <v>       0.00222222 </v>
   <v>       0.00222222 </v>
   <v>       0.00222222 </v>
   <v>       0.00222222 </v>
   <v>       0.00222222 </v>
   <v>       0.00222222 </v>
   <v>       0.00222222 </v>
   <v>       0.00222222 </v>
   <v>       0.00222222 </v>
   <v>       0.00222222 </v>
   <v>       0.00111111 </v>
   <v>       0.00222222 </v>
   <v>       0.00222222 </v>
   <v>       0.00222222 </v>
   <v>       0.00222222 </v>
   <v>       0.00222222 </v>
   <v>       0.00222222 </v>
   <v>       0.00222222 </v>
   <v>       0.00222222 </v>
   <v>       0.00222222 </v>
   <v>       0.00222222 </v>
   <v>       0.00222222 </v>
   <v>       0.00222222 </v>
   <v>       0.00111111 </v>
   <v>       0.00222222 </v>
   <v>       0.00222222 </v>
   <v>       0.00222222 </v>
   <v>       0.00222222 </v>
   <v>       0.00222222 </v>
   <v>       0.00222222 </v>
   <v>       0.00222222 </v>
   <v>       0.00222222 </v>
   <v>       0.00222222 </v>
   <v>       0.00222222 </v>
   <v>       0.00222222 </v>
   <v>       0.00222222 </v>
   <v>       0.00111111 </v>
   <v>       0.00222222 </v>
   <v>       0.00222222 </v>
   <v>       0.00222222 </v>
   <v>       0.00222222 </v>
   <v>       0.00222222 </v>
   <v>       0.00222222 </v>
   <v>       0.00222222 </v>
   <v>       0.00222222 </v>
   <v>       0.00222222 </v>
   <v>       0.00222222 </v>
   <v>       0.00222222 </v>
   <v>       0.00222222 </v>
   <v>       0.00111111 </v>
   <v>       0.00222222 </v>
   <v>       0.00222222 </v>
   <v>       0.00222222 </v>
   <v>       0.00222222 </v>
   <v>       0.00222222 </v>
   <v>       0.00222222 </v>
   <v>       0.00222222 </v>
   <v>       0.00222222 </v>
   <v>       0.00222222 </v>
   <v>       0.00222222 </v>
   <v>       0.00222222 </v>
   <v>       0.00222222 </v>
   <v>       0.00111111 </v>
   <v>       0.00222222 </v>
   <v>       0.00222222 </v>
   <v>       0.00222222 </v>
   <v>       0.00222222 </v>
   <v>       0.00222222 </v>
   <v>       0.00222222 </v>
   <v>       0.00222222 </v>
   <v>       0.00222222 </v>
   <v>       0.00222222 </v>
   <v>       0.00222222 </v>
   <v>       0.00222222 </v>
   <v>       0.00222222 </v>
   <v>       0.00111111 </v>
   <v>       0.00222222 </v>
   <v>       0.00222222 </v>
   <v>       0.00222222 </v>
   <v>       0.00222222 </v>
   <v>       0.00222222 </v>
   <v>       0.00222222 </v>
   <v>       0.00222222 </v>
   <v>       0.00222222 </v>
   <v>       0.00222222 </v>
   <v>       0.00222222 </v>
   <v>       0.00222222 </v>
   <v>       0.00222222 </v>
   <v>       0.00111111 </v>
   <v>       0.00222222 </v>
   <v>       0.00222222 </v>
   <v>       0.00222222 </v>
   <v>       0.00222222 </v>
   <v>       0.00222222 </v>
   <v>       0.00222222 </v>
   <v>       0.00222222 </v>
   <v>       0.00222222 </v>
   <v>       0.00222222 </v>
   <v>       0.00222222 </v>
   <v>       0.00222222 </v>
   <v>       0.00222222 </v>
   <v>       0.00055556 </v>
   <v>       0.00111111 </v>
   <v>       0.00111111 </v>
   <v>       0.00111111 </v>
   <v>       0.00111111 </v>
   <v>       0.00111111 </v>
   <v>       0.00111111 </v>
   <v>       0.00111111 </v>
   <v>       0.00111111 </v>
   <v>       0.00111111 </v>
   <v>       0.00111111 </v>
   <v>       0.00111111 </v>
   <v>       0.00111111 </v>
   <v>       0.00055556 </v>
   <v>       0.00111111 </v>
   <v>       0.00111111 </v>
   <v>       0.00111111 </v>
   <v>       0.00111111 </v>
   <v>       0.00111111 </v>
   <v>       0.00111111 </v>
   <v>       0.00111111 </v>
   <v>       0.00111111 </v>
   <v>       0.00111111 </v>
   <v>       0.00111111 </v>
   <v>       0.00111111 </v>
   <v>       0.00111111 </v>
   <v>       0.00111111 </v>
   <v>       0.00222222 </v>
   <v>       0.00222222 </v>
   <v>       0.00222222 </v>
   <v>       0.00222222 </v>
   <v>       0.00222222 </v>
   <v>       0.00222222 </v>
   <v>       0.00222222 </v>
   <v>       0.00222222 </v>
   <v>       0.00222222 </v>
   <v>       0.00222222 </v>
   <v>       0.00222222 </v>
   <v>       0.00222222 </v>
   <v>       0.00111111 </v>
   <v>       0.00222222 </v>
   <v>       0.00222222 </v>
   <v>       0.00222222 </v>
   <v>       0.00222222 </v>
   <v>       0.00222222 </v>
   <v>       0.00222222 </v>
   <v>       0.00222222 </v>
   <v>       0.00222222 </v>
   <v>       0.00222222 </v>
   <v>       0.00222222 </v>
   <v>       0.00222222 </v>
   <v>       0.00222222 </v>
   <v>       0.00111111 </v>
   <v>       0.00222222 </v>
   <v>       0.00222222 </v>
   <v>       0.00222222 </v>
   <v>       0.00222222 </v>
   <v>       0.00222222 </v>
   <v>       0.00222222 </v>
   <v>       0.00222222 </v>
   <v>       0.00222222 </v>
   <v>       0.00222222 </v>
   <v>       0.00222222 </v>
   <v>       0.00222222 </v>
   <v>       0.00222222 </v>
   <v>       0.00111111 </v>
   <v>       0.00222222 </v>
   <v>       0.00222222 </v>
   <v>       0.00222222 </v>
   <v>       0.00222222 </v>
   <v>       0.00222222 </v>
   <v>       0.00222222 </v>
   <v>       0.00222222 </v>
   <v>       0.00222222 </v>
   <v>       0.00222222 </v>
   <v>       0.00222222 </v>
   <v>       0.00222222 </v>
   <v>       0.00222222 </v>
   <v>       0.00111111 </v>
   <v>       0.00222222 </v>
   <v>       0.00222222 </v>
   <v>       0.00222222 </v>
   <v>       0.00222222 </v>
   <v>       0.00222222 </v>
   <v>       0.00222222 </v>
   <v>       0.00222222 </v>
   <v>       0.00222222 </v>
   <v>       0.00222222 </v>
   <v>       0.00222222 </v>
   <v>       0.00222222 </v>
   <v>       0.00222222 </v>
   <v>       0.00111111 </v>
   <v>       0.00222222 </v>
   <v>       0.00222222 </v>
   <v>       0.00222222 </v>
   <v>       0.00222222 </v>
   <v>       0.00222222 </v>
   <v>       0.00222222 </v>
   <v>       0.00222222 </v>
   <v>       0.00222222 </v>
   <v>       0.00222222 </v>
   <v>       0.00222222 </v>
   <v>       0.00222222 </v>
   <v>       0.00222222 </v>
   <v>       0.00111111 </v>
   <v>       0.00222222 </v>
   <v>       0.00222222 </v>
   <v>       0.00222222 </v>
   <v>       0.00222222 </v>
   <v>       0.00222222 </v>
   <v>       0.00222222 </v>
   <v>       0.00222222 </v>
   <v>       0.00222222 </v>
   <v>       0.00222222 </v>
   <v>       0.00222222 </v>
   <v>       0.00222222 </v>
   <v>       0.00222222 </v>
   <v>       0.00111111 </v>
   <v>       0.00222222 </v>
   <v>       0.00222222 </v>
   <v>       0.00222222 </v>
   <v>       0.00222222 </v>
   <v>       0.00222222 </v>
   <v>       0.00222222 </v>
   <v>       0.00222222 </v>
   <v>       0.00222222 </v>
   <v>       0.00222222 </v>
   <v>       0.00222222 </v>
   <v>       0.00222222 </v>
   <v>       0.00222222 </v>
   <v>       0.00055556 </v>
   <v>       0.00111111 </v>
   <v>       0.00111111 </v>
   <v>       0.00111111 </v>
   <v>       0.00111111 </v>
   <v>       0.00111111 </v>
   <v>       0.00111111 </v>
   <v>       0.00111111 </v>
   <v>       0.00111111 </v>
   <v>       0.00111111 </v>
   <v>       0.00111111 </v>
   <v>       0.00111111 </v>
   <v>       0.00111111 </v>
   <v>       0.00027778 </v>
   <v>       0.00055556 </v>
   <v>       0.00055556 </v>
   <v>       0.00055556 </v>
   <v>       0.00055556 </v>
   <v>       0.00055556 </v>
   <v>       0.00055556 </v>
   <v>       0.00055556 </v>
   <v>       0.00055556 </v>
   <v>       0.00055556 </v>
   <v>       0.00055556 </v>
   <v>       0.00055556 </v>
   <v>       0.00055556 </v>
   <v>       0.00055556 </v>
   <v>       0.00111111 </v>
   <v>       0.00111111 </v>
   <v>       0.00111111 </v>
   <v>       0.00111111 </v>
   <v>       0.00111111 </v>
   <v>       0.00111111 </v>
   <v>       0.00111111 </v>
   <v>       0.00111111 </v>
   <v>       0.00111111 </v>
   <v>       0.00111111 </v>
   <v>       0.00111111 </v>
   <v>       0.00111111 </v>
   <v>       0.00055556 </v>
   <v>       0.00111111 </v>
   <v>       0.00111111 </v>
   <v>       0.00111111 </v>
   <v>       0.00111111 </v>
   <v>       0.00111111 </v>
   <v>       0.00111111 </v>
   <v>       0.00111111 </v>
   <v>       0.00111111 </v>
   <v>       0.00111111 </v>
   <v>       0.00111111 </v>
   <v>       0.00111111 </v>
   <v>       0.00111111 </v>
   <v>       0.00055556 </v>
   <v>       0.00111111 </v>
   <v>       0.00111111 </v>
   <v>       0.00111111 </v>
   <v>       0.00111111 </v>
   <v>       0.00111111 </v>
   <v>       0.00111111 </v>
   <v>       0.00111111 </v>
   <v>       0.00111111 </v>
   <v>       0.00111111 </v>
   <v>       0.00111111 </v>
   <v>       0.00111111 </v>
   <v>       0.00111111 </v>
   <v>       0.00055556 </v>
   <v>       0.00111111 </v>
   <v>       0.00111111 </v>
   <v>       0.00111111 </v>
   <v>       0.00111111 </v>
   <v>       0.00111111 </v>
   <v>       0.00111111 </v>
   <v>       0.00111111 </v>
   <v>       0.00111111 </v>
   <v>       0.00111111 </v>
   <v>       0.00111111 </v>
   <v>       0.00111111 </v>
   <v>       0.00111111 </v>
   <v>       0.00055556 </v>
   <v>       0.00111111 </v>
   <v>       0.00111111 </v>
   <v>       0.00111111 </v>
   <v>       0.00111111 </v>
   <v>       0.00111111 </v>
   <v>       0.00111111 </v>
   <v>       0.00111111 </v>
   <v>       0.00111111 </v>
   <v>       0.00111111 </v>
   <v>       0.00111111 </v>
   <v>       0.00111111 </v>
   <v>       0.00111111 </v>
   <v>       0.00055556 </v>
   <v>       0.00111111 </v>
   <v>       0.00111111 </v>
   <v>       0.00111111 </v>
   <v>       0.00111111 </v>
   <v>       0.00111111 </v>
   <v>       0.00111111 </v>
   <v>       0.00111111 </v>
   <v>       0.00111111 </v>
   <v>       0.00111111 </v>
   <v>       0.00111111 </v>
   <v>       0.00111111 </v>
   <v>       0.00111111 </v>
   <v>       0.00055556 </v>
   <v>       0.00111111 </v>
   <v>       0.00111111 </v>
   <v>       0.00111111 </v>
   <v>       0.00111111 </v>
   <v>       0.00111111 </v>
   <v>       0.00111111 </v>
   <v>       0.00111111 </v>
   <v>       0.00111111 </v>
   <v>       0.00111111 </v>
   <v>       0.00111111 </v>
   <v>       0.00111111 </v>
   <v>       0.00111111 </v>
   <v>       0.00055556 </v>
   <v>       0.00111111 </v>
   <v>       0.00111111 </v>
   <v>       0.00111111 </v>
   <v>       0.00111111 </v>
   <v>       0.00111111 </v>
   <v>       0.00111111 </v>
   <v>       0.00111111 </v>
   <v>       0.00111111 </v>
   <v>       0.00111111 </v>
   <v>       0.00111111 </v>
   <v>       0.00111111 </v>
   <v>       0.00111111 </v>
   <v>       0.00027778 </v>
   <v>       0.00055556 </v>
   <v>       0.00055556 </v>
   <v>       0.00055556 </v>
   <v>       0.00055556 </v>
   <v>       0.00055556 </v>
   <v>       0.00055556 </v>
   <v>       0.00055556 </v>
   <v>       0.00055556 </v>
   <v>       0.00055556 </v>
   <v>       0.00055556 </v>
   <v>       0.00055556 </v>
   <v>       0.00055556 </v>
  </varray>
 </kpoints>
 <parameters>
  <separator name="general" >
   <i type="string" name="SYSTEM">unknown system</i>
   <i type="logical" name="LCOMPAT"> F  </i>
  </separator>
  <separator name="electronic" >
   <i type="string" name="PREC">accura</i>
   <i name="ENMAX">    500.00000000</i>
   <i name="ENAUG">    586.98000000</i>
   <i name="EDIFF">      0.00000100</i>
   <i type="int" name="IALGO">    68</i>
   <i type="int" name="IWAVPR">    11</i>
   <i type="int" name="NBANDS">    40</i>
   <i name="NELECT">     66.00000000</i>
   <i type="int" name="TURBO">     0</i>
   <i type="int" name="IRESTART">     0</i>
   <i type="int" name="NREBOOT">     0</i>
   <i type="int" name="NMIN">     0</i>
   <i name="EREF">      0.00000000</i>
   <separator name="electronic smearing" >
    <i type="int" name="ISMEAR">     1</i>
    <i name="SIGMA">      0.30000000</i>
    <i name="KSPACING">      0.50000000</i>
    <i type="logical" name="KGAMMA"> T  </i>
   </separator>
   <separator name="electronic projectors" >
    <i type="logical" name="LREAL"> F  </i>
    <v name="ROPT">      0.00000000      0.00000000      0.00000000</v>
    <i type="int" name="LMAXPAW">  -100</i>
    <i type="int" name="LMAXMIX">     2</i>
    <i type="logical" name="NLSPLINE"> F  </i>
   </separator>
   <separator name="electronic startup" >
    <i type="int" name="ISTART">     0</i>
    <i type="int" name="ICHARG">     2</i>
    <i type="int" name="INIWAV">     1</i>
   </separator>
   <separator name="electronic spin" >
    <i type="int" name="ISPIN">     1</i>
    <i type="logical" name="LNONCOLLINEAR"> F  </i>
    <v name="MAGMOM">      1.00000000      1.00000000      1.00000000      1.00000000      1.00000000      1.00000000</v>
    <i name="NUPDOWN">     -1.00000000</i>
    <i type="logical" name="LSORBIT"> F  </i>
    <v name="SAXIS">      0.00000000      0.00000000      1.00000000</v>
    <i type="logical" name="LSPIRAL"> F  </i>
    <v name="QSPIRAL">      0.00000000      0.00000000      0.00000000</v>
    <i type="logical" name="LZEROZ"> F  </i>
   </separator>
   <separator name="electronic exchange-correlation" >
    <i type="logical" name="LASPH"> F  </i>
    <i type="logical" name="LMETAGGA"> F  </i>
   </separator>
   <separator name="electronic convergence" >
    <i type="int" name="NELM">   200</i>
    <i type="int" name="NELMDL">     0</i>
    <i type="int" name="NELMIN">     4</i>
    <i name="ENINI">    500.00000000</i>
    <separator name="electronic convergence detail" >
     <i type="logical" name="LDIAG"> T  </i>
     <i type="logical" name="LSUBROT"> F  </i>
     <i name="WEIMIN">      0.00100000</i>
     <i name="EBREAK">      0.00000001</i>
     <i name="DEPER">      0.30000000</i>
     <i type="int" name="NRMM">     4</i>
     <i name="TIME">      0.40000000</i>
    </separator>
   </separator>
   <separator name="electronic mixer" >
    <i name="AMIX">      0.40000000</i>
    <i name="BMIX">      1.00000000</i>
    <i name="AMIN">      0.10000000</i>
    <i name="AMIX_MAG">      1.60000000</i>
    <i name="BMIX_MAG">      1.00000000</i>
    <separator name="electronic mixer details" >
     <i type="int" name="IMIX">     4</i>
     <i type="int" name="MAXMIX">   -45</i>
     <i name="WC">    100.00000000</i>
     <i type="int" name="INIMIX">     1</i>
     <i type="int" name="MIXPRE">     1</i>
     <i type="int" name="MREMOVE">     5</i>
    </separator>
   </separator>
   <separator name="electronic dipolcorrection" >
    <i type="logical" name="LDIPOL"> F  </i>
    <i type="logical" name="LMONO"> F  </i>
    <i type="int" name="IDIPOL">     0</i>
    <i name="EPSILON">      1.00000000</i>
    <v name="DIPOL">   -100.00000000   -100.00000000   -100.00000000</v>
    <i name="EFIELD">      0.00000000</i>
   </separator>
  </separator>
  <separator name="grids" >
   <i type="int" name="NGX">    24</i>
   <i type="int" name="NGY">    30</i>
   <i type="int" name="NGZ">    64</i>
   <i type="int" name="NGXF">    48</i>
   <i type="int" name="NGYF">    60</i>
   <i type="int" name="NGZF">   128</i>
   <i type="logical" name="ADDGRID"> T  </i>
  </separator>
  <separator name="ionic" >
   <i type="int" name="NSW">    30</i>
   <i type="int" name="IBRION">     2</i>
   <i type="int" name="ISIF">     3</i>
   <i name="PSTRESS">      0.00000000</i>
   <i name="EDIFFG">     -0.02000000</i>
   <i type="int" name="NFREE">     1</i>
   <i name="POTIM">      0.50000000</i>
   <i name="SMASS">     -3.00000000</i>
   <i name="SCALEE">      1.00000000</i>
  </separator>
  <separator name="ionic md" >
   <i name="TEBEG">      0.00010000</i>
   <i name="TEEND">      0.00010000</i>
   <i type="int" name="NBLOCK">     1</i>
   <i type="int" name="KBLOCK">    30</i>
   <i type="int" name="NPACO">   256</i>
   <i name="APACO">     16.00000000</i>
  </separator>
  <separator name="symmetry" >
   <i type="int" name="ISYM">     2</i>
   <i name="SYMPREC">      0.00001000</i>
  </separator>
  <separator name="dos" >
   <i type="logical" name="LORBIT"> F  </i>
   <v name="RWIGS">     -1.00000000     -1.00000000     -1.00000000</v>
   <i type="int" name="NEDOS">   301</i>
   <i name="EMIN">     10.00000000</i>
   <i name="EMAX">    -10.00000000</i>
   <i name="EFERMI">      0.00000000</i>
  </separator>
  <separator name="writing" >
   <i type="int" name="NWRITE">     2</i>
   <i type="logical" name="LWAVE"> F  </i>
   <i type="logical" name="LCHARG"> F  </i>
   <i type="logical" name="LPARD"> F  </i>
   <i type="logical" name="LVTOT"> F  </i>
   <i type="logical" name="LVHAR"> F  </i>
   <i type="logical" name="LELF"> F  </i>
   <i type="logical" name="LOPTICS"> F  </i>
   <v name="STM">      0.00000000      0.00000000      0.00000000      0.00000000      0.00000000      0.00000000      0.00000000</v>
  </separator>
  <separator name="performance" >
   <i type="int" name="NPAR">     4</i>
   <i type="int" name="NSIM">     4</i>
   <i type="int" name="NBLK">    -1</i>
   <i type="logical" name="LPLANE"> T  </i>
   <i type="logical" name="LSCALAPACK"> T  </i>
   <i type="logical" name="LSCAAWARE"> F  </i>
   <i type="logical" name="LSCALU"> F  </i>
   <i type="logical" name="LASYNC"> F  </i>
   <i type="logical" name="LORBITALREAL"> F  </i>
  </separator>
  <separator name="miscellaneous" >
   <i type="int" name="IDIOT">     3</i>
   <i type="logical" name="LMUSIC"> F  </i>
   <v name="POMASS">     63.54600000    107.86800000    196.96600000</v>
   <v name="DARWINR">      0.00000000      0.00000000      0.00000000</v>
   <v name="DARWINV">      1.00000000      1.00000000      1.00000000</v>
   <i type="logical" name="LCORR"> T  </i>
  </separator>
  <i type="logical" name="GGA_COMPAT"> T  </i>
  <i type="logical" name="LBERRY"> F  </i>
  <i type="int" name="ICORELEVEL">     0</i>
  <i type="logical" name="LDAU"> F  </i>
  <i type="int" name="I_CONSTRAINED_M">     0</i>
  <separator name="electronic exchange-correlation" >
   <i type="string" name="GGA">--</i>
   <i type="int" name="VOSKOWN">     0</i>
   <i type="logical" name="LHFCALC"> F  </i>
   <i type="string" name="PRECFOCK"></i>
   <i type="logical" name="LSYMGRAD"> F  </i>
   <i type="logical" name="LHFONE"> F  </i>
   <i type="logical" name="LRHFCALC"> F  </i>
   <i type="logical" name="LTHOMAS"> F  </i>
   <i type="logical" name="LMODELHF"> F  </i>
   <i name="ENCUT4O">     -1.00000000</i>
   <i type="int" name="EXXOEP">     0</i>
   <i type="int" name="FOURORBIT">     0</i>
   <i name="AEXX">      0.00000000</i>
   <i name="HFALPHA">      0.00000000</i>
   <i name="MCALPHA">      0.00000000</i>
   <i name="ALDAX">      1.00000000</i>
   <i name="AGGAX">      1.00000000</i>
   <i name="ALDAC">      1.00000000</i>
   <i name="AGGAC">      1.00000000</i>
   <i type="int" name="NKREDX">     1</i>
   <i type="int" name="NKREDY">     1</i>
   <i type="int" name="NKREDZ">     1</i>
   <i type="logical" name="SHIFTRED"> F  </i>
   <i type="logical" name="ODDONLY"> F  </i>
   <i type="logical" name="EVENONLY"> F  </i>
   <i type="int" name="LMAXFOCK">     0</i>
   <i type="int" name="NMAXFOCKAE">     0</i>
   <i type="logical" name="LFOCKAEDFT"> F  </i>
   <i name="HFSCREEN">      0.00000000</i>
   <i name="HFSCREENC">      0.00000000</i>
   <i type="int" name="NBANDSGWLOW">     0</i>
  </separator>
  <separator name="vdW DFT" >
   <i type="logical" name="LUSE_VDW"> F  </i>
   <i name="Zab_VDW">     -0.84910000</i>
   <i name="PARAM1">      0.12340000</i>
   <i name="PARAM2">      1.00000000</i>
   <i name="PARAM3">      0.00000000</i>
  </separator>
  <separator name="model GW" >
   <i type="int" name="MODEL_GW">     0</i>
   <i name="MODEL_EPS0">      9.65951409</i>
   <i name="MODEL_ALPHA">      1.00000000</i>
  </separator>
  <separator name="linear response parameters" >
   <i type="logical" name="LEPSILON"> F  </i>
   <i type="logical" name="LRPA"> F  </i>
   <i type="logical" name="LNABLA"> F  </i>
   <i type="logical" name="LVEL"> F  </i>
   <i type="int" name="KINTER">     0</i>
   <i name="CSHIFT">      0.10000000</i>
   <i name="OMEGAMAX">     -1.00000000</i>
   <i name="DEG_THRESHOLD">      0.00200000</i>
  </separator>
  <separator name="orbital magnetization" >
   <i type="logical" name="NUCIND"> F  </i>
   <v name="MAGPOS">      0.00000000      0.00000000      0.00000000</v>
   <i type="logical" name="LNICSALL"> T  </i>
   <i type="logical" name="ORBITALMAG"> F  </i>
   <i type="logical" name="LMAGBLOCH"> F  </i>
   <i type="logical" name="LCHIMAG"> F  </i>
   <i type="logical" name="LGAUGE"> T  </i>
   <i type="int" name="MAGATOM">     0</i>
   <v name="MAGDIPOL">      0.00000000      0.00000000      0.00000000</v>
   <v name="AVECCONST">      0.00000000      0.00000000      0.00000000</v>
  </separator>
  <separator name="response functions" >
   <i type="logical" name="LADDER"> F  </i>
   <i type="logical" name="LFXC"> F  </i>
   <i type="logical" name="LHARTREE"> T  </i>
   <i type="int" name="IBSE">     0</i>
   <i type="logical" name="LTCTE"> F  </i>
   <i type="logical" name="LTETE"> F  </i>
   <i type="logical" name="LTRIPLET"> F  </i>
   <i type="logical" name="LFXCEPS"> F  </i>
   <i type="logical" name="LFXHEG"> F  </i>
   <i type="logical" name="L2ORDER"> F  </i>
   <i type="logical" name="LUSEW"> F  </i>
   <i name="ENCUTGW">     -2.00000000</i>
   <i name="ENCUTGWSOFT">     -2.00000000</i>
   <i name="ENCUTLF">     -1.00000000</i>
   <i type="int" name="LMAXMP2">    -1</i>
   <i name="SCISSOR">      0.00000000</i>
   <i type="int" name="NOMEGA">     0</i>
   <i type="int" name="NOMEGAR">     0</i>
   <i type="int" name="NBANDSGW">    -1</i>
   <i type="int" name="NBANDSO">    -1</i>
   <i type="int" name="NBANDSV">    -1</i>
   <i type="int" name="NELM">   200</i>
   <i type="int" name="DIM">     3</i>
   <i type="int" name="ANTIRES">     0</i>
   <i name="OMEGAMAX">    -30.00000000</i>
   <i name="OMEGAMIN">    -30.00000000</i>
   <i name="OMEGATL">   -200.00000000</i>
   <i type="int" name="OMEGAGRID">     0</i>
   <i name="CSHIFT">     -0.10000000</i>
   <i type="logical" name="SELFENERGY"> F  </i>
   <i type="logical" name="LSPECTRAL"> F  </i>
   <i type="logical" name="ODDONLYGW"> F  </i>
   <i type="logical" name="EVENONLYGW"> F  </i>
   <i type="int" name="NKREDLFX">     1</i>
   <i type="int" name="NKREDLFY">     1</i>
   <i type="int" name="NKREDLFZ">     1</i>
   <i type="int" name="MAXMEM">  1800</i>
   <i type="int" name="TELESCOPE">     0</i>
   <i type="int" name="TAUPAR">     1</i>
  </separator>
  <separator name="External order field" >
   <i name="OFIELD_KAPPA">      0.00000000</i>
   <v name="OFIELD_K">      0.00000000      0.00000000      0.00000000</v>
   <i name="OFIELD_Q6_NEAR">      0.00000000</i>
   <i name="OFIELD_Q6_FAR">      0.00000000</i>
   <i name="OFIELD_A">      0.00000000</i>
  </separator>
 </parameters>
 <atominfo>
  <atoms>       6 </atoms>
  <types>       3 </types>
  <array name="atoms" >
   <dimension dim="1">ion</dimension>
   <field type="string">element</field>
   <field type="int">atomtype</field>
   <set>
    <rc><c>Cu</c><c>   1</c></rc>
    <rc><c>Cu</c><c>   1</c></rc>
    <rc><c>Ag</c><c>   2</c></rc>
    <rc><c>Ag</c><c>   2</c></rc>
    <rc><c>Au</c><c>   3</c></rc>
    <rc><c>Au</c><c>   3</c></rc>
   </set>
  </array>
  <array name="atomtypes" >
   <dimension dim="1">type</dimension>
   <field type="int">atomspertype</field>
   <field type="string">element</field>
   <field>mass</field>
   <field>valence</field>
   <field type="string">pseudopotential</field>
   <set>
    <rc><c>   2</c><c>Cu</c><c>     63.54600000</c><c>     11.00000000</c><c>  PAW_PBE Cu 22Jun2005                  </c></rc>
    <rc><c>   2</c><c>Ag</c><c>    107.86800000</c><c>     11.00000000</c><c>  PAW_PBE Ag 02Apr2005                  </c></rc>
    <rc><c>   2</c><c>Au</c><c>    196.96600000</c><c>     11.00000000</c><c>  PAW_PBE Au 04Oct2007                  </c></rc>
   </set>
  </array>
 </atominfo>
 <structure name="initialpos" >
  <crystal>
   <varray name="basis" >
    <v>       0.00000000       2.01580869       2.01580869 </v>
    <v>       3.93234462       0.00000000       0.00000000 </v>
    <v>       0.00000000       6.09290491      -6.09290491 </v>
   </varray>
   <i name="volume">     96.59514094 </i>
   <varray name="rec_basis" >
    <v>       0.00000000       0.24803941       0.24803941 </v>
    <v>       0.25430121       0.00000000       0.00000000 </v>
    <v>       0.00000000       0.08206266      -0.08206266 </v>
   </varray>
  </crystal>
  <varray name="positions" >
   <v>       0.00000000       0.00000000       0.67446628 </v>
   <v>       0.50000000       0.50000000       0.82553372 </v>
   <v>       0.00000000       0.00000000       0.97756014 </v>
   <v>       0.50000000       0.50000000       0.52243986 </v>
   <v>       0.50000000       0.50000000       0.15598976 </v>
   <v>       0.00000000       0.00000000       0.34401024 </v>
  </varray>
 </structure>
 <calculation>
  <scstep>
   <time name="dav">    9.13    9.14</time>
   <time name="total">    9.19    9.21</time>
   <energy>
    <i name="alphaZ">    341.22240053 </i>
    <i name="ewald">  -5918.77641736 </i>
    <i name="hartreedc">  -1527.17629104 </i>
    <i name="XCdc">    101.14482019 </i>
    <i name="pawpsdc">   6211.53262512 </i>
    <i name="pawaedc">  -6284.81575236 </i>
    <i name="eentropy">     -0.00001226 </i>
    <i name="bandstr">    987.73750660 </i>
    <i name="atom">   6708.64263504 </i>
    <i name="e_fr_energy">    619.51151445 </i>
    <i name="e_wo_entrp">    619.51152671 </i>
    <i name="e_0_energy">    619.51151854 </i>
   </energy>
  </scstep>
  <scstep>
   <time name="dav">    9.63    9.63</time>
   <time name="total">    9.66    9.68</time>
   <energy>
    <i name="e_fr_energy">     36.38424687 </i>
    <i name="e_wo_entrp">     36.38555771 </i>
    <i name="e_0_energy">     36.38468382 </i>
   </energy>
  </scstep>
  <scstep>
   <time name="dav">   10.14   10.14</time>
   <time name="total">   10.17   10.19</time>
   <energy>
    <i name="e_fr_energy">    -19.94798466 </i>
    <i name="e_wo_entrp">    -19.94854947 </i>
    <i name="e_0_energy">    -19.94817293 </i>
   </energy>
  </scstep>
  <scstep>
   <time name="dav">   10.83   10.84</time>
   <time name="total">   10.87   10.89</time>
   <energy>
    <i name="e_fr_energy">    -21.57624487 </i>
    <i name="e_wo_entrp">    -21.57646853 </i>
    <i name="e_0_energy">    -21.57631943 </i>
   </energy>
  </scstep>
  <scstep>
   <time name="dav">   11.35   11.36</time>
   <time name="total">   11.87   11.89</time>
   <energy>
    <i name="e_fr_energy">    -21.62026464 </i>
    <i name="e_wo_entrp">    -21.62048516 </i>
    <i name="e_0_energy">    -21.62033814 </i>
   </energy>
  </scstep>
  <scstep>
   <time name="diag">    2.36    2.36</time>
   <time name="diis">    4.06    4.07</time>
   <time name="orth">    0.40    0.40</time>
   <time name="total">    7.38    7.40</time>
   <energy>
    <i name="e_fr_energy">    -20.29386739 </i>
    <i name="e_wo_entrp">    -20.29350144 </i>
    <i name="e_0_energy">    -20.29374540 </i>
   </energy>
  </scstep>
  <scstep>
   <time name="diag">    2.37    2.37</time>
   <time name="diis">    4.25    4.25</time>
   <time name="orth">    0.40    0.40</time>
   <time name="total">    7.59    7.60</time>
   <energy>
    <i name="e_fr_energy">    -19.31140685 </i>
    <i name="e_wo_entrp">    -19.31074961 </i>
    <i name="e_0_energy">    -19.31118777 </i>
   </energy>
  </scstep>
  <scstep>
   <time name="diag">    2.37    2.37</time>
   <time name="diis">    4.14    4.14</time>
   <time name="orth">    0.41    0.41</time>
   <time name="total">    7.47    7.49</time>
   <energy>
    <i name="e_fr_energy">    -19.11262286 </i>
    <i name="e_wo_entrp">    -19.11029726 </i>
    <i name="e_0_energy">    -19.11184766 </i>
   </energy>
  </scstep>
  <scstep>
   <time name="diag">    2.37    2.37</time>
   <time name="diis">    4.03    4.03</time>
   <time name="orth">    0.40    0.40</time>
   <time name="total">    7.37    7.39</time>
   <energy>
    <i name="e_fr_energy">    -19.11084609 </i>
    <i name="e_wo_entrp">    -19.10863939 </i>
    <i name="e_0_energy">    -19.11011052 </i>
   </energy>
  </scstep>
  <scstep>
   <time name="diag">    2.37    2.37</time>
   <time name="diis">    4.16    4.17</time>
   <time name="orth">    0.41    0.41</time>
   <time name="total">    7.50    7.52</time>
   <energy>
    <i name="e_fr_energy">    -19.10132842 </i>
    <i name="e_wo_entrp">    -19.09893132 </i>
    <i name="e_0_energy">    -19.10052939 </i>
   </energy>
  </scstep>
  <scstep>
   <time name="diag">    2.37    2.37</time>
   <time name="diis">    5.00    5.00</time>
   <time name="orth">    0.40    0.40</time>
   <time name="total">    8.33    8.35</time>
   <energy>
    <i name="e_fr_energy">    -19.10161508 </i>
    <i name="e_wo_entrp">    -19.09921974 </i>
    <i name="e_0_energy">    -19.10081663 </i>
   </energy>
  </scstep>
  <scstep>
   <time name="diag">    2.36    2.37</time>
   <time name="diis">    4.24    4.24</time>
   <time name="orth">    0.40    0.40</time>
   <time name="total">    7.56    7.58</time>
   <energy>
    <i name="e_fr_energy">    -19.10158208 </i>
    <i name="e_wo_entrp">    -19.09919190 </i>
    <i name="e_0_energy">    -19.10078536 </i>
   </energy>
  </scstep>
  <scstep>
   <time name="diag">    2.36    2.36</time>
[...]
       <r>    5.2365    1.0000 </r>
       <r>    5.2681    1.0000 </r>
       <r>    5.2681    1.0000 </r>
       <r>    5.6272    1.0000 </r>
       <r>    5.6272    1.0000 </r>
       <r>    5.9657    1.0000 </r>
       <r>    5.9657    1.0000 </r>
       <r>    6.2164    1.0000 </r>
       <r>    6.2164    1.0000 </r>
       <r>    8.0002    0.2882 </r>
       <r>    8.0002    0.2882 </r>
       <r>    8.2485   -0.0320 </r>
       <r>    8.2485   -0.0320 </r>
       <r>   11.9062    0.0000 </r>
       <r>   11.9062    0.0000 </r>
       <r>   12.1871    0.0000 </r>
       <r>   12.1871    0.0000 </r>
       <r>   12.8034    0.0000 </r>
       <r>   12.8035    0.0000 </r>
      </set>
      <set comment="kpoint 649">
       <r>    1.6230    1.0000 </r>
       <r>    1.6230    1.0000 </r>
       <r>    2.2491    1.0000 </r>
       <r>    2.2491    1.0000 </r>
       <r>    2.4608    1.0000 </r>
       <r>    2.4608    1.0000 </r>
       <r>    2.6229    1.0000 </r>
       <r>    2.6229    1.0000 </r>
       <r>    3.1810    1.0000 </r>
       <r>    3.1810    1.0000 </r>
       <r>    3.6325    1.0000 </r>
       <r>    3.6325    1.0000 </r>
       <r>    4.1300    1.0000 </r>
       <r>    4.1300    1.0000 </r>
       <r>    4.3012    1.0000 </r>
       <r>    4.3012    1.0000 </r>
       <r>    4.3565    1.0000 </r>
       <r>    4.3565    1.0000 </r>
       <r>    5.1653    1.0000 </r>
       <r>    5.1653    1.0000 </r>
       <r>    5.2630    1.0000 </r>
       <r>    5.2630    1.0000 </r>
       <r>    5.4107    1.0000 </r>
       <r>    5.4107    1.0000 </r>
       <r>    5.6561    1.0000 </r>
       <r>    5.6561    1.0000 </r>
       <r>    6.0338    1.0000 </r>
       <r>    6.0338    1.0000 </r>
       <r>    6.2748    1.0000 </r>
       <r>    6.2748    1.0000 </r>
       <r>    8.4698   -0.0135 </r>
       <r>    8.4698   -0.0135 </r>
       <r>    8.6486   -0.0016 </r>
       <r>    8.6486   -0.0016 </r>
       <r>   11.3505    0.0000 </r>
       <r>   11.3505    0.0000 </r>
       <r>   11.8154    0.0000 </r>
       <r>   11.8154    0.0000 </r>
       <r>   13.2225    0.0000 </r>
       <r>   13.2226    0.0000 </r>
      </set>
      <set comment="kpoint 650">
       <r>    1.5952    1.0000 </r>
       <r>    1.5952    1.0000 </r>
       <r>    2.2319    1.0000 </r>
       <r>    2.2319    1.0000 </r>
       <r>    2.4183    1.0000 </r>
       <r>    2.4183    1.0000 </r>
       <r>    2.5997    1.0000 </r>
       <r>    2.5997    1.0000 </r>
       <r>    3.2224    1.0000 </r>
       <r>    3.2224    1.0000 </r>
       <r>    3.6332    1.0000 </r>
       <r>    3.6332    1.0000 </r>
       <r>    4.1449    1.0000 </r>
       <r>    4.1449    1.0000 </r>
       <r>    4.3508    1.0000 </r>
       <r>    4.3508    1.0000 </r>
       <r>    4.3592    1.0000 </r>
       <r>    4.3592    1.0000 </r>
       <r>    5.1743    1.0000 </r>
       <r>    5.1743    1.0000 </r>
       <r>    5.2770    1.0000 </r>
       <r>    5.2770    1.0000 </r>
       <r>    5.5075    1.0000 </r>
       <r>    5.5075    1.0000 </r>
       <r>    5.6577    1.0000 </r>
       <r>    5.6577    1.0000 </r>
       <r>    6.0804    1.0000 </r>
       <r>    6.0804    1.0000 </r>
       <r>    6.3077    1.0000 </r>
       <r>    6.3077    1.0000 </r>
       <r>    8.8657    0.0000 </r>
       <r>    8.8657    0.0000 </r>
       <r>    8.9580    0.0000 </r>
       <r>    8.9580    0.0000 </r>
       <r>   10.8467    0.0000 </r>
       <r>   10.8467    0.0000 </r>
       <r>   11.4364    0.0000 </r>
       <r>   11.4364    0.0000 </r>
       <r>   13.7034    0.0000 </r>
       <r>   13.7046    0.0000 </r>
      </set>
     </set>
    </set>
   </array>
  </eigenvalues>
  <separator name="orbital magnetization" >
   <v name="MAGDIPOLOUT">      0.00000000      0.00000000      0.00000000</v>
  </separator>
  <dos>
   <i name="efermi">      7.92228118 </i>
   <total>
    <array>
     <dimension dim="1">gridpoints</dimension>
     <dimension dim="2">spin</dimension>
     <field>energy</field>
     <field>total</field>
     <field>integrated</field>
     <set>
      <set comment="spin 1">
       <r>    -3.7918     0.0000     0.0000 </r>
       <r>    -3.7146     0.0000     0.0000 </r>
       <r>    -3.6373     0.0000     0.0000 </r>
       <r>    -3.5600     0.0000     0.0000 </r>
       <r>    -3.4828     0.0000     0.0000 </r>
       <r>    -3.4055     0.0000     0.0000 </r>
       <r>    -3.3283     0.0000     0.0000 </r>
       <r>    -3.2510     0.0000     0.0000 </r>
       <r>    -3.1737     0.0000     0.0000 </r>
       <r>    -3.0965     0.0000     0.0000 </r>
       <r>    -3.0192     0.0000     0.0000 </r>
       <r>    -2.9419     0.0000     0.0000 </r>
       <r>    -2.8647     0.0000     0.0000 </r>
       <r>    -2.7874     0.0000     0.0000 </r>
       <r>    -2.7102     0.0000     0.0000 </r>
       <r>    -2.6329     0.0000     0.0000 </r>
       <r>    -2.5556     0.0000     0.0000 </r>
       <r>    -2.4784     0.0000     0.0000 </r>
       <r>    -2.4011     0.0000     0.0000 </r>
       <r>    -2.3238     0.0000     0.0000 </r>
       <r>    -2.2466     0.0000     0.0000 </r>
       <r>    -2.1693     0.0000     0.0000 </r>
       <r>    -2.0921     0.0000     0.0000 </r>
       <r>    -2.0148     0.0000     0.0000 </r>
       <r>    -1.9375     0.0000     0.0000 </r>
       <r>    -1.8603     0.0000     0.0000 </r>
       <r>    -1.7830     0.0000     0.0000 </r>
       <r>    -1.7057     0.0000     0.0000 </r>
       <r>    -1.6285     0.0000     0.0000 </r>
       <r>    -1.5512    -0.0001     0.0000 </r>
       <r>    -1.4740    -0.0003     0.0000 </r>
       <r>    -1.3967    -0.0007    -0.0001 </r>
       <r>    -1.3194    -0.0018    -0.0002 </r>
       <r>    -1.2422    -0.0039    -0.0005 </r>
       <r>    -1.1649    -0.0069    -0.0011 </r>
       <r>    -1.0876    -0.0096    -0.0018 </r>
       <r>    -1.0104    -0.0087    -0.0025 </r>
       <r>    -0.9331     0.0014    -0.0024 </r>
       <r>    -0.8559     0.0269    -0.0003 </r>
       <r>    -0.7786     0.0716     0.0052 </r>
       <r>    -0.7013     0.1340     0.0156 </r>
       <r>    -0.6241     0.2068     0.0316 </r>
       <r>    -0.5468     0.2790     0.0531 </r>
       <r>    -0.4695     0.3402     0.0794 </r>
       <r>    -0.3923     0.3842     0.1091 </r>
       <r>    -0.3150     0.4107     0.1408 </r>
       <r>    -0.2378     0.4236     0.1736 </r>
       <r>    -0.1605     0.4284     0.2067 </r>
       <r>    -0.0832     0.4301     0.2399 </r>
       <r>    -0.0060     0.4329     0.2733 </r>
       <r>     0.0713     0.4402     0.3074 </r>
       <r>     0.1486     0.4552     0.3425 </r>
       <r>     0.2258     0.4810     0.3797 </r>
       <r>     0.3031     0.5191     0.4198 </r>
       <r>     0.3804     0.5688     0.4637 </r>
       <r>     0.4576     0.6264     0.5121 </r>
       <r>     0.5349     0.6879     0.5653 </r>
       <r>     0.6121     0.7518     0.6234 </r>
       <r>     0.6894     0.8204     0.6868 </r>
       <r>     0.7667     0.8991     0.7562 </r>
       <r>     0.8439     0.9929     0.8329 </r>
       <r>     0.9212     1.1020     0.9181 </r>
       <r>     0.9985     1.2209     1.0124 </r>
       <r>     1.0757     1.3465     1.1165 </r>
       <r>     1.1530     1.4971     1.2321 </r>
       <r>     1.2302     1.7297     1.3658 </r>
       <r>     1.3075     2.1295     1.5303 </r>
       <r>     1.3848     2.7615     1.7437 </r>
       <r>     1.4620     3.6080     2.0224 </r>
       <r>     1.5393     4.5542     2.3743 </r>
       <r>     1.6166     5.4520     2.7955 </r>
       <r>     1.6938     6.2186     3.2760 </r>
       <r>     1.7711     6.8832     3.8078 </r>
       <r>     1.8483     7.5442     4.3907 </r>
       <r>     1.9256     8.2863     5.0309 </r>
       <r>     2.0029     9.1265     5.7361 </r>
       <r>     2.0801    10.0042     6.5090 </r>
       <r>     2.1574    10.7936     7.3430 </r>
       <r>     2.2347    11.3422     8.2193 </r>
       <r>     2.3119    11.5495     9.1116 </r>
       <r>     2.3892    11.4515     9.9964 </r>
       <r>     2.4664    11.2303    10.8641 </r>
       <r>     2.5437    11.1127    11.7227 </r>
       <r>     2.6210    11.2260    12.5900 </r>
       <r>     2.6982    11.5286    13.4808 </r>
       <r>     2.7755    11.8644    14.3974 </r>
       <r>     2.8528    12.0870    15.3313 </r>
       <r>     2.9300    12.1527    16.2703 </r>
       <r>     3.0073    12.1252    17.2071 </r>
       <r>     3.0845    12.1053    18.1424 </r>
       <r>     3.1618    12.1496    19.0811 </r>
       <r>     3.2391    12.2405    20.0268 </r>
       <r>     3.3163    12.3271    20.9792 </r>
       <r>     3.3936    12.3854    21.9362 </r>
       <r>     3.4709    12.4391    22.8973 </r>
       <r>     3.5481    12.5253    23.8650 </r>
       <r>     3.6254    12.6496    24.8423 </r>
       <r>     3.7026    12.7669    25.8287 </r>
       <r>     3.7799    12.7858    26.8166 </r>
       <r>     3.8572    12.5965    27.7898 </r>
       <r>     3.9344    12.1369    28.7276 </r>
       <r>     4.0117    11.4781    29.6144 </r>
       <r>     4.0890    10.8485    30.4526 </r>
       <r>     4.1662    10.5360    31.2666 </r>
       <r>     4.2435    10.7158    32.0946 </r>
       <r>     4.3207    11.3336    32.9702 </r>
       <r>     4.3980    12.1256    33.9071 </r>
       <r>     4.4753    12.7456    34.8918 </r>
       <r>     4.5525    12.9107    35.8894 </r>
       <r>     4.6298    12.5034    36.8554 </r>
       <r>     4.7071    11.6119    37.7526 </r>
       <r>     4.7843    10.5034    38.5641 </r>
       <r>     4.8616     9.5378    39.3010 </r>
       <r>     4.9388     9.0588    40.0009 </r>
       <r>     5.0161     9.3034    40.7197 </r>
       <r>     5.0934    10.3447    41.5190 </r>
       <r>     5.1706    12.0528    42.4502 </r>
       <r>     5.2479    14.0919    43.5390 </r>
       <r>     5.3252    16.0011    44.7753 </r>
       <r>     5.4024    17.3626    46.1168 </r>
       <r>     5.4797    17.9736    47.5055 </r>
       <r>     5.5570    17.9113    48.8893 </r>
       <r>     5.6342    17.4654    50.2387 </r>
       <r>     5.7115    17.0032    51.5525 </r>
       <r>     5.7887    16.8511    52.8544 </r>
       <r>     5.8660    17.2071    54.1839 </r>
       <r>     5.9433    18.0496    55.5785 </r>
       <r>     6.0205    19.0466    57.0500 </r>
       <r>     6.0978    19.5658    58.5618 </r>
       <r>     6.1751    18.8976    60.0218 </r>
       <r>     6.2523    16.6531    61.3085 </r>
       <r>     6.3296    13.0779    62.3189 </r>
       <r>     6.4068     9.0031    63.0145 </r>
       <r>     6.4841     5.4176    63.4331 </r>
       <r>     6.5614     2.9676    63.6624 </r>
       <r>     6.6386     1.7340    63.7964 </r>
       <r>     6.7159     1.3749    63.9026 </r>
       <r>     6.7932     1.4362    64.0136 </r>
       <r>     6.8704     1.5881    64.1363 </r>
       <r>     6.9477     1.6898    64.2668 </r>
       <r>     7.0249     1.7345    64.4008 </r>
       <r>     7.1022     1.7626    64.5370 </r>
       <r>     7.1795     1.7999    64.6761 </r>
       <r>     7.2567     1.8380    64.8181 </r>
       <r>     7.3340     1.8501    64.9610 </r>
       <r>     7.4113     1.8211    65.1017 </r>
       <r>     7.4885     1.7654    65.2381 </r>
       <r>     7.5658     1.7171    65.3708 </r>
       <r>     7.6430     1.7043    65.5025 </r>
       <r>     7.7203     1.7302    65.6362 </r>
       <r>     7.7976     1.7753    65.7733 </r>
       <r>     7.8748     1.8129    65.9134 </r>
       <r>     7.9521     1.8237    66.0543 </r>
       <r>     8.0294     1.8008    66.1934 </r>
       <r>     8.1066     1.7490    66.3286 </r>
       <r>     8.1839     1.6837    66.4587 </r>
       <r>     8.2611     1.6281    66.5844 </r>
       <r>     8.3384     1.6026    66.7083 </r>
       <r>     8.4157     1.6121    66.8328 </r>
       <r>     8.4929     1.6423    66.9597 </r>
       <r>     8.5702     1.6707    67.0888 </r>
       <r>     8.6475     1.6815    67.2187 </r>
       <r>     8.7247     1.6724    67.3479 </r>
       <r>     8.8020     1.6489    67.4753 </r>
       <r>     8.8792     1.6182    67.6004 </r>
       <r>     8.9565     1.5873    67.7230 </r>
       <r>     9.0338     1.5647    67.8439 </r>
       <r>     9.1110     1.5583    67.9643 </r>
       <r>     9.1883     1.5704    68.0856 </r>
       <r>     9.2656     1.5948    68.2088 </r>
       <r>     9.3428     1.6193    68.3340 </r>
       <r>     9.4201     1.6318    68.4600 </r>
       <r>     9.4973     1.6264    68.5857 </r>
       <r>     9.5746     1.6053    68.7097 </r>
       <r>     9.6519     1.5751    68.8314 </r>
       <r>     9.7291     1.5408    68.9505 </r>
       <r>     9.8064     1.5042    69.0667 </r>
       <r>     9.8837     1.4677    69.1801 </r>
       <r>     9.9609     1.4378    69.2912 </r>
       <r>    10.0382     1.4210    69.4010 </r>
       <r>    10.1155     1.4160    69.5104 </r>
       <r>    10.1927     1.4110    69.6194 </r>
       <r>    10.2700     1.3931    69.7270 </r>
       <r>    10.3472     1.3616    69.8322 </r>
       <r>    10.4245     1.3300    69.9350 </r>
       <r>    10.5018     1.3148    70.0365 </r>
       <r>    10.5790     1.3222    70.1387 </r>
       <r>    10.6563     1.3461    70.2427 </r>
       <r>    10.7336     1.3768    70.3491 </r>
       <r>    10.8108     1.4106    70.4581 </r>
       <r>    10.8881     1.4540    70.5704 </r>
       <r>    10.9653     1.5213    70.6879 </r>
       <r>    11.0426     1.6242    70.8134 </r>
       <r>    11.1199     1.7574    70.9492 </r>
       <r>    11.1971     1.8929    71.0955 </r>
       <r>    11.2744     1.9917    71.2493 </r>
       <r>    11.3517     2.0289    71.4061 </r>
       <r>    11.4289     2.0095    71.5614 </r>
       <r>    11.5062     1.9619    71.7129 </r>
       <r>    11.5834     1.9144    71.8608 </r>
       <r>    11.6607     1.8782    72.0060 </r>
       <r>    11.7380     1.8481    72.1487 </r>
       <r>    11.8152     1.8163    72.2891 </r>
       <r>    11.8925     1.7851    72.4270 </r>
       <r>    11.9698     1.7663    72.5635 </r>
       <r>    12.0470     1.7709    72.7003 </r>
       <r>    12.1243     1.7978    72.8392 </r>
       <r>    12.2015     1.8322    72.9808 </r>
       <r>    12.2788     1.8547    73.1241 </r>
       <r>    12.3561     1.8536    73.2673 </r>
       <r>    12.4333     1.8318    73.4088 </r>
       <r>    12.5106     1.8030    73.5481 </r>
       <r>    12.5879     1.7812    73.6857 </r>
       <r>    12.6651     1.7713    73.8226 </r>
       <r>    12.7424     1.7669    73.9591 </r>
       <r>    12.8196     1.7582    74.0949 </r>
       <r>    12.8969     1.7420    74.2295 </r>
       <r>    12.9742     1.7255    74.3628 </r>
       <r>    13.0514     1.7189    74.4956 </r>
       <r>    13.1287     1.7253    74.6289 </r>
       <r>    13.2060     1.7373    74.7632 </r>
       <r>    13.2832     1.7444    74.8979 </r>
       <r>    13.3605     1.7450    75.0328 </r>
       <r>    13.4377     1.7512    75.1681 </r>
       <r>    13.5150     1.7811    75.3057 </r>
       <r>    13.5923     1.8427    75.4481 </r>
       <r>    13.6695     1.9239    75.5967 </r>
       <r>    13.7468     1.9967    75.7510 </r>
       <r>    13.8241     2.0340    75.9081 </r>
       <r>    13.9013     2.0246    76.0645 </r>
       <r>    13.9786     1.9753    76.2172 </r>
       <r>    14.0558     1.9008    76.3640 </r>
       <r>    14.1331     1.8135    76.5041 </r>
       <r>    14.2104     1.7236    76.6373 </r>
       <r>    14.2876     1.6453    76.7644 </r>
       <r>    14.3649     1.5999    76.8880 </r>
       <r>    14.4422     1.6078    77.0123 </r>
       <r>    14.5194     1.6731    77.1415 </r>
       <r>    14.5967     1.7735    77.2786 </r>
       <r>    14.6740     1.8669    77.4228 </r>
       <r>    14.7512     1.9133    77.5706 </r>
       <r>    14.8285     1.8966    77.7172 </r>
       <r>    14.9057     1.8305    77.8586 </r>
       <r>    14.9830     1.7454    77.9935 </r>
       <r>    15.0603     1.6702    78.1225 </r>
       <r>    15.1375     1.6230    78.2479 </r>
       <r>    15.2148     1.6104    78.3723 </r>
       <r>    15.2921     1.6274    78.4981 </r>
       <r>    15.3693     1.6538    78.6258 </r>
       <r>    15.4466     1.6560    78.7538 </r>
       <r>    15.5238     1.6032    78.8777 </r>
       <r>    15.6011     1.4916    78.9929 </r>
       <r>    15.6784     1.3534    79.0975 </r>
       <r>    15.7556     1.2426    79.1935 </r>
       <r>    15.8329     1.2040    79.2865 </r>
       <r>    15.9102     1.2490    79.3830 </r>
       <r>    15.9874     1.3486    79.4872 </r>
       <r>    16.0647     1.4437    79.5987 </r>
       <r>    16.1419     1.4642    79.7119 </r>
       <r>    16.2192     1.3572    79.8167 </r>
       <r>    16.2965     1.1145    79.9028 </r>
       <r>    16.3737     0.7835    79.9634 </r>
       <r>    16.4510     0.4469    79.9979 </r>
       <r>    16.5283     0.1809    80.0119 </r>
       <r>    16.6055     0.0203    80.0135 </r>
       <r>    16.6828    -0.0460    80.0099 </r>
       <r>    16.7600    -0.0538    80.0058 </r>
       <r>    16.8373    -0.0384    80.0028 </r>
       <r>    16.9146    -0.0211    80.0012 </r>
       <r>    16.9918    -0.0096    80.0004 </r>
       <r>    17.0691    -0.0037    80.0001 </r>
       <r>    17.1464    -0.0012    80.0000 </r>
       <r>    17.2236    -0.0003    80.0000 </r>
       <r>    17.3009    -0.0001    80.0000 </r>
       <r>    17.3781     0.0000    80.0000 </r>
       <r>    17.4554     0.0000    80.0000 </r>
       <r>    17.5327     0.0000    80.0000 </r>
       <r>    17.6099     0.0000    80.0000 </r>
       <r>    17.6872     0.0000    80.0000 </r>
       <r>    17.7645     0.0000    80.0000 </r>
       <r>    17.8417     0.0000    80.0000 </r>
       <r>    17.9190     0.0000    80.0000 </r>
       <r>    17.9962     0.0000    80.0000 </r>
       <r>    18.0735     0.0000    80.0000 </r>
       <r>    18.1508     0.0000    80.0000 </r>
       <r>    18.2280     0.0000    80.0000 </r>
       <r>    18.3053     0.0000    80.0000 </r>
       <r>    18.3826     0.0000    80.0000 </r>
       <r>    18.4598     0.0000    80.0000 </r>
       <r>    18.5371     0.0000    80.0000 </r>
       <r>    18.6143     0.0000    80.0000 </r>
       <r>    18.6916     0.0000    80.0000 </r>
       <r>    18.7689     0.0000    80.0000 </r>
       <r>    18.8461     0.0000    80.0000 </r>
       <r>    18.9234     0.0000    80.0000 </r>
       <r>    19.0007     0.0000    80.0000 </r>
       <r>    19.0779     0.0000    80.0000 </r>
       <r>    19.1552     0.0000    80.0000 </r>
       <r>    19.2324     0.0000    80.0000 </r>
       <r>    19.3097     0.0000    80.0000 </r>
       <r>    19.3870     0.0000    80.0000 </r>
      </set>
     </set>
    </array>
   </total>
  </dos>
 </calculation>
 <structure name="finalpos" >
  <crystal>
   <varray name="basis" >
    <v>       0.00000000       2.01580869       2.01580869 </v>
    <v>       3.93234462       0.00000000       0.00000000 </v>
    <v>       0.00000000       6.09290491      -6.09290491 </v>
   </varray>
   <i name="volume">     96.59514094 </i>
   <varray name="rec_basis" >
    <v>       0.00000000       0.24803941       0.24803941 </v>
    <v>       0.25430121       0.00000000       0.00000000 </v>
    <v>       0.00000000       0.08206266      -0.08206266 </v>
   </varray>
  </crystal>
  <varray name="positions" >
   <v>       0.00000000       0.00000000       0.67446628 </v>
   <v>       0.50000000       0.50000000       0.82553372 </v>
   <v>       0.00000000       0.00000000       0.97756014 </v>
   <v>       0.50000000       0.50000000       0.52243986 </v>
   <v>       0.50000000       0.50000000       0.15598976 </v>
   <v>       0.00000000       0.00000000       0.34401024 </v>
  </varray>
 </structure>
</modeling>
