<?xml version="1.0" encoding="ISO-8859-1"?>
<modeling>
 <generator>
  <i name="program" type="string">vasp </i>
  <i name="version" type="string">5.3.5  </i>
  <i name="subversion" type="string">31Mar14 (build Jun 20 2014 13:15:13) complex                          parallel </i>
  <i name="platform" type="string">LinuxIFC </i>
  <i name="date" type="string">2025 11 21 </i>
  <i name="time" type="string">12:00:30 </i>
 </generator>
 <incar>
  <i type="string" name="PREC">accurate</i>
  <i type="int" name="IALGO">    68</i>
  <i type="logical" name="ADDGRID"> T  </i>
  <i type="int" name="NELM">   100</i>
  <i type="int" name="NELMIN">     4</i>
  <i type="int" name="IBRION">     2</i>
  <i name="EDIFF">      0.00000100</i>
  <i name="EDIFFG">     -0.02000000</i>
  <i type="int" name="NSW">    30</i>
  <i type="int" name="ISIF">     3</i>
  <i name="ENCUT">    500.00000000</i>
  <i type="logical" name="LREAL"> F  </i>
  <i type="int" name="ISMEAR">     1</i>
  <i name="SIGMA">      0.30000000</i>
  <i type="logical" name="LWAVE"> F  </i>
  <i type="logical" name="LCHARG"> F  </i>
  <i type="int" name="NELM">   100</i>
 </incar>
 <kpoints>
  <generation param="Auto">
   <i name="subdivisionlength">     70.00000000 </i>
   <v type="int" name="divisions">      24       14       10 </v>
   <v name="usershift">      0.00000000       0.00000000       0.00000000 </v>
   <v name="genvec1">      0.04166667       0.00000000       0.00000000 </v>
   <v name="genvec2">      0.00000000       0.07142857       0.00000000 </v>
   <v name="genvec3">      0.00000000       0.00000000       0.10000000 </v>
   <v name="shift">      0.00000000       0.00000000       0.00000000 </v>
  </generation>
  <varray name="kpointlist" >
   <v>       0.00000000       0.00000000       0.00000000 </v>
   <v>       0.04166667       0.00000000       0.00000000 </v>
   <v>       0.08333333       0.00000000       0.00000000 </v>
   <v>       0.12500000       0.00000000       0.00000000 </v>
   <v>       0.16666667       0.00000000       0.00000000 </v>
   <v>       0.20833333       0.00000000       0.00000000 </v>
   <v>       0.25000000       0.00000000       0.00000000 </v>
   <v>       0.29166667       0.00000000       0.00000000 </v>
   <v>       0.33333333       0.00000000       0.00000000 </v>
   <v>       0.37500000       0.00000000       0.00000000 </v>
   <v>       0.41666667       0.00000000       0.00000000 </v>
   <v>       0.45833333       0.00000000       0.00000000 </v>
   <v>       0.50000000       0.00000000       0.00000000 </v>
   <v>       0.00000000       0.07142857       0.00000000 </v>
   <v>       0.04166667       0.07142857       0.00000000 </v>
   <v>       0.08333333       0.07142857       0.00000000 </v>
   <v>       0.12500000       0.07142857       0.00000000 </v>
   <v>       0.16666667       0.07142857       0.00000000 </v>
   <v>       0.20833333       0.07142857       0.00000000 </v>
   <v>       0.25000000       0.07142857       0.00000000 </v>
   <v>       0.29166667       0.07142857       0.00000000 </v>
   <v>       0.33333333       0.07142857       0.00000000 </v>
   <v>       0.37500000       0.07142857       0.00000000 </v>
   <v>       0.41666667       0.07142857       0.00000000 </v>
   <v>       0.45833333       0.07142857       0.00000000 </v>
   <v>       0.50000000       0.07142857       0.00000000 </v>
   <v>       0.00000000       0.14285714       0.00000000 </v>
   <v>       0.04166667       0.14285714       0.00000000 </v>
   <v>       0.08333333       0.14285714       0.00000000 </v>
   <v>       0.12500000       0.14285714       0.00000000 </v>
   <v>       0.16666667       0.14285714       0.00000000 </v>
   <v>       0.20833333       0.14285714       0.00000000 </v>
   <v>       0.25000000       0.14285714       0.00000000 </v>
   <v>       0.29166667       0.14285714       0.00000000 </v>
   <v>       0.33333333       0.14285714       0.00000000 </v>
   <v>       0.37500000       0.14285714       0.00000000 </v>
   <v>       0.41666667       0.14285714       0.00000000 </v>
   <v>       0.45833333       0.14285714       0.00000000 </v>
   <v>       0.50000000       0.14285714       0.00000000 </v>
   <v>       0.00000000       0.21428571       0.00000000 </v>
   <v>       0.04166667       0.21428571       0.00000000 </v>
   <v>       0.08333333       0.21428571       0.00000000 </v>
   <v>       0.12500000       0.21428571       0.00000000 </v>
   <v>       0.16666667       0.21428571       0.00000000 </v>
   <v>       0.20833333       0.21428571       0.00000000 </v>
   <v>       0.25000000       0.21428571       0.00000000 </v>
   <v>       0.29166667       0.21428571       0.00000000 </v>
   <v>       0.33333333       0.21428571       0.00000000 </v>
   <v>       0.37500000       0.21428571       0.00000000 </v>
   <v>       0.41666667       0.21428571       0.00000000 </v>
   <v>       0.45833333       0.21428571       0.00000000 </v>
   <v>       0.50000000       0.21428571       0.00000000 </v>
   <v>       0.00000000       0.28571429       0.00000000 </v>
   <v>       0.04166667       0.28571429       0.00000000 </v>
   <v>       0.08333333       0.28571429       0.00000000 </v>
   <v>       0.12500000       0.28571429       0.00000000 </v>
   <v>       0.16666667       0.28571429       0.00000000 </v>
   <v>       0.20833333       0.28571429       0.00000000 </v>
   <v>       0.25000000       0.28571429       0.00000000 </v>
   <v>       0.29166667       0.28571429       0.00000000 </v>
   <v>       0.33333333       0.28571429       0.00000000 </v>
   <v>       0.37500000       0.28571429       0.00000000 </v>
   <v>       0.41666667       0.28571429       0.00000000 </v>
   <v>       0.45833333       0.28571429       0.00000000 </v>
   <v>       0.50000000       0.28571429       0.00000000 </v>
   <v>       0.00000000       0.35714286       0.00000000 </v>
   <v>       0.04166667       0.35714286       0.00000000 </v>
   <v>       0.08333333       0.35714286       0.00000000 </v>
   <v>       0.12500000       0.35714286       0.00000000 </v>
   <v>       0.16666667       0.35714286       0.00000000 </v>
   <v>       0.20833333       0.35714286       0.00000000 </v>
   <v>       0.25000000       0.35714286       0.00000000 </v>
   <v>       0.29166667       0.35714286       0.00000000 </v>
   <v>       0.33333333       0.35714286       0.00000000 </v>
   <v>       0.37500000       0.35714286       0.00000000 </v>
   <v>       0.41666667       0.35714286       0.00000000 </v>
   <v>       0.45833333       0.35714286       0.00000000 </v>
   <v>       0.50000000       0.35714286       0.00000000 </v>
   <v>       0.00000000       0.42857143       0.00000000 </v>
   <v>       0.04166667       0.42857143       0.00000000 </v>
   <v>       0.08333333       0.42857143       0.00000000 </v>
   <v>       0.12500000       0.42857143       0.00000000 </v>
   <v>       0.16666667       0.42857143       0.00000000 </v>
   <v>       0.20833333       0.42857143       0.00000000 </v>
   <v>       0.25000000       0.42857143       0.00000000 </v>
   <v>       0.29166667       0.42857143       0.00000000 </v>
   <v>       0.33333333       0.42857143       0.00000000 </v>
   <v>       0.37500000       0.42857143       0.00000000 </v>
   <v>       0.41666667       0.42857143       0.00000000 </v>
   <v>       0.45833333       0.42857143       0.00000000 </v>
   <v>       0.50000000       0.42857143       0.00000000 </v>
   <v>       0.00000000       0.50000000       0.00000000 </v>
   <v>       0.04166667       0.50000000       0.00000000 </v>
   <v>       0.08333333       0.50000000       0.00000000 </v>
   <v>       0.12500000       0.50000000       0.00000000 </v>
   <v>       0.16666667       0.50000000       0.00000000 </v>
   <v>       0.20833333       0.50000000       0.00000000 </v>
   <v>       0.25000000       0.50000000       0.00000000 </v>
   <v>       0.29166667       0.50000000       0.00000000 </v>
   <v>       0.33333333       0.50000000       0.00000000 </v>
   <v>       0.37500000       0.50000000       0.00000000 </v>
   <v>       0.41666667       0.50000000       0.00000000 </v>
   <v>       0.45833333       0.50000000       0.00000000 </v>
   <v>       0.50000000       0.50000000       0.00000000 </v>
   <v>       0.00000000       0.00000000       0.10000000 </v>
   <v>       0.04166667       0.00000000       0.10000000 </v>
   <v>       0.08333333       0.00000000       0.10000000 </v>
   <v>       0.12500000       0.00000000       0.10000000 </v>
   <v>       0.16666667       0.00000000       0.10000000 </v>
   <v>       0.20833333       0.00000000       0.10000000 </v>
   <v>       0.25000000       0.00000000       0.10000000 </v>
   <v>       0.29166667       0.00000000       0.10000000 </v>
   <v>       0.33333333       0.00000000       0.10000000 </v>
   <v>       0.37500000       0.00000000       0.10000000 </v>
   <v>       0.41666667       0.00000000       0.10000000 </v>
   <v>       0.45833333       0.00000000       0.10000000 </v>
   <v>       0.50000000       0.00000000       0.10000000 </v>
   <v>       0.00000000       0.07142857       0.10000000 </v>
   <v>       0.04166667       0.07142857       0.10000000 </v>
   <v>       0.08333333       0.07142857       0.10000000 </v>
   <v>       0.12500000       0.07142857       0.10000000 </v>
   <v>       0.16666667       0.07142857       0.10000000 </v>
   <v>       0.20833333       0.07142857       0.10000000 </v>
   <v>       0.25000000       0.07142857       0.10000000 </v>
   <v>       0.29166667       0.07142857       0.10000000 </v>
   <v>       0.33333333       0.07142857       0.10000000 </v>
   <v>       0.37500000       0.07142857       0.10000000 </v>
   <v>       0.41666667       0.07142857       0.10000000 </v>
   <v>       0.45833333       0.07142857       0.10000000 </v>
   <v>       0.50000000       0.07142857       0.10000000 </v>
   <v>       0.00000000       0.14285714       0.10000000 </v>
   <v>       0.04166667       0.14285714       0.10000000 </v>
   <v>       0.08333333       0.14285714       0.10000000 </v>
   <v>       0.12500000       0.14285714       0.10000000 </v>
   <v>       0.16666667       0.14285714       0.10000000 </v>
   <v>       0.20833333       0.14285714       0.10000000 </v>
   <v>       0.25000000       0.14285714       0.10000000 </v>
   <v>       0.29166667       0.14285714       0.10000000 </v>
   <v>       0.33333333       0.14285714       0.10000000 </v>
   <v>       0.37500000       0.14285714       0.10000000 </v>
   <v>       0.41666667       0.14285714       0.10000000 </v>
   <v>       0.45833333       0.14285714       0.10000000 </v>
   <v>       0.50000000       0.14285714       0.10000000 </v>
   <v>       0.00000000       0.21428571       0.10000000 </v>
   <v>       0.04166667       0.21428571       0.10000000 </v>
   <v>       0.08333333       0.21428571       0.10000000 </v>
   <v>       0.12500000       0.21428571       0.10000000 </v>
   <v>       0.16666667       0.21428571       0.10000000 </v>
   <v>       0.20833333       0.21428571       0.10000000 </v>
   <v>       0.25000000       0.21428571       0.10000000 </v>
   <v>       0.29166667       0.21428571       0.10000000 </v>
   <v>       0.33333333       0.21428571       0.10000000 </v>
   <v>       0.37500000       0.21428571       0.10000000 </v>
   <v>       0.41666667       0.21428571       0.10000000 </v>
   <v>       0.45833333       0.21428571       0.10000000 </v>
   <v>       0.50000000       0.21428571       0.10000000 </v>
   <v>       0.00000000       0.28571429       0.10000000 </v>
   <v>       0.04166667       0.28571429       0.10000000 </v>
   <v>       0.08333333       0.28571429       0.10000000 </v>
   <v>       0.12500000       0.28571429       0.10000000 </v>
   <v>       0.16666667       0.28571429       0.10000000 </v>
   <v>       0.20833333       0.28571429       0.10000000 </v>
   <v>       0.25000000       0.28571429       0.10000000 </v>
   <v>       0.29166667       0.28571429       0.10000000 </v>
   <v>       0.33333333       0.28571429       0.10000000 </v>
   <v>       0.37500000       0.28571429       0.10000000 </v>
   <v>       0.41666667       0.28571429       0.10000000 </v>
   <v>       0.45833333       0.28571429       0.10000000 </v>
   <v>       0.50000000       0.28571429       0.10000000 </v>
   <v>       0.00000000       0.35714286       0.10000000 </v>
   <v>       0.04166667       0.35714286       0.10000000 </v>
   <v>       0.08333333       0.35714286       0.10000000 </v>
   <v>       0.12500000       0.35714286       0.10000000 </v>
   <v>       0.16666667       0.35714286       0.10000000 </v>
   <v>       0.20833333       0.35714286       0.10000000 </v>
   <v>       0.25000000       0.35714286       0.10000000 </v>
   <v>       0.29166667       0.35714286       0.10000000 </v>
   <v>       0.33333333       0.35714286       0.10000000 </v>
   <v>       0.37500000       0.35714286       0.10000000 </v>
   <v>       0.41666667       0.35714286       0.10000000 </v>
   <v>       0.45833333       0.35714286       0.10000000 </v>
   <v>       0.50000000       0.35714286       0.10000000 </v>
   <v>       0.00000000       0.42857143       0.10000000 </v>
   <v>       0.04166667       0.42857143       0.10000000 </v>
   <v>       0.08333333       0.42857143       0.10000000 </v>
   <v>       0.12500000       0.42857143       0.10000000 </v>
   <v>       0.16666667       0.42857143       0.10000000 </v>
   <v>       0.20833333       0.42857143       0.10000000 </v>
   <v>       0.25000000       0.42857143       0.10000000 </v>
   <v>       0.29166667       0.42857143       0.10000000 </v>
   <v>       0.33333333       0.42857143       0.10000000 </v>
   <v>       0.37500000       0.42857143       0.10000000 </v>
   <v>       0.41666667       0.42857143       0.10000000 </v>
   <v>       0.45833333       0.42857143       0.10000000 </v>
   <v>       0.50000000       0.42857143       0.10000000 </v>
   <v>       0.00000000       0.50000000       0.10000000 </v>
   <v>       0.04166667       0.50000000       0.10000000 </v>
   <v>       0.08333333       0.50000000       0.10000000 </v>
   <v>       0.12500000       0.50000000       0.10000000 </v>
   <v>       0.16666667       0.50000000       0.10000000 </v>
   <v>       0.20833333       0.50000000       0.10000000 </v>
   <v>       0.25000000       0.50000000       0.10000000 </v>
   <v>       0.29166667       0.50000000       0.10000000 </v>
   <v>       0.33333333       0.50000000       0.10000000 </v>
   <v>       0.37500000       0.50000000       0.10000000 </v>
   <v>       0.41666667       0.50000000       0.10000000 </v>
   <v>       0.45833333       0.50000000       0.10000000 </v>
   <v>       0.50000000       0.50000000       0.10000000 </v>
   <v>       0.00000000      -0.42857143       0.10000000 </v>
   <v>       0.04166667      -0.42857143       0.10000000 </v>
   <v>       0.08333333      -0.42857143       0.10000000 </v>
   <v>       0.12500000      -0.42857143       0.10000000 </v>
   <v>       0.16666667      -0.42857143       0.10000000 </v>
   <v>       0.20833333      -0.42857143       0.10000000 </v>
   <v>       0.25000000      -0.42857143       0.10000000 </v>
   <v>       0.29166667      -0.42857143       0.10000000 </v>
   <v>       0.33333333      -0.42857143       0.10000000 </v>
   <v>       0.37500000      -0.42857143       0.10000000 </v>
   <v>       0.41666667      -0.42857143       0.10000000 </v>
   <v>       0.45833333      -0.42857143       0.10000000 </v>
   <v>       0.50000000      -0.42857143       0.10000000 </v>
   <v>       0.00000000      -0.35714286       0.10000000 </v>
   <v>       0.04166667      -0.35714286       0.10000000 </v>
   <v>       0.08333333      -0.35714286       0.10000000 </v>
   <v>       0.12500000      -0.35714286       0.10000000 </v>
   <v>       0.16666667      -0.35714286       0.10000000 </v>
   <v>       0.20833333      -0.35714286       0.10000000 </v>
   <v>       0.25000000      -0.35714286       0.10000000 </v>
   <v>       0.29166667      -0.35714286       0.10000000 </v>
   <v>       0.33333333      -0.35714286       0.10000000 </v>
   <v>       0.37500000      -0.35714286       0.10000000 </v>
   <v>       0.41666667      -0.35714286       0.10000000 </v>
   <v>       0.45833333      -0.35714286       0.10000000 </v>
   <v>       0.50000000      -0.35714286       0.10000000 </v>
   <v>       0.00000000      -0.28571429       0.10000000 </v>
   <v>       0.04166667      -0.28571429       0.10000000 </v>
   <v>       0.08333333      -0.28571429       0.10000000 </v>
   <v>       0.12500000      -0.28571429       0.10000000 </v>
   <v>       0.16666667      -0.28571429       0.10000000 </v>
   <v>       0.20833333      -0.28571429       0.10000000 </v>
   <v>       0.25000000      -0.28571429       0.10000000 </v>
   <v>       0.29166667      -0.28571429       0.10000000 </v>
   <v>       0.33333333      -0.28571429       0.10000000 </v>
   <v>       0.37500000      -0.28571429       0.10000000 </v>
   <v>       0.41666667      -0.28571429       0.10000000 </v>
   <v>       0.45833333      -0.28571429       0.10000000 </v>
   <v>       0.50000000      -0.28571429       0.10000000 </v>
   <v>       0.00000000      -0.21428571       0.10000000 </v>
   <v>       0.04166667      -0.21428571       0.10000000 </v>
   <v>       0.08333333      -0.21428571       0.10000000 </v>
   <v>       0.12500000      -0.21428571       0.10000000 </v>
   <v>       0.16666667      -0.21428571       0.10000000 </v>
   <v>       0.20833333      -0.21428571       0.10000000 </v>
   <v>       0.25000000      -0.21428571       0.10000000 </v>
   <v>       0.29166667      -0.21428571       0.10000000 </v>
   <v>       0.33333333      -0.21428571       0.10000000 </v>
   <v>       0.37500000      -0.21428571       0.10000000 </v>
   <v>       0.41666667      -0.21428571       0.10000000 </v>
   <v>       0.45833333      -0.21428571       0.10000000 </v>
   <v>       0.50000000      -0.21428571       0.10000000 </v>
   <v>       0.00000000      -0.14285714       0.10000000 </v>
   <v>       0.04166667      -0.14285714       0.10000000 </v>
   <v>       0.08333333      -0.14285714       0.10000000 </v>
   <v>       0.12500000      -0.14285714       0.10000000 </v>
   <v>       0.16666667      -0.14285714       0.10000000 </v>
   <v>       0.20833333      -0.14285714       0.10000000 </v>
   <v>       0.25000000      -0.14285714       0.10000000 </v>
   <v>       0.29166667      -0.14285714       0.10000000 </v>
   <v>       0.33333333      -0.14285714       0.10000000 </v>
   <v>       0.37500000      -0.14285714       0.10000000 </v>
   <v>       0.41666667      -0.14285714       0.10000000 </v>
   <v>       0.45833333      -0.14285714       0.10000000 </v>
   <v>       0.50000000      -0.14285714       0.10000000 </v>
   <v>       0.00000000      -0.07142857       0.10000000 </v>
   <v>       0.04166667      -0.07142857       0.10000000 </v>
   <v>       0.08333333      -0.07142857       0.10000000 </v>
   <v>       0.12500000      -0.07142857       0.10000000 </v>
   <v>       0.16666667      -0.07142857       0.10000000 </v>
   <v>       0.20833333      -0.07142857       0.10000000 </v>
   <v>       0.25000000      -0.07142857       0.10000000 </v>
   <v>       0.29166667      -0.07142857       0.10000000 </v>
   <v>       0.33333333      -0.07142857       0.10000000 </v>
   <v>       0.37500000      -0.07142857       0.10000000 </v>
   <v>       0.41666667      -0.07142857       0.10000000 </v>
   <v>       0.45833333      -0.07142857       0.10000000 </v>
   <v>       0.50000000      -0.07142857       0.10000000 </v>
   <v>       0.00000000       0.00000000       0.20000000 </v>
   <v>       0.04166667       0.00000000       0.20000000 </v>
   <v>       0.08333333       0.00000000       0.20000000 </v>
   <v>       0.12500000       0.00000000       0.20000000 </v>
   <v>       0.16666667       0.00000000       0.20000000 </v>
   <v>       0.20833333       0.00000000       0.20000000 </v>
   <v>       0.25000000       0.00000000       0.20000000 </v>
   <v>       0.29166667       0.00000000       0.20000000 </v>
   <v>       0.33333333       0.00000000       0.20000000 </v>
   <v>       0.37500000       0.00000000       0.20000000 </v>
   <v>       0.41666667       0.00000000       0.20000000 </v>
   <v>       0.45833333       0.00000000       0.20000000 </v>
   <v>       0.50000000       0.00000000       0.20000000 </v>
   <v>       0.00000000       0.07142857       0.20000000 </v>
   <v>       0.04166667       0.07142857       0.20000000 </v>
   <v>       0.08333333       0.07142857       0.20000000 </v>
   <v>       0.12500000       0.07142857       0.20000000 </v>
   <v>       0.16666667       0.07142857       0.20000000 </v>
   <v>       0.20833333       0.07142857       0.20000000 </v>
   <v>       0.25000000       0.07142857       0.20000000 </v>
   <v>       0.29166667       0.07142857       0.20000000 </v>
   <v>       0.33333333       0.07142857       0.20000000 </v>
   <v>       0.37500000       0.07142857       0.20000000 </v>
   <v>       0.41666667       0.07142857       0.20000000 </v>
   <v>       0.45833333       0.07142857       0.20000000 </v>
   <v>       0.50000000       0.07142857       0.20000000 </v>
   <v>       0.00000000       0.14285714       0.20000000 </v>
   <v>       0.04166667       0.14285714       0.20000000 </v>
   <v>       0.08333333       0.14285714       0.20000000 </v>
   <v>       0.12500000       0.14285714       0.20000000 </v>
   <v>       0.16666667       0.14285714       0.20000000 </v>
   <v>       0.20833333       0.14285714       0.20000000 </v>
   <v>       0.25000000       0.14285714       0.20000000 </v>
   <v>       0.29166667       0.14285714       0.20000000 </v>
   <v>       0.33333333       0.14285714       0.20000000 </v>
   <v>       0.37500000       0.14285714       0.20000000 </v>
   <v>       0.41666667       0.14285714       0.20000000 </v>
   <v>       0.45833333       0.14285714       0.20000000 </v>
   <v>       0.50000000       0.14285714       0.20000000 </v>
   <v>       0.00000000       0.21428571       0.20000000 </v>
   <v>       0.04166667       0.21428571       0.20000000 </v>
   <v>       0.08333333       0.21428571       0.20000000 </v>
   <v>       0.12500000       0.21428571       0.20000000 </v>
   <v>       0.16666667       0.21428571       0.20000000 </v>
   <v>       0.20833333       0.21428571       0.20000000 </v>
   <v>       0.25000000       0.21428571       0.20000000 </v>
   <v>       0.29166667       0.21428571       0.20000000 </v>
   <v>       0.33333333       0.21428571       0.20000000 </v>
   <v>       0.37500000       0.21428571       0.20000000 </v>
   <v>       0.41666667       0.21428571       0.20000000 </v>
   <v>       0.45833333       0.21428571       0.20000000 </v>
   <v>       0.50000000       0.21428571       0.20000000 </v>
   <v>       0.00000000       0.28571429       0.20000000 </v>
   <v>       0.04166667       0.28571429       0.20000000 </v>
   <v>       0.08333333       0.28571429       0.20000000 </v>
   <v>       0.12500000       0.28571429       0.20000000 </v>
   <v>       0.16666667       0.28571429       0.20000000 </v>
   <v>       0.20833333       0.28571429       0.20000000 </v>
   <v>       0.25000000       0.28571429       0.20000000 </v>
   <v>       0.29166667       0.28571429       0.20000000 </v>
   <v>       0.33333333       0.28571429       0.20000000 </v>
   <v>       0.37500000       0.28571429       0.20000000 </v>
   <v>       0.41666667       0.28571429       0.20000000 </v>
   <v>       0.45833333       0.28571429       0.20000000 </v>
   <v>       0.50000000       0.28571429       0.20000000 </v>
   <v>       0.00000000       0.35714286       0.20000000 </v>
   <v>       0.04166667       0.35714286       0.20000000 </v>
   <v>       0.08333333       0.35714286       0.20000000 </v>
   <v>       0.12500000       0.35714286       0.20000000 </v>
   <v>       0.16666667       0.35714286       0.20000000 </v>
   <v>       0.20833333       0.35714286       0.20000000 </v>
   <v>       0.25000000       0.35714286       0.20000000 </v>
   <v>       0.29166667       0.35714286       0.20000000 </v>
   <v>       0.33333333       0.35714286       0.20000000 </v>
   <v>       0.37500000       0.35714286       0.20000000 </v>
   <v>       0.41666667       0.35714286       0.20000000 </v>
   <v>       0.45833333       0.35714286       0.20000000 </v>
   <v>       0.50000000       0.35714286       0.20000000 </v>
   <v>       0.00000000       0.42857143       0.20000000 </v>
   <v>       0.04166667       0.42857143       0.20000000 </v>
   <v>       0.08333333       0.42857143       0.20000000 </v>
   <v>       0.12500000       0.42857143       0.20000000 </v>
   <v>       0.16666667       0.42857143       0.20000000 </v>
   <v>       0.20833333       0.42857143       0.20000000 </v>
   <v>       0.25000000       0.42857143       0.20000000 </v>
   <v>       0.29166667       0.42857143       0.20000000 </v>
   <v>       0.33333333       0.42857143       0.20000000 </v>
   <v>       0.37500000       0.42857143       0.20000000 </v>
   <v>       0.41666667       0.42857143       0.20000000 </v>
   <v>       0.45833333       0.42857143       0.20000000 </v>
   <v>       0.50000000       0.42857143       0.20000000 </v>
   <v>       0.00000000       0.50000000       0.20000000 </v>
   <v>       0.04166667       0.50000000       0.20000000 </v>
   <v>       0.08333333       0.50000000       0.20000000 </v>
   <v>       0.12500000       0.50000000       0.20000000 </v>
   <v>       0.16666667       0.50000000       0.20000000 </v>
   <v>       0.20833333       0.50000000       0.20000000 </v>
   <v>       0.25000000       0.50000000       0.20000000 </v>
   <v>       0.29166667       0.50000000       0.20000000 </v>
   <v>       0.33333333       0.50000000       0.20000000 </v>
   <v>       0.37500000       0.50000000       0.20000000 </v>
   <v>       0.41666667       0.50000000       0.20000000 </v>
   <v>       0.45833333       0.50000000       0.20000000 </v>
   <v>       0.50000000       0.50000000       0.20000000 </v>
   <v>       0.00000000      -0.42857143       0.20000000 </v>
   <v>       0.04166667      -0.42857143       0.20000000 </v>
   <v>       0.08333333      -0.42857143       0.20000000 </v>
   <v>       0.12500000      -0.42857143       0.20000000 </v>
   <v>       0.16666667      -0.42857143       0.20000000 </v>
   <v>       0.20833333      -0.42857143       0.20000000 </v>
   <v>       0.25000000      -0.42857143       0.20000000 </v>
   <v>       0.29166667      -0.42857143       0.20000000 </v>
   <v>       0.33333333      -0.42857143       0.20000000 </v>
   <v>       0.37500000      -0.42857143       0.20000000 </v>
   <v>       0.41666667      -0.42857143       0.20000000 </v>
   <v>       0.45833333      -0.42857143       0.20000000 </v>
   <v>       0.50000000      -0.42857143       0.20000000 </v>
   <v>       0.00000000      -0.35714286       0.20000000 </v>
   <v>       0.04166667      -0.35714286       0.20000000 </v>
   <v>       0.08333333      -0.35714286       0.20000000 </v>
   <v>       0.12500000      -0.35714286       0.20000000 </v>
   <v>       0.16666667      -0.35714286       0.20000000 </v>
   <v>       0.20833333      -0.35714286       0.20000000 </v>
   <v>       0.25000000      -0.35714286       0.20000000 </v>
   <v>       0.29166667      -0.35714286       0.20000000 </v>
   <v>       0.33333333      -0.35714286       0.20000000 </v>
   <v>       0.37500000      -0.35714286       0.20000000 </v>
   <v>       0.41666667      -0.35714286       0.20000000 </v>
   <v>       0.45833333      -0.35714286       0.20000000 </v>
   <v>       0.50000000      -0.35714286       0.20000000 </v>
   <v>       0.00000000      -0.28571429       0.20000000 </v>
   <v>       0.04166667      -0.28571429       0.20000000 </v>
   <v>       0.08333333      -0.28571429       0.20000000 </v>
   <v>       0.12500000      -0.28571429       0.20000000 </v>
   <v>       0.16666667      -0.28571429       0.20000000 </v>
   <v>       0.20833333      -0.28571429       0.20000000 </v>
   <v>       0.25000000      -0.28571429       0.20000000 </v>
   <v>       0.29166667      -0.28571429       0.20000000 </v>
   <v>       0.33333333      -0.28571429       0.20000000 </v>
   <v>       0.37500000      -0.28571429       0.20000000 </v>
   <v>       0.41666667      -0.28571429       0.20000000 </v>
   <v>       0.45833333      -0.28571429       0.20000000 </v>
   <v>       0.50000000      -0.28571429       0.20000000 </v>
   <v>       0.00000000      -0.21428571       0.20000000 </v>
   <v>       0.04166667      -0.21428571       0.20000000 </v>
   <v>       0.08333333      -0.21428571       0.20000000 </v>
   <v>       0.12500000      -0.21428571       0.20000000 </v>
   <v>       0.16666667      -0.21428571       0.20000000 </v>
   <v>       0.20833333      -0.21428571       0.20000000 </v>
   <v>       0.25000000      -0.21428571       0.20000000 </v>
   <v>       0.29166667      -0.21428571       0.20000000 </v>
   <v>       0.33333333      -0.21428571       0.20000000 </v>
   <v>       0.37500000      -0.21428571       0.20000000 </v>
   <v>       0.41666667      -0.21428571       0.20000000 </v>
   <v>       0.45833333      -0.21428571       0.20000000 </v>
   <v>       0.50000000      -0.21428571       0.20000000 </v>
   <v>       0.00000000      -0.14285714       0.20000000 </v>
   <v>       0.04166667      -0.14285714       0.20000000 </v>
   <v>       0.08333333      -0.14285714       0.20000000 </v>
   <v>       0.12500000      -0.14285714       0.20000000 </v>
   <v>       0.16666667      -0.14285714       0.20000000 </v>
   <v>       0.20833333      -0.14285714       0.20000000 </v>
   <v>       0.25000000      -0.14285714       0.20000000 </v>
   <v>       0.29166667      -0.14285714       0.20000000 </v>
   <v>       0.33333333      -0.14285714       0.20000000 </v>
   <v>       0.37500000      -0.14285714       0.20000000 </v>
   <v>       0.41666667      -0.14285714       0.20000000 </v>
   <v>       0.45833333      -0.14285714       0.20000000 </v>
   <v>       0.50000000      -0.14285714       0.20000000 </v>
   <v>       0.00000000      -0.07142857       0.20000000 </v>
   <v>       0.04166667      -0.07142857       0.20000000 </v>
   <v>       0.08333333      -0.07142857       0.20000000 </v>
   <v>       0.12500000      -0.07142857       0.20000000 </v>
   <v>       0.16666667      -0.07142857       0.20000000 </v>
   <v>       0.20833333      -0.07142857       0.20000000 </v>
   <v>       0.25000000      -0.07142857       0.20000000 </v>
   <v>       0.29166667      -0.07142857       0.20000000 </v>
   <v>       0.33333333      -0.07142857       0.20000000 </v>
   <v>       0.37500000      -0.07142857       0.20000000 </v>
   <v>       0.41666667      -0.07142857       0.20000000 </v>
   <v>       0.45833333      -0.07142857       0.20000000 </v>
   <v>       0.50000000      -0.07142857       0.20000000 </v>
   <v>       0.00000000       0.00000000       0.30000000 </v>
   <v>       0.04166667       0.00000000       0.30000000 </v>
   <v>       0.08333333       0.00000000       0.30000000 </v>
   <v>       0.12500000       0.00000000       0.30000000 </v>
   <v>       0.16666667       0.00000000       0.30000000 </v>
   <v>       0.20833333       0.00000000       0.30000000 </v>
   <v>       0.25000000       0.00000000       0.30000000 </v>
   <v>       0.29166667       0.00000000       0.30000000 </v>
   <v>       0.33333333       0.00000000       0.30000000 </v>
   <v>       0.37500000       0.00000000       0.30000000 </v>
   <v>       0.41666667       0.00000000       0.30000000 </v>
   <v>       0.45833333       0.00000000       0.30000000 </v>
   <v>       0.50000000       0.00000000       0.30000000 </v>
   <v>       0.00000000       0.07142857       0.30000000 </v>
   <v>       0.04166667       0.07142857       0.30000000 </v>
   <v>       0.08333333       0.07142857       0.30000000 </v>
   <v>       0.12500000       0.07142857       0.30000000 </v>
   <v>       0.16666667       0.07142857       0.30000000 </v>
   <v>       0.20833333       0.07142857       0.30000000 </v>
   <v>       0.25000000       0.07142857       0.30000000 </v>
   <v>       0.29166667       0.07142857       0.30000000 </v>
   <v>       0.33333333       0.07142857       0.30000000 </v>
   <v>       0.37500000       0.07142857       0.30000000 </v>
   <v>       0.41666667       0.07142857       0.30000000 </v>
   <v>       0.45833333       0.07142857       0.30000000 </v>
   <v>       0.50000000       0.07142857       0.30000000 </v>
   <v>       0.00000000       0.14285714       0.30000000 </v>
   <v>       0.04166667       0.14285714       0.30000000 </v>
   <v>       0.08333333       0.14285714       0.30000000 </v>
   <v>       0.12500000       0.14285714       0.30000000 </v>
   <v>       0.16666667       0.14285714       0.30000000 </v>
   <v>       0.20833333       0.14285714       0.30000000 </v>
   <v>       0.25000000       0.14285714       0.30000000 </v>
   <v>       0.29166667       0.14285714       0.30000000 </v>
   <v>       0.33333333       0.14285714       0.30000000 </v>
   <v>       0.37500000       0.14285714       0.30000000 </v>
   <v>       0.41666667       0.14285714       0.30000000 </v>
   <v>       0.45833333       0.14285714       0.30000000 </v>
   <v>       0.50000000       0.14285714       0.30000000 </v>
   <v>       0.00000000       0.21428571       0.30000000 </v>
   <v>       0.04166667       0.21428571       0.30000000 </v>
   <v>       0.08333333       0.21428571       0.30000000 </v>
   <v>       0.12500000       0.21428571       0.30000000 </v>
   <v>       0.16666667       0.21428571       0.30000000 </v>
   <v>       0.20833333       0.21428571       0.30000000 </v>
   <v>       0.25000000       0.21428571       0.30000000 </v>
   <v>       0.29166667       0.21428571       0.30000000 </v>
   <v>       0.33333333       0.21428571       0.30000000 </v>
   <v>       0.37500000       0.21428571       0.30000000 </v>
   <v>       0.41666667       0.21428571       0.30000000 </v>
   <v>       0.45833333       0.21428571       0.30000000 </v>
   <v>       0.50000000       0.21428571       0.30000000 </v>
   <v>       0.00000000       0.28571429       0.30000000 </v>
   <v>       0.04166667       0.28571429       0.30000000 </v>
   <v>       0.08333333       0.28571429       0.30000000 </v>
   <v>       0.12500000       0.28571429       0.30000000 </v>
   <v>       0.16666667       0.28571429       0.30000000 </v>
   <v>       0.20833333       0.28571429       0.30000000 </v>
   <v>       0.25000000       0.28571429       0.30000000 </v>
   <v>       0.29166667       0.28571429       0.30000000 </v>
   <v>       0.33333333       0.28571429       0.30000000 </v>
   <v>       0.37500000       0.28571429       0.30000000 </v>
   <v>       0.41666667       0.28571429       0.30000000 </v>
   <v>       0.45833333       0.28571429       0.30000000 </v>
   <v>       0.50000000       0.28571429       0.30000000 </v>
   <v>       0.00000000       0.35714286       0.30000000 </v>
   <v>       0.04166667       0.35714286       0.30000000 </v>
   <v>       0.08333333       0.35714286       0.30000000 </v>
   <v>       0.12500000       0.35714286       0.30000000 </v>
   <v>       0.16666667       0.35714286       0.30000000 </v>
   <v>       0.20833333       0.35714286       0.30000000 </v>
   <v>       0.25000000       0.35714286       0.30000000 </v>
   <v>       0.29166667       0.35714286       0.30000000 </v>
   <v>       0.33333333       0.35714286       0.30000000 </v>
   <v>       0.37500000       0.35714286       0.30000000 </v>
   <v>       0.41666667       0.35714286       0.30000000 </v>
   <v>       0.45833333       0.35714286       0.30000000 </v>
   <v>       0.50000000       0.35714286       0.30000000 </v>
   <v>       0.00000000       0.42857143       0.30000000 </v>
   <v>       0.04166667       0.42857143       0.30000000 </v>
   <v>       0.08333333       0.42857143       0.30000000 </v>
   <v>       0.12500000       0.42857143       0.30000000 </v>
   <v>       0.16666667       0.42857143       0.30000000 </v>
   <v>       0.20833333       0.42857143       0.30000000 </v>
   <v>       0.25000000       0.42857143       0.30000000 </v>
   <v>       0.29166667       0.42857143       0.30000000 </v>
   <v>       0.33333333       0.42857143       0.30000000 </v>
   <v>       0.37500000       0.42857143       0.30000000 </v>
   <v>       0.41666667       0.42857143       0.30000000 </v>
   <v>       0.45833333       0.42857143       0.30000000 </v>
   <v>       0.50000000       0.42857143       0.30000000 </v>
   <v>       0.00000000       0.50000000       0.30000000 </v>
   <v>       0.04166667       0.50000000       0.30000000 </v>
   <v>       0.08333333       0.50000000       0.30000000 </v>
   <v>       0.12500000       0.50000000       0.30000000 </v>
   <v>       0.16666667       0.50000000       0.30000000 </v>
   <v>       0.20833333       0.50000000       0.30000000 </v>
   <v>       0.25000000       0.50000000       0.30000000 </v>
   <v>       0.29166667       0.50000000       0.30000000 </v>
   <v>       0.33333333       0.50000000       0.30000000 </v>
   <v>       0.37500000       0.50000000       0.30000000 </v>
   <v>       0.41666667       0.50000000       0.30000000 </v>
   <v>       0.45833333       0.50000000       0.30000000 </v>
   <v>       0.50000000       0.50000000       0.30000000 </v>
   <v>       0.00000000      -0.42857143       0.30000000 </v>
   <v>       0.04166667      -0.42857143       0.30000000 </v>
   <v>       0.08333333      -0.42857143       0.30000000 </v>
   <v>       0.12500000      -0.42857143       0.30000000 </v>
   <v>       0.16666667      -0.42857143       0.30000000 </v>
   <v>       0.20833333      -0.42857143       0.30000000 </v>
   <v>       0.25000000      -0.42857143       0.30000000 </v>
   <v>       0.29166667      -0.42857143       0.30000000 </v>
   <v>       0.33333333      -0.42857143       0.30000000 </v>
   <v>       0.37500000      -0.42857143       0.30000000 </v>
   <v>       0.41666667      -0.42857143       0.30000000 </v>
   <v>       0.45833333      -0.42857143       0.30000000 </v>
   <v>       0.50000000      -0.42857143       0.30000000 </v>
   <v>       0.00000000      -0.35714286       0.30000000 </v>
   <v>       0.04166667      -0.35714286       0.30000000 </v>
   <v>       0.08333333      -0.35714286       0.30000000 </v>
   <v>       0.12500000      -0.35714286       0.30000000 </v>
   <v>       0.16666667      -0.35714286       0.30000000 </v>
   <v>       0.20833333      -0.35714286       0.30000000 </v>
   <v>       0.25000000      -0.35714286       0.30000000 </v>
   <v>       0.29166667      -0.35714286       0.30000000 </v>
   <v>       0.33333333      -0.35714286       0.30000000 </v>
   <v>       0.37500000      -0.35714286       0.30000000 </v>
   <v>       0.41666667      -0.35714286       0.30000000 </v>
   <v>       0.45833333      -0.35714286       0.30000000 </v>
   <v>       0.50000000      -0.35714286       0.30000000 </v>
   <v>       0.00000000      -0.28571429       0.30000000 </v>
   <v>       0.04166667      -0.28571429       0.30000000 </v>
   <v>       0.08333333      -0.28571429       0.30000000 </v>
   <v>       0.12500000      -0.28571429       0.30000000 </v>
   <v>       0.16666667      -0.28571429       0.30000000 </v>
   <v>       0.20833333      -0.28571429       0.30000000 </v>
   <v>       0.25000000      -0.28571429       0.30000000 </v>
   <v>       0.29166667      -0.28571429       0.30000000 </v>
   <v>       0.33333333      -0.28571429       0.30000000 </v>
   <v>       0.37500000      -0.28571429       0.30000000 </v>
   <v>       0.41666667      -0.28571429       0.30000000 </v>
   <v>       0.45833333      -0.28571429       0.30000000 </v>
   <v>       0.50000000      -0.28571429       0.30000000 </v>
   <v>       0.00000000      -0.21428571       0.30000000 </v>
   <v>       0.04166667      -0.21428571       0.30000000 </v>
   <v>       0.08333333      -0.21428571       0.30000000 </v>
   <v>       0.12500000      -0.21428571       0.30000000 </v>
   <v>       0.16666667      -0.21428571       0.30000000 </v>
   <v>       0.20833333      -0.21428571       0.30000000 </v>
   <v>       0.25000000      -0.21428571       0.30000000 </v>
   <v>       0.29166667      -0.21428571       0.30000000 </v>
   <v>       0.33333333      -0.21428571       0.30000000 </v>
   <v>       0.37500000      -0.21428571       0.30000000 </v>
   <v>       0.41666667      -0.21428571       0.30000000 </v>
   <v>       0.45833333      -0.21428571       0.30000000 </v>
   <v>       0.50000000      -0.21428571       0.30000000 </v>
   <v>       0.00000000      -0.14285714       0.30000000 </v>
   <v>       0.04166667      -0.14285714       0.30000000 </v>
   <v>       0.08333333      -0.14285714       0.30000000 </v>
   <v>       0.12500000      -0.14285714       0.30000000 </v>
   <v>       0.16666667      -0.14285714       0.30000000 </v>
   <v>       0.20833333      -0.14285714       0.30000000 </v>
   <v>       0.25000000      -0.14285714       0.30000000 </v>
   <v>       0.29166667      -0.14285714       0.30000000 </v>
   <v>       0.33333333      -0.14285714       0.30000000 </v>
   <v>       0.37500000      -0.14285714       0.30000000 </v>
   <v>       0.41666667      -0.14285714       0.30000000 </v>
   <v>       0.45833333      -0.14285714       0.30000000 </v>
   <v>       0.50000000      -0.14285714       0.30000000 </v>
   <v>       0.00000000      -0.07142857       0.30000000 </v>
   <v>       0.04166667      -0.07142857       0.30000000 </v>
   <v>       0.08333333      -0.07142857       0.30000000 </v>
   <v>       0.12500000      -0.07142857       0.30000000 </v>
   <v>       0.16666667      -0.07142857       0.30000000 </v>
   <v>       0.20833333      -0.07142857       0.30000000 </v>
   <v>       0.25000000      -0.07142857       0.30000000 </v>
   <v>       0.29166667      -0.07142857       0.30000000 </v>
   <v>       0.33333333      -0.07142857       0.30000000 </v>
   <v>       0.37500000      -0.07142857       0.30000000 </v>
   <v>       0.41666667      -0.07142857       0.30000000 </v>
   <v>       0.45833333      -0.07142857       0.30000000 </v>
   <v>       0.50000000      -0.07142857       0.30000000 </v>
   <v>       0.00000000       0.00000000       0.40000000 </v>
   <v>       0.04166667       0.00000000       0.40000000 </v>
   <v>       0.08333333       0.00000000       0.40000000 </v>
   <v>       0.12500000       0.00000000       0.40000000 </v>
   <v>       0.16666667       0.00000000       0.40000000 </v>
   <v>       0.20833333       0.00000000       0.40000000 </v>
   <v>       0.25000000       0.00000000       0.40000000 </v>
   <v>       0.29166667       0.00000000       0.40000000 </v>
   <v>       0.33333333       0.00000000       0.40000000 </v>
   <v>       0.37500000       0.00000000       0.40000000 </v>
   <v>       0.41666667       0.00000000       0.40000000 </v>
   <v>       0.45833333       0.00000000       0.40000000 </v>
   <v>       0.50000000       0.00000000       0.40000000 </v>
   <v>       0.00000000       0.07142857       0.40000000 </v>
   <v>       0.04166667       0.07142857       0.40000000 </v>
   <v>       0.08333333       0.07142857       0.40000000 </v>
   <v>       0.12500000       0.07142857       0.40000000 </v>
   <v>       0.16666667       0.07142857       0.40000000 </v>
   <v>       0.20833333       0.07142857       0.40000000 </v>
   <v>       0.25000000       0.07142857       0.40000000 </v>
   <v>       0.29166667       0.07142857       0.40000000 </v>
   <v>       0.33333333       0.07142857       0.40000000 </v>
   <v>       0.37500000       0.07142857       0.40000000 </v>
   <v>       0.41666667       0.07142857       0.40000000 </v>
   <v>       0.45833333       0.07142857       0.40000000 </v>
   <v>       0.50000000       0.07142857       0.40000000 </v>
   <v>       0.00000000       0.14285714       0.40000000 </v>
   <v>       0.04166667       0.14285714       0.40000000 </v>
   <v>       0.08333333       0.14285714       0.40000000 </v>
   <v>       0.12500000       0.14285714       0.40000000 </v>
   <v>       0.16666667       0.14285714       0.40000000 </v>
   <v>       0.20833333       0.14285714       0.40000000 </v>
   <v>       0.25000000       0.14285714       0.40000000 </v>
   <v>       0.29166667       0.14285714       0.40000000 </v>
   <v>       0.33333333       0.14285714       0.40000000 </v>
   <v>       0.37500000       0.14285714       0.40000000 </v>
   <v>       0.41666667       0.14285714       0.40000000 </v>
   <v>       0.45833333       0.14285714       0.40000000 </v>
   <v>       0.50000000       0.14285714       0.40000000 </v>
   <v>       0.00000000       0.21428571       0.40000000 </v>
   <v>       0.04166667       0.21428571       0.40000000 </v>
   <v>       0.08333333       0.21428571       0.40000000 </v>
   <v>       0.12500000       0.21428571       0.40000000 </v>
   <v>       0.16666667       0.21428571       0.40000000 </v>
   <v>       0.20833333       0.21428571       0.40000000 </v>
   <v>       0.25000000       0.21428571       0.40000000 </v>
   <v>       0.29166667       0.21428571       0.40000000 </v>
   <v>       0.33333333       0.21428571       0.40000000 </v>
   <v>       0.37500000       0.21428571       0.40000000 </v>
   <v>       0.41666667       0.21428571       0.40000000 </v>
   <v>       0.45833333       0.21428571       0.40000000 </v>
   <v>       0.50000000       0.21428571       0.40000000 </v>
   <v>       0.00000000       0.28571429       0.40000000 </v>
   <v>       0.04166667       0.28571429       0.40000000 </v>
   <v>       0.08333333       0.28571429       0.40000000 </v>
   <v>       0.12500000       0.28571429       0.40000000 </v>
   <v>       0.16666667       0.28571429       0.40000000 </v>
   <v>       0.20833333       0.28571429       0.40000000 </v>
   <v>       0.25000000       0.28571429       0.40000000 </v>
   <v>       0.29166667       0.28571429       0.40000000 </v>
   <v>       0.33333333       0.28571429       0.40000000 </v>
   <v>       0.37500000       0.28571429       0.40000000 </v>
   <v>       0.41666667       0.28571429       0.40000000 </v>
   <v>       0.45833333       0.28571429       0.40000000 </v>
   <v>       0.50000000       0.28571429       0.40000000 </v>
   <v>       0.00000000       0.35714286       0.40000000 </v>
   <v>       0.04166667       0.35714286       0.40000000 </v>
   <v>       0.08333333       0.35714286       0.40000000 </v>
   <v>       0.12500000       0.35714286       0.40000000 </v>
   <v>       0.16666667       0.35714286       0.40000000 </v>
   <v>       0.20833333       0.35714286       0.40000000 </v>
   <v>       0.25000000       0.35714286       0.40000000 </v>
   <v>       0.29166667       0.35714286       0.40000000 </v>
   <v>       0.33333333       0.35714286       0.40000000 </v>
   <v>       0.37500000       0.35714286       0.40000000 </v>
   <v>       0.41666667       0.35714286       0.40000000 </v>
   <v>       0.45833333       0.35714286       0.40000000 </v>
   <v>       0.50000000       0.35714286       0.40000000 </v>
   <v>       0.00000000       0.42857143       0.40000000 </v>
   <v>       0.04166667       0.42857143       0.40000000 </v>
   <v>       0.08333333       0.42857143       0.40000000 </v>
   <v>       0.12500000       0.42857143       0.40000000 </v>
   <v>       0.16666667       0.42857143       0.40000000 </v>
   <v>       0.20833333       0.42857143       0.40000000 </v>
   <v>       0.25000000       0.42857143       0.40000000 </v>
   <v>       0.29166667       0.42857143       0.40000000 </v>
   <v>       0.33333333       0.42857143       0.40000000 </v>
   <v>       0.37500000       0.42857143       0.40000000 </v>
   <v>       0.41666667       0.42857143       0.40000000 </v>
   <v>       0.45833333       0.42857143       0.40000000 </v>
   <v>       0.50000000       0.42857143       0.40000000 </v>
   <v>       0.00000000       0.50000000       0.40000000 </v>
   <v>       0.04166667       0.50000000       0.40000000 </v>
   <v>       0.08333333       0.50000000       0.40000000 </v>
   <v>       0.12500000       0.50000000       0.40000000 </v>
   <v>       0.16666667       0.50000000       0.40000000 </v>
   <v>       0.20833333       0.50000000       0.40000000 </v>
   <v>       0.25000000       0.50000000       0.40000000 </v>
   <v>       0.29166667       0.50000000       0.40000000 </v>
   <v>       0.33333333       0.50000000       0.40000000 </v>
   <v>       0.37500000       0.50000000       0.40000000 </v>
   <v>       0.41666667       0.50000000       0.40000000 </v>
   <v>       0.45833333       0.50000000       0.40000000 </v>
   <v>       0.50000000       0.50000000       0.40000000 </v>
   <v>       0.00000000      -0.42857143       0.40000000 </v>
   <v>       0.04166667      -0.42857143       0.40000000 </v>
   <v>       0.08333333      -0.42857143       0.40000000 </v>
   <v>       0.12500000      -0.42857143       0.40000000 </v>
   <v>       0.16666667      -0.42857143       0.40000000 </v>
   <v>       0.20833333      -0.42857143       0.40000000 </v>
   <v>       0.25000000      -0.42857143       0.40000000 </v>
   <v>       0.29166667      -0.42857143       0.40000000 </v>
   <v>       0.33333333      -0.42857143       0.40000000 </v>
   <v>       0.37500000      -0.42857143       0.40000000 </v>
   <v>       0.41666667      -0.42857143       0.40000000 </v>
   <v>       0.45833333      -0.42857143       0.40000000 </v>
   <v>       0.50000000      -0.42857143       0.40000000 </v>
   <v>       0.00000000      -0.35714286       0.40000000 </v>
   <v>       0.04166667      -0.35714286       0.40000000 </v>
   <v>       0.08333333      -0.35714286       0.40000000 </v>
   <v>       0.12500000      -0.35714286       0.40000000 </v>
   <v>       0.16666667      -0.35714286       0.40000000 </v>
   <v>       0.20833333      -0.35714286       0.40000000 </v>
   <v>       0.25000000      -0.35714286       0.40000000 </v>
   <v>       0.29166667      -0.35714286       0.40000000 </v>
   <v>       0.33333333      -0.35714286       0.40000000 </v>
   <v>       0.37500000      -0.35714286       0.40000000 </v>
   <v>       0.41666667      -0.35714286       0.40000000 </v>
   <v>       0.45833333      -0.35714286       0.40000000 </v>
   <v>       0.50000000      -0.35714286       0.40000000 </v>
   <v>       0.00000000      -0.28571429       0.40000000 </v>
   <v>       0.04166667      -0.28571429       0.40000000 </v>
   <v>       0.08333333      -0.28571429       0.40000000 </v>
   <v>       0.12500000      -0.28571429       0.40000000 </v>
   <v>       0.16666667      -0.28571429       0.40000000 </v>
   <v>       0.20833333      -0.28571429       0.40000000 </v>
   <v>       0.25000000      -0.28571429       0.40000000 </v>
   <v>       0.29166667      -0.28571429       0.40000000 </v>
   <v>       0.33333333      -0.28571429       0.40000000 </v>
   <v>       0.37500000      -0.28571429       0.40000000 </v>
   <v>       0.41666667      -0.28571429       0.40000000 </v>
   <v>       0.45833333      -0.28571429       0.40000000 </v>
   <v>       0.50000000      -0.28571429       0.40000000 </v>
   <v>       0.00000000      -0.21428571       0.40000000 </v>
   <v>       0.04166667      -0.21428571       0.40000000 </v>
   <v>       0.08333333      -0.21428571       0.40000000 </v>
   <v>       0.12500000      -0.21428571       0.40000000 </v>
   <v>       0.16666667      -0.21428571       0.40000000 </v>
   <v>       0.20833333      -0.21428571       0.40000000 </v>
   <v>       0.25000000      -0.21428571       0.40000000 </v>
   <v>       0.29166667      -0.21428571       0.40000000 </v>
   <v>       0.33333333      -0.21428571       0.40000000 </v>
   <v>       0.37500000      -0.21428571       0.40000000 </v>
   <v>       0.41666667      -0.21428571       0.40000000 </v>
   <v>       0.45833333      -0.21428571       0.40000000 </v>
   <v>       0.50000000      -0.21428571       0.40000000 </v>
   <v>       0.00000000      -0.14285714       0.40000000 </v>
   <v>       0.04166667      -0.14285714       0.40000000 </v>
   <v>       0.08333333      -0.14285714       0.40000000 </v>
   <v>       0.12500000      -0.14285714       0.40000000 </v>
   <v>       0.16666667      -0.14285714       0.40000000 </v>
   <v>       0.20833333      -0.14285714       0.40000000 </v>
   <v>       0.25000000      -0.14285714       0.40000000 </v>
   <v>       0.29166667      -0.14285714       0.40000000 </v>
   <v>       0.33333333      -0.14285714       0.40000000 </v>
   <v>       0.37500000      -0.14285714       0.40000000 </v>
   <v>       0.41666667      -0.14285714       0.40000000 </v>
   <v>       0.45833333      -0.14285714       0.40000000 </v>
   <v>       0.50000000      -0.14285714       0.40000000 </v>
   <v>       0.00000000      -0.07142857       0.40000000 </v>
   <v>       0.04166667      -0.07142857       0.40000000 </v>
   <v>       0.08333333      -0.07142857       0.40000000 </v>
   <v>       0.12500000      -0.07142857       0.40000000 </v>
   <v>       0.16666667      -0.07142857       0.40000000 </v>
   <v>       0.20833333      -0.07142857       0.40000000 </v>
   <v>       0.25000000      -0.07142857       0.40000000 </v>
   <v>       0.29166667      -0.07142857       0.40000000 </v>
   <v>       0.33333333      -0.07142857       0.40000000 </v>
   <v>       0.37500000      -0.07142857       0.40000000 </v>
   <v>       0.41666667      -0.07142857       0.40000000 </v>
   <v>       0.45833333      -0.07142857       0.40000000 </v>
   <v>       0.50000000      -0.07142857       0.40000000 </v>
   <v>       0.00000000       0.00000000       0.50000000 </v>
   <v>       0.04166667       0.00000000       0.50000000 </v>
   <v>       0.08333333       0.00000000       0.50000000 </v>
   <v>       0.12500000       0.00000000       0.50000000 </v>
   <v>       0.16666667       0.00000000       0.50000000 </v>
   <v>       0.20833333       0.00000000       0.50000000 </v>
   <v>       0.25000000       0.00000000       0.50000000 </v>
   <v>       0.29166667       0.00000000       0.50000000 </v>
   <v>       0.33333333       0.00000000       0.50000000 </v>
   <v>       0.37500000       0.00000000       0.50000000 </v>
   <v>       0.41666667       0.00000000       0.50000000 </v>
   <v>       0.45833333       0.00000000       0.50000000 </v>
   <v>       0.50000000       0.00000000       0.50000000 </v>
   <v>       0.00000000       0.07142857       0.50000000 </v>
   <v>       0.04166667       0.07142857       0.50000000 </v>
   <v>       0.08333333       0.07142857       0.50000000 </v>
   <v>       0.12500000       0.07142857       0.50000000 </v>
   <v>       0.16666667       0.07142857       0.50000000 </v>
   <v>       0.20833333       0.07142857       0.50000000 </v>
   <v>       0.25000000       0.07142857       0.50000000 </v>
   <v>       0.29166667       0.07142857       0.50000000 </v>
   <v>       0.33333333       0.07142857       0.50000000 </v>
   <v>       0.37500000       0.07142857       0.50000000 </v>
   <v>       0.41666667       0.07142857       0.50000000 </v>
   <v>       0.45833333       0.07142857       0.50000000 </v>
   <v>       0.50000000       0.07142857       0.50000000 </v>
   <v>       0.00000000       0.14285714       0.50000000 </v>
   <v>       0.04166667       0.14285714       0.50000000 </v>
   <v>       0.08333333       0.14285714       0.50000000 </v>
   <v>       0.12500000       0.14285714       0.50000000 </v>
   <v>       0.16666667       0.14285714       0.50000000 </v>
   <v>       0.20833333       0.14285714       0.50000000 </v>
   <v>       0.25000000       0.14285714       0.50000000 </v>
   <v>       0.29166667       0.14285714       0.50000000 </v>
   <v>       0.33333333       0.14285714       0.50000000 </v>
   <v>       0.37500000       0.14285714       0.50000000 </v>
   <v>       0.41666667       0.14285714       0.50000000 </v>
   <v>       0.45833333       0.14285714       0.50000000 </v>
   <v>       0.50000000       0.14285714       0.50000000 </v>
   <v>       0.00000000       0.21428571       0.50000000 </v>
   <v>       0.04166667       0.21428571       0.50000000 </v>
   <v>       0.08333333       0.21428571       0.50000000 </v>
   <v>       0.12500000       0.21428571       0.50000000 </v>
   <v>       0.16666667       0.21428571       0.50000000 </v>
   <v>       0.20833333       0.21428571       0.50000000 </v>
   <v>       0.25000000       0.21428571       0.50000000 </v>
   <v>       0.29166667       0.21428571       0.50000000 </v>
   <v>       0.33333333       0.21428571       0.50000000 </v>
   <v>       0.37500000       0.21428571       0.50000000 </v>
   <v>       0.41666667       0.21428571       0.50000000 </v>
   <v>       0.45833333       0.21428571       0.50000000 </v>
   <v>       0.50000000       0.21428571       0.50000000 </v>
   <v>       0.00000000       0.28571429       0.50000000 </v>
   <v>       0.04166667       0.28571429       0.50000000 </v>
   <v>       0.08333333       0.28571429       0.50000000 </v>
   <v>       0.12500000       0.28571429       0.50000000 </v>
   <v>       0.16666667       0.28571429       0.50000000 </v>
   <v>       0.20833333       0.28571429       0.50000000 </v>
   <v>       0.25000000       0.28571429       0.50000000 </v>
   <v>       0.29166667       0.28571429       0.50000000 </v>
   <v>       0.33333333       0.28571429       0.50000000 </v>
   <v>       0.37500000       0.28571429       0.50000000 </v>
   <v>       0.41666667       0.28571429       0.50000000 </v>
   <v>       0.45833333       0.28571429       0.50000000 </v>
   <v>       0.50000000       0.28571429       0.50000000 </v>
   <v>       0.00000000       0.35714286       0.50000000 </v>
   <v>       0.04166667       0.35714286       0.50000000 </v>
   <v>       0.08333333       0.35714286       0.50000000 </v>
   <v>       0.12500000       0.35714286       0.50000000 </v>
   <v>       0.16666667       0.35714286       0.50000000 </v>
   <v>       0.20833333       0.35714286       0.50000000 </v>
   <v>       0.25000000       0.35714286       0.50000000 </v>
   <v>       0.29166667       0.35714286       0.50000000 </v>
   <v>       0.33333333       0.35714286       0.50000000 </v>
   <v>       0.37500000       0.35714286       0.50000000 </v>
   <v>       0.41666667       0.35714286       0.50000000 </v>
   <v>       0.45833333       0.35714286       0.50000000 </v>
   <v>       0.50000000       0.35714286       0.50000000 </v>
   <v>       0.00000000       0.42857143       0.50000000 </v>
   <v>       0.04166667       0.42857143       0.50000000 </v>
   <v>       0.08333333       0.42857143       0.50000000 </v>
   <v>       0.12500000       0.42857143       0.50000000 </v>
   <v>       0.16666667       0.42857143       0.50000000 </v>
   <v>       0.20833333       0.42857143       0.50000000 </v>
   <v>       0.25000000       0.42857143       0.50000000 </v>
   <v>       0.29166667       0.42857143       0.50000000 </v>
   <v>       0.33333333       0.42857143       0.50000000 </v>
   <v>       0.37500000       0.42857143       0.50000000 </v>
   <v>       0.41666667       0.42857143       0.50000000 </v>
   <v>       0.45833333       0.42857143       0.50000000 </v>
   <v>       0.50000000       0.42857143       0.50000000 </v>
   <v>       0.00000000       0.50000000       0.50000000 </v>
   <v>       0.04166667       0.50000000       0.50000000 </v>
   <v>       0.08333333       0.50000000       0.50000000 </v>
   <v>       0.12500000       0.50000000       0.50000000 </v>
   <v>       0.16666667       0.50000000       0.50000000 </v>
   <v>       0.20833333       0.50000000       0.50000000 </v>
   <v>       0.25000000       0.50000000       0.50000000 </v>
   <v>       0.29166667       0.50000000       0.50000000 </v>
   <v>       0.33333333       0.50000000       0.50000000 </v>
   <v>       0.37500000       0.50000000       0.50000000 </v>
   <v>       0.41666667       0.50000000       0.50000000 </v>
   <v>       0.45833333       0.50000000       0.50000000 </v>
   <v>       0.50000000       0.50000000       0.50000000 </v>
  </varray>
  <varray name="weights" >
   <v>       0.00029762 </v>
   <v>       0.00059524 </v>
   <v>       0.00059524 </v>
   <v>       0.00059524 </v>
   <v>       0.00059524 </v>
   <v>       0.00059524 </v>
   <v>       0.00059524 </v>
   <v>       0.00059524 </v>
   <v>       0.00059524 </v>
   <v>       0.00059524 </v>
   <v>       0.00059524 </v>
   <v>       0.00059524 </v>
   <v>       0.00029762 </v>
   <v>       0.00059524 </v>
   <v>       0.00119048 </v>
   <v>       0.00119048 </v>
   <v>       0.00119048 </v>
   <v>       0.00119048 </v>
   <v>       0.00119048 </v>
   <v>       0.00119048 </v>
   <v>       0.00119048 </v>
   <v>       0.00119048 </v>
   <v>       0.00119048 </v>
   <v>       0.00119048 </v>
   <v>       0.00119048 </v>
   <v>       0.00059524 </v>
   <v>       0.00059524 </v>
   <v>       0.00119048 </v>
   <v>       0.00119048 </v>
   <v>       0.00119048 </v>
   <v>       0.00119048 </v>
   <v>       0.00119048 </v>
   <v>       0.00119048 </v>
   <v>       0.00119048 </v>
   <v>       0.00119048 </v>
   <v>       0.00119048 </v>
   <v>       0.00119048 </v>
   <v>       0.00119048 </v>
   <v>       0.00059524 </v>
   <v>       0.00059524 </v>
   <v>       0.00119048 </v>
   <v>       0.00119048 </v>
   <v>       0.00119048 </v>
   <v>       0.00119048 </v>
   <v>       0.00119048 </v>
   <v>       0.00119048 </v>
   <v>       0.00119048 </v>
   <v>       0.00119048 </v>
   <v>       0.00119048 </v>
   <v>       0.00119048 </v>
   <v>       0.00119048 </v>
   <v>       0.00059524 </v>
   <v>       0.00059524 </v>
   <v>       0.00119048 </v>
   <v>       0.00119048 </v>
   <v>       0.00119048 </v>
   <v>       0.00119048 </v>
   <v>       0.00119048 </v>
   <v>       0.00119048 </v>
   <v>       0.00119048 </v>
   <v>       0.00119048 </v>
   <v>       0.00119048 </v>
   <v>       0.00119048 </v>
   <v>       0.00119048 </v>
   <v>       0.00059524 </v>
   <v>       0.00059524 </v>
   <v>       0.00119048 </v>
   <v>       0.00119048 </v>
   <v>       0.00119048 </v>
   <v>       0.00119048 </v>
   <v>       0.00119048 </v>
   <v>       0.00119048 </v>
   <v>       0.00119048 </v>
   <v>       0.00119048 </v>
   <v>       0.00119048 </v>
   <v>       0.00119048 </v>
   <v>       0.00119048 </v>
   <v>       0.00059524 </v>
   <v>       0.00059524 </v>
   <v>       0.00119048 </v>
   <v>       0.00119048 </v>
   <v>       0.00119048 </v>
   <v>       0.00119048 </v>
   <v>       0.00119048 </v>
   <v>       0.00119048 </v>
   <v>       0.00119048 </v>
   <v>       0.00119048 </v>
   <v>       0.00119048 </v>
   <v>       0.00119048 </v>
   <v>       0.00119048 </v>
   <v>       0.00059524 </v>
   <v>       0.00029762 </v>
   <v>       0.00059524 </v>
   <v>       0.00059524 </v>
   <v>       0.00059524 </v>
   <v>       0.00059524 </v>
   <v>       0.00059524 </v>
   <v>       0.00059524 </v>
   <v>       0.00059524 </v>
   <v>       0.00059524 </v>
   <v>       0.00059524 </v>
   <v>       0.00059524 </v>
   <v>       0.00059524 </v>
   <v>       0.00029762 </v>
   <v>       0.00059524 </v>
   <v>       0.00119048 </v>
   <v>       0.00119048 </v>
   <v>       0.00119048 </v>
   <v>       0.00119048 </v>
   <v>       0.00119048 </v>
   <v>       0.00119048 </v>
   <v>       0.00119048 </v>
   <v>       0.00119048 </v>
   <v>       0.00119048 </v>
   <v>       0.00119048 </v>
   <v>       0.00119048 </v>
   <v>       0.00059524 </v>
   <v>       0.00059524 </v>
   <v>       0.00119048 </v>
   <v>       0.00119048 </v>
   <v>       0.00119048 </v>
   <v>       0.00119048 </v>
   <v>       0.00119048 </v>
   <v>       0.00119048 </v>
   <v>       0.00119048 </v>
   <v>       0.00119048 </v>
   <v>       0.00119048 </v>
   <v>       0.00119048 </v>
   <v>       0.00119048 </v>
   <v>       0.00059524 </v>
   <v>       0.00059524 </v>
   <v>       0.00119048 </v>
   <v>       0.00119048 </v>
   <v>       0.00119048 </v>
   <v>       0.00119048 </v>
   <v>       0.00119048 </v>
   <v>       0.00119048 </v>
   <v>       0.00119048 </v>
   <v>       0.00119048 </v>
   <v>       0.00119048 </v>
   <v>       0.00119048 </v>
   <v>       0.00119048 </v>
   <v>       0.00059524 </v>
   <v>       0.00059524 </v>
   <v>       0.00119048 </v>
   <v>       0.00119048 </v>
   <v>       0.00119048 </v>
   <v>       0.00119048 </v>
   <v>       0.00119048 </v>
   <v>       0.00119048 </v>
   <v>       0.00119048 </v>
   <v>       0.00119048 </v>
   <v>       0.00119048 </v>
   <v>       0.00119048 </v>
   <v>       0.00119048 </v>
   <v>       0.00059524 </v>
   <v>       0.00059524 </v>
   <v>       0.00119048 </v>
   <v>       0.00119048 </v>
   <v>       0.00119048 </v>
   <v>       0.00119048 </v>
   <v>       0.00119048 </v>
   <v>       0.00119048 </v>
   <v>       0.00119048 </v>
   <v>       0.00119048 </v>
   <v>       0.00119048 </v>
   <v>       0.00119048 </v>
   <v>       0.00119048 </v>
   <v>       0.00059524 </v>
   <v>       0.00059524 </v>
   <v>       0.00119048 </v>
   <v>       0.00119048 </v>
   <v>       0.00119048 </v>
   <v>       0.00119048 </v>
   <v>       0.00119048 </v>
   <v>       0.00119048 </v>
   <v>       0.00119048 </v>
   <v>       0.00119048 </v>
   <v>       0.00119048 </v>
   <v>       0.00119048 </v>
   <v>       0.00119048 </v>
   <v>       0.00059524 </v>
   <v>       0.00059524 </v>
   <v>       0.00119048 </v>
   <v>       0.00119048 </v>
   <v>       0.00119048 </v>
   <v>       0.00119048 </v>
   <v>       0.00119048 </v>
   <v>       0.00119048 </v>
   <v>       0.00119048 </v>
   <v>       0.00119048 </v>
   <v>       0.00119048 </v>
   <v>       0.00119048 </v>
   <v>       0.00119048 </v>
   <v>       0.00059524 </v>
   <v>       0.00059524 </v>
   <v>       0.00119048 </v>
   <v>       0.00119048 </v>
   <v>       0.00119048 </v>
   <v>       0.00119048 </v>
   <v>       0.00119048 </v>
   <v>       0.00119048 </v>
   <v>       0.00119048 </v>
   <v>       0.00119048 </v>
   <v>       0.00119048 </v>
   <v>       0.00119048 </v>
   <v>       0.00119048 </v>
   <v>       0.00059524 </v>
   <v>       0.00059524 </v>
   <v>       0.00119048 </v>
   <v>       0.00119048 </v>
   <v>       0.00119048 </v>
   <v>       0.00119048 </v>
   <v>       0.00119048 </v>
   <v>       0.00119048 </v>
   <v>       0.00119048 </v>
   <v>       0.00119048 </v>
   <v>       0.00119048 </v>
   <v>       0.00119048 </v>
   <v>       0.00119048 </v>
   <v>       0.00059524 </v>
   <v>       0.00059524 </v>
   <v>       0.00119048 </v>
   <v>       0.00119048 </v>
   <v>       0.00119048 </v>
   <v>       0.00119048 </v>
   <v>       0.00119048 </v>
   <v>       0.00119048 </v>
   <v>       0.00119048 </v>
   <v>       0.00119048 </v>
   <v>       0.00119048 </v>
   <v>       0.00119048 </v>
   <v>       0.00119048 </v>
   <v>       0.00059524 </v>
   <v>       0.00059524 </v>
   <v>       0.00119048 </v>
   <v>       0.00119048 </v>
   <v>       0.00119048 </v>
   <v>       0.00119048 </v>
   <v>       0.00119048 </v>
   <v>       0.00119048 </v>
   <v>       0.00119048 </v>
   <v>       0.00119048 </v>
   <v>       0.00119048 </v>
   <v>       0.00119048 </v>
   <v>       0.00119048 </v>
   <v>       0.00059524 </v>
   <v>       0.00059524 </v>
   <v>       0.00119048 </v>
   <v>       0.00119048 </v>
   <v>       0.00119048 </v>
   <v>       0.00119048 </v>
   <v>       0.00119048 </v>
   <v>       0.00119048 </v>
   <v>       0.00119048 </v>
   <v>       0.00119048 </v>
   <v>       0.00119048 </v>
   <v>       0.00119048 </v>
   <v>       0.00119048 </v>
   <v>       0.00059524 </v>
   <v>       0.00059524 </v>
   <v>       0.00119048 </v>
   <v>       0.00119048 </v>
   <v>       0.00119048 </v>
   <v>       0.00119048 </v>
   <v>       0.00119048 </v>
   <v>       0.00119048 </v>
   <v>       0.00119048 </v>
   <v>       0.00119048 </v>
   <v>       0.00119048 </v>
   <v>       0.00119048 </v>
   <v>       0.00119048 </v>
   <v>       0.00059524 </v>
   <v>       0.00059524 </v>
   <v>       0.00119048 </v>
   <v>       0.00119048 </v>
   <v>       0.00119048 </v>
   <v>       0.00119048 </v>
   <v>       0.00119048 </v>
   <v>       0.00119048 </v>
   <v>       0.00119048 </v>
   <v>       0.00119048 </v>
   <v>       0.00119048 </v>
   <v>       0.00119048 </v>
   <v>       0.00119048 </v>
   <v>       0.00059524 </v>
   <v>       0.00059524 </v>
   <v>       0.00119048 </v>
   <v>       0.00119048 </v>
   <v>       0.00119048 </v>
   <v>       0.00119048 </v>
   <v>       0.00119048 </v>
   <v>       0.00119048 </v>
   <v>       0.00119048 </v>
   <v>       0.00119048 </v>
   <v>       0.00119048 </v>
   <v>       0.00119048 </v>
   <v>       0.00119048 </v>
   <v>       0.00059524 </v>
   <v>       0.00059524 </v>
   <v>       0.00119048 </v>
   <v>       0.00119048 </v>
   <v>       0.00119048 </v>
   <v>       0.00119048 </v>
   <v>       0.00119048 </v>
   <v>       0.00119048 </v>
   <v>       0.00119048 </v>
   <v>       0.00119048 </v>
   <v>       0.00119048 </v>
   <v>       0.00119048 </v>
   <v>       0.00119048 </v>
   <v>       0.00059524 </v>
   <v>       0.00059524 </v>
   <v>       0.00119048 </v>
   <v>       0.00119048 </v>
   <v>       0.00119048 </v>
   <v>       0.00119048 </v>
   <v>       0.00119048 </v>
   <v>       0.00119048 </v>
   <v>       0.00119048 </v>
   <v>       0.00119048 </v>
   <v>       0.00119048 </v>
   <v>       0.00119048 </v>
   <v>       0.00119048 </v>
   <v>       0.00059524 </v>
   <v>       0.00059524 </v>
   <v>       0.00119048 </v>
   <v>       0.00119048 </v>
   <v>       0.00119048 </v>
   <v>       0.00119048 </v>
   <v>       0.00119048 </v>
   <v>       0.00119048 </v>
   <v>       0.00119048 </v>
   <v>       0.00119048 </v>
   <v>       0.00119048 </v>
   <v>       0.00119048 </v>
   <v>       0.00119048 </v>
   <v>       0.00059524 </v>
   <v>       0.00059524 </v>
   <v>       0.00119048 </v>
   <v>       0.00119048 </v>
   <v>       0.00119048 </v>
   <v>       0.00119048 </v>
   <v>       0.00119048 </v>
   <v>       0.00119048 </v>
   <v>       0.00119048 </v>
   <v>       0.00119048 </v>
   <v>       0.00119048 </v>
   <v>       0.00119048 </v>
   <v>       0.00119048 </v>
   <v>       0.00059524 </v>
   <v>       0.00059524 </v>
   <v>       0.00119048 </v>
   <v>       0.00119048 </v>
   <v>       0.00119048 </v>
   <v>       0.00119048 </v>
   <v>       0.00119048 </v>
   <v>       0.00119048 </v>
   <v>       0.00119048 </v>
   <v>       0.00119048 </v>
   <v>       0.00119048 </v>
   <v>       0.00119048 </v>
   <v>       0.00119048 </v>
   <v>       0.00059524 </v>
   <v>       0.00059524 </v>
   <v>       0.00119048 </v>
   <v>       0.00119048 </v>
   <v>       0.00119048 </v>
   <v>       0.00119048 </v>
   <v>       0.00119048 </v>
   <v>       0.00119048 </v>
   <v>       0.00119048 </v>
   <v>       0.00119048 </v>
   <v>       0.00119048 </v>
   <v>       0.00119048 </v>
   <v>       0.00119048 </v>
   <v>       0.00059524 </v>
   <v>       0.00059524 </v>
   <v>       0.00119048 </v>
   <v>       0.00119048 </v>
   <v>       0.00119048 </v>
   <v>       0.00119048 </v>
   <v>       0.00119048 </v>
   <v>       0.00119048 </v>
   <v>       0.00119048 </v>
   <v>       0.00119048 </v>
   <v>       0.00119048 </v>
   <v>       0.00119048 </v>
   <v>       0.00119048 </v>
   <v>       0.00059524 </v>
   <v>       0.00059524 </v>
   <v>       0.00119048 </v>
   <v>       0.00119048 </v>
   <v>       0.00119048 </v>
   <v>       0.00119048 </v>
   <v>       0.00119048 </v>
   <v>       0.00119048 </v>
   <v>       0.00119048 </v>
   <v>       0.00119048 </v>
   <v>       0.00119048 </v>
   <v>       0.00119048 </v>
   <v>       0.00119048 </v>
   <v>       0.00059524 </v>
   <v>       0.00059524 </v>
   <v>       0.00119048 </v>
   <v>       0.00119048 </v>
   <v>       0.00119048 </v>
   <v>       0.00119048 </v>
   <v>       0.00119048 </v>
   <v>       0.00119048 </v>
   <v>       0.00119048 </v>
   <v>       0.00119048 </v>
   <v>       0.00119048 </v>
   <v>       0.00119048 </v>
   <v>       0.00119048 </v>
   <v>       0.00059524 </v>
   <v>       0.00059524 </v>
   <v>       0.00119048 </v>
   <v>       0.00119048 </v>
   <v>       0.00119048 </v>
   <v>       0.00119048 </v>
   <v>       0.00119048 </v>
   <v>       0.00119048 </v>
   <v>       0.00119048 </v>
   <v>       0.00119048 </v>
   <v>       0.00119048 </v>
   <v>       0.00119048 </v>
   <v>       0.00119048 </v>
   <v>       0.00059524 </v>
   <v>       0.00059524 </v>
   <v>       0.00119048 </v>
   <v>       0.00119048 </v>
   <v>       0.00119048 </v>
   <v>       0.00119048 </v>
   <v>       0.00119048 </v>
   <v>       0.00119048 </v>
   <v>       0.00119048 </v>
   <v>       0.00119048 </v>
   <v>       0.00119048 </v>
   <v>       0.00119048 </v>
   <v>       0.00119048 </v>
   <v>       0.00059524 </v>
   <v>       0.00059524 </v>
   <v>       0.00119048 </v>
   <v>       0.00119048 </v>
   <v>       0.00119048 </v>
   <v>       0.00119048 </v>
   <v>       0.00119048 </v>
   <v>       0.00119048 </v>
   <v>       0.00119048 </v>
   <v>       0.00119048 </v>
   <v>       0.00119048 </v>
   <v>       0.00119048 </v>
   <v>       0.00119048 </v>
   <v>       0.00059524 </v>
   <v>       0.00059524 </v>
   <v>       0.00119048 </v>
   <v>       0.00119048 </v>
   <v>       0.00119048 </v>
   <v>       0.00119048 </v>
   <v>       0.00119048 </v>
   <v>       0.00119048 </v>
   <v>       0.00119048 </v>
   <v>       0.00119048 </v>
   <v>       0.00119048 </v>
   <v>       0.00119048 </v>
   <v>       0.00119048 </v>
   <v>       0.00059524 </v>
   <v>       0.00059524 </v>
   <v>       0.00119048 </v>
   <v>       0.00119048 </v>
   <v>       0.00119048 </v>
   <v>       0.00119048 </v>
   <v>       0.00119048 </v>
   <v>       0.00119048 </v>
   <v>       0.00119048 </v>
   <v>       0.00119048 </v>
   <v>       0.00119048 </v>
   <v>       0.00119048 </v>
   <v>       0.00119048 </v>
   <v>       0.00059524 </v>
   <v>       0.00059524 </v>
   <v>       0.00119048 </v>
   <v>       0.00119048 </v>
   <v>       0.00119048 </v>
   <v>       0.00119048 </v>
   <v>       0.00119048 </v>
   <v>       0.00119048 </v>
   <v>       0.00119048 </v>
   <v>       0.00119048 </v>
   <v>       0.00119048 </v>
   <v>       0.00119048 </v>
   <v>       0.00119048 </v>
   <v>       0.00059524 </v>
   <v>       0.00059524 </v>
   <v>       0.00119048 </v>
   <v>       0.00119048 </v>
   <v>       0.00119048 </v>
   <v>       0.00119048 </v>
   <v>       0.00119048 </v>
   <v>       0.00119048 </v>
   <v>       0.00119048 </v>
   <v>       0.00119048 </v>
   <v>       0.00119048 </v>
   <v>       0.00119048 </v>
   <v>       0.00119048 </v>
   <v>       0.00059524 </v>
   <v>       0.00059524 </v>
   <v>       0.00119048 </v>
   <v>       0.00119048 </v>
   <v>       0.00119048 </v>
   <v>       0.00119048 </v>
   <v>       0.00119048 </v>
   <v>       0.00119048 </v>
   <v>       0.00119048 </v>
   <v>       0.00119048 </v>
   <v>       0.00119048 </v>
   <v>       0.00119048 </v>
   <v>       0.00119048 </v>
   <v>       0.00059524 </v>
   <v>       0.00059524 </v>
   <v>       0.00119048 </v>
   <v>       0.00119048 </v>
   <v>       0.00119048 </v>
   <v>       0.00119048 </v>
   <v>       0.00119048 </v>
   <v>       0.00119048 </v>
   <v>       0.00119048 </v>
   <v>       0.00119048 </v>
   <v>       0.00119048 </v>
   <v>       0.00119048 </v>
   <v>       0.00119048 </v>
   <v>       0.00059524 </v>
   <v>       0.00059524 </v>
   <v>       0.00119048 </v>
   <v>       0.00119048 </v>
   <v>       0.00119048 </v>
   <v>       0.00119048 </v>
   <v>       0.00119048 </v>
   <v>       0.00119048 </v>
   <v>       0.00119048 </v>
   <v>       0.00119048 </v>
   <v>       0.00119048 </v>
   <v>       0.00119048 </v>
   <v>       0.00119048 </v>
   <v>       0.00059524 </v>
   <v>       0.00059524 </v>
   <v>       0.00119048 </v>
   <v>       0.00119048 </v>
   <v>       0.00119048 </v>
   <v>       0.00119048 </v>
   <v>       0.00119048 </v>
   <v>       0.00119048 </v>
   <v>       0.00119048 </v>
   <v>       0.00119048 </v>
   <v>       0.00119048 </v>
   <v>       0.00119048 </v>
   <v>       0.00119048 </v>
   <v>       0.00059524 </v>
   <v>       0.00059524 </v>
   <v>       0.00119048 </v>
   <v>       0.00119048 </v>
   <v>       0.00119048 </v>
   <v>       0.00119048 </v>
   <v>       0.00119048 </v>
   <v>       0.00119048 </v>
   <v>       0.00119048 </v>
   <v>       0.00119048 </v>
   <v>       0.00119048 </v>
   <v>       0.00119048 </v>
   <v>       0.00119048 </v>
   <v>       0.00059524 </v>
   <v>       0.00059524 </v>
   <v>       0.00119048 </v>
   <v>       0.00119048 </v>
   <v>       0.00119048 </v>
   <v>       0.00119048 </v>
   <v>       0.00119048 </v>
   <v>       0.00119048 </v>
   <v>       0.00119048 </v>
   <v>       0.00119048 </v>
   <v>       0.00119048 </v>
   <v>       0.00119048 </v>
   <v>       0.00119048 </v>
   <v>       0.00059524 </v>
   <v>       0.00059524 </v>
   <v>       0.00119048 </v>
   <v>       0.00119048 </v>
   <v>       0.00119048 </v>
   <v>       0.00119048 </v>
   <v>       0.00119048 </v>
   <v>       0.00119048 </v>
   <v>       0.00119048 </v>
   <v>       0.00119048 </v>
   <v>       0.00119048 </v>
   <v>       0.00119048 </v>
   <v>       0.00119048 </v>
   <v>       0.00059524 </v>
   <v>       0.00059524 </v>
   <v>       0.00119048 </v>
   <v>       0.00119048 </v>
   <v>       0.00119048 </v>
   <v>       0.00119048 </v>
   <v>       0.00119048 </v>
   <v>       0.00119048 </v>
   <v>       0.00119048 </v>
   <v>       0.00119048 </v>
   <v>       0.00119048 </v>
   <v>       0.00119048 </v>
   <v>       0.00119048 </v>
   <v>       0.00059524 </v>
   <v>       0.00059524 </v>
   <v>       0.00119048 </v>
   <v>       0.00119048 </v>
   <v>       0.00119048 </v>
   <v>       0.00119048 </v>
   <v>       0.00119048 </v>
   <v>       0.00119048 </v>
   <v>       0.00119048 </v>
   <v>       0.00119048 </v>
   <v>       0.00119048 </v>
   <v>       0.00119048 </v>
   <v>       0.00119048 </v>
   <v>       0.00059524 </v>
   <v>       0.00059524 </v>
   <v>       0.00119048 </v>
   <v>       0.00119048 </v>
   <v>       0.00119048 </v>
   <v>       0.00119048 </v>
   <v>       0.00119048 </v>
   <v>       0.00119048 </v>
   <v>       0.00119048 </v>
   <v>       0.00119048 </v>
   <v>       0.00119048 </v>
   <v>       0.00119048 </v>
   <v>       0.00119048 </v>
   <v>       0.00059524 </v>
   <v>       0.00059524 </v>
   <v>       0.00119048 </v>
   <v>       0.00119048 </v>
   <v>       0.00119048 </v>
   <v>       0.00119048 </v>
   <v>       0.00119048 </v>
   <v>       0.00119048 </v>
   <v>       0.00119048 </v>
   <v>       0.00119048 </v>
   <v>       0.00119048 </v>
   <v>       0.00119048 </v>
   <v>       0.00119048 </v>
   <v>       0.00059524 </v>
   <v>       0.00059524 </v>
   <v>       0.00119048 </v>
   <v>       0.00119048 </v>
   <v>       0.00119048 </v>
   <v>       0.00119048 </v>
   <v>       0.00119048 </v>
   <v>       0.00119048 </v>
   <v>       0.00119048 </v>
   <v>       0.00119048 </v>
   <v>       0.00119048 </v>
   <v>       0.00119048 </v>
   <v>       0.00119048 </v>
   <v>       0.00059524 </v>
   <v>       0.00059524 </v>
[...]
       <r>    5.0621    1.0000 </r>
       <r>    5.1556    1.0000 </r>
       <r>    5.1849    1.0000 </r>
       <r>    5.3013    1.0000 </r>
       <r>    5.4440    1.0000 </r>
       <r>    5.5313    1.0000 </r>
       <r>    5.5594    1.0000 </r>
       <r>    5.8276    1.0000 </r>
       <r>    5.8786    1.0000 </r>
       <r>    7.0624    1.0000 </r>
       <r>    7.1679    1.0000 </r>
       <r>    7.7275    1.0340 </r>
       <r>    8.0168    0.7864 </r>
       <r>   11.0273    0.0000 </r>
       <r>   11.1216    0.0000 </r>
       <r>   11.9923    0.0000 </r>
       <r>   12.1463    0.0000 </r>
       <r>   13.7930    0.0000 </r>
       <r>   14.3436    0.0000 </r>
      </set>
      <set comment="kpoint 935">
       <r>    1.7391    1.0000 </r>
       <r>    1.7525    1.0000 </r>
       <r>    2.1303    1.0000 </r>
       <r>    2.1364    1.0000 </r>
       <r>    2.1971    1.0000 </r>
       <r>    2.1987    1.0000 </r>
       <r>    2.4038    1.0000 </r>
       <r>    2.4140    1.0000 </r>
       <r>    2.4740    1.0000 </r>
       <r>    2.4877    1.0000 </r>
       <r>    3.4868    1.0000 </r>
       <r>    3.4885    1.0000 </r>
       <r>    3.5269    1.0000 </r>
       <r>    3.5273    1.0000 </r>
       <r>    4.4413    1.0000 </r>
       <r>    4.5268    1.0000 </r>
       <r>    4.5963    1.0000 </r>
       <r>    4.6362    1.0000 </r>
       <r>    4.7766    1.0000 </r>
       <r>    4.8129    1.0000 </r>
       <r>    5.0168    1.0000 </r>
       <r>    5.1213    1.0000 </r>
       <r>    5.1777    1.0000 </r>
       <r>    5.1960    1.0000 </r>
       <r>    5.4357    1.0000 </r>
       <r>    5.4806    1.0000 </r>
       <r>    5.5656    1.0000 </r>
       <r>    5.6060    1.0000 </r>
       <r>    5.9270    1.0000 </r>
       <r>    5.9753    1.0000 </r>
       <r>    7.5152    1.0071 </r>
       <r>    7.5395    1.0092 </r>
       <r>    8.3759    0.0019 </r>
       <r>    8.6916   -0.0114 </r>
       <r>   10.0795    0.0000 </r>
       <r>   10.2780    0.0000 </r>
       <r>   11.4965    0.0000 </r>
       <r>   11.5484    0.0000 </r>
       <r>   14.3269    0.0000 </r>
       <r>   14.9548    0.0000 </r>
      </set>
      <set comment="kpoint 936">
       <r>    1.7349    1.0000 </r>
       <r>    1.7349    1.0000 </r>
       <r>    2.1180    1.0000 </r>
       <r>    2.1180    1.0000 </r>
       <r>    2.1836    1.0000 </r>
       <r>    2.1836    1.0000 </r>
       <r>    2.4267    1.0000 </r>
       <r>    2.4267    1.0000 </r>
       <r>    2.4402    1.0000 </r>
       <r>    2.4402    1.0000 </r>
       <r>    3.4873    1.0000 </r>
       <r>    3.4873    1.0000 </r>
       <r>    3.5172    1.0000 </r>
       <r>    3.5172    1.0000 </r>
       <r>    4.5127    1.0000 </r>
       <r>    4.5127    1.0000 </r>
       <r>    4.6603    1.0000 </r>
       <r>    4.6603    1.0000 </r>
       <r>    4.7851    1.0000 </r>
       <r>    4.7851    1.0000 </r>
       <r>    5.0627    1.0000 </r>
       <r>    5.0627    1.0000 </r>
       <r>    5.2121    1.0000 </r>
       <r>    5.2121    1.0000 </r>
       <r>    5.4873    1.0000 </r>
       <r>    5.4873    1.0000 </r>
       <r>    5.5969    1.0000 </r>
       <r>    5.5969    1.0000 </r>
       <r>    5.9872    1.0000 </r>
       <r>    5.9872    1.0000 </r>
       <r>    7.7008    1.0311 </r>
       <r>    7.7008    1.0311 </r>
       <r>    9.1750    0.0000 </r>
       <r>    9.1750    0.0000 </r>
       <r>    9.4564    0.0000 </r>
       <r>    9.4564    0.0000 </r>
       <r>   11.3017    0.0000 </r>
       <r>   11.3017    0.0000 </r>
       <r>   15.0347    0.0000 </r>
       <r>   15.0347    0.0000 </r>
      </set>
     </set>
    </set>
   </array>
  </eigenvalues>
  <separator name="orbital magnetization" >
   <v name="MAGDIPOLOUT">      0.00000000      0.00000000      0.00000000</v>
  </separator>
  <dos>
   <i name="efermi">      8.12592728 </i>
   <total>
    <array>
     <dimension dim="1">gridpoints</dimension>
     <dimension dim="2">spin</dimension>
     <field>energy</field>
     <field>total</field>
     <field>integrated</field>
     <set>
      <set comment="spin 1">
       <r>    -3.1219     0.0000     0.0000 </r>
       <r>    -3.0414     0.0000     0.0000 </r>
       <r>    -2.9609     0.0000     0.0000 </r>
       <r>    -2.8804     0.0000     0.0000 </r>
       <r>    -2.7999     0.0000     0.0000 </r>
       <r>    -2.7193     0.0000     0.0000 </r>
       <r>    -2.6388     0.0000     0.0000 </r>
       <r>    -2.5583     0.0000     0.0000 </r>
       <r>    -2.4778     0.0000     0.0000 </r>
       <r>    -2.3973     0.0000     0.0000 </r>
       <r>    -2.3167     0.0000     0.0000 </r>
       <r>    -2.2362     0.0000     0.0000 </r>
       <r>    -2.1557     0.0000     0.0000 </r>
       <r>    -2.0752     0.0000     0.0000 </r>
       <r>    -1.9947     0.0000     0.0000 </r>
       <r>    -1.9141     0.0000     0.0000 </r>
       <r>    -1.8336     0.0000     0.0000 </r>
       <r>    -1.7531     0.0000     0.0000 </r>
       <r>    -1.6726     0.0000     0.0000 </r>
       <r>    -1.5920     0.0000     0.0000 </r>
       <r>    -1.5115     0.0000     0.0000 </r>
       <r>    -1.4310     0.0000     0.0000 </r>
       <r>    -1.3505     0.0000     0.0000 </r>
       <r>    -1.2700     0.0000     0.0000 </r>
       <r>    -1.1894     0.0000     0.0000 </r>
       <r>    -1.1089     0.0000     0.0000 </r>
       <r>    -1.0284     0.0000     0.0000 </r>
       <r>    -0.9479     0.0000     0.0000 </r>
       <r>    -0.8674    -0.0001     0.0000 </r>
       <r>    -0.7868    -0.0003     0.0000 </r>
       <r>    -0.7063    -0.0009    -0.0001 </r>
       <r>    -0.6258    -0.0023    -0.0003 </r>
       <r>    -0.5453    -0.0048    -0.0007 </r>
       <r>    -0.4648    -0.0080    -0.0013 </r>
       <r>    -0.3842    -0.0096    -0.0021 </r>
       <r>    -0.3037    -0.0052    -0.0025 </r>
       <r>    -0.2232     0.0116    -0.0016 </r>
       <r>    -0.1427     0.0461     0.0021 </r>
       <r>    -0.0622     0.0993     0.0101 </r>
       <r>     0.0184     0.1672     0.0236 </r>
       <r>     0.0989     0.2423     0.0431 </r>
       <r>     0.1794     0.3177     0.0687 </r>
       <r>     0.2599     0.3892     0.1000 </r>
       <r>     0.3404     0.4541     0.1366 </r>
       <r>     0.4210     0.5106     0.1777 </r>
       <r>     0.5015     0.5572     0.2226 </r>
       <r>     0.5820     0.5948     0.2705 </r>
       <r>     0.6625     0.6282     0.3210 </r>
       <r>     0.7430     0.6645     0.3745 </r>
       <r>     0.8236     0.7092     0.4317 </r>
       <r>     0.9041     0.7627     0.4931 </r>
       <r>     0.9846     0.8193     0.5590 </r>
       <r>     1.0651     0.8701     0.6291 </r>
       <r>     1.1456     0.9065     0.7021 </r>
       <r>     1.2262     0.9258     0.7766 </r>
       <r>     1.3067     0.9358     0.8520 </r>
       <r>     1.3872     0.9587     0.9292 </r>
       <r>     1.4677     1.0361     1.0126 </r>
       <r>     1.5482     1.2318     1.1118 </r>
       <r>     1.6288     1.6230     1.2425 </r>
       <r>     1.7093     2.2759     1.4257 </r>
       <r>     1.7898     3.2241     1.6853 </r>
       <r>     1.8703     4.4712     2.0453 </r>
       <r>     1.9509     6.0144     2.5296 </r>
       <r>     2.0314     7.8484     3.1616 </r>
       <r>     2.1119     9.9273     3.9609 </r>
       <r>     2.1924    12.1118     4.9362 </r>
       <r>     2.2729    14.1579     6.0762 </r>
       <r>     2.3535    15.7729     7.3462 </r>
       <r>     2.4340    16.7126     8.6919 </r>
       <r>     2.5145    16.8678    10.0501 </r>
       <r>     2.5950    16.3061    11.3631 </r>
       <r>     2.6755    15.2645    12.5922 </r>
       <r>     2.7561    14.1029    13.7278 </r>
       <r>     2.8366    13.2106    14.7915 </r>
       <r>     2.9171    12.8717    15.8279 </r>
       <r>     2.9976    13.1382    16.8858 </r>
       <r>     3.0781    13.8072    17.9976 </r>
       <r>     3.1587    14.5485    19.1691 </r>
       <r>     3.2392    15.1215    20.3866 </r>
       <r>     3.3197    15.5415    21.6381 </r>
       <r>     3.4002    16.0756    22.9325 </r>
       <r>     3.4807    17.0535    24.3056 </r>
       <r>     3.5613    18.5906    25.8026 </r>
       <r>     3.6418    20.3960    27.4448 </r>
       <r>     3.7223    21.8276    29.2024 </r>
       <r>     3.8028    22.2282    30.9922 </r>
       <r>     3.8833    21.3464    32.7111 </r>
       <r>     3.9639    19.5277    34.2834 </r>
       <r>     4.0444    17.5118    35.6935 </r>
       <r>     4.1249    15.9996    36.9818 </r>
       <r>     4.2054    15.3262    38.2159 </r>
       <r>     4.2859    15.4164    39.4572 </r>
       <r>     4.3665    15.9366    40.7404 </r>
       <r>     4.4470    16.4792    42.0673 </r>
       <r>     4.5275    16.7140    43.4132 </r>
       <r>     4.6080    16.5074    44.7423 </r>
       <r>     4.6885    15.9702    46.0283 </r>
       <r>     4.7691    15.3757    47.2663 </r>
       <r>     4.8496    14.9790    48.4724 </r>
       <r>     4.9301    14.8646    49.6693 </r>
       <r>     5.0106    14.9363    50.8720 </r>
       <r>     5.0911    15.0370    52.0828 </r>
       <r>     5.1717    15.0848    53.2974 </r>
       <r>     5.2522    15.1037    54.5136 </r>
       <r>     5.3327    15.1306    55.7319 </r>
       <r>     5.4132    15.0926    56.9472 </r>
       <r>     5.4938    14.7799    58.1373 </r>
       <r>     5.5743    13.9523    59.2607 </r>
       <r>     5.6548    12.4954    60.2668 </r>
       <r>     5.7353    10.5036    61.1126 </r>
       <r>     5.8158     8.2430    61.7763 </r>
       <r>     5.8964     6.0385    62.2626 </r>
       <r>     5.9769     4.1610    62.5976 </r>
       <r>     6.0574     2.7640    62.8202 </r>
       <r>     6.1379     1.8749    62.9711 </r>
       <r>     6.2184     1.4247    63.0858 </r>
       <r>     6.2990     1.2913    63.1898 </r>
       <r>     6.3795     1.3373    63.2975 </r>
       <r>     6.4600     1.4384    63.4133 </r>
       <r>     6.5405     1.5074    63.5347 </r>
       <r>     6.6210     1.5115    63.6564 </r>
       <r>     6.7016     1.4712    63.7749 </r>
       <r>     6.7821     1.4332    63.8903 </r>
       <r>     6.8626     1.4334    64.0057 </r>
       <r>     6.9431     1.4746    64.1244 </r>
       <r>     7.0236     1.5316    64.2477 </r>
       <r>     7.1042     1.5715    64.3743 </r>
       <r>     7.1847     1.5746    64.5011 </r>
       <r>     7.2652     1.5439    64.6254 </r>
       <r>     7.3457     1.5021    64.7463 </r>
       <r>     7.4262     1.4788    64.8654 </r>
       <r>     7.5068     1.4940    64.9857 </r>
       <r>     7.5873     1.5471    65.1103 </r>
       <r>     7.6678     1.6180    65.2406 </r>
       <r>     7.7483     1.6773    65.3756 </r>
       <r>     7.8288     1.7023    65.5127 </r>
       <r>     7.9094     1.6884    65.6486 </r>
       <r>     7.9899     1.6507    65.7816 </r>
       <r>     8.0704     1.6132    65.9115 </r>
       <r>     8.1509     1.5938    66.0398 </r>
       <r>     8.2314     1.5955    66.1683 </r>
       <r>     8.3120     1.6116    66.2980 </r>
       <r>     8.3925     1.6346    66.4296 </r>
       <r>     8.4730     1.6607    66.5634 </r>
       <r>     8.5535     1.6846    66.6990 </r>
       <r>     8.6340     1.6962    66.8356 </r>
       <r>     8.7146     1.6847    66.9712 </r>
       <r>     8.7951     1.6492    67.1040 </r>
       <r>     8.8756     1.6025    67.2331 </r>
       <r>     8.9561     1.5640    67.3590 </r>
       <r>     9.0367     1.5496    67.4838 </r>
       <r>     9.1172     1.5649    67.6098 </r>
       <r>     9.1977     1.6037    67.7389 </r>
       <r>     9.2782     1.6497    67.8717 </r>
       <r>     9.3587     1.6810    68.0071 </r>
       <r>     9.4393     1.6808    68.1424 </r>
       <r>     9.5198     1.6486    68.2752 </r>
       <r>     9.6003     1.6024    68.4042 </r>
       <r>     9.6808     1.5660    68.5303 </r>
       <r>     9.7613     1.5530    68.6554 </r>
       <r>     9.8419     1.5591    68.7809 </r>
       <r>     9.9224     1.5700    68.9073 </r>
       <r>    10.0029     1.5740    69.0340 </r>
       <r>    10.0834     1.5683    69.1603 </r>
       <r>    10.1639     1.5546    69.2855 </r>
       <r>    10.2445     1.5334    69.4090 </r>
       <r>    10.3250     1.5035    69.5300 </r>
       <r>    10.4055     1.4661    69.6481 </r>
       <r>    10.4860     1.4270    69.7630 </r>
       <r>    10.5665     1.3918    69.8751 </r>
       <r>    10.6471     1.3623    69.9848 </r>
       <r>    10.7276     1.3375    70.0925 </r>
       <r>    10.8081     1.3191    70.1987 </r>
       <r>    10.8886     1.3135    70.3044 </r>
       <r>    10.9691     1.3287    70.4114 </r>
       <r>    11.0497     1.3723    70.5219 </r>
       <r>    11.1302     1.4512    70.6388 </r>
       <r>    11.2107     1.5671    70.7650 </r>
       <r>    11.2912     1.7089    70.9026 </r>
       <r>    11.3717     1.8511    71.0516 </r>
       <r>    11.4523     1.9671    71.2100 </r>
       <r>    11.5328     2.0450    71.3747 </r>
       <r>    11.6133     2.0893    71.5429 </r>
       <r>    11.6938     2.1075    71.7126 </r>
       <r>    11.7743     2.0993    71.8816 </r>
       <r>    11.8549     2.0613    72.0476 </r>
       <r>    11.9354     2.0000    72.2087 </r>
       <r>    12.0159     1.9350    72.3645 </r>
       <r>    12.0964     1.8880    72.5165 </r>
       <r>    12.1769     1.8701    72.6671 </r>
       <r>    12.2575     1.8777    72.8183 </r>
       <r>    12.3380     1.8967    72.9710 </r>
       <r>    12.4185     1.9088    73.1247 </r>
       <r>    12.4990     1.8995    73.2776 </r>
       <r>    12.5796     1.8668    73.4279 </r>
       <r>    12.6601     1.8232    73.5748 </r>
       <r>    12.7406     1.7857    73.7185 </r>
       <r>    12.8211     1.7631    73.8605 </r>
       <r>    12.9016     1.7516    74.0015 </r>
       <r>    12.9822     1.7421    74.1418 </r>
       <r>    13.0627     1.7301    74.2811 </r>
       <r>    13.1432     1.7197    74.4196 </r>
       <r>    13.2237     1.7226    74.5583 </r>
       <r>    13.3042     1.7505    74.6993 </r>
       <r>    13.3848     1.8035    74.8445 </r>
       <r>    13.4653     1.8634    74.9945 </r>
       <r>    13.5458     1.8997    75.1475 </r>
       <r>    13.6263     1.8892    75.2996 </r>
       <r>    13.7068     1.8326    75.4472 </r>
       <r>    13.7874     1.7570    75.5886 </r>
       <r>    13.8679     1.7034    75.7258 </r>
       <r>    13.9484     1.7085    75.8634 </r>
       <r>    14.0289     1.7871    76.0073 </r>
       <r>    14.1094     1.9208    76.1619 </r>
       <r>    14.1900     2.0606    76.3278 </r>
       <r>    14.2705     2.1508    76.5010 </r>
       <r>    14.3510     2.1598    76.6749 </r>
       <r>    14.4315     2.0966    76.8438 </r>
       <r>    14.5120     1.9997    77.0048 </r>
       <r>    14.5926     1.9078    77.1584 </r>
       <r>    14.6731     1.8390    77.3065 </r>
       <r>    14.7536     1.7916    77.4507 </r>
       <r>    14.8341     1.7581    77.5923 </r>
       <r>    14.9146     1.7345    77.7319 </r>
       <r>    14.9952     1.7177    77.8703 </r>
       <r>    15.0757     1.6987    78.0070 </r>
       <r>    15.1562     1.6637    78.1410 </r>
       <r>    15.2367     1.5997    78.2698 </r>
       <r>    15.3172     1.5000    78.3906 </r>
       <r>    15.3978     1.3672    78.5007 </r>
       <r>    15.4783     1.2165    78.5986 </r>
       <r>    15.5588     1.0732    78.6850 </r>
       <r>    15.6393     0.9645    78.7627 </r>
       <r>    15.7198     0.9062    78.8357 </r>
       <r>    15.8004     0.8966    78.9079 </r>
       <r>    15.8809     0.9189    78.9819 </r>
       <r>    15.9614     0.9501    79.0584 </r>
       <r>    16.0419     0.9686    79.1363 </r>
       <r>    16.1225     0.9593    79.2136 </r>
       <r>    16.2030     0.9178    79.2875 </r>
       <r>    16.2835     0.8510    79.3560 </r>
       <r>    16.3640     0.7720    79.4182 </r>
       <r>    16.4445     0.6927    79.4740 </r>
       <r>    16.5251     0.6198    79.5239 </r>
       <r>    16.6056     0.5567    79.5687 </r>
       <r>    16.6861     0.5061    79.6094 </r>
       <r>    16.7666     0.4707    79.6474 </r>
       <r>    16.8471     0.4518    79.6837 </r>
       <r>    16.9277     0.4466    79.7197 </r>
       <r>    17.0082     0.4469    79.7557 </r>
       <r>    17.0887     0.4399    79.7911 </r>
       <r>    17.1692     0.4143    79.8245 </r>
       <r>    17.2497     0.3679    79.8541 </r>
       <r>    17.3303     0.3105    79.8791 </r>
       <r>    17.4108     0.2577    79.8998 </r>
       <r>    17.4913     0.2204    79.9176 </r>
       <r>    17.5718     0.1985    79.9336 </r>
       <r>    17.6523     0.1833    79.9483 </r>
       <r>    17.7329     0.1658    79.9617 </r>
       <r>    17.8134     0.1430    79.9732 </r>
       <r>    17.8939     0.1171    79.9826 </r>
       <r>    17.9744     0.0910    79.9900 </r>
       <r>    18.0549     0.0660    79.9953 </r>
       <r>    18.1355     0.0424    79.9987 </r>
       <r>    18.2160     0.0218    80.0004 </r>
       <r>    18.2965     0.0069    80.0010 </r>
       <r>    18.3770    -0.0013    80.0009 </r>
       <r>    18.4575    -0.0039    80.0006 </r>
       <r>    18.5381    -0.0034    80.0003 </r>
       <r>    18.6186    -0.0021    80.0001 </r>
       <r>    18.6991    -0.0010    80.0000 </r>
       <r>    18.7796    -0.0004    80.0000 </r>
       <r>    18.8601    -0.0001    80.0000 </r>
       <r>    18.9407     0.0000    80.0000 </r>
       <r>    19.0212     0.0000    80.0000 </r>
       <r>    19.1017     0.0000    80.0000 </r>
       <r>    19.1822     0.0000    80.0000 </r>
       <r>    19.2627     0.0000    80.0000 </r>
       <r>    19.3433     0.0000    80.0000 </r>
       <r>    19.4238     0.0000    80.0000 </r>
       <r>    19.5043     0.0000    80.0000 </r>
       <r>    19.5848     0.0000    80.0000 </r>
       <r>    19.6654     0.0000    80.0000 </r>
       <r>    19.7459     0.0000    80.0000 </r>
       <r>    19.8264     0.0000    80.0000 </r>
       <r>    19.9069     0.0000    80.0000 </r>
       <r>    19.9874     0.0000    80.0000 </r>
       <r>    20.0680     0.0000    80.0000 </r>
       <r>    20.1485     0.0000    80.0000 </r>
       <r>    20.2290     0.0000    80.0000 </r>
       <r>    20.3095     0.0000    80.0000 </r>
       <r>    20.3900     0.0000    80.0000 </r>
       <r>    20.4706     0.0000    80.0000 </r>
       <r>    20.5511     0.0000    80.0000 </r>
       <r>    20.6316     0.0000    80.0000 </r>
       <r>    20.7121     0.0000    80.0000 </r>
       <r>    20.7926     0.0000    80.0000 </r>
       <r>    20.8732     0.0000    80.0000 </r>
       <r>    20.9537     0.0000    80.0000 </r>
       <r>    21.0342     0.0000    80.0000 </r>
      </set>
     </set>
    </array>
   </total>
  </dos>
 </calculation>
 <structure name="finalpos" >
  <crystal>
   <varray name="basis" >
    <v>       0.00000000      -2.06463481      -2.06463481 </v>
    <v>      -4.16115427       2.06895729      -2.06895729 </v>
    <v>       4.17644190       4.15317072      -4.15317072 </v>
   </varray>
   <i name="volume">    107.04249488 </i>
   <varray name="rec_basis" >
    <v>       0.00000000      -0.24217358      -0.24217358 </v>
    <v>      -0.16021265       0.08055518      -0.08055518 </v>
    <v>       0.07981206       0.08026031      -0.08026031 </v>
   </varray>
  </crystal>
  <varray name="positions" >
   <v>       0.00000000       0.66660530       0.66422537 </v>
   <v>       0.50000000       0.50060814       0.99789462 </v>
   <v>       0.00000000       0.33272519       0.33543872 </v>
   <v>       0.50000000       0.16672804       0.66910797 </v>
   <v>       0.00000000       0.00015904       0.99889814 </v>
   <v>       0.50000000       0.83317429       0.33443520 </v>
  </varray>
 </structure>
</modeling>
