<?xml version="1.0" encoding="ISO-8859-1"?>
<modeling>
 <generator>
  <i name="program" type="string">vasp </i>
  <i name="version" type="string">5.3.5  </i>
  <i name="subversion" type="string">31Mar14 (build Jun 20 2014 13:15:13) complex                          parallel </i>
  <i name="platform" type="string">LinuxIFC </i>
  <i name="date" type="string">2025 11 27 </i>
  <i name="time" type="string">07:07:57 </i>
 </generator>
 <incar>
  <i type="string" name="PREC">accurate</i>
  <i type="int" name="IALGO">    68</i>
  <i type="logical" name="ADDGRID"> T  </i>
  <i type="int" name="NELM">   200</i>
  <i type="int" name="NELMIN">     4</i>
  <i type="int" name="IBRION">     2</i>
  <i name="EDIFF">      0.00000100</i>
  <i name="EDIFFG">     -0.02000000</i>
  <i type="int" name="NSW">    30</i>
  <i type="int" name="ISIF">     3</i>
  <i name="ENCUT">    500.00000000</i>
  <i type="logical" name="LREAL"> F  </i>
  <i type="int" name="ISMEAR">     1</i>
  <i name="SIGMA">      0.30000000</i>
  <i type="logical" name="LWAVE"> F  </i>
  <i type="logical" name="LCHARG"> F  </i>
  <i type="int" name="NELM">   200</i>
 </incar>
 <kpoints>
  <generation param="Auto">
   <i name="subdivisionlength">     70.00000000 </i>
   <v type="int" name="divisions">      29       29        5 </v>
   <v name="usershift">      0.00000000       0.00000000       0.00000000 </v>
   <v name="genvec1">      0.03448276       0.00000000       0.00000000 </v>
   <v name="genvec2">      0.00000000       0.03448276       0.00000000 </v>
   <v name="genvec3">      0.00000000       0.00000000       0.20000000 </v>
   <v name="shift">      0.00000000       0.00000000       0.00000000 </v>
  </generation>
  <varray name="kpointlist" >
   <v>       0.00000000       0.00000000       0.00000000 </v>
   <v>       0.03448276       0.00000000       0.00000000 </v>
   <v>       0.06896552       0.00000000       0.00000000 </v>
   <v>       0.10344828       0.00000000       0.00000000 </v>
   <v>       0.13793103       0.00000000       0.00000000 </v>
   <v>       0.17241379       0.00000000       0.00000000 </v>
   <v>       0.20689655       0.00000000       0.00000000 </v>
   <v>       0.24137931       0.00000000       0.00000000 </v>
   <v>       0.27586207       0.00000000       0.00000000 </v>
   <v>       0.31034483       0.00000000       0.00000000 </v>
   <v>       0.34482759       0.00000000       0.00000000 </v>
   <v>       0.37931034       0.00000000       0.00000000 </v>
   <v>       0.41379310       0.00000000       0.00000000 </v>
   <v>       0.44827586       0.00000000       0.00000000 </v>
   <v>       0.48275862       0.00000000       0.00000000 </v>
   <v>       0.03448276       0.03448276       0.00000000 </v>
   <v>       0.06896552       0.03448276       0.00000000 </v>
   <v>       0.10344828       0.03448276       0.00000000 </v>
   <v>       0.13793103       0.03448276       0.00000000 </v>
   <v>       0.17241379       0.03448276       0.00000000 </v>
   <v>       0.20689655       0.03448276       0.00000000 </v>
   <v>       0.24137931       0.03448276       0.00000000 </v>
   <v>       0.27586207       0.03448276       0.00000000 </v>
   <v>       0.31034483       0.03448276       0.00000000 </v>
   <v>       0.34482759       0.03448276       0.00000000 </v>
   <v>       0.37931034       0.03448276       0.00000000 </v>
   <v>       0.41379310       0.03448276       0.00000000 </v>
   <v>       0.44827586       0.03448276       0.00000000 </v>
   <v>       0.48275862       0.03448276       0.00000000 </v>
   <v>       0.06896552       0.06896552       0.00000000 </v>
   <v>       0.10344828       0.06896552       0.00000000 </v>
   <v>       0.13793103       0.06896552       0.00000000 </v>
   <v>       0.17241379       0.06896552       0.00000000 </v>
   <v>       0.20689655       0.06896552       0.00000000 </v>
   <v>       0.24137931       0.06896552       0.00000000 </v>
   <v>       0.27586207       0.06896552       0.00000000 </v>
   <v>       0.31034483       0.06896552       0.00000000 </v>
   <v>       0.34482759       0.06896552       0.00000000 </v>
   <v>       0.37931034       0.06896552       0.00000000 </v>
   <v>       0.41379310       0.06896552       0.00000000 </v>
   <v>       0.44827586       0.06896552       0.00000000 </v>
   <v>       0.10344828       0.10344828       0.00000000 </v>
   <v>       0.13793103       0.10344828       0.00000000 </v>
   <v>       0.17241379       0.10344828       0.00000000 </v>
   <v>       0.20689655       0.10344828       0.00000000 </v>
   <v>       0.24137931       0.10344828       0.00000000 </v>
   <v>       0.27586207       0.10344828       0.00000000 </v>
   <v>       0.31034483       0.10344828       0.00000000 </v>
   <v>       0.34482759       0.10344828       0.00000000 </v>
   <v>       0.37931034       0.10344828       0.00000000 </v>
   <v>       0.41379310       0.10344828       0.00000000 </v>
   <v>       0.44827586       0.10344828       0.00000000 </v>
   <v>       0.13793103       0.13793103       0.00000000 </v>
   <v>       0.17241379       0.13793103       0.00000000 </v>
   <v>       0.20689655       0.13793103       0.00000000 </v>
   <v>       0.24137931       0.13793103       0.00000000 </v>
   <v>       0.27586207       0.13793103       0.00000000 </v>
   <v>       0.31034483       0.13793103       0.00000000 </v>
   <v>       0.34482759       0.13793103       0.00000000 </v>
   <v>       0.37931034       0.13793103       0.00000000 </v>
   <v>       0.41379310       0.13793103       0.00000000 </v>
   <v>       0.17241379       0.17241379       0.00000000 </v>
   <v>       0.20689655       0.17241379       0.00000000 </v>
   <v>       0.24137931       0.17241379       0.00000000 </v>
   <v>       0.27586207       0.17241379       0.00000000 </v>
   <v>       0.31034483       0.17241379       0.00000000 </v>
   <v>       0.34482759       0.17241379       0.00000000 </v>
   <v>       0.37931034       0.17241379       0.00000000 </v>
   <v>       0.41379310       0.17241379       0.00000000 </v>
   <v>       0.20689655       0.20689655       0.00000000 </v>
   <v>       0.24137931       0.20689655       0.00000000 </v>
   <v>       0.27586207       0.20689655       0.00000000 </v>
   <v>       0.31034483       0.20689655       0.00000000 </v>
   <v>       0.34482759       0.20689655       0.00000000 </v>
   <v>       0.37931034       0.20689655       0.00000000 </v>
   <v>       0.24137931       0.24137931       0.00000000 </v>
   <v>       0.27586207       0.24137931       0.00000000 </v>
   <v>       0.31034483       0.24137931       0.00000000 </v>
   <v>       0.34482759       0.24137931       0.00000000 </v>
   <v>       0.37931034       0.24137931       0.00000000 </v>
   <v>       0.27586207       0.27586207       0.00000000 </v>
   <v>       0.31034483       0.27586207       0.00000000 </v>
   <v>       0.34482759       0.27586207       0.00000000 </v>
   <v>       0.31034483       0.31034483       0.00000000 </v>
   <v>       0.34482759       0.31034483       0.00000000 </v>
   <v>       0.00000000       0.00000000       0.20000000 </v>
   <v>       0.03448276       0.00000000       0.20000000 </v>
   <v>       0.06896552       0.00000000       0.20000000 </v>
   <v>       0.10344828       0.00000000       0.20000000 </v>
   <v>       0.13793103       0.00000000       0.20000000 </v>
   <v>       0.17241379       0.00000000       0.20000000 </v>
   <v>       0.20689655       0.00000000       0.20000000 </v>
   <v>       0.24137931       0.00000000       0.20000000 </v>
   <v>       0.27586207       0.00000000       0.20000000 </v>
   <v>       0.31034483       0.00000000       0.20000000 </v>
   <v>       0.34482759       0.00000000       0.20000000 </v>
   <v>       0.37931034       0.00000000       0.20000000 </v>
   <v>       0.41379310       0.00000000       0.20000000 </v>
   <v>       0.44827586       0.00000000       0.20000000 </v>
   <v>       0.48275862       0.00000000       0.20000000 </v>
   <v>      -0.48275862       0.00000000       0.20000000 </v>
   <v>      -0.44827586       0.00000000       0.20000000 </v>
   <v>      -0.41379310       0.00000000       0.20000000 </v>
   <v>      -0.37931034       0.00000000       0.20000000 </v>
   <v>      -0.34482759       0.00000000       0.20000000 </v>
   <v>      -0.31034483       0.00000000       0.20000000 </v>
   <v>      -0.27586207       0.00000000       0.20000000 </v>
   <v>      -0.24137931       0.00000000       0.20000000 </v>
   <v>      -0.20689655       0.00000000       0.20000000 </v>
   <v>      -0.17241379       0.00000000       0.20000000 </v>
   <v>      -0.13793103       0.00000000       0.20000000 </v>
   <v>      -0.10344828       0.00000000       0.20000000 </v>
   <v>      -0.06896552       0.00000000       0.20000000 </v>
   <v>      -0.03448276       0.00000000       0.20000000 </v>
   <v>       0.03448276       0.03448276       0.20000000 </v>
   <v>       0.06896552       0.03448276       0.20000000 </v>
   <v>       0.10344828       0.03448276       0.20000000 </v>
   <v>       0.13793103       0.03448276       0.20000000 </v>
   <v>       0.17241379       0.03448276       0.20000000 </v>
   <v>       0.20689655       0.03448276       0.20000000 </v>
   <v>       0.24137931       0.03448276       0.20000000 </v>
   <v>       0.27586207       0.03448276       0.20000000 </v>
   <v>       0.31034483       0.03448276       0.20000000 </v>
   <v>       0.34482759       0.03448276       0.20000000 </v>
   <v>       0.37931034       0.03448276       0.20000000 </v>
   <v>       0.41379310       0.03448276       0.20000000 </v>
   <v>       0.44827586       0.03448276       0.20000000 </v>
   <v>       0.48275862       0.03448276       0.20000000 </v>
   <v>      -0.48275862       0.03448276       0.20000000 </v>
   <v>      -0.44827586       0.03448276       0.20000000 </v>
   <v>      -0.41379310       0.03448276       0.20000000 </v>
   <v>      -0.37931034       0.03448276       0.20000000 </v>
   <v>      -0.34482759       0.03448276       0.20000000 </v>
   <v>      -0.31034483       0.03448276       0.20000000 </v>
   <v>      -0.27586207       0.03448276       0.20000000 </v>
   <v>      -0.24137931       0.03448276       0.20000000 </v>
   <v>      -0.20689655       0.03448276       0.20000000 </v>
   <v>      -0.17241379       0.03448276       0.20000000 </v>
   <v>      -0.13793103       0.03448276       0.20000000 </v>
   <v>      -0.10344828       0.03448276       0.20000000 </v>
   <v>       0.06896552       0.06896552       0.20000000 </v>
   <v>       0.10344828       0.06896552       0.20000000 </v>
   <v>       0.13793103       0.06896552       0.20000000 </v>
   <v>       0.17241379       0.06896552       0.20000000 </v>
   <v>       0.20689655       0.06896552       0.20000000 </v>
   <v>       0.24137931       0.06896552       0.20000000 </v>
   <v>       0.27586207       0.06896552       0.20000000 </v>
   <v>       0.31034483       0.06896552       0.20000000 </v>
   <v>       0.34482759       0.06896552       0.20000000 </v>
   <v>       0.37931034       0.06896552       0.20000000 </v>
   <v>       0.41379310       0.06896552       0.20000000 </v>
   <v>       0.44827586       0.06896552       0.20000000 </v>
   <v>       0.48275862       0.06896552       0.20000000 </v>
   <v>      -0.48275862       0.06896552       0.20000000 </v>
   <v>      -0.44827586       0.06896552       0.20000000 </v>
   <v>      -0.41379310       0.06896552       0.20000000 </v>
   <v>      -0.37931034       0.06896552       0.20000000 </v>
   <v>      -0.34482759       0.06896552       0.20000000 </v>
   <v>      -0.31034483       0.06896552       0.20000000 </v>
   <v>      -0.27586207       0.06896552       0.20000000 </v>
   <v>      -0.24137931       0.06896552       0.20000000 </v>
   <v>      -0.20689655       0.06896552       0.20000000 </v>
   <v>      -0.17241379       0.06896552       0.20000000 </v>
   <v>       0.10344828       0.10344828       0.20000000 </v>
   <v>       0.13793103       0.10344828       0.20000000 </v>
   <v>       0.17241379       0.10344828       0.20000000 </v>
   <v>       0.20689655       0.10344828       0.20000000 </v>
   <v>       0.24137931       0.10344828       0.20000000 </v>
   <v>       0.27586207       0.10344828       0.20000000 </v>
   <v>       0.31034483       0.10344828       0.20000000 </v>
   <v>       0.34482759       0.10344828       0.20000000 </v>
   <v>       0.37931034       0.10344828       0.20000000 </v>
   <v>       0.41379310       0.10344828       0.20000000 </v>
   <v>       0.44827586       0.10344828       0.20000000 </v>
   <v>       0.48275862       0.10344828       0.20000000 </v>
   <v>      -0.48275862       0.10344828       0.20000000 </v>
   <v>      -0.44827586       0.10344828       0.20000000 </v>
   <v>      -0.41379310       0.10344828       0.20000000 </v>
   <v>      -0.37931034       0.10344828       0.20000000 </v>
   <v>      -0.34482759       0.10344828       0.20000000 </v>
   <v>      -0.31034483       0.10344828       0.20000000 </v>
   <v>      -0.27586207       0.10344828       0.20000000 </v>
   <v>      -0.24137931       0.10344828       0.20000000 </v>
   <v>       0.13793103       0.13793103       0.20000000 </v>
   <v>       0.17241379       0.13793103       0.20000000 </v>
   <v>       0.20689655       0.13793103       0.20000000 </v>
   <v>       0.24137931       0.13793103       0.20000000 </v>
   <v>       0.27586207       0.13793103       0.20000000 </v>
   <v>       0.31034483       0.13793103       0.20000000 </v>
   <v>       0.34482759       0.13793103       0.20000000 </v>
   <v>       0.37931034       0.13793103       0.20000000 </v>
   <v>       0.41379310       0.13793103       0.20000000 </v>
   <v>       0.44827586       0.13793103       0.20000000 </v>
   <v>       0.48275862       0.13793103       0.20000000 </v>
   <v>      -0.48275862       0.13793103       0.20000000 </v>
   <v>      -0.44827586       0.13793103       0.20000000 </v>
   <v>      -0.41379310       0.13793103       0.20000000 </v>
   <v>      -0.37931034       0.13793103       0.20000000 </v>
   <v>      -0.34482759       0.13793103       0.20000000 </v>
   <v>      -0.31034483       0.13793103       0.20000000 </v>
   <v>       0.17241379       0.17241379       0.20000000 </v>
   <v>       0.20689655       0.17241379       0.20000000 </v>
   <v>       0.24137931       0.17241379       0.20000000 </v>
   <v>       0.27586207       0.17241379       0.20000000 </v>
   <v>       0.31034483       0.17241379       0.20000000 </v>
   <v>       0.34482759       0.17241379       0.20000000 </v>
   <v>       0.37931034       0.17241379       0.20000000 </v>
   <v>       0.41379310       0.17241379       0.20000000 </v>
   <v>       0.44827586       0.17241379       0.20000000 </v>
   <v>       0.48275862       0.17241379       0.20000000 </v>
   <v>      -0.48275862       0.17241379       0.20000000 </v>
   <v>      -0.44827586       0.17241379       0.20000000 </v>
   <v>      -0.41379310       0.17241379       0.20000000 </v>
   <v>      -0.37931034       0.17241379       0.20000000 </v>
   <v>       0.20689655       0.20689655       0.20000000 </v>
   <v>       0.24137931       0.20689655       0.20000000 </v>
   <v>       0.27586207       0.20689655       0.20000000 </v>
   <v>       0.31034483       0.20689655       0.20000000 </v>
   <v>       0.34482759       0.20689655       0.20000000 </v>
   <v>       0.37931034       0.20689655       0.20000000 </v>
   <v>       0.41379310       0.20689655       0.20000000 </v>
   <v>       0.44827586       0.20689655       0.20000000 </v>
   <v>       0.48275862       0.20689655       0.20000000 </v>
   <v>      -0.48275862       0.20689655       0.20000000 </v>
   <v>      -0.44827586       0.20689655       0.20000000 </v>
   <v>       0.24137931       0.24137931       0.20000000 </v>
   <v>       0.27586207       0.24137931       0.20000000 </v>
   <v>       0.31034483       0.24137931       0.20000000 </v>
   <v>       0.34482759       0.24137931       0.20000000 </v>
   <v>       0.37931034       0.24137931       0.20000000 </v>
   <v>       0.41379310       0.24137931       0.20000000 </v>
   <v>       0.44827586       0.24137931       0.20000000 </v>
   <v>       0.48275862       0.24137931       0.20000000 </v>
   <v>       0.27586207       0.27586207       0.20000000 </v>
   <v>       0.31034483       0.27586207       0.20000000 </v>
   <v>       0.34482759       0.27586207       0.20000000 </v>
   <v>       0.37931034       0.27586207       0.20000000 </v>
   <v>       0.41379310       0.27586207       0.20000000 </v>
   <v>       0.31034483       0.31034483       0.20000000 </v>
   <v>       0.34482759       0.31034483       0.20000000 </v>
   <v>       0.00000000       0.00000000       0.40000000 </v>
   <v>       0.03448276       0.00000000       0.40000000 </v>
   <v>       0.06896552       0.00000000       0.40000000 </v>
   <v>       0.10344828       0.00000000       0.40000000 </v>
   <v>       0.13793103       0.00000000       0.40000000 </v>
   <v>       0.17241379       0.00000000       0.40000000 </v>
   <v>       0.20689655       0.00000000       0.40000000 </v>
   <v>       0.24137931       0.00000000       0.40000000 </v>
   <v>       0.27586207       0.00000000       0.40000000 </v>
   <v>       0.31034483       0.00000000       0.40000000 </v>
   <v>       0.34482759       0.00000000       0.40000000 </v>
   <v>       0.37931034       0.00000000       0.40000000 </v>
   <v>       0.41379310       0.00000000       0.40000000 </v>
   <v>       0.44827586       0.00000000       0.40000000 </v>
   <v>       0.48275862       0.00000000       0.40000000 </v>
   <v>      -0.48275862       0.00000000       0.40000000 </v>
   <v>      -0.44827586       0.00000000       0.40000000 </v>
   <v>      -0.41379310       0.00000000       0.40000000 </v>
   <v>      -0.37931034       0.00000000       0.40000000 </v>
   <v>      -0.34482759       0.00000000       0.40000000 </v>
   <v>      -0.31034483       0.00000000       0.40000000 </v>
   <v>      -0.27586207       0.00000000       0.40000000 </v>
   <v>      -0.24137931       0.00000000       0.40000000 </v>
   <v>      -0.20689655       0.00000000       0.40000000 </v>
   <v>      -0.17241379       0.00000000       0.40000000 </v>
   <v>      -0.13793103       0.00000000       0.40000000 </v>
   <v>      -0.10344828       0.00000000       0.40000000 </v>
   <v>      -0.06896552       0.00000000       0.40000000 </v>
   <v>      -0.03448276       0.00000000       0.40000000 </v>
   <v>       0.03448276       0.03448276       0.40000000 </v>
   <v>       0.06896552       0.03448276       0.40000000 </v>
   <v>       0.10344828       0.03448276       0.40000000 </v>
   <v>       0.13793103       0.03448276       0.40000000 </v>
   <v>       0.17241379       0.03448276       0.40000000 </v>
   <v>       0.20689655       0.03448276       0.40000000 </v>
   <v>       0.24137931       0.03448276       0.40000000 </v>
   <v>       0.27586207       0.03448276       0.40000000 </v>
   <v>       0.31034483       0.03448276       0.40000000 </v>
   <v>       0.34482759       0.03448276       0.40000000 </v>
   <v>       0.37931034       0.03448276       0.40000000 </v>
   <v>       0.41379310       0.03448276       0.40000000 </v>
   <v>       0.44827586       0.03448276       0.40000000 </v>
   <v>       0.48275862       0.03448276       0.40000000 </v>
   <v>      -0.48275862       0.03448276       0.40000000 </v>
   <v>      -0.44827586       0.03448276       0.40000000 </v>
   <v>      -0.41379310       0.03448276       0.40000000 </v>
   <v>      -0.37931034       0.03448276       0.40000000 </v>
   <v>      -0.34482759       0.03448276       0.40000000 </v>
   <v>      -0.31034483       0.03448276       0.40000000 </v>
   <v>      -0.27586207       0.03448276       0.40000000 </v>
   <v>      -0.24137931       0.03448276       0.40000000 </v>
   <v>      -0.20689655       0.03448276       0.40000000 </v>
   <v>      -0.17241379       0.03448276       0.40000000 </v>
   <v>      -0.13793103       0.03448276       0.40000000 </v>
   <v>      -0.10344828       0.03448276       0.40000000 </v>
   <v>       0.06896552       0.06896552       0.40000000 </v>
   <v>       0.10344828       0.06896552       0.40000000 </v>
   <v>       0.13793103       0.06896552       0.40000000 </v>
   <v>       0.17241379       0.06896552       0.40000000 </v>
   <v>       0.20689655       0.06896552       0.40000000 </v>
   <v>       0.24137931       0.06896552       0.40000000 </v>
   <v>       0.27586207       0.06896552       0.40000000 </v>
   <v>       0.31034483       0.06896552       0.40000000 </v>
   <v>       0.34482759       0.06896552       0.40000000 </v>
   <v>       0.37931034       0.06896552       0.40000000 </v>
   <v>       0.41379310       0.06896552       0.40000000 </v>
   <v>       0.44827586       0.06896552       0.40000000 </v>
   <v>       0.48275862       0.06896552       0.40000000 </v>
   <v>      -0.48275862       0.06896552       0.40000000 </v>
   <v>      -0.44827586       0.06896552       0.40000000 </v>
   <v>      -0.41379310       0.06896552       0.40000000 </v>
   <v>      -0.37931034       0.06896552       0.40000000 </v>
   <v>      -0.34482759       0.06896552       0.40000000 </v>
   <v>      -0.31034483       0.06896552       0.40000000 </v>
   <v>      -0.27586207       0.06896552       0.40000000 </v>
   <v>      -0.24137931       0.06896552       0.40000000 </v>
   <v>      -0.20689655       0.06896552       0.40000000 </v>
   <v>      -0.17241379       0.06896552       0.40000000 </v>
   <v>       0.10344828       0.10344828       0.40000000 </v>
   <v>       0.13793103       0.10344828       0.40000000 </v>
   <v>       0.17241379       0.10344828       0.40000000 </v>
   <v>       0.20689655       0.10344828       0.40000000 </v>
   <v>       0.24137931       0.10344828       0.40000000 </v>
   <v>       0.27586207       0.10344828       0.40000000 </v>
   <v>       0.31034483       0.10344828       0.40000000 </v>
   <v>       0.34482759       0.10344828       0.40000000 </v>
   <v>       0.37931034       0.10344828       0.40000000 </v>
   <v>       0.41379310       0.10344828       0.40000000 </v>
   <v>       0.44827586       0.10344828       0.40000000 </v>
   <v>       0.48275862       0.10344828       0.40000000 </v>
   <v>      -0.48275862       0.10344828       0.40000000 </v>
   <v>      -0.44827586       0.10344828       0.40000000 </v>
   <v>      -0.41379310       0.10344828       0.40000000 </v>
   <v>      -0.37931034       0.10344828       0.40000000 </v>
   <v>      -0.34482759       0.10344828       0.40000000 </v>
   <v>      -0.31034483       0.10344828       0.40000000 </v>
   <v>      -0.27586207       0.10344828       0.40000000 </v>
   <v>      -0.24137931       0.10344828       0.40000000 </v>
   <v>       0.13793103       0.13793103       0.40000000 </v>
   <v>       0.17241379       0.13793103       0.40000000 </v>
   <v>       0.20689655       0.13793103       0.40000000 </v>
   <v>       0.24137931       0.13793103       0.40000000 </v>
   <v>       0.27586207       0.13793103       0.40000000 </v>
   <v>       0.31034483       0.13793103       0.40000000 </v>
   <v>       0.34482759       0.13793103       0.40000000 </v>
   <v>       0.37931034       0.13793103       0.40000000 </v>
   <v>       0.41379310       0.13793103       0.40000000 </v>
   <v>       0.44827586       0.13793103       0.40000000 </v>
   <v>       0.48275862       0.13793103       0.40000000 </v>
   <v>      -0.48275862       0.13793103       0.40000000 </v>
   <v>      -0.44827586       0.13793103       0.40000000 </v>
   <v>      -0.41379310       0.13793103       0.40000000 </v>
   <v>      -0.37931034       0.13793103       0.40000000 </v>
   <v>      -0.34482759       0.13793103       0.40000000 </v>
   <v>      -0.31034483       0.13793103       0.40000000 </v>
   <v>       0.17241379       0.17241379       0.40000000 </v>
   <v>       0.20689655       0.17241379       0.40000000 </v>
   <v>       0.24137931       0.17241379       0.40000000 </v>
   <v>       0.27586207       0.17241379       0.40000000 </v>
   <v>       0.31034483       0.17241379       0.40000000 </v>
   <v>       0.34482759       0.17241379       0.40000000 </v>
   <v>       0.37931034       0.17241379       0.40000000 </v>
   <v>       0.41379310       0.17241379       0.40000000 </v>
   <v>       0.44827586       0.17241379       0.40000000 </v>
   <v>       0.48275862       0.17241379       0.40000000 </v>
   <v>      -0.48275862       0.17241379       0.40000000 </v>
   <v>      -0.44827586       0.17241379       0.40000000 </v>
   <v>      -0.41379310       0.17241379       0.40000000 </v>
   <v>      -0.37931034       0.17241379       0.40000000 </v>
   <v>       0.20689655       0.20689655       0.40000000 </v>
   <v>       0.24137931       0.20689655       0.40000000 </v>
   <v>       0.27586207       0.20689655       0.40000000 </v>
   <v>       0.31034483       0.20689655       0.40000000 </v>
   <v>       0.34482759       0.20689655       0.40000000 </v>
   <v>       0.37931034       0.20689655       0.40000000 </v>
   <v>       0.41379310       0.20689655       0.40000000 </v>
   <v>       0.44827586       0.20689655       0.40000000 </v>
   <v>       0.48275862       0.20689655       0.40000000 </v>
   <v>      -0.48275862       0.20689655       0.40000000 </v>
   <v>      -0.44827586       0.20689655       0.40000000 </v>
   <v>       0.24137931       0.24137931       0.40000000 </v>
   <v>       0.27586207       0.24137931       0.40000000 </v>
   <v>       0.31034483       0.24137931       0.40000000 </v>
   <v>       0.34482759       0.24137931       0.40000000 </v>
   <v>       0.37931034       0.24137931       0.40000000 </v>
   <v>       0.41379310       0.24137931       0.40000000 </v>
   <v>       0.44827586       0.24137931       0.40000000 </v>
   <v>       0.48275862       0.24137931       0.40000000 </v>
   <v>       0.27586207       0.27586207       0.40000000 </v>
   <v>       0.31034483       0.27586207       0.40000000 </v>
   <v>       0.34482759       0.27586207       0.40000000 </v>
   <v>       0.37931034       0.27586207       0.40000000 </v>
   <v>       0.41379310       0.27586207       0.40000000 </v>
   <v>       0.31034483       0.31034483       0.40000000 </v>
   <v>       0.34482759       0.31034483       0.40000000 </v>
  </varray>
  <varray name="weights" >
   <v>       0.00023781 </v>
   <v>       0.00142687 </v>
   <v>       0.00142687 </v>
   <v>       0.00142687 </v>
   <v>       0.00142687 </v>
   <v>       0.00142687 </v>
   <v>       0.00142687 </v>
   <v>       0.00142687 </v>
   <v>       0.00142687 </v>
   <v>       0.00142687 </v>
   <v>       0.00142687 </v>
   <v>       0.00142687 </v>
   <v>       0.00142687 </v>
   <v>       0.00142687 </v>
   <v>       0.00142687 </v>
   <v>       0.00142687 </v>
   <v>       0.00285375 </v>
   <v>       0.00285375 </v>
   <v>       0.00285375 </v>
   <v>       0.00285375 </v>
   <v>       0.00285375 </v>
   <v>       0.00285375 </v>
   <v>       0.00285375 </v>
   <v>       0.00285375 </v>
   <v>       0.00285375 </v>
   <v>       0.00285375 </v>
   <v>       0.00285375 </v>
   <v>       0.00285375 </v>
   <v>       0.00142687 </v>
   <v>       0.00142687 </v>
   <v>       0.00285375 </v>
   <v>       0.00285375 </v>
   <v>       0.00285375 </v>
   <v>       0.00285375 </v>
   <v>       0.00285375 </v>
   <v>       0.00285375 </v>
   <v>       0.00285375 </v>
   <v>       0.00285375 </v>
   <v>       0.00285375 </v>
   <v>       0.00285375 </v>
   <v>       0.00285375 </v>
   <v>       0.00142687 </v>
   <v>       0.00285375 </v>
   <v>       0.00285375 </v>
   <v>       0.00285375 </v>
   <v>       0.00285375 </v>
   <v>       0.00285375 </v>
   <v>       0.00285375 </v>
   <v>       0.00285375 </v>
   <v>       0.00285375 </v>
   <v>       0.00285375 </v>
   <v>       0.00142687 </v>
   <v>       0.00142687 </v>
   <v>       0.00285375 </v>
   <v>       0.00285375 </v>
   <v>       0.00285375 </v>
   <v>       0.00285375 </v>
   <v>       0.00285375 </v>
   <v>       0.00285375 </v>
   <v>       0.00285375 </v>
   <v>       0.00285375 </v>
   <v>       0.00142687 </v>
   <v>       0.00285375 </v>
   <v>       0.00285375 </v>
   <v>       0.00285375 </v>
   <v>       0.00285375 </v>
   <v>       0.00285375 </v>
   <v>       0.00285375 </v>
   <v>       0.00142687 </v>
   <v>       0.00142687 </v>
   <v>       0.00285375 </v>
   <v>       0.00285375 </v>
   <v>       0.00285375 </v>
   <v>       0.00285375 </v>
   <v>       0.00285375 </v>
   <v>       0.00142687 </v>
   <v>       0.00285375 </v>
   <v>       0.00285375 </v>
   <v>       0.00285375 </v>
   <v>       0.00142687 </v>
   <v>       0.00142687 </v>
   <v>       0.00285375 </v>
   <v>       0.00285375 </v>
   <v>       0.00142687 </v>
   <v>       0.00142687 </v>
   <v>       0.00047562 </v>
   <v>       0.00142687 </v>
   <v>       0.00142687 </v>
   <v>       0.00142687 </v>
   <v>       0.00142687 </v>
   <v>       0.00142687 </v>
   <v>       0.00142687 </v>
   <v>       0.00142687 </v>
   <v>       0.00142687 </v>
   <v>       0.00142687 </v>
   <v>       0.00142687 </v>
   <v>       0.00142687 </v>
   <v>       0.00142687 </v>
   <v>       0.00142687 </v>
   <v>       0.00142687 </v>
   <v>       0.00142687 </v>
   <v>       0.00142687 </v>
   <v>       0.00142687 </v>
   <v>       0.00142687 </v>
   <v>       0.00142687 </v>
   <v>       0.00142687 </v>
   <v>       0.00142687 </v>
   <v>       0.00142687 </v>
   <v>       0.00142687 </v>
   <v>       0.00142687 </v>
   <v>       0.00142687 </v>
   <v>       0.00142687 </v>
   <v>       0.00142687 </v>
   <v>       0.00142687 </v>
   <v>       0.00285375 </v>
   <v>       0.00285375 </v>
   <v>       0.00285375 </v>
   <v>       0.00285375 </v>
   <v>       0.00285375 </v>
   <v>       0.00285375 </v>
   <v>       0.00285375 </v>
   <v>       0.00285375 </v>
   <v>       0.00285375 </v>
   <v>       0.00285375 </v>
   <v>       0.00285375 </v>
   <v>       0.00285375 </v>
   <v>       0.00285375 </v>
   <v>       0.00285375 </v>
   <v>       0.00285375 </v>
   <v>       0.00285375 </v>
   <v>       0.00285375 </v>
   <v>       0.00285375 </v>
   <v>       0.00285375 </v>
   <v>       0.00285375 </v>
   <v>       0.00285375 </v>
   <v>       0.00285375 </v>
   <v>       0.00285375 </v>
   <v>       0.00285375 </v>
   <v>       0.00285375 </v>
   <v>       0.00285375 </v>
   <v>       0.00285375 </v>
   <v>       0.00285375 </v>
   <v>       0.00285375 </v>
   <v>       0.00285375 </v>
   <v>       0.00285375 </v>
   <v>       0.00285375 </v>
   <v>       0.00285375 </v>
   <v>       0.00285375 </v>
   <v>       0.00285375 </v>
   <v>       0.00285375 </v>
   <v>       0.00285375 </v>
   <v>       0.00285375 </v>
   <v>       0.00285375 </v>
   <v>       0.00285375 </v>
   <v>       0.00285375 </v>
   <v>       0.00285375 </v>
   <v>       0.00285375 </v>
   <v>       0.00285375 </v>
   <v>       0.00285375 </v>
   <v>       0.00285375 </v>
   <v>       0.00285375 </v>
   <v>       0.00285375 </v>
   <v>       0.00285375 </v>
   <v>       0.00285375 </v>
   <v>       0.00285375 </v>
   <v>       0.00285375 </v>
   <v>       0.00285375 </v>
   <v>       0.00285375 </v>
   <v>       0.00285375 </v>
   <v>       0.00285375 </v>
   <v>       0.00285375 </v>
   <v>       0.00285375 </v>
   <v>       0.00285375 </v>
   <v>       0.00285375 </v>
   <v>       0.00285375 </v>
   <v>       0.00285375 </v>
   <v>       0.00285375 </v>
   <v>       0.00285375 </v>
   <v>       0.00285375 </v>
   <v>       0.00285375 </v>
   <v>       0.00285375 </v>
   <v>       0.00285375 </v>
   <v>       0.00285375 </v>
   <v>       0.00285375 </v>
   <v>       0.00285375 </v>
   <v>       0.00285375 </v>
   <v>       0.00285375 </v>
   <v>       0.00285375 </v>
   <v>       0.00285375 </v>
   <v>       0.00285375 </v>
   <v>       0.00285375 </v>
   <v>       0.00285375 </v>
   <v>       0.00285375 </v>
   <v>       0.00285375 </v>
   <v>       0.00285375 </v>
   <v>       0.00285375 </v>
   <v>       0.00285375 </v>
   <v>       0.00285375 </v>
   <v>       0.00285375 </v>
   <v>       0.00285375 </v>
   <v>       0.00285375 </v>
   <v>       0.00285375 </v>
   <v>       0.00285375 </v>
   <v>       0.00285375 </v>
   <v>       0.00285375 </v>
   <v>       0.00285375 </v>
   <v>       0.00285375 </v>
   <v>       0.00285375 </v>
   <v>       0.00285375 </v>
   <v>       0.00285375 </v>
   <v>       0.00285375 </v>
   <v>       0.00285375 </v>
   <v>       0.00285375 </v>
   <v>       0.00285375 </v>
   <v>       0.00285375 </v>
   <v>       0.00285375 </v>
   <v>       0.00285375 </v>
   <v>       0.00285375 </v>
   <v>       0.00285375 </v>
   <v>       0.00285375 </v>
   <v>       0.00285375 </v>
   <v>       0.00285375 </v>
   <v>       0.00285375 </v>
   <v>       0.00285375 </v>
   <v>       0.00285375 </v>
   <v>       0.00285375 </v>
   <v>       0.00285375 </v>
   <v>       0.00285375 </v>
   <v>       0.00285375 </v>
   <v>       0.00285375 </v>
   <v>       0.00285375 </v>
   <v>       0.00285375 </v>
   <v>       0.00285375 </v>
   <v>       0.00285375 </v>
   <v>       0.00285375 </v>
   <v>       0.00285375 </v>
   <v>       0.00285375 </v>
   <v>       0.00285375 </v>
   <v>       0.00285375 </v>
   <v>       0.00285375 </v>
   <v>       0.00047562 </v>
   <v>       0.00142687 </v>
   <v>       0.00142687 </v>
   <v>       0.00142687 </v>
   <v>       0.00142687 </v>
   <v>       0.00142687 </v>
   <v>       0.00142687 </v>
   <v>       0.00142687 </v>
   <v>       0.00142687 </v>
   <v>       0.00142687 </v>
   <v>       0.00142687 </v>
   <v>       0.00142687 </v>
   <v>       0.00142687 </v>
   <v>       0.00142687 </v>
   <v>       0.00142687 </v>
   <v>       0.00142687 </v>
   <v>       0.00142687 </v>
   <v>       0.00142687 </v>
   <v>       0.00142687 </v>
   <v>       0.00142687 </v>
   <v>       0.00142687 </v>
   <v>       0.00142687 </v>
   <v>       0.00142687 </v>
   <v>       0.00142687 </v>
   <v>       0.00142687 </v>
   <v>       0.00142687 </v>
   <v>       0.00142687 </v>
   <v>       0.00142687 </v>
   <v>       0.00142687 </v>
   <v>       0.00285375 </v>
   <v>       0.00285375 </v>
   <v>       0.00285375 </v>
   <v>       0.00285375 </v>
   <v>       0.00285375 </v>
   <v>       0.00285375 </v>
   <v>       0.00285375 </v>
   <v>       0.00285375 </v>
   <v>       0.00285375 </v>
   <v>       0.00285375 </v>
   <v>       0.00285375 </v>
   <v>       0.00285375 </v>
   <v>       0.00285375 </v>
   <v>       0.00285375 </v>
   <v>       0.00285375 </v>
   <v>       0.00285375 </v>
   <v>       0.00285375 </v>
   <v>       0.00285375 </v>
   <v>       0.00285375 </v>
   <v>       0.00285375 </v>
   <v>       0.00285375 </v>
   <v>       0.00285375 </v>
   <v>       0.00285375 </v>
   <v>       0.00285375 </v>
   <v>       0.00285375 </v>
   <v>       0.00285375 </v>
   <v>       0.00285375 </v>
   <v>       0.00285375 </v>
   <v>       0.00285375 </v>
   <v>       0.00285375 </v>
   <v>       0.00285375 </v>
   <v>       0.00285375 </v>
   <v>       0.00285375 </v>
   <v>       0.00285375 </v>
   <v>       0.00285375 </v>
   <v>       0.00285375 </v>
   <v>       0.00285375 </v>
   <v>       0.00285375 </v>
   <v>       0.00285375 </v>
   <v>       0.00285375 </v>
   <v>       0.00285375 </v>
   <v>       0.00285375 </v>
   <v>       0.00285375 </v>
   <v>       0.00285375 </v>
   <v>       0.00285375 </v>
   <v>       0.00285375 </v>
   <v>       0.00285375 </v>
   <v>       0.00285375 </v>
   <v>       0.00285375 </v>
   <v>       0.00285375 </v>
   <v>       0.00285375 </v>
   <v>       0.00285375 </v>
   <v>       0.00285375 </v>
   <v>       0.00285375 </v>
   <v>       0.00285375 </v>
   <v>       0.00285375 </v>
   <v>       0.00285375 </v>
   <v>       0.00285375 </v>
   <v>       0.00285375 </v>
   <v>       0.00285375 </v>
   <v>       0.00285375 </v>
   <v>       0.00285375 </v>
   <v>       0.00285375 </v>
   <v>       0.00285375 </v>
   <v>       0.00285375 </v>
   <v>       0.00285375 </v>
   <v>       0.00285375 </v>
   <v>       0.00285375 </v>
   <v>       0.00285375 </v>
   <v>       0.00285375 </v>
   <v>       0.00285375 </v>
   <v>       0.00285375 </v>
   <v>       0.00285375 </v>
   <v>       0.00285375 </v>
   <v>       0.00285375 </v>
   <v>       0.00285375 </v>
   <v>       0.00285375 </v>
   <v>       0.00285375 </v>
   <v>       0.00285375 </v>
   <v>       0.00285375 </v>
   <v>       0.00285375 </v>
   <v>       0.00285375 </v>
   <v>       0.00285375 </v>
   <v>       0.00285375 </v>
   <v>       0.00285375 </v>
   <v>       0.00285375 </v>
   <v>       0.00285375 </v>
   <v>       0.00285375 </v>
   <v>       0.00285375 </v>
   <v>       0.00285375 </v>
   <v>       0.00285375 </v>
   <v>       0.00285375 </v>
   <v>       0.00285375 </v>
   <v>       0.00285375 </v>
   <v>       0.00285375 </v>
   <v>       0.00285375 </v>
   <v>       0.00285375 </v>
   <v>       0.00285375 </v>
   <v>       0.00285375 </v>
   <v>       0.00285375 </v>
   <v>       0.00285375 </v>
   <v>       0.00285375 </v>
   <v>       0.00285375 </v>
   <v>       0.00285375 </v>
   <v>       0.00285375 </v>
   <v>       0.00285375 </v>
   <v>       0.00285375 </v>
   <v>       0.00285375 </v>
   <v>       0.00285375 </v>
   <v>       0.00285375 </v>
   <v>       0.00285375 </v>
   <v>       0.00285375 </v>
   <v>       0.00285375 </v>
   <v>       0.00285375 </v>
   <v>       0.00285375 </v>
   <v>       0.00285375 </v>
   <v>       0.00285375 </v>
   <v>       0.00285375 </v>
   <v>       0.00285375 </v>
   <v>       0.00285375 </v>
   <v>       0.00285375 </v>
   <v>       0.00285375 </v>
   <v>       0.00285375 </v>
   <v>       0.00285375 </v>
   <v>       0.00285375 </v>
   <v>       0.00285375 </v>
  </varray>
 </kpoints>
 <parameters>
  <separator name="general" >
   <i type="string" name="SYSTEM">unknown system</i>
   <i type="logical" name="LCOMPAT"> F  </i>
  </separator>
  <separator name="electronic" >
   <i type="string" name="PREC">accura</i>
   <i name="ENMAX">    500.00000000</i>
   <i name="ENAUG">    586.98000000</i>
   <i name="EDIFF">      0.00000100</i>
   <i type="int" name="IALGO">    68</i>
   <i type="int" name="IWAVPR">    11</i>
   <i type="int" name="NBANDS">    40</i>
   <i name="NELECT">     66.00000000</i>
   <i type="int" name="TURBO">     0</i>
   <i type="int" name="IRESTART">     0</i>
   <i type="int" name="NREBOOT">     0</i>
   <i type="int" name="NMIN">     0</i>
   <i name="EREF">      0.00000000</i>
   <separator name="electronic smearing" >
    <i type="int" name="ISMEAR">     1</i>
    <i name="SIGMA">      0.30000000</i>
    <i name="KSPACING">      0.50000000</i>
    <i type="logical" name="KGAMMA"> T  </i>
   </separator>
   <separator name="electronic projectors" >
    <i type="logical" name="LREAL"> F  </i>
    <v name="ROPT">      0.00000000      0.00000000      0.00000000</v>
    <i type="int" name="LMAXPAW">  -100</i>
    <i type="int" name="LMAXMIX">     2</i>
    <i type="logical" name="NLSPLINE"> F  </i>
   </separator>
   <separator name="electronic startup" >
    <i type="int" name="ISTART">     0</i>
    <i type="int" name="ICHARG">     2</i>
    <i type="int" name="INIWAV">     1</i>
   </separator>
   <separator name="electronic spin" >
    <i type="int" name="ISPIN">     1</i>
    <i type="logical" name="LNONCOLLINEAR"> F  </i>
    <v name="MAGMOM">      1.00000000      1.00000000      1.00000000      1.00000000      1.00000000      1.00000000</v>
    <i name="NUPDOWN">     -1.00000000</i>
    <i type="logical" name="LSORBIT"> F  </i>
    <v name="SAXIS">      0.00000000      0.00000000      1.00000000</v>
    <i type="logical" name="LSPIRAL"> F  </i>
    <v name="QSPIRAL">      0.00000000      0.00000000      0.00000000</v>
    <i type="logical" name="LZEROZ"> F  </i>
   </separator>
   <separator name="electronic exchange-correlation" >
    <i type="logical" name="LASPH"> F  </i>
    <i type="logical" name="LMETAGGA"> F  </i>
   </separator>
   <separator name="electronic convergence" >
    <i type="int" name="NELM">   200</i>
    <i type="int" name="NELMDL">     0</i>
    <i type="int" name="NELMIN">     4</i>
    <i name="ENINI">    500.00000000</i>
    <separator name="electronic convergence detail" >
     <i type="logical" name="LDIAG"> T  </i>
     <i type="logical" name="LSUBROT"> F  </i>
     <i name="WEIMIN">      0.00100000</i>
     <i name="EBREAK">      0.00000001</i>
     <i name="DEPER">      0.30000000</i>
     <i type="int" name="NRMM">     4</i>
     <i name="TIME">      0.40000000</i>
    </separator>
   </separator>
   <separator name="electronic mixer" >
    <i name="AMIX">      0.40000000</i>
    <i name="BMIX">      1.00000000</i>
    <i name="AMIN">      0.10000000</i>
    <i name="AMIX_MAG">      1.60000000</i>
    <i name="BMIX_MAG">      1.00000000</i>
    <separator name="electronic mixer details" >
     <i type="int" name="IMIX">     4</i>
     <i type="int" name="MAXMIX">   -45</i>
     <i name="WC">    100.00000000</i>
     <i type="int" name="INIMIX">     1</i>
     <i type="int" name="MIXPRE">     1</i>
     <i type="int" name="MREMOVE">     5</i>
    </separator>
   </separator>
   <separator name="electronic dipolcorrection" >
    <i type="logical" name="LDIPOL"> F  </i>
    <i type="logical" name="LMONO"> F  </i>
    <i type="int" name="IDIPOL">     0</i>
    <i name="EPSILON">      1.00000000</i>
    <v name="DIPOL">   -100.00000000   -100.00000000   -100.00000000</v>
    <i name="EFIELD">      0.00000000</i>
   </separator>
  </separator>
  <separator name="grids" >
   <i type="int" name="NGX">    24</i>
   <i type="int" name="NGY">    24</i>
   <i type="int" name="NGZ">    96</i>
   <i type="int" name="NGXF">    48</i>
   <i type="int" name="NGYF">    48</i>
   <i type="int" name="NGZF">   192</i>
   <i type="logical" name="ADDGRID"> T  </i>
  </separator>
  <separator name="ionic" >
   <i type="int" name="NSW">    30</i>
   <i type="int" name="IBRION">     2</i>
   <i type="int" name="ISIF">     3</i>
   <i name="PSTRESS">      0.00000000</i>
   <i name="EDIFFG">     -0.02000000</i>
   <i type="int" name="NFREE">     1</i>
   <i name="POTIM">      0.50000000</i>
   <i name="SMASS">     -3.00000000</i>
   <i name="SCALEE">      1.00000000</i>
  </separator>
  <separator name="ionic md" >
   <i name="TEBEG">      0.00010000</i>
   <i name="TEEND">      0.00010000</i>
   <i type="int" name="NBLOCK">     1</i>
   <i type="int" name="KBLOCK">    30</i>
   <i type="int" name="NPACO">   256</i>
   <i name="APACO">     16.00000000</i>
  </separator>
  <separator name="symmetry" >
   <i type="int" name="ISYM">     2</i>
   <i name="SYMPREC">      0.00001000</i>
  </separator>
  <separator name="dos" >
   <i type="logical" name="LORBIT"> F  </i>
   <v name="RWIGS">     -1.00000000     -1.00000000     -1.00000000</v>
   <i type="int" name="NEDOS">   301</i>
   <i name="EMIN">     10.00000000</i>
   <i name="EMAX">    -10.00000000</i>
   <i name="EFERMI">      0.00000000</i>
  </separator>
  <separator name="writing" >
   <i type="int" name="NWRITE">     2</i>
   <i type="logical" name="LWAVE"> F  </i>
   <i type="logical" name="LCHARG"> F  </i>
   <i type="logical" name="LPARD"> F  </i>
   <i type="logical" name="LVTOT"> F  </i>
   <i type="logical" name="LVHAR"> F  </i>
   <i type="logical" name="LELF"> F  </i>
   <i type="logical" name="LOPTICS"> F  </i>
   <v name="STM">      0.00000000      0.00000000      0.00000000      0.00000000      0.00000000      0.00000000      0.00000000</v>
  </separator>
  <separator name="performance" >
   <i type="int" name="NPAR">     4</i>
   <i type="int" name="NSIM">     4</i>
   <i type="int" name="NBLK">    -1</i>
   <i type="logical" name="LPLANE"> T  </i>
   <i type="logical" name="LSCALAPACK"> T  </i>
   <i type="logical" name="LSCAAWARE"> F  </i>
   <i type="logical" name="LSCALU"> F  </i>
   <i type="logical" name="LASYNC"> F  </i>
   <i type="logical" name="LORBITALREAL"> F  </i>
  </separator>
  <separator name="miscellaneous" >
   <i type="int" name="IDIOT">     3</i>
   <i type="logical" name="LMUSIC"> F  </i>
   <v name="POMASS">     63.54600000    107.86800000    196.96600000</v>
   <v name="DARWINR">      0.00000000      0.00000000      0.00000000</v>
   <v name="DARWINV">      1.00000000      1.00000000      1.00000000</v>
   <i type="logical" name="LCORR"> T  </i>
  </separator>
  <i type="logical" name="GGA_COMPAT"> T  </i>
  <i type="logical" name="LBERRY"> F  </i>
  <i type="int" name="ICORELEVEL">     0</i>
  <i type="logical" name="LDAU"> F  </i>
  <i type="int" name="I_CONSTRAINED_M">     0</i>
  <separator name="electronic exchange-correlation" >
   <i type="string" name="GGA">--</i>
   <i type="int" name="VOSKOWN">     0</i>
   <i type="logical" name="LHFCALC"> F  </i>
   <i type="string" name="PRECFOCK"></i>
   <i type="logical" name="LSYMGRAD"> F  </i>
   <i type="logical" name="LHFONE"> F  </i>
   <i type="logical" name="LRHFCALC"> F  </i>
   <i type="logical" name="LTHOMAS"> F  </i>
   <i type="logical" name="LMODELHF"> F  </i>
   <i name="ENCUT4O">     -1.00000000</i>
   <i type="int" name="EXXOEP">     0</i>
   <i type="int" name="FOURORBIT">     0</i>
   <i name="AEXX">      0.00000000</i>
   <i name="HFALPHA">      0.00000000</i>
   <i name="MCALPHA">      0.00000000</i>
   <i name="ALDAX">      1.00000000</i>
   <i name="AGGAX">      1.00000000</i>
   <i name="ALDAC">      1.00000000</i>
   <i name="AGGAC">      1.00000000</i>
   <i type="int" name="NKREDX">     1</i>
   <i type="int" name="NKREDY">     1</i>
   <i type="int" name="NKREDZ">     1</i>
   <i type="logical" name="SHIFTRED"> F  </i>
   <i type="logical" name="ODDONLY"> F  </i>
   <i type="logical" name="EVENONLY"> F  </i>
   <i type="int" name="LMAXFOCK">     0</i>
   <i type="int" name="NMAXFOCKAE">     0</i>
   <i type="logical" name="LFOCKAEDFT"> F  </i>
   <i name="HFSCREEN">      0.00000000</i>
   <i name="HFSCREENC">      0.00000000</i>
   <i type="int" name="NBANDSGWLOW">     0</i>
  </separator>
  <separator name="vdW DFT" >
   <i type="logical" name="LUSE_VDW"> F  </i>
   <i name="Zab_VDW">     -0.84910000</i>
   <i name="PARAM1">      0.12340000</i>
   <i name="PARAM2">      1.00000000</i>
   <i name="PARAM3">      0.00000000</i>
  </separator>
  <separator name="model GW" >
   <i type="int" name="MODEL_GW">     0</i>
   <i name="MODEL_EPS0">      9.15664799</i>
   <i name="MODEL_ALPHA">      1.00000000</i>
  </separator>
  <separator name="linear response parameters" >
   <i type="logical" name="LEPSILON"> F  </i>
   <i type="logical" name="LRPA"> F  </i>
   <i type="logical" name="LNABLA"> F  </i>
   <i type="logical" name="LVEL"> F  </i>
   <i type="int" name="KINTER">     0</i>
   <i name="CSHIFT">      0.10000000</i>
   <i name="OMEGAMAX">     -1.00000000</i>
   <i name="DEG_THRESHOLD">      0.00200000</i>
  </separator>
  <separator name="orbital magnetization" >
   <i type="logical" name="NUCIND"> F  </i>
   <v name="MAGPOS">      0.00000000      0.00000000      0.00000000</v>
   <i type="logical" name="LNICSALL"> T  </i>
   <i type="logical" name="ORBITALMAG"> F  </i>
   <i type="logical" name="LMAGBLOCH"> F  </i>
   <i type="logical" name="LCHIMAG"> F  </i>
   <i type="logical" name="LGAUGE"> T  </i>
   <i type="int" name="MAGATOM">     0</i>
   <v name="MAGDIPOL">      0.00000000      0.00000000      0.00000000</v>
   <v name="AVECCONST">      0.00000000      0.00000000      0.00000000</v>
  </separator>
  <separator name="response functions" >
   <i type="logical" name="LADDER"> F  </i>
   <i type="logical" name="LFXC"> F  </i>
   <i type="logical" name="LHARTREE"> T  </i>
   <i type="int" name="IBSE">     0</i>
   <i type="logical" name="LTCTE"> F  </i>
   <i type="logical" name="LTETE"> F  </i>
   <i type="logical" name="LTRIPLET"> F  </i>
   <i type="logical" name="LFXCEPS"> F  </i>
   <i type="logical" name="LFXHEG"> F  </i>
   <i type="logical" name="L2ORDER"> F  </i>
   <i type="logical" name="LUSEW"> F  </i>
   <i name="ENCUTGW">     -2.00000000</i>
   <i name="ENCUTGWSOFT">     -2.00000000</i>
   <i name="ENCUTLF">     -1.00000000</i>
   <i type="int" name="LMAXMP2">    -1</i>
   <i name="SCISSOR">      0.00000000</i>
   <i type="int" name="NOMEGA">     0</i>
   <i type="int" name="NOMEGAR">     0</i>
   <i type="int" name="NBANDSGW">    -1</i>
   <i type="int" name="NBANDSO">    -1</i>
   <i type="int" name="NBANDSV">    -1</i>
   <i type="int" name="NELM">   200</i>
   <i type="int" name="DIM">     3</i>
   <i type="int" name="ANTIRES">     0</i>
   <i name="OMEGAMAX">    -30.00000000</i>
   <i name="OMEGAMIN">    -30.00000000</i>
   <i name="OMEGATL">   -200.00000000</i>
   <i type="int" name="OMEGAGRID">     0</i>
   <i name="CSHIFT">     -0.10000000</i>
   <i type="logical" name="SELFENERGY"> F  </i>
   <i type="logical" name="LSPECTRAL"> F  </i>
   <i type="logical" name="ODDONLYGW"> F  </i>
   <i type="logical" name="EVENONLYGW"> F  </i>
   <i type="int" name="NKREDLFX">     1</i>
   <i type="int" name="NKREDLFY">     1</i>
   <i type="int" name="NKREDLFZ">     1</i>
   <i type="int" name="MAXMEM">  1800</i>
   <i type="int" name="TELESCOPE">     0</i>
   <i type="int" name="TAUPAR">     1</i>
  </separator>
  <separator name="External order field" >
   <i name="OFIELD_KAPPA">      0.00000000</i>
   <v name="OFIELD_K">      0.00000000      0.00000000      0.00000000</v>
   <i name="OFIELD_Q6_NEAR">      0.00000000</i>
   <i name="OFIELD_Q6_FAR">      0.00000000</i>
   <i name="OFIELD_A">      0.00000000</i>
  </separator>
 </parameters>
 <atominfo>
  <atoms>       6 </atoms>
  <types>       3 </types>
  <array name="atoms" >
   <dimension dim="1">ion</dimension>
   <field type="string">element</field>
   <field type="int">atomtype</field>
   <set>
    <rc><c>Cu</c><c>   1</c></rc>
    <rc><c>Cu</c><c>   1</c></rc>
    <rc><c>Cu</c><c>   1</c></rc>
    <rc><c>Ag</c><c>   2</c></rc>
    <rc><c>Au</c><c>   3</c></rc>
    <rc><c>Au</c><c>   3</c></rc>
   </set>
  </array>
  <array name="atomtypes" >
   <dimension dim="1">type</dimension>
   <field type="int">atomspertype</field>
   <field type="string">element</field>
   <field>mass</field>
   <field>valence</field>
   <field type="string">pseudopotential</field>
   <set>
    <rc><c>   3</c><c>Cu</c><c>     63.54600000</c><c>     11.00000000</c><c>  PAW_PBE Cu 22Jun2005                  </c></rc>
    <rc><c>   1</c><c>Ag</c><c>    107.86800000</c><c>     11.00000000</c><c>  PAW_PBE Ag 02Apr2005                  </c></rc>
    <rc><c>   2</c><c>Au</c><c>    196.96600000</c><c>     11.00000000</c><c>  PAW_PBE Au 04Oct2007                  </c></rc>
   </set>
  </array>
 </atominfo>
 <structure name="initialpos" >
  <crystal>
   <varray name="basis" >
    <v>       2.00483002       0.00000000       2.00483002 </v>
    <v>       0.00000000      -2.00483002      -2.00483002 </v>
    <v>       7.59381742       7.59381742      -7.59381742 </v>
   </varray>
   <i name="volume">     91.56647995 </i>
   <varray name="rec_basis" >
    <v>       0.33253027      -0.16626513       0.16626513 </v>
    <v>       0.16626513      -0.33253027      -0.16626513 </v>
    <v>       0.04389536       0.04389536      -0.04389536 </v>
   </varray>
  </crystal>
  <varray name="positions" >
   <v>       0.66666667       0.33333333       0.34064678 </v>
   <v>       0.33333333       0.66666667       0.67316768 </v>
   <v>       0.66666667       0.33333333       0.81897377 </v>
   <v>       0.00000000       0.00000000       0.98554695 </v>
   <v>       0.33333333       0.66666667       0.17578855 </v>
   <v>       0.00000000       0.00000000       0.50587628 </v>
  </varray>
 </structure>
 <calculation>
  <scstep>
   <time name="dav">    6.48    6.48</time>
   <time name="total">    6.56    6.57</time>
   <energy>
    <i name="alphaZ">    352.14770404 </i>
    <i name="ewald">  -6009.90028074 </i>
    <i name="hartreedc">  -1720.18536586 </i>
    <i name="XCdc">    157.34594687 </i>
    <i name="pawpsdc">   6436.27713567 </i>
    <i name="pawaedc">  -6661.51494526 </i>
    <i name="eentropy">     -0.00134103 </i>
    <i name="bandstr">   1012.92904560 </i>
    <i name="atom">   7062.35687099 </i>
    <i name="e_fr_energy">    629.45477027 </i>
    <i name="e_wo_entrp">    629.45611130 </i>
    <i name="e_0_energy">    629.45521728 </i>
   </energy>
  </scstep>
  <scstep>
   <time name="dav">    6.58    6.58</time>
   <time name="total">    6.60    6.61</time>
   <energy>
    <i name="e_fr_energy">     49.32616254 </i>
    <i name="e_wo_entrp">     49.32723249 </i>
    <i name="e_0_energy">     49.32651919 </i>
   </energy>
  </scstep>
  <scstep>
   <time name="dav">    7.35    7.35</time>
   <time name="total">    7.37    7.39</time>
   <energy>
    <i name="e_fr_energy">    -20.83774503 </i>
    <i name="e_wo_entrp">    -20.83867472 </i>
    <i name="e_0_energy">    -20.83805493 </i>
   </energy>
  </scstep>
  <scstep>
   <time name="dav">    8.76    8.76</time>
   <time name="total">    8.79    8.80</time>
   <energy>
    <i name="e_fr_energy">    -23.13384185 </i>
    <i name="e_wo_entrp">    -23.13484887 </i>
    <i name="e_0_energy">    -23.13417752 </i>
   </energy>
  </scstep>
  <scstep>
   <time name="dav">    8.97    8.98</time>
   <time name="total">    9.49    9.50</time>
   <energy>
    <i name="e_fr_energy">    -23.15924511 </i>
    <i name="e_wo_entrp">    -23.16025955 </i>
    <i name="e_0_energy">    -23.15958325 </i>
   </energy>
  </scstep>
  <scstep>
   <time name="diag">    1.76    1.76</time>
   <time name="diis">    3.37    3.37</time>
   <time name="orth">    0.25    0.25</time>
   <time name="total">    5.94    5.96</time>
   <energy>
    <i name="e_fr_energy">    -21.69667387 </i>
    <i name="e_wo_entrp">    -21.69553195 </i>
    <i name="e_0_energy">    -21.69629323 </i>
   </energy>
  </scstep>
  <scstep>
   <time name="diag">    1.75    1.75</time>
   <time name="diis">    3.53    3.53</time>
   <time name="orth">    0.24    0.24</time>
   <time name="total">    6.09    6.13</time>
   <energy>
    <i name="e_fr_energy">    -20.37434089 </i>
    <i name="e_wo_entrp">    -20.37732966 </i>
    <i name="e_0_energy">    -20.37533715 </i>
   </energy>
  </scstep>
  <scstep>
   <time name="diag">    1.75    1.75</time>
   <time name="diis">    3.38    3.38</time>
   <time name="orth">    0.24    0.24</time>
   <time name="total">    5.94    5.95</time>
   <energy>
    <i name="e_fr_energy">    -20.13388535 </i>
    <i name="e_wo_entrp">    -20.13235310 </i>
    <i name="e_0_energy">    -20.13337460 </i>
   </energy>
  </scstep>
  <scstep>
   <time name="diag">    1.79    1.79</time>
   <time name="diis">    3.43    3.43</time>
   <time name="orth">    0.24    0.24</time>
   <time name="total">    6.04    6.28</time>
   <energy>
    <i name="e_fr_energy">    -20.22702962 </i>
    <i name="e_wo_entrp">    -20.22857946 </i>
    <i name="e_0_energy">    -20.22754624 </i>
   </energy>
  </scstep>
  <scstep>
   <time name="diag">    1.75    1.75</time>
   <time name="diis">    3.36    3.36</time>
   <time name="orth">    0.24    0.24</time>
   <time name="total">    5.97    5.98</time>
   <energy>
    <i name="e_fr_energy">    -20.10198749 </i>
    <i name="e_wo_entrp">    -20.10174373 </i>
    <i name="e_0_energy">    -20.10190624 </i>
   </energy>
  </scstep>
  <scstep>
   <time name="diag">    1.76    1.76</time>
   <time name="diis">    3.53    3.53</time>
   <time name="orth">    0.25    0.25</time>
   <time name="total">    6.14    6.15</time>
   <energy>
    <i name="e_fr_energy">    -20.09568115 </i>
    <i name="e_wo_entrp">    -20.09541405 </i>
    <i name="e_0_energy">    -20.09559212 </i>
   </energy>
  </scstep>
  <scstep>
   <time name="diag">    1.75    1.75</time>
   <time name="diis">    3.75    3.75</time>
   <time name="orth">    0.24    0.24</time>
   <time name="total">    6.32    6.34</time>
   <energy>
    <i name="e_fr_energy">    -20.09566425 </i>
    <i name="e_wo_entrp">    -20.09549906 </i>
    <i name="e_0_energy">    -20.09560919 </i>
   </energy>
  </scstep>
  <scstep>
   <time name="diag">    1.75    1.75</time>
   <time name="diis">    3.57    3.57</time>
   <time name="orth">    0.25    0.25</time>
   <time name="total">    6.16    6.17</time>
   <energy>
    <i name="e_fr_energy">    -20.09558233 </i>
    <i name="e_wo_entrp">    -20.09540019 </i>
    <i name="e_0_energy">    -20.09552161 </i>
   </energy>
  </scstep>
  <scstep>
   <time name="diag">    1.75    1.75</time>
   <time name="diis">    3.60    3.60</time>
   <time name="orth">    0.24    0.24</time>
   <time name="total">    6.18    6.19</time>
   <energy>
    <i name="e_fr_energy">    -20.09554600 </i>
    <i name="e_wo_entrp">    -20.09536762 </i>
    <i name="e_0_energy">    -20.09548654 </i>
   </energy>
  </scstep>
  <scstep>
   <time name="diag">    1.75    1.75</time>
   <time name="diis">    3.91    3.91</time>
   <time name="orth">    0.25    0.25</time>
   <time name="total">    6.50    6.52</time>
   <energy>
    <i name="e_fr_energy">    -20.09554270 </i>
    <i name="e_wo_entrp">    -20.09536646 </i>
    <i name="e_0_energy">    -20.09548395 </i>
   </energy>
  </scstep>
  <scstep>
   <time name="diag">    1.75    1.75</time>
   <time name="diis">    2.72    2.72</time>
   <time name="orth">    0.24    0.24</time>
   <time name="total">    5.30    5.32</time>
   <energy>
    <i name="e_fr_energy">    -20.09554086 </i>
    <i name="e_wo_entrp">    -20.09536704 </i>
    <i name="e_0_energy">    -20.09548292 </i>
   </energy>
  </scstep>
  <scstep>
   <time name="diag">    1.76    1.76</time>
   <time name="diis">    2.13    2.13</time>
   <time name="orth">    0.25    0.25</time>
   <time name="total">    4.22    4.23</time>
   <energy>
    <i name="alphaZ">    352.14770404 </i>
    <i name="ewald">  -6009.90028074 </i>
    <i name="hartreedc">  -1623.82691175 </i>
    <i name="XCdc">    153.01058228 </i>
    <i name="pawpsdc">   7072.05004532 </i>
    <i name="pawaedc">  -7310.56789591 </i>
    <i name="eentropy">     -0.00017418 </i>
    <i name="bandstr">    284.63451932 </i>
    <i name="atom">   7062.35687099 </i>
    <i name="e_fr_energy">    -20.09554062 </i>
    <i name="e_wo_entrp">    -20.09536645 </i>
    <i name="e_0_energy">    -20.09548256 </i>
   </energy>
  </scstep>
  <structure>
   <crystal>
    <varray name="basis" >
     <v>       2.00483002       0.00000000       2.00483002 </v>
     <v>       0.00000000      -2.00483002      -2.00483002 </v>
     <v>       7.59381742       7.59381742      -7.59381742 </v>
    </varray>
    <i name="volume">     91.56647995 </i>
    <varray name="rec_basis" >
     <v>       0.33253027      -0.16626513       0.16626513 </v>
     <v>       0.16626513      -0.33253027      -0.16626513 </v>
     <v>       0.04389536       0.04389536      -0.04389536 </v>
    </varray>
   </crystal>
   <varray name="positions" >
    <v>       0.66666667       0.33333333       0.34064678 </v>
    <v>       0.33333333       0.66666667       0.67316768 </v>
    <v>       0.66666667       0.33333333       0.81897377 </v>
    <v>       0.00000000       0.00000000       0.98554695 </v>
    <v>       0.33333333       0.66666667       0.17578855 </v>
    <v>       0.00000000       0.00000000       0.50587628 </v>
   </varray>
  </structure>
  <varray name="forces" >
   <v>       0.00020215       0.00020215      -0.00020215 </v>
   <v>      -0.00546029      -0.00546029       0.00546029 </v>
   <v>      -0.00837327      -0.00837327       0.00837327 </v>
   <v>       0.00410790       0.00410790      -0.00410790 </v>
   <v>       0.00382018       0.00382018      -0.00382018 </v>
   <v>       0.00570333       0.00570333      -0.00570333 </v>
  </varray>
  <varray name="stress" >
   <v>      -0.93760809       0.04133264      -0.04133264 </v>
   <v>       0.04133264      -0.93760809      -0.04133264 </v>
   <v>      -0.04133264      -0.04133264      -0.93760809 </v>
  </varray>
  <energy>
   <i name="e_fr_energy">    -20.09554062 </i>
   <i name="e_wo_entrp">    -20.09548256 </i>
   <i name="e_0_energy">     -0.00017418 </i>
  </energy>
  <time name="totalsc">  114.70  115.25</time>
  <eigenvalues>
   <array>
    <dimension dim="1">band</dimension>
    <dimension dim="2">kpoint</dimension>
    <dimension dim="3">spin</dimension>
    <field>eigene</field>
    <field>occ</field>
    <set>
     <set comment="spin 1">
      <set comment="kpoint 1">
       <r>   -1.4153    1.0000 </r>
       <r>   -0.7545    1.0000 </r>
       <r>    0.3004    1.0000 </r>
       <r>    1.2505    1.0000 </r>
       <r>    1.4083    1.0000 </r>
       <r>    2.3121    1.0000 </r>
       <r>    3.0795    1.0000 </r>
       <r>    3.0795    1.0000 </r>
       <r>    3.1400    1.0000 </r>
       <r>    3.1400    1.0000 </r>
       <r>    3.2418    1.0000 </r>
       <r>    3.2418    1.0000 </r>
       <r>    3.4790    1.0000 </r>
       <r>    4.1340    1.0000 </r>
       <r>    4.1340    1.0000 </r>
       <r>    4.2292    1.0000 </r>
       <r>    4.4309    1.0000 </r>
       <r>    4.4309    1.0000 </r>
       <r>    4.7963    1.0000 </r>
       <r>    4.7963    1.0000 </r>
       <r>    4.8206    1.0000 </r>
       <r>    5.2245    1.0000 </r>
       <r>    5.2592    1.0000 </r>
       <r>    5.2592    1.0000 </r>
       <r>    5.3361    1.0000 </r>
       <r>    5.3361    1.0000 </r>
       <r>    5.5335    1.0000 </r>
       <r>    5.5868    1.0000 </r>
       <r>    5.5868    1.0000 </r>
       <r>    5.8356    1.0000 </r>
       <r>    5.8356    1.0000 </r>
       <r>    6.0180    1.0000 </r>
       <r>    6.0180    1.0000 </r>
       <r>    6.2787    1.0000 </r>
       <r>    6.2787    1.0000 </r>
       <r>    7.6174    0.9850 </r>
       <r>   11.7695    0.0000 </r>
       <r>   15.7100    0.0000 </r>
       <r>   14.8488    0.0000 </r>
       <r>   19.8460    0.0000 </r>
      </set>
      <set comment="kpoint 2">
       <r>   -1.3777    1.0000 </r>
       <r>   -0.7150    1.0000 </r>
       <r>    0.3304    1.0000 </r>
       <r>    1.2770    1.0000 </r>
       <r>    1.4295    1.0000 </r>
       <r>    2.3241    1.0000 </r>
       <r>    3.0672    1.0000 </r>
       <r>    3.0982    1.0000 </r>
       <r>    3.1215    1.0000 </r>
       <r>    3.1649    1.0000 </r>
       <r>    3.2226    1.0000 </r>
       <r>    3.2656    1.0000 </r>
       <r>    3.4590    1.0000 </r>
       <r>    4.1084    1.0000 </r>
       <r>    4.1294    1.0000 </r>
       <r>    4.2132    1.0000 </r>
       <r>    4.3959    1.0000 </r>
       <r>    4.4266    1.0000 </r>
       <r>    4.7666    1.0000 </r>
       <r>    4.7944    1.0000 </r>
       <r>    4.8161    1.0000 </r>
       <r>    5.1766    1.0000 </r>
       <r>    5.2526    1.0000 </r>
       <r>    5.2630    1.0000 </r>
       <r>    5.3383    1.0000 </r>
       <r>    5.4425    1.0000 </r>
       <r>    5.5417    1.0000 </r>
       <r>    5.5922    1.0000 </r>
       <r>    5.5940    1.0000 </r>
       <r>    5.8367    1.0000 </r>
       <r>    5.8373    1.0000 </r>
       <r>    6.0227    1.0000 </r>
       <r>    6.0552    1.0000 </r>
       <r>    6.2124    1.0000 </r>
       <r>    6.2789    1.0000 </r>
       <r>    7.7579    0.7506 </r>
       <r>   11.7762    0.0000 </r>
       <r>   15.6077    0.0000 </r>
       <r>   14.4335    0.0000 </r>
       <r>   20.5881    0.0000 </r>
      </set>
      <set comment="kpoint 3">
       <r>   -1.2656    1.0000 </r>
       <r>   -0.5980    1.0000 </r>
       <r>    0.4190    1.0000 </r>
       <r>    1.3544    1.0000 </r>
       <r>    1.4921    1.0000 </r>
       <r>    2.3585    1.0000 </r>
       <r>    3.0325    1.0000 </r>
       <r>    3.0690    1.0000 </r>
       <r>    3.1534    1.0000 </r>
       <r>    3.1690    1.0000 </r>
       <r>    3.2388    1.0000 </r>
       <r>    3.3363    1.0000 </r>
       <r>    3.3941    1.0000 </r>
       <r>    4.0280    1.0000 </r>
       <r>    4.1162    1.0000 </r>
       <r>    4.1728    1.0000 </r>
       <r>    4.3075    1.0000 </r>
       <r>    4.4135    1.0000 </r>
       <r>    4.7106    1.0000 </r>
       <r>    4.7884    1.0000 </r>
       <r>    4.8064    1.0000 </r>
       <r>    5.1682    1.0000 </r>
       <r>    5.2376    1.0000 </r>
       <r>    5.2718    1.0000 </r>
       <r>    5.3488    1.0000 </r>
       <r>    5.4737    1.0000 </r>
       <r>    5.5826    1.0000 </r>
       <r>    5.6082    1.0000 </r>
       <r>    5.6882    1.0000 </r>
       <r>    5.8412    1.0000 </r>
       <r>    5.8545    1.0000 </r>
       <r>    6.0137    1.0000 </r>
       <r>    6.0353    1.0000 </r>
       <r>    6.2377    1.0000 </r>
       <r>    6.2794    1.0000 </r>
       <r>    8.1049   -0.0005 </r>
       <r>   11.7968    0.0000 </r>
       <r>   15.3365    0.0000 </r>
       <r>   13.9975    0.0000 </r>
       <r>   20.8542    0.0000 </r>
      </set>
      <set comment="kpoint 4">
       <r>   -1.0823    1.0000 </r>
       <r>   -0.4079    1.0000 </r>
       <r>    0.5627    1.0000 </r>
       <r>    1.4750    1.0000 </r>
       <r>    1.5927    1.0000 </r>
       <r>    2.4093    1.0000 </r>
       <r>    2.9800    1.0000 </r>
       <r>    2.9923    1.0000 </r>
       <r>    3.0931    1.0000 </r>
       <r>    3.2428    1.0000 </r>
       <r>    3.2791    1.0000 </r>
       <r>    3.3595    1.0000 </r>
       <r>    3.4506    1.0000 </r>
       <r>    3.8957    1.0000 </r>
       <r>    4.0894    1.0000 </r>
       <r>    4.0971    1.0000 </r>
       <r>    4.2408    1.0000 </r>
       <r>    4.3918    1.0000 </r>
       <r>    4.6675    1.0000 </r>
       <r>    4.7775    1.0000 </r>
       <r>    4.7987    1.0000 </r>
       <r>    5.1706    1.0000 </r>
       <r>    5.2362    1.0000 </r>
       <r>    5.2802    1.0000 </r>
       <r>    5.3752    1.0000 </r>
       <r>    5.4764    1.0000 </r>
       <r>    5.5668    1.0000 </r>
       <r>    5.6342    1.0000 </r>
       <r>    5.7231    1.0000 </r>
       <r>    5.8497    1.0000 </r>
       <r>    5.8510    1.0000 </r>
       <r>    6.0520    1.0000 </r>
       <r>    6.0612    1.0000 </r>
       <r>    6.2810    1.0000 </r>
       <r>    6.4247    1.0000 </r>
       <r>    8.5630   -0.0020 </r>
       <r>   11.8337    0.0000 </r>
       <r>   14.9153    0.0000 </r>
       <r>   13.6640    0.0000 </r>
       <r>   18.6325    0.0000 </r>
      </set>
      <set comment="kpoint 5">
       <r>   -0.8335    1.0000 </r>
       <r>   -0.1534    1.0000 </r>
       <r>    0.7544    1.0000 </r>
       <r>    1.6224    1.0000 </r>
       <r>    1.7245    1.0000 </r>
       <r>    2.4648    1.0000 </r>
       <r>    2.9009    1.0000 </r>
       <r>    2.9217    1.0000 </r>
       <r>    3.0190    1.0000 </r>
       <r>    3.1262    1.0000 </r>
       <r>    3.3626    1.0000 </r>
       <r>    3.5217    1.0000 </r>
       <r>    3.6005    1.0000 </r>
       <r>    3.7289    1.0000 </r>
       <r>    3.9610    1.0000 </r>
       <r>    4.0799    1.0000 </r>
       <r>    4.2449    1.0000 </r>
       <r>    4.3628    1.0000 </r>
       <r>    4.6373    1.0000 </r>
       <r>    4.7614    1.0000 </r>
       <r>    4.7989    1.0000 </r>
       <r>    5.1448    1.0000 </r>
       <r>    5.2630    1.0000 </r>
       <r>    5.2876    1.0000 </r>
       <r>    5.4202    1.0000 </r>
       <r>    5.4796    1.0000 </r>
       <r>    5.5258    1.0000 </r>
       <r>    5.6528    1.0000 </r>
       <r>    5.6702    1.0000 </r>
       <r>    5.8479    1.0000 </r>
       <r>    5.8677    1.0000 </r>
       <r>    6.0691    1.0000 </r>
       <r>    6.2782    1.0000 </r>
       <r>    6.2845    1.0000 </r>
       <r>    6.6656    1.0000 </r>
       <r>    9.0859    0.0000 </r>
       <r>   11.8904    0.0000 </r>
       <r>   14.3003    0.0000 </r>
       <r>   13.3794    0.0000 </r>
       <r>   16.9810    0.0000 </r>
      </set>
      <set comment="kpoint 6">
       <r>   -0.5284    1.0000 </r>
       <r>    0.1494    1.0000 </r>
       <r>    0.9815    1.0000 </r>
       <r>    1.7663    1.0000 </r>
       <r>    1.8708    1.0000 </r>
       <r>    2.5086    1.0000 </r>
       <r>    2.8210    1.0000 </r>
       <r>    2.8548    1.0000 </r>
       <r>    2.9350    1.0000 </r>
       <r>    3.0220    1.0000 </r>
       <r>    3.5071    1.0000 </r>
       <r>    3.5540    1.0000 </r>
       <r>    3.7069    1.0000 </r>
       <r>    3.7688    1.0000 </r>
       <r>    3.8439    1.0000 </r>
       <r>    4.0907    1.0000 </r>
       <r>    4.2833    1.0000 </r>
       <r>    4.3302    1.0000 </r>
       <r>    4.6120    1.0000 </r>
       <r>    4.7408    1.0000 </r>
       <r>    4.8079    1.0000 </r>
       <r>    5.1132    1.0000 </r>
       <r>    5.2882    1.0000 </r>
       <r>    5.2965    1.0000 </r>
       <r>    5.4137    1.0000 </r>
       <r>    5.4808    1.0000 </r>
       <r>    5.5340    1.0000 </r>
       <r>    5.6206    1.0000 </r>
       <r>    5.7160    1.0000 </r>
       <r>    5.8794    1.0000 </r>
       <r>    5.8918    1.0000 </r>
       <r>    6.0835    1.0000 </r>
       <r>    6.2905    1.0000 </r>
       <r>    6.5081    1.0000 </r>
       <r>    6.9436    1.0001 </r>
       <r>    9.6511    0.0000 </r>
       <r>   11.9721    0.0000 </r>
       <r>   13.7319    0.0000 </r>
       <r>   13.3332    0.0000 </r>
       <r>   15.2389    0.0000 </r>
      </set>
      <set comment="kpoint 7">
       <r>   -0.1821    1.0000 </r>
       <r>    0.4725    1.0000 </r>
       <r>    1.2225    1.0000 </r>
       <r>    1.8676    1.0000 </r>
       <r>    1.9894    1.0000 </r>
       <r>    2.5277    1.0000 </r>
       <r>    2.7028    1.0000 </r>
       <r>    2.8513    1.0000 </r>
       <r>    2.8611    1.0000 </r>
       <r>    3.0430    1.0000 </r>
       <r>    3.4227    1.0000 </r>
       <r>    3.6617    1.0000 </r>
       <r>    3.7611    1.0000 </r>
       <r>    3.8251    1.0000 </r>
       <r>    3.9645    1.0000 </r>
       <r>    4.1918    1.0000 </r>
       <r>    4.3118    1.0000 </r>
       <r>    4.3355    1.0000 </r>
       <r>    4.5911    1.0000 </r>
       <r>    4.7195    1.0000 </r>
       <r>    4.8187    1.0000 </r>
       <r>    5.0928    1.0000 </r>
       <r>    5.2888    1.0000 </r>
       <r>    5.3079    1.0000 </r>
       <r>    5.3634    1.0000 </r>
       <r>    5.5531    1.0000 </r>
       <r>    5.5613    1.0000 </r>
       <r>    5.6257    1.0000 </r>
       <r>    5.7708    1.0000 </r>
       <r>    5.9233    1.0000 </r>
       <r>    5.9334    1.0000 </r>
       <r>    6.0939    1.0000 </r>
       <r>    6.2990    1.0000 </r>
       <r>    6.7391    1.0000 </r>
       <r>    7.2503    1.0079 </r>
       <r>   10.2440    0.0000 </r>
       <r>   12.0853    0.0000 </r>
       <r>   13.4455    0.0000 </r>
       <r>   13.4540    0.0000 </r>
       <r>   13.7959    0.0000 </r>
      </set>
      <set comment="kpoint 8">
       <r>    0.1808    1.0000 </r>
       <r>    0.7699    1.0000 </r>
       <r>    1.4450    1.0000 </r>
       <r>    1.9009    1.0000 </r>
       <r>    2.0346    1.0000 </r>
       <r>    2.4630    1.0000 </r>
       <r>    2.6081    1.0000 </r>
       <r>    2.9249    1.0000 </r>
       <r>    2.9758    1.0000 </r>
       <r>    3.0455    1.0000 </r>
       <r>    3.4358    1.0000 </r>
       <r>    3.7307    1.0000 </r>
       <r>    3.7526    1.0000 </r>
       <r>    3.9163    1.0000 </r>
       <r>    4.1166    1.0000 </r>
       <r>    4.3392    1.0000 </r>
       <r>    4.3907    1.0000 </r>
       <r>    4.4266    1.0000 </r>
       <r>    4.5785    1.0000 </r>
       <r>    4.7113    1.0000 </r>
       <r>    4.8223    1.0000 </r>
       <r>    5.0956    1.0000 </r>
       <r>    5.2552    1.0000 </r>
       <r>    5.3208    1.0000 </r>
       <r>    5.3888    1.0000 </r>
       <r>    5.5636    1.0000 </r>
       <r>    5.6332    1.0000 </r>
       <r>    5.6868    1.0000 </r>
       <r>    5.8330    1.0000 </r>
       <r>    5.9614    1.0000 </r>
       <r>    6.0031    1.0000 </r>
       <r>    6.1004    1.0000 </r>
       <r>    6.3096    1.0000 </r>
       <r>    6.9758    1.0001 </r>
       <r>    7.5834    1.0104 </r>
       <r>   10.8492    0.0000 </r>
       <r>   12.2363    0.0000 </r>
       <r>   15.7498    0.0000 </r>
       <r>   13.3705    0.0000 </r>
       <r>   13.6608    0.0000 </r>
      </set>
      <set comment="kpoint 9">
       <r>    0.5196    1.0000 </r>
       <r>    0.9849    1.0000 </r>
       <r>    1.6086    1.0000 </r>
       <r>    1.8872    1.0000 </r>
       <r>    2.0269    1.0000 </r>
       <r>    2.3200    1.0000 </r>
       <r>    2.5861    1.0000 </r>
       <r>    2.9812    1.0000 </r>
       <r>    3.1305    1.0000 </r>
       <r>    3.2394    1.0000 </r>
       <r>    3.5846    1.0000 </r>
       <r>    3.7371    1.0000 </r>
       <r>    3.7952    1.0000 </r>
       <r>    4.0798    1.0000 </r>
       <r>    4.1239    1.0000 </r>
       <r>    4.4456    1.0000 </r>
       <r>    4.5264    1.0000 </r>
       <r>    4.5778    1.0000 </r>
       <r>    4.6259    1.0000 </r>
       <r>    4.7957    1.0000 </r>
       <r>    4.8241    1.0000 </r>
       <r>    5.1272    1.0000 </r>
       <r>    5.2345    1.0000 </r>
       <r>    5.3342    1.0000 </r>
       <r>    5.4537    1.0000 </r>
       <r>    5.5744    1.0000 </r>
       <r>    5.7172    1.0000 </r>
       <r>    5.7861    1.0000 </r>
       <r>    5.8999    1.0000 </r>
       <r>    6.0045    1.0000 </r>
       <r>    6.0821    1.0000 </r>
       <r>    6.1040    1.0000 </r>
       <r>    6.3211    1.0000 </r>
       <r>    7.2270    1.0061 </r>
       <r>    7.9463    0.2471 </r>
       <r>   11.4427    0.0000 </r>
       <r>   12.4275    0.0000 </r>
       <r>   15.2679    0.0000 </r>
       <r>   16.0744    0.0000 </r>
       <r>   13.4634    0.0000 </r>
      </set>
      <set comment="kpoint 10">
       <r>    0.7764    1.0000 </r>
       <r>    1.0896    1.0000 </r>
       <r>    1.6694    1.0000 </r>
       <r>    1.8639    1.0000 </r>
       <r>    2.0219    1.0000 </r>
       <r>    2.2251    1.0000 </r>
       <r>    2.5617    1.0000 </r>
       <r>    2.9893    1.0000 </r>
       <r>    3.3403    1.0000 </r>
       <r>    3.5706    1.0000 </r>
       <r>    3.6966    1.0000 </r>
       <r>    3.7676    1.0000 </r>
       <r>    4.0261    1.0000 </r>
       <r>    4.0776    1.0000 </r>
       <r>    4.2655    1.0000 </r>
       <r>    4.4898    1.0000 </r>
       <r>    4.5761    1.0000 </r>
       <r>    4.6034    1.0000 </r>
       <r>    4.8460    1.0000 </r>
       <r>    4.8753    1.0000 </r>
       <r>    5.0347    1.0000 </r>
       <r>    5.1707    1.0000 </r>
       <r>    5.2757    1.0000 </r>
       <r>    5.3495    1.0000 </r>
       <r>    5.4884    1.0000 </r>
       <r>    5.6711    1.0000 </r>
       <r>    5.8004    1.0000 </r>
       <r>    5.9167    1.0000 </r>
       <r>    5.9674    1.0000 </r>
       <r>    6.0500    1.0000 </r>
       <r>    6.1068    1.0000 </r>
       <r>    6.1671    1.0000 </r>
       <r>    6.3327    1.0000 </r>
       <r>    7.5046    1.0347 </r>
       <r>    8.3459   -0.0209 </r>
       <r>   11.9630    0.0000 </r>
       <r>   12.6416    0.0000 </r>
       <r>   14.1354    0.0000 </r>
       <r>   15.1823    0.0000 </r>
       <r>   15.8920    0.0000 </r>
      </set>
      <set comment="kpoint 11">
       <r>    0.9092    1.0000 </r>
       <r>    1.1104    1.0000 </r>
       <r>    1.6426    1.0000 </r>
       <r>    1.8184    1.0000 </r>
       <r>    1.9681    1.0000 </r>
       <r>    2.2988    1.0000 </r>
       <r>    2.5434    1.0000 </r>
       <r>    3.0370    1.0000 </r>
       <r>    3.4943    1.0000 </r>
       <r>    3.6533    1.0000 </r>
       <r>    3.7809    1.0000 </r>
       <r>    4.0366    1.0000 </r>
       <r>    4.0989    1.0000 </r>
       <r>    4.3622    1.0000 </r>
       <r>    4.4013    1.0000 </r>
       <r>    4.5040    1.0000 </r>
       <r>    4.6077    1.0000 </r>
       <r>    4.7126    1.0000 </r>
       <r>    4.8983    1.0000 </r>
       <r>    5.1287    1.0000 </r>
       <r>    5.2112    1.0000 </r>
       <r>    5.2996    1.0000 </r>
       <r>    5.3799    1.0000 </r>
       <r>    5.4387    1.0000 </r>
       <r>    5.4949    1.0000 </r>
       <r>    5.8596    1.0000 </r>
       <r>    5.8782    1.0000 </r>
       <r>    6.0301    1.0000 </r>
       <r>    6.0857    1.0000 </r>
       <r>    6.0927    1.0000 </r>
       <r>    6.1142    1.0000 </r>
       <r>    6.2645    1.0000 </r>
       <r>    6.3439    1.0000 </r>
       <r>    7.8212    0.5853 </r>
       <r>    8.7869    0.0000 </r>
       <r>   12.1567    0.0000 </r>
       <r>   12.7662    0.0000 </r>
       <r>   13.2416    0.0000 </r>
       <r>   14.3186    0.0000 </r>
       <r>   15.0195    0.0000 </r>
      </set>
      <set comment="kpoint 12">
       <r>    0.9402    1.0000 </r>
       <r>    1.0897    1.0000 </r>
       <r>    1.5891    1.0000 </r>
       <r>    1.7550    1.0000 </r>
       <r>    1.8854    1.0000 </r>
       <r>    2.3851    1.0000 </r>
       <r>    2.6178    1.0000 </r>
       <r>    3.1042    1.0000 </r>
       <r>    3.5643    1.0000 </r>
       <r>    3.6140    1.0000 </r>
       <r>    3.9253    1.0000 </r>
       <r>    3.9990    1.0000 </r>
       <r>    4.3868    1.0000 </r>
       <r>    4.4471    1.0000 </r>
       <r>    4.4887    1.0000 </r>
       <r>    4.6011    1.0000 </r>
       <r>    4.7064    1.0000 </r>
       <r>    4.9053    1.0000 </r>
       <r>    5.1237    1.0000 </r>
       <r>    5.2817    1.0000 </r>
       <r>    5.2887    1.0000 </r>
       <r>    5.4760    1.0000 </r>
       <r>    5.4986    1.0000 </r>
       <r>    5.5567    1.0000 </r>
       <r>    5.7139    1.0000 </r>
       <r>    5.9450    1.0000 </r>
       <r>    6.0776    1.0000 </r>
       <r>    6.1086    1.0000 </r>
       <r>    6.1197    1.0000 </r>
       <r>    6.1433    1.0000 </r>
       <r>    6.3123    1.0000 </r>
       <r>    6.3550    1.0000 </r>
       <r>    6.4279    1.0000 </r>
       <r>    8.1826   -0.0328 </r>
       <r>    9.2564    0.0000 </r>
       <r>   11.6195    0.0000 </r>
       <r>   12.1274    0.0000 </r>
       <r>   13.2940    0.0000 </r>
       <r>   13.5261    0.0000 </r>
       <r>   14.7676    0.0000 </r>
      </set>
      <set comment="kpoint 13">
       <r>    0.9244    1.0000 </r>
       <r>    1.0558    1.0000 </r>
       <r>    1.5364    1.0000 </r>
       <r>    1.6932    1.0000 </r>
       <r>    1.8175    1.0000 </r>
       <r>    2.3795    1.0000 </r>
       <r>    2.7694    1.0000 </r>
       <r>    3.1880    1.0000 </r>
       <r>    3.5744    1.0000 </r>
       <r>    3.5822    1.0000 </r>
       <r>    3.9686    1.0000 </r>
       <r>    4.0384    1.0000 </r>
       <r>    4.4466    1.0000 </r>
       <r>    4.4778    1.0000 </r>
       <r>    4.4993    1.0000 </r>
       <r>    4.7582    1.0000 </r>
       <r>    4.8245    1.0000 </r>
       <r>    4.9577    1.0000 </r>
       <r>    5.3159    1.0000 </r>
       <r>    5.3333    1.0000 </r>
       <r>    5.4708    1.0000 </r>
       <r>    5.6573    1.0000 </r>
       <r>    5.7074    1.0000 </r>
       <r>    5.7606    1.0000 </r>
       <r>    5.9738    1.0000 </r>
       <r>    5.9959    1.0000 </r>
       <r>    6.1025    1.0000 </r>
       <r>    6.1488    1.0000 </r>
       <r>    6.1791    1.0000 </r>
       <r>    6.3423    1.0000 </r>
       <r>    6.3664    1.0000 </r>
       <r>    6.6364    1.0000 </r>
       <r>    6.8490    1.0000 </r>
       <r>    8.5727   -0.0018 </r>
       <r>    9.6287    0.0000 </r>
       <r>   10.8532    0.0000 </r>
       <r>   11.3283    0.0000 </r>
       <r>   12.3904    0.0000 </r>
[...]
       <r>    5.5553    1.0000 </r>
       <r>    5.6123    1.0000 </r>
       <r>    5.7323    1.0000 </r>
       <r>    5.8553    1.0000 </r>
       <r>    5.9264    1.0000 </r>
       <r>    6.0498    1.0000 </r>
       <r>    6.1501    1.0000 </r>
       <r>    6.1873    1.0000 </r>
       <r>    6.2449    1.0000 </r>
       <r>    8.6306   -0.0007 </r>
       <r>    9.0347    0.0000 </r>
       <r>   10.2311    0.0000 </r>
       <r>   10.6607    0.0000 </r>
       <r>   11.0325    0.0000 </r>
       <r>   11.3711    0.0000 </r>
       <r>   11.8944    0.0000 </r>
       <r>   12.2808    0.0000 </r>
       <r>   12.8159    0.0000 </r>
       <r>   13.3598    0.0000 </r>
      </set>
      <set comment="kpoint 394">
       <r>    2.1316    1.0000 </r>
       <r>    2.2863    1.0000 </r>
       <r>    2.3873    1.0000 </r>
       <r>    2.4845    1.0000 </r>
       <r>    2.6111    1.0000 </r>
       <r>    2.6784    1.0000 </r>
       <r>    2.7592    1.0000 </r>
       <r>    2.8323    1.0000 </r>
       <r>    2.9646    1.0000 </r>
       <r>    3.0391    1.0000 </r>
       <r>    3.1226    1.0000 </r>
       <r>    3.1455    1.0000 </r>
       <r>    3.9278    1.0000 </r>
       <r>    3.9563    1.0000 </r>
       <r>    4.1099    1.0000 </r>
       <r>    4.3938    1.0000 </r>
       <r>    4.6412    1.0000 </r>
       <r>    4.6799    1.0000 </r>
       <r>    5.0659    1.0000 </r>
       <r>    5.4633    1.0000 </r>
       <r>    5.5030    1.0000 </r>
       <r>    5.5731    1.0000 </r>
       <r>    5.6018    1.0000 </r>
       <r>    5.7117    1.0000 </r>
       <r>    5.8512    1.0000 </r>
       <r>    5.9359    1.0000 </r>
       <r>    6.0653    1.0000 </r>
       <r>    6.1300    1.0000 </r>
       <r>    6.1593    1.0000 </r>
       <r>    6.2064    1.0000 </r>
       <r>    9.2734    0.0000 </r>
       <r>    9.6629    0.0000 </r>
       <r>   10.5679    0.0000 </r>
       <r>   10.8093    0.0000 </r>
       <r>   10.9700    0.0000 </r>
       <r>   11.2665    0.0000 </r>
       <r>   11.6570    0.0000 </r>
       <r>   11.9780    0.0000 </r>
       <r>   12.8595    0.0000 </r>
       <r>   13.0916    0.0000 </r>
      </set>
      <set comment="kpoint 395">
       <r>    2.1837    1.0000 </r>
       <r>    2.3579    1.0000 </r>
       <r>    2.4246    1.0000 </r>
       <r>    2.4565    1.0000 </r>
       <r>    2.5518    1.0000 </r>
       <r>    2.7405    1.0000 </r>
       <r>    2.7798    1.0000 </r>
       <r>    2.8694    1.0000 </r>
       <r>    2.9499    1.0000 </r>
       <r>    2.9879    1.0000 </r>
       <r>    3.0823    1.0000 </r>
       <r>    3.1183    1.0000 </r>
       <r>    3.9305    1.0000 </r>
       <r>    4.0107    1.0000 </r>
       <r>    4.0453    1.0000 </r>
       <r>    4.3984    1.0000 </r>
       <r>    4.6416    1.0000 </r>
       <r>    4.6790    1.0000 </r>
       <r>    5.0648    1.0000 </r>
       <r>    5.4752    1.0000 </r>
       <r>    5.5316    1.0000 </r>
       <r>    5.5620    1.0000 </r>
       <r>    5.6007    1.0000 </r>
       <r>    5.7033    1.0000 </r>
       <r>    5.8476    1.0000 </r>
       <r>    5.9421    1.0000 </r>
       <r>    6.0785    1.0000 </r>
       <r>    6.1120    1.0000 </r>
       <r>    6.1521    1.0000 </r>
       <r>    6.1882    1.0000 </r>
       <r>    9.8127    0.0000 </r>
       <r>   10.0885    0.0000 </r>
       <r>   10.2168    0.0000 </r>
       <r>   10.5484    0.0000 </r>
       <r>   10.8283    0.0000 </r>
       <r>   11.3415    0.0000 </r>
       <r>   11.9763    0.0000 </r>
       <r>   12.1621    0.0000 </r>
       <r>   12.6173    0.0000 </r>
       <r>   12.7494    0.0000 </r>
      </set>
     </set>
    </set>
   </array>
  </eigenvalues>
  <separator name="orbital magnetization" >
   <v name="MAGDIPOLOUT">      0.00000000      0.00000000      0.00000000</v>
  </separator>
  <dos>
   <i name="efermi">      7.85161581 </i>
   <total>
    <array>
     <dimension dim="1">gridpoints</dimension>
     <dimension dim="2">spin</dimension>
     <field>energy</field>
     <field>total</field>
     <field>integrated</field>
     <set>
      <set comment="spin 1">
       <r>    -4.4153     0.0000     0.0000 </r>
       <r>    -4.3211     0.0000     0.0000 </r>
       <r>    -4.2269     0.0000     0.0000 </r>
       <r>    -4.1326     0.0000     0.0000 </r>
       <r>    -4.0384     0.0000     0.0000 </r>
       <r>    -3.9442     0.0000     0.0000 </r>
       <r>    -3.8499     0.0000     0.0000 </r>
       <r>    -3.7557     0.0000     0.0000 </r>
       <r>    -3.6615     0.0000     0.0000 </r>
       <r>    -3.5672     0.0000     0.0000 </r>
       <r>    -3.4730     0.0000     0.0000 </r>
       <r>    -3.3788     0.0000     0.0000 </r>
       <r>    -3.2845     0.0000     0.0000 </r>
       <r>    -3.1903     0.0000     0.0000 </r>
       <r>    -3.0961     0.0000     0.0000 </r>
       <r>    -3.0019     0.0000     0.0000 </r>
       <r>    -2.9076     0.0000     0.0000 </r>
       <r>    -2.8134     0.0000     0.0000 </r>
       <r>    -2.7192     0.0000     0.0000 </r>
       <r>    -2.6249     0.0000     0.0000 </r>
       <r>    -2.5307     0.0000     0.0000 </r>
       <r>    -2.4365     0.0000     0.0000 </r>
       <r>    -2.3422     0.0000     0.0000 </r>
       <r>    -2.2480     0.0000     0.0000 </r>
       <r>    -2.1538    -0.0001     0.0000 </r>
       <r>    -2.0595    -0.0005    -0.0001 </r>
       <r>    -1.9653    -0.0016    -0.0002 </r>
       <r>    -1.8711    -0.0039    -0.0006 </r>
       <r>    -1.7768    -0.0070    -0.0012 </r>
       <r>    -1.6826    -0.0073    -0.0019 </r>
       <r>    -1.5884     0.0029    -0.0016 </r>
       <r>    -1.4941     0.0319     0.0014 </r>
       <r>    -1.3999     0.0809     0.0090 </r>
       <r>    -1.3057     0.1389     0.0221 </r>
       <r>    -1.2114     0.1891     0.0399 </r>
       <r>    -1.1172     0.2222     0.0608 </r>
       <r>    -1.0230     0.2447     0.0839 </r>
       <r>    -0.9288     0.2729     0.1096 </r>
       <r>    -0.8345     0.3176     0.1395 </r>
       <r>    -0.7403     0.3753     0.1749 </r>
       <r>    -0.6461     0.4311     0.2155 </r>
       <r>    -0.5518     0.4723     0.2600 </r>
       <r>    -0.4576     0.4959     0.3067 </r>
       <r>    -0.3634     0.5068     0.3545 </r>
       <r>    -0.2691     0.5129     0.4028 </r>
       <r>    -0.1749     0.5195     0.4518 </r>
       <r>    -0.0807     0.5270     0.5014 </r>
       <r>     0.0136     0.5355     0.5519 </r>
       <r>     0.1078     0.5528     0.6040 </r>
       <r>     0.2020     0.5901     0.6596 </r>
       <r>     0.2963     0.6488     0.7207 </r>
       <r>     0.3905     0.7198     0.7886 </r>
       <r>     0.4847     0.7954     0.8635 </r>
       <r>     0.5790     0.8889     0.9473 </r>
       <r>     0.6732     1.0569     1.0469 </r>
       <r>     0.7674     1.3885     1.1777 </r>
       <r>     0.8617     1.9236     1.3590 </r>
       <r>     0.9559     2.5614     1.6004 </r>
       <r>     1.0501     3.0819     1.8908 </r>
       <r>     1.1443     3.3061     2.2023 </r>
       <r>     1.2386     3.2612     2.5096 </r>
       <r>     1.3328     3.2013     2.8113 </r>
       <r>     1.4270     3.4653     3.1378 </r>
       <r>     1.5213     4.2790     3.5410 </r>
       <r>     1.6155     5.6248     4.0711 </r>
       <r>     1.7097     7.2360     4.7529 </r>
       <r>     1.8040     8.6886     5.5717 </r>
       <r>     1.8982     9.5538     6.4719 </r>
       <r>     1.9924     9.6022     7.3768 </r>
       <r>     2.0867     8.9767     8.2227 </r>
       <r>     2.1809     8.1484     8.9905 </r>
       <r>     2.2751     7.5916     9.7059 </r>
       <r>     2.3694     7.4509    10.4080 </r>
       <r>     2.4636     7.5608    11.1205 </r>
       <r>     2.5578     7.7747    11.8531 </r>
       <r>     2.6521     8.1783    12.6237 </r>
       <r>     2.7463     8.9239    13.4647 </r>
       <r>     2.8405     9.9069    14.3982 </r>
       <r>     2.9347    10.7049    15.4069 </r>
       <r>     3.0290    10.9094    16.4350 </r>
       <r>     3.1232    10.5009    17.4245 </r>
       <r>     3.2174     9.8381    18.3515 </r>
       <r>     3.3117     9.3106    19.2289 </r>
       <r>     3.4059     9.0902    20.0855 </r>
       <r>     3.5001     9.1689    20.9495 </r>
       <r>     3.5944     9.4627    21.8412 </r>
       <r>     3.6886     9.8359    22.7680 </r>
       <r>     3.7828    10.1526    23.7247 </r>
       <r>     3.8771    10.3811    24.7029 </r>
       <r>     3.9713    10.6109    25.7028 </r>
       <r>     4.0655    10.9640    26.7360 </r>
       <r>     4.1598    11.5221    27.8217 </r>
       <r>     4.2540    12.2946    28.9803 </r>
       <r>     4.3482    13.1752    30.2218 </r>
       <r>     4.4425    13.9144    31.5330 </r>
       <r>     4.5367    14.1672    32.8680 </r>
       <r>     4.6309    13.6472    34.1540 </r>
       <r>     4.7252    12.3757    35.3202 </r>
       <r>     4.8194    10.8483    36.3424 </r>
       <r>     4.9136     9.8343    37.2691 </r>
       <r>     5.0078     9.8831    38.2004 </r>
       <r>     5.1021    11.0227    39.2391 </r>
       <r>     5.1963    12.8984    40.4545 </r>
       <r>     5.2905    15.0465    41.8724 </r>
       <r>     5.3848    16.9866    43.4731 </r>
       <r>     5.4790    18.2675    45.1944 </r>
       <r>     5.5732    18.7090    46.9574 </r>
       <r>     5.6675    18.6629    48.7161 </r>
       <r>     5.7617    18.8597    50.4933 </r>
       <r>     5.8559    19.8246    52.3614 </r>
       <r>     5.9502    21.3847    54.3765 </r>
       <r>     6.0444    22.6667    56.5124 </r>
       <r>     6.1386    22.5159    58.6341 </r>
       <r>     6.2329    20.1291    60.5309 </r>
       <r>     6.3271    15.6577    62.0064 </r>
       <r>     6.4213    10.3174    62.9786 </r>
       <r>     6.5156     5.7073    63.5164 </r>
       <r>     6.6098     2.8226    63.7824 </r>
       <r>     6.7040     1.6320    63.9362 </r>
       <r>     6.7982     1.4648    64.0742 </r>
       <r>     6.8925     1.6493    64.2296 </r>
       <r>     6.9867     1.8280    64.4019 </r>
       <r>     7.0809     1.9055    64.5814 </r>
       <r>     7.1752     1.9000    64.7605 </r>
       <r>     7.2694     1.8651    64.9362 </r>
       <r>     7.3636     1.8509    65.1106 </r>
       <r>     7.4579     1.8639    65.2863 </r>
       <r>     7.5521     1.8644    65.4620 </r>
       <r>     7.6463     1.8261    65.6340 </r>
       <r>     7.7406     1.7814    65.8019 </r>
       <r>     7.8348     1.7807    65.9697 </r>
       <r>     7.9290     1.8208    66.1413 </r>
       <r>     8.0233     1.8430    66.3149 </r>
       <r>     8.1175     1.8024    66.4848 </r>
       <r>     8.2117     1.7187    66.6467 </r>
       <r>     8.3060     1.6555    66.8027 </r>
       <r>     8.4002     1.6571    66.9589 </r>
       <r>     8.4944     1.7064    67.1197 </r>
       <r>     8.5887     1.7404    67.2837 </r>
       <r>     8.6829     1.7078    67.4446 </r>
       <r>     8.7771     1.6192    67.5972 </r>
       <r>     8.8713     1.5411    67.7424 </r>
       <r>     8.9656     1.5328    67.8869 </r>
       <r>     9.0598     1.5929    68.0370 </r>
       <r>     9.1540     1.6712    68.1944 </r>
       <r>     9.2483     1.7176    68.3563 </r>
       <r>     9.3425     1.7118    68.5176 </r>
       <r>     9.4367     1.6613    68.6742 </r>
       <r>     9.5310     1.5958    68.8245 </r>
       <r>     9.6252     1.5559    68.9711 </r>
       <r>     9.7194     1.5611    69.1182 </r>
       <r>     9.8137     1.5863    69.2677 </r>
       <r>     9.9079     1.5846    69.4170 </r>
       <r>    10.0021     1.5346    69.5616 </r>
       <r>    10.0964     1.4596    69.6992 </r>
       <r>    10.1906     1.3966    69.8308 </r>
       <r>    10.2848     1.3561    69.9586 </r>
       <r>    10.3791     1.3209    70.0830 </r>
       <r>    10.4733     1.2821    70.2039 </r>
       <r>    10.5675     1.2639    70.3230 </r>
       <r>    10.6618     1.3048    70.4459 </r>
       <r>    10.7560     1.4207    70.5798 </r>
       <r>    10.8502     1.5861    70.7292 </r>
       <r>    10.9444     1.7488    70.8940 </r>
       <r>    11.0387     1.8635    71.0696 </r>
       <r>    11.1329     1.9156    71.2501 </r>
       <r>    11.2271     1.9160    71.4307 </r>
       <r>    11.3214     1.8776    71.6076 </r>
       <r>    11.4156     1.8076    71.7780 </r>
       <r>    11.5098     1.7227    71.9403 </r>
       <r>    11.6041     1.6594    72.0967 </r>
       <r>    11.6983     1.6555    72.2527 </r>
       <r>    11.7925     1.7161    72.4144 </r>
       <r>    11.8868     1.8045    72.5844 </r>
       <r>    11.9810     1.8701    72.7606 </r>
       <r>    12.0752     1.8845    72.9382 </r>
       <r>    12.1695     1.8494    73.1125 </r>
       <r>    12.2637     1.7854    73.2807 </r>
       <r>    12.3579     1.7225    73.4430 </r>
       <r>    12.4522     1.6885    73.6021 </r>
       <r>    12.5464     1.6903    73.7614 </r>
       <r>    12.6406     1.7090    73.9225 </r>
       <r>    12.7348     1.7175    74.0843 </r>
       <r>    12.8291     1.7050    74.2450 </r>
       <r>    12.9233     1.6880    74.4040 </r>
       <r>    13.0175     1.7036    74.5646 </r>
       <r>    13.1118     1.7836    74.7326 </r>
       <r>    13.2060     1.9247    74.9140 </r>
       <r>    13.3002     2.0818    75.1102 </r>
       <r>    13.3945     2.1905    75.3166 </r>
       <r>    13.4887     2.2040    75.5243 </r>
       <r>    13.5829     2.1212    75.7242 </r>
       <r>    13.6772     1.9886    75.9116 </r>
       <r>    13.7714     1.8695    76.0877 </r>
       <r>    13.8656     1.8007    76.2574 </r>
       <r>    13.9599     1.7776    76.4249 </r>
       <r>    14.0541     1.7847    76.5931 </r>
       <r>    14.1483     1.8278    76.7653 </r>
       <r>    14.2426     1.9170    76.9460 </r>
       <r>    14.3368     2.0233    77.1366 </r>
       <r>    14.4310     2.0820    77.3328 </r>
       <r>    14.5253     2.0482    77.5258 </r>
       <r>    14.6195     1.9321    77.7079 </r>
       <r>    14.7137     1.7762    77.8753 </r>
       <r>    14.8079     1.6143    78.0274 </r>
       <r>    14.9022     1.4684    78.1657 </r>
       <r>    14.9964     1.3681    78.2947 </r>
       <r>    15.0906     1.3432    78.4212 </r>
       <r>    15.1849     1.3843    78.5517 </r>
       <r>    15.2791     1.4336    78.6868 </r>
       <r>    15.3733     1.4279    78.8213 </r>
       <r>    15.4676     1.3530    78.9488 </r>
       <r>    15.5618     1.2562    79.0672 </r>
       <r>    15.6560     1.2098    79.1812 </r>
       <r>    15.7503     1.2527    79.2992 </r>
       <r>    15.8445     1.3431    79.4258 </r>
       <r>    15.9387     1.3674    79.5546 </r>
       <r>    16.0330     1.2216    79.6698 </r>
       <r>    16.1272     0.9061    79.7551 </r>
       <r>    16.2214     0.5326    79.8053 </r>
       <r>    16.3157     0.2310    79.8271 </r>
       <r>    16.4099     0.0573    79.8325 </r>
       <r>    16.5041    -0.0123    79.8313 </r>
       <r>    16.5983    -0.0267    79.8288 </r>
       <r>    16.6926    -0.0168    79.8272 </r>
       <r>    16.7868     0.0084    79.8280 </r>
       <r>    16.8810     0.0452    79.8323 </r>
       <r>    16.9753     0.0819    79.8400 </r>
       <r>    17.0695     0.1010    79.8495 </r>
       <r>    17.1637     0.0925    79.8582 </r>
       <r>    17.2580     0.0632    79.8642 </r>
       <r>    17.3522     0.0310    79.8671 </r>
       <r>    17.4464     0.0142    79.8685 </r>
       <r>    17.5407     0.0236    79.8707 </r>
       <r>    17.6349     0.0583    79.8762 </r>
       <r>    17.7291     0.1037    79.8859 </r>
       <r>    17.8234     0.1362    79.8988 </r>
       <r>    17.9176     0.1389    79.9119 </r>
       <r>    18.0118     0.1130    79.9225 </r>
       <r>    18.1061     0.0750    79.9296 </r>
       <r>    18.2003     0.0423    79.9336 </r>
       <r>    18.2945     0.0233    79.9358 </r>
       <r>    18.3888     0.0174    79.9374 </r>
       <r>    18.4830     0.0205    79.9393 </r>
       <r>    18.5772     0.0285    79.9420 </r>
       <r>    18.6714     0.0377    79.9456 </r>
       <r>    18.7657     0.0454    79.9499 </r>
       <r>    18.8599     0.0506    79.9546 </r>
       <r>    18.9541     0.0530    79.9596 </r>
       <r>    19.0484     0.0518    79.9645 </r>
       <r>    19.1426     0.0480    79.9690 </r>
       <r>    19.2368     0.0449    79.9733 </r>
       <r>    19.3311     0.0431    79.9773 </r>
       <r>    19.4253     0.0388    79.9810 </r>
       <r>    19.5195     0.0285    79.9837 </r>
       <r>    19.6138     0.0153    79.9851 </r>
       <r>    19.7080     0.0066    79.9857 </r>
       <r>    19.8022     0.0065    79.9863 </r>
       <r>    19.8965     0.0129    79.9876 </r>
       <r>    19.9907     0.0196    79.9894 </r>
       <r>    20.0849     0.0213    79.9914 </r>
       <r>    20.1792     0.0171    79.9930 </r>
       <r>    20.2734     0.0103    79.9940 </r>
       <r>    20.3676     0.0053    79.9945 </r>
       <r>    20.4619     0.0044    79.9949 </r>
       <r>    20.5561     0.0065    79.9955 </r>
       <r>    20.6503     0.0093    79.9964 </r>
       <r>    20.7445     0.0109    79.9974 </r>
       <r>    20.8388     0.0108    79.9985 </r>
       <r>    20.9330     0.0088    79.9993 </r>
       <r>    21.0272     0.0057    79.9998 </r>
       <r>    21.1215     0.0026    80.0001 </r>
       <r>    21.2157     0.0005    80.0001 </r>
       <r>    21.3099    -0.0004    80.0001 </r>
       <r>    21.4042    -0.0005    80.0000 </r>
       <r>    21.4984    -0.0003    80.0000 </r>
       <r>    21.5926    -0.0001    80.0000 </r>
       <r>    21.6869     0.0000    80.0000 </r>
       <r>    21.7811     0.0000    80.0000 </r>
       <r>    21.8753     0.0000    80.0000 </r>
       <r>    21.9696     0.0000    80.0000 </r>
       <r>    22.0638     0.0000    80.0000 </r>
       <r>    22.1580     0.0000    80.0000 </r>
       <r>    22.2523     0.0000    80.0000 </r>
       <r>    22.3465     0.0000    80.0000 </r>
       <r>    22.4407     0.0000    80.0000 </r>
       <r>    22.5349     0.0000    80.0000 </r>
       <r>    22.6292     0.0000    80.0000 </r>
       <r>    22.7234     0.0000    80.0000 </r>
       <r>    22.8176     0.0000    80.0000 </r>
       <r>    22.9119     0.0000    80.0000 </r>
       <r>    23.0061     0.0000    80.0000 </r>
       <r>    23.1003     0.0000    80.0000 </r>
       <r>    23.1946     0.0000    80.0000 </r>
       <r>    23.2888     0.0000    80.0000 </r>
       <r>    23.3830     0.0000    80.0000 </r>
       <r>    23.4773     0.0000    80.0000 </r>
       <r>    23.5715     0.0000    80.0000 </r>
       <r>    23.6657     0.0000    80.0000 </r>
       <r>    23.7600     0.0000    80.0000 </r>
       <r>    23.8542     0.0000    80.0000 </r>
      </set>
     </set>
    </array>
   </total>
  </dos>
 </calculation>
 <structure name="finalpos" >
  <crystal>
   <varray name="basis" >
    <v>       2.00483002       0.00000000       2.00483002 </v>
    <v>       0.00000000      -2.00483002      -2.00483002 </v>
    <v>       7.59381742       7.59381742      -7.59381742 </v>
   </varray>
   <i name="volume">     91.56647995 </i>
   <varray name="rec_basis" >
    <v>       0.33253027      -0.16626513       0.16626513 </v>
    <v>       0.16626513      -0.33253027      -0.16626513 </v>
    <v>       0.04389536       0.04389536      -0.04389536 </v>
   </varray>
  </crystal>
  <varray name="positions" >
   <v>       0.66666667       0.33333333       0.34064678 </v>
   <v>       0.33333333       0.66666667       0.67316768 </v>
   <v>       0.66666667       0.33333333       0.81897377 </v>
   <v>       0.00000000       0.00000000       0.98554695 </v>
   <v>       0.33333333       0.66666667       0.17578855 </v>
   <v>       0.00000000       0.00000000       0.50587628 </v>
  </varray>
 </structure>
</modeling>
