<?xml version="1.0" encoding="ISO-8859-1"?>
<modeling>
 <generator>
  <i name="program" type="string">vasp </i>
  <i name="version" type="string">5.3.5  </i>
  <i name="subversion" type="string">31Mar14 (build Jun 20 2014 13:15:13) complex                          parallel </i>
  <i name="platform" type="string">LinuxIFC </i>
  <i name="date" type="string">2025 11 27 </i>
  <i name="time" type="string">08:05:55 </i>
 </generator>
 <incar>
  <i type="string" name="PREC">accurate</i>
  <i type="int" name="IALGO">    68</i>
  <i type="logical" name="ADDGRID"> T  </i>
  <i type="int" name="NELM">   200</i>
  <i type="int" name="NELMIN">     4</i>
  <i type="int" name="IBRION">     2</i>
  <i name="EDIFF">      0.00000100</i>
  <i name="EDIFFG">     -0.02000000</i>
  <i type="int" name="NSW">    30</i>
  <i type="int" name="ISIF">     3</i>
  <i name="ENCUT">    500.00000000</i>
  <i type="logical" name="LREAL"> F  </i>
  <i type="int" name="ISMEAR">     1</i>
  <i name="SIGMA">      0.30000000</i>
  <i type="logical" name="LWAVE"> F  </i>
  <i type="logical" name="LCHARG"> F  </i>
  <i type="int" name="NELM">   200</i>
 </incar>
 <kpoints>
  <generation param="Auto">
   <i name="subdivisionlength">     70.00000000 </i>
   <v type="int" name="divisions">      28       28        5 </v>
   <v name="usershift">      0.00000000       0.00000000       0.00000000 </v>
   <v name="genvec1">      0.03571429       0.00000000       0.00000000 </v>
   <v name="genvec2">      0.00000000       0.03571429       0.00000000 </v>
   <v name="genvec3">      0.00000000       0.00000000       0.20000000 </v>
   <v name="shift">      0.00000000       0.00000000       0.00000000 </v>
  </generation>
  <varray name="kpointlist" >
   <v>       0.00000000       0.00000000       0.00000000 </v>
   <v>       0.03571429       0.00000000       0.00000000 </v>
   <v>       0.07142857       0.00000000       0.00000000 </v>
   <v>       0.10714286       0.00000000       0.00000000 </v>
   <v>       0.14285714       0.00000000       0.00000000 </v>
   <v>       0.17857143       0.00000000       0.00000000 </v>
   <v>       0.21428571       0.00000000       0.00000000 </v>
   <v>       0.25000000       0.00000000       0.00000000 </v>
   <v>       0.28571429       0.00000000       0.00000000 </v>
   <v>       0.32142857       0.00000000       0.00000000 </v>
   <v>       0.35714286       0.00000000       0.00000000 </v>
   <v>       0.39285714       0.00000000       0.00000000 </v>
   <v>       0.42857143       0.00000000       0.00000000 </v>
   <v>       0.46428571       0.00000000       0.00000000 </v>
   <v>       0.50000000       0.00000000       0.00000000 </v>
   <v>       0.03571429       0.03571429       0.00000000 </v>
   <v>       0.07142857       0.03571429       0.00000000 </v>
   <v>       0.10714286       0.03571429       0.00000000 </v>
   <v>       0.14285714       0.03571429       0.00000000 </v>
   <v>       0.17857143       0.03571429       0.00000000 </v>
   <v>       0.21428571       0.03571429       0.00000000 </v>
   <v>       0.25000000       0.03571429       0.00000000 </v>
   <v>       0.28571429       0.03571429       0.00000000 </v>
   <v>       0.32142857       0.03571429       0.00000000 </v>
   <v>       0.35714286       0.03571429       0.00000000 </v>
   <v>       0.39285714       0.03571429       0.00000000 </v>
   <v>       0.42857143       0.03571429       0.00000000 </v>
   <v>       0.46428571       0.03571429       0.00000000 </v>
   <v>       0.07142857       0.07142857       0.00000000 </v>
   <v>       0.10714286       0.07142857       0.00000000 </v>
   <v>       0.14285714       0.07142857       0.00000000 </v>
   <v>       0.17857143       0.07142857       0.00000000 </v>
   <v>       0.21428571       0.07142857       0.00000000 </v>
   <v>       0.25000000       0.07142857       0.00000000 </v>
   <v>       0.28571429       0.07142857       0.00000000 </v>
   <v>       0.32142857       0.07142857       0.00000000 </v>
   <v>       0.35714286       0.07142857       0.00000000 </v>
   <v>       0.39285714       0.07142857       0.00000000 </v>
   <v>       0.42857143       0.07142857       0.00000000 </v>
   <v>       0.46428571       0.07142857       0.00000000 </v>
   <v>       0.10714286       0.10714286       0.00000000 </v>
   <v>       0.14285714       0.10714286       0.00000000 </v>
   <v>       0.17857143       0.10714286       0.00000000 </v>
   <v>       0.21428571       0.10714286       0.00000000 </v>
   <v>       0.25000000       0.10714286       0.00000000 </v>
   <v>       0.28571429       0.10714286       0.00000000 </v>
   <v>       0.32142857       0.10714286       0.00000000 </v>
   <v>       0.35714286       0.10714286       0.00000000 </v>
   <v>       0.39285714       0.10714286       0.00000000 </v>
   <v>       0.42857143       0.10714286       0.00000000 </v>
   <v>       0.14285714       0.14285714       0.00000000 </v>
   <v>       0.17857143       0.14285714       0.00000000 </v>
   <v>       0.21428571       0.14285714       0.00000000 </v>
   <v>       0.25000000       0.14285714       0.00000000 </v>
   <v>       0.28571429       0.14285714       0.00000000 </v>
   <v>       0.32142857       0.14285714       0.00000000 </v>
   <v>       0.35714286       0.14285714       0.00000000 </v>
   <v>       0.39285714       0.14285714       0.00000000 </v>
   <v>       0.42857143       0.14285714       0.00000000 </v>
   <v>       0.17857143       0.17857143       0.00000000 </v>
   <v>       0.21428571       0.17857143       0.00000000 </v>
   <v>       0.25000000       0.17857143       0.00000000 </v>
   <v>       0.28571429       0.17857143       0.00000000 </v>
   <v>       0.32142857       0.17857143       0.00000000 </v>
   <v>       0.35714286       0.17857143       0.00000000 </v>
   <v>       0.39285714       0.17857143       0.00000000 </v>
   <v>       0.21428571       0.21428571       0.00000000 </v>
   <v>       0.25000000       0.21428571       0.00000000 </v>
   <v>       0.28571429       0.21428571       0.00000000 </v>
   <v>       0.32142857       0.21428571       0.00000000 </v>
   <v>       0.35714286       0.21428571       0.00000000 </v>
   <v>       0.39285714       0.21428571       0.00000000 </v>
   <v>       0.25000000       0.25000000       0.00000000 </v>
   <v>       0.28571429       0.25000000       0.00000000 </v>
   <v>       0.32142857       0.25000000       0.00000000 </v>
   <v>       0.35714286       0.25000000       0.00000000 </v>
   <v>       0.28571429       0.28571429       0.00000000 </v>
   <v>       0.32142857       0.28571429       0.00000000 </v>
   <v>       0.35714286       0.28571429       0.00000000 </v>
   <v>       0.32142857       0.32142857       0.00000000 </v>
   <v>       0.00000000       0.00000000       0.20000000 </v>
   <v>       0.03571429       0.00000000       0.20000000 </v>
   <v>       0.07142857       0.00000000       0.20000000 </v>
   <v>       0.10714286       0.00000000       0.20000000 </v>
   <v>       0.14285714       0.00000000       0.20000000 </v>
   <v>       0.17857143       0.00000000       0.20000000 </v>
   <v>       0.21428571       0.00000000       0.20000000 </v>
   <v>       0.25000000       0.00000000       0.20000000 </v>
   <v>       0.28571429       0.00000000       0.20000000 </v>
   <v>       0.32142857       0.00000000       0.20000000 </v>
   <v>       0.35714286       0.00000000       0.20000000 </v>
   <v>       0.39285714       0.00000000       0.20000000 </v>
   <v>       0.42857143       0.00000000       0.20000000 </v>
   <v>       0.46428571       0.00000000       0.20000000 </v>
   <v>       0.50000000       0.00000000       0.20000000 </v>
   <v>      -0.46428571       0.00000000       0.20000000 </v>
   <v>      -0.42857143       0.00000000       0.20000000 </v>
   <v>      -0.39285714       0.00000000       0.20000000 </v>
   <v>      -0.35714286       0.00000000       0.20000000 </v>
   <v>      -0.32142857       0.00000000       0.20000000 </v>
   <v>      -0.28571429       0.00000000       0.20000000 </v>
   <v>      -0.25000000       0.00000000       0.20000000 </v>
   <v>      -0.21428571       0.00000000       0.20000000 </v>
   <v>      -0.17857143       0.00000000       0.20000000 </v>
   <v>      -0.14285714       0.00000000       0.20000000 </v>
   <v>      -0.10714286       0.00000000       0.20000000 </v>
   <v>      -0.07142857       0.00000000       0.20000000 </v>
   <v>      -0.03571429       0.00000000       0.20000000 </v>
   <v>       0.03571429       0.03571429       0.20000000 </v>
   <v>       0.07142857       0.03571429       0.20000000 </v>
   <v>       0.10714286       0.03571429       0.20000000 </v>
   <v>       0.14285714       0.03571429       0.20000000 </v>
   <v>       0.17857143       0.03571429       0.20000000 </v>
   <v>       0.21428571       0.03571429       0.20000000 </v>
   <v>       0.25000000       0.03571429       0.20000000 </v>
   <v>       0.28571429       0.03571429       0.20000000 </v>
   <v>       0.32142857       0.03571429       0.20000000 </v>
   <v>       0.35714286       0.03571429       0.20000000 </v>
   <v>       0.39285714       0.03571429       0.20000000 </v>
   <v>       0.42857143       0.03571429       0.20000000 </v>
   <v>       0.46428571       0.03571429       0.20000000 </v>
   <v>       0.50000000       0.03571429       0.20000000 </v>
   <v>      -0.46428571       0.03571429       0.20000000 </v>
   <v>      -0.42857143       0.03571429       0.20000000 </v>
   <v>      -0.39285714       0.03571429       0.20000000 </v>
   <v>      -0.35714286       0.03571429       0.20000000 </v>
   <v>      -0.32142857       0.03571429       0.20000000 </v>
   <v>      -0.28571429       0.03571429       0.20000000 </v>
   <v>      -0.25000000       0.03571429       0.20000000 </v>
   <v>      -0.21428571       0.03571429       0.20000000 </v>
   <v>      -0.17857143       0.03571429       0.20000000 </v>
   <v>      -0.14285714       0.03571429       0.20000000 </v>
   <v>      -0.10714286       0.03571429       0.20000000 </v>
   <v>       0.07142857       0.07142857       0.20000000 </v>
   <v>       0.10714286       0.07142857       0.20000000 </v>
   <v>       0.14285714       0.07142857       0.20000000 </v>
   <v>       0.17857143       0.07142857       0.20000000 </v>
   <v>       0.21428571       0.07142857       0.20000000 </v>
   <v>       0.25000000       0.07142857       0.20000000 </v>
   <v>       0.28571429       0.07142857       0.20000000 </v>
   <v>       0.32142857       0.07142857       0.20000000 </v>
   <v>       0.35714286       0.07142857       0.20000000 </v>
   <v>       0.39285714       0.07142857       0.20000000 </v>
   <v>       0.42857143       0.07142857       0.20000000 </v>
   <v>       0.46428571       0.07142857       0.20000000 </v>
   <v>       0.50000000       0.07142857       0.20000000 </v>
   <v>      -0.46428571       0.07142857       0.20000000 </v>
   <v>      -0.42857143       0.07142857       0.20000000 </v>
   <v>      -0.39285714       0.07142857       0.20000000 </v>
   <v>      -0.35714286       0.07142857       0.20000000 </v>
   <v>      -0.32142857       0.07142857       0.20000000 </v>
   <v>      -0.28571429       0.07142857       0.20000000 </v>
   <v>      -0.25000000       0.07142857       0.20000000 </v>
   <v>      -0.21428571       0.07142857       0.20000000 </v>
   <v>      -0.17857143       0.07142857       0.20000000 </v>
   <v>       0.10714286       0.10714286       0.20000000 </v>
   <v>       0.14285714       0.10714286       0.20000000 </v>
   <v>       0.17857143       0.10714286       0.20000000 </v>
   <v>       0.21428571       0.10714286       0.20000000 </v>
   <v>       0.25000000       0.10714286       0.20000000 </v>
   <v>       0.28571429       0.10714286       0.20000000 </v>
   <v>       0.32142857       0.10714286       0.20000000 </v>
   <v>       0.35714286       0.10714286       0.20000000 </v>
   <v>       0.39285714       0.10714286       0.20000000 </v>
   <v>       0.42857143       0.10714286       0.20000000 </v>
   <v>       0.46428571       0.10714286       0.20000000 </v>
   <v>       0.50000000       0.10714286       0.20000000 </v>
   <v>      -0.46428571       0.10714286       0.20000000 </v>
   <v>      -0.42857143       0.10714286       0.20000000 </v>
   <v>      -0.39285714       0.10714286       0.20000000 </v>
   <v>      -0.35714286       0.10714286       0.20000000 </v>
   <v>      -0.32142857       0.10714286       0.20000000 </v>
   <v>      -0.28571429       0.10714286       0.20000000 </v>
   <v>      -0.25000000       0.10714286       0.20000000 </v>
   <v>       0.14285714       0.14285714       0.20000000 </v>
   <v>       0.17857143       0.14285714       0.20000000 </v>
   <v>       0.21428571       0.14285714       0.20000000 </v>
   <v>       0.25000000       0.14285714       0.20000000 </v>
   <v>       0.28571429       0.14285714       0.20000000 </v>
   <v>       0.32142857       0.14285714       0.20000000 </v>
   <v>       0.35714286       0.14285714       0.20000000 </v>
   <v>       0.39285714       0.14285714       0.20000000 </v>
   <v>       0.42857143       0.14285714       0.20000000 </v>
   <v>       0.46428571       0.14285714       0.20000000 </v>
   <v>       0.50000000       0.14285714       0.20000000 </v>
   <v>      -0.46428571       0.14285714       0.20000000 </v>
   <v>      -0.42857143       0.14285714       0.20000000 </v>
   <v>      -0.39285714       0.14285714       0.20000000 </v>
   <v>      -0.35714286       0.14285714       0.20000000 </v>
   <v>      -0.32142857       0.14285714       0.20000000 </v>
   <v>       0.17857143       0.17857143       0.20000000 </v>
   <v>       0.21428571       0.17857143       0.20000000 </v>
   <v>       0.25000000       0.17857143       0.20000000 </v>
   <v>       0.28571429       0.17857143       0.20000000 </v>
   <v>       0.32142857       0.17857143       0.20000000 </v>
   <v>       0.35714286       0.17857143       0.20000000 </v>
   <v>       0.39285714       0.17857143       0.20000000 </v>
   <v>       0.42857143       0.17857143       0.20000000 </v>
   <v>       0.46428571       0.17857143       0.20000000 </v>
   <v>       0.50000000       0.17857143       0.20000000 </v>
   <v>      -0.46428571       0.17857143       0.20000000 </v>
   <v>      -0.42857143       0.17857143       0.20000000 </v>
   <v>      -0.39285714       0.17857143       0.20000000 </v>
   <v>       0.21428571       0.21428571       0.20000000 </v>
   <v>       0.25000000       0.21428571       0.20000000 </v>
   <v>       0.28571429       0.21428571       0.20000000 </v>
   <v>       0.32142857       0.21428571       0.20000000 </v>
   <v>       0.35714286       0.21428571       0.20000000 </v>
   <v>       0.39285714       0.21428571       0.20000000 </v>
   <v>       0.42857143       0.21428571       0.20000000 </v>
   <v>       0.46428571       0.21428571       0.20000000 </v>
   <v>       0.50000000       0.21428571       0.20000000 </v>
   <v>      -0.46428571       0.21428571       0.20000000 </v>
   <v>       0.25000000       0.25000000       0.20000000 </v>
   <v>       0.28571429       0.25000000       0.20000000 </v>
   <v>       0.32142857       0.25000000       0.20000000 </v>
   <v>       0.35714286       0.25000000       0.20000000 </v>
   <v>       0.39285714       0.25000000       0.20000000 </v>
   <v>       0.42857143       0.25000000       0.20000000 </v>
   <v>       0.46428571       0.25000000       0.20000000 </v>
   <v>       0.28571429       0.28571429       0.20000000 </v>
   <v>       0.32142857       0.28571429       0.20000000 </v>
   <v>       0.35714286       0.28571429       0.20000000 </v>
   <v>       0.39285714       0.28571429       0.20000000 </v>
   <v>       0.32142857       0.32142857       0.20000000 </v>
   <v>       0.00000000       0.00000000       0.40000000 </v>
   <v>       0.03571429       0.00000000       0.40000000 </v>
   <v>       0.07142857       0.00000000       0.40000000 </v>
   <v>       0.10714286       0.00000000       0.40000000 </v>
   <v>       0.14285714       0.00000000       0.40000000 </v>
   <v>       0.17857143       0.00000000       0.40000000 </v>
   <v>       0.21428571       0.00000000       0.40000000 </v>
   <v>       0.25000000       0.00000000       0.40000000 </v>
   <v>       0.28571429       0.00000000       0.40000000 </v>
   <v>       0.32142857       0.00000000       0.40000000 </v>
   <v>       0.35714286       0.00000000       0.40000000 </v>
   <v>       0.39285714       0.00000000       0.40000000 </v>
   <v>       0.42857143       0.00000000       0.40000000 </v>
   <v>       0.46428571       0.00000000       0.40000000 </v>
   <v>       0.50000000       0.00000000       0.40000000 </v>
   <v>      -0.46428571       0.00000000       0.40000000 </v>
   <v>      -0.42857143       0.00000000       0.40000000 </v>
   <v>      -0.39285714       0.00000000       0.40000000 </v>
   <v>      -0.35714286       0.00000000       0.40000000 </v>
   <v>      -0.32142857       0.00000000       0.40000000 </v>
   <v>      -0.28571429       0.00000000       0.40000000 </v>
   <v>      -0.25000000       0.00000000       0.40000000 </v>
   <v>      -0.21428571       0.00000000       0.40000000 </v>
   <v>      -0.17857143       0.00000000       0.40000000 </v>
   <v>      -0.14285714       0.00000000       0.40000000 </v>
   <v>      -0.10714286       0.00000000       0.40000000 </v>
   <v>      -0.07142857       0.00000000       0.40000000 </v>
   <v>      -0.03571429       0.00000000       0.40000000 </v>
   <v>       0.03571429       0.03571429       0.40000000 </v>
   <v>       0.07142857       0.03571429       0.40000000 </v>
   <v>       0.10714286       0.03571429       0.40000000 </v>
   <v>       0.14285714       0.03571429       0.40000000 </v>
   <v>       0.17857143       0.03571429       0.40000000 </v>
   <v>       0.21428571       0.03571429       0.40000000 </v>
   <v>       0.25000000       0.03571429       0.40000000 </v>
   <v>       0.28571429       0.03571429       0.40000000 </v>
   <v>       0.32142857       0.03571429       0.40000000 </v>
   <v>       0.35714286       0.03571429       0.40000000 </v>
   <v>       0.39285714       0.03571429       0.40000000 </v>
   <v>       0.42857143       0.03571429       0.40000000 </v>
   <v>       0.46428571       0.03571429       0.40000000 </v>
   <v>       0.50000000       0.03571429       0.40000000 </v>
   <v>      -0.46428571       0.03571429       0.40000000 </v>
   <v>      -0.42857143       0.03571429       0.40000000 </v>
   <v>      -0.39285714       0.03571429       0.40000000 </v>
   <v>      -0.35714286       0.03571429       0.40000000 </v>
   <v>      -0.32142857       0.03571429       0.40000000 </v>
   <v>      -0.28571429       0.03571429       0.40000000 </v>
   <v>      -0.25000000       0.03571429       0.40000000 </v>
   <v>      -0.21428571       0.03571429       0.40000000 </v>
   <v>      -0.17857143       0.03571429       0.40000000 </v>
   <v>      -0.14285714       0.03571429       0.40000000 </v>
   <v>      -0.10714286       0.03571429       0.40000000 </v>
   <v>       0.07142857       0.07142857       0.40000000 </v>
   <v>       0.10714286       0.07142857       0.40000000 </v>
   <v>       0.14285714       0.07142857       0.40000000 </v>
   <v>       0.17857143       0.07142857       0.40000000 </v>
   <v>       0.21428571       0.07142857       0.40000000 </v>
   <v>       0.25000000       0.07142857       0.40000000 </v>
   <v>       0.28571429       0.07142857       0.40000000 </v>
   <v>       0.32142857       0.07142857       0.40000000 </v>
   <v>       0.35714286       0.07142857       0.40000000 </v>
   <v>       0.39285714       0.07142857       0.40000000 </v>
   <v>       0.42857143       0.07142857       0.40000000 </v>
   <v>       0.46428571       0.07142857       0.40000000 </v>
   <v>       0.50000000       0.07142857       0.40000000 </v>
   <v>      -0.46428571       0.07142857       0.40000000 </v>
   <v>      -0.42857143       0.07142857       0.40000000 </v>
   <v>      -0.39285714       0.07142857       0.40000000 </v>
   <v>      -0.35714286       0.07142857       0.40000000 </v>
   <v>      -0.32142857       0.07142857       0.40000000 </v>
   <v>      -0.28571429       0.07142857       0.40000000 </v>
   <v>      -0.25000000       0.07142857       0.40000000 </v>
   <v>      -0.21428571       0.07142857       0.40000000 </v>
   <v>      -0.17857143       0.07142857       0.40000000 </v>
   <v>       0.10714286       0.10714286       0.40000000 </v>
   <v>       0.14285714       0.10714286       0.40000000 </v>
   <v>       0.17857143       0.10714286       0.40000000 </v>
   <v>       0.21428571       0.10714286       0.40000000 </v>
   <v>       0.25000000       0.10714286       0.40000000 </v>
   <v>       0.28571429       0.10714286       0.40000000 </v>
   <v>       0.32142857       0.10714286       0.40000000 </v>
   <v>       0.35714286       0.10714286       0.40000000 </v>
   <v>       0.39285714       0.10714286       0.40000000 </v>
   <v>       0.42857143       0.10714286       0.40000000 </v>
   <v>       0.46428571       0.10714286       0.40000000 </v>
   <v>       0.50000000       0.10714286       0.40000000 </v>
   <v>      -0.46428571       0.10714286       0.40000000 </v>
   <v>      -0.42857143       0.10714286       0.40000000 </v>
   <v>      -0.39285714       0.10714286       0.40000000 </v>
   <v>      -0.35714286       0.10714286       0.40000000 </v>
   <v>      -0.32142857       0.10714286       0.40000000 </v>
   <v>      -0.28571429       0.10714286       0.40000000 </v>
   <v>      -0.25000000       0.10714286       0.40000000 </v>
   <v>       0.14285714       0.14285714       0.40000000 </v>
   <v>       0.17857143       0.14285714       0.40000000 </v>
   <v>       0.21428571       0.14285714       0.40000000 </v>
   <v>       0.25000000       0.14285714       0.40000000 </v>
   <v>       0.28571429       0.14285714       0.40000000 </v>
   <v>       0.32142857       0.14285714       0.40000000 </v>
   <v>       0.35714286       0.14285714       0.40000000 </v>
   <v>       0.39285714       0.14285714       0.40000000 </v>
   <v>       0.42857143       0.14285714       0.40000000 </v>
   <v>       0.46428571       0.14285714       0.40000000 </v>
   <v>       0.50000000       0.14285714       0.40000000 </v>
   <v>      -0.46428571       0.14285714       0.40000000 </v>
   <v>      -0.42857143       0.14285714       0.40000000 </v>
   <v>      -0.39285714       0.14285714       0.40000000 </v>
   <v>      -0.35714286       0.14285714       0.40000000 </v>
   <v>      -0.32142857       0.14285714       0.40000000 </v>
   <v>       0.17857143       0.17857143       0.40000000 </v>
   <v>       0.21428571       0.17857143       0.40000000 </v>
   <v>       0.25000000       0.17857143       0.40000000 </v>
   <v>       0.28571429       0.17857143       0.40000000 </v>
   <v>       0.32142857       0.17857143       0.40000000 </v>
   <v>       0.35714286       0.17857143       0.40000000 </v>
   <v>       0.39285714       0.17857143       0.40000000 </v>
   <v>       0.42857143       0.17857143       0.40000000 </v>
   <v>       0.46428571       0.17857143       0.40000000 </v>
   <v>       0.50000000       0.17857143       0.40000000 </v>
   <v>      -0.46428571       0.17857143       0.40000000 </v>
   <v>      -0.42857143       0.17857143       0.40000000 </v>
   <v>      -0.39285714       0.17857143       0.40000000 </v>
   <v>       0.21428571       0.21428571       0.40000000 </v>
   <v>       0.25000000       0.21428571       0.40000000 </v>
   <v>       0.28571429       0.21428571       0.40000000 </v>
   <v>       0.32142857       0.21428571       0.40000000 </v>
   <v>       0.35714286       0.21428571       0.40000000 </v>
   <v>       0.39285714       0.21428571       0.40000000 </v>
   <v>       0.42857143       0.21428571       0.40000000 </v>
   <v>       0.46428571       0.21428571       0.40000000 </v>
   <v>       0.50000000       0.21428571       0.40000000 </v>
   <v>      -0.46428571       0.21428571       0.40000000 </v>
   <v>       0.25000000       0.25000000       0.40000000 </v>
   <v>       0.28571429       0.25000000       0.40000000 </v>
   <v>       0.32142857       0.25000000       0.40000000 </v>
   <v>       0.35714286       0.25000000       0.40000000 </v>
   <v>       0.39285714       0.25000000       0.40000000 </v>
   <v>       0.42857143       0.25000000       0.40000000 </v>
   <v>       0.46428571       0.25000000       0.40000000 </v>
   <v>       0.28571429       0.28571429       0.40000000 </v>
   <v>       0.32142857       0.28571429       0.40000000 </v>
   <v>       0.35714286       0.28571429       0.40000000 </v>
   <v>       0.39285714       0.28571429       0.40000000 </v>
   <v>       0.32142857       0.32142857       0.40000000 </v>
  </varray>
  <varray name="weights" >
   <v>       0.00025510 </v>
   <v>       0.00153061 </v>
   <v>       0.00153061 </v>
   <v>       0.00153061 </v>
   <v>       0.00153061 </v>
   <v>       0.00153061 </v>
   <v>       0.00153061 </v>
   <v>       0.00153061 </v>
   <v>       0.00153061 </v>
   <v>       0.00153061 </v>
   <v>       0.00153061 </v>
   <v>       0.00153061 </v>
   <v>       0.00153061 </v>
   <v>       0.00153061 </v>
   <v>       0.00076531 </v>
   <v>       0.00153061 </v>
   <v>       0.00306122 </v>
   <v>       0.00306122 </v>
   <v>       0.00306122 </v>
   <v>       0.00306122 </v>
   <v>       0.00306122 </v>
   <v>       0.00306122 </v>
   <v>       0.00306122 </v>
   <v>       0.00306122 </v>
   <v>       0.00306122 </v>
   <v>       0.00306122 </v>
   <v>       0.00306122 </v>
   <v>       0.00306122 </v>
   <v>       0.00153061 </v>
   <v>       0.00306122 </v>
   <v>       0.00306122 </v>
   <v>       0.00306122 </v>
   <v>       0.00306122 </v>
   <v>       0.00306122 </v>
   <v>       0.00306122 </v>
   <v>       0.00306122 </v>
   <v>       0.00306122 </v>
   <v>       0.00306122 </v>
   <v>       0.00306122 </v>
   <v>       0.00153061 </v>
   <v>       0.00153061 </v>
   <v>       0.00306122 </v>
   <v>       0.00306122 </v>
   <v>       0.00306122 </v>
   <v>       0.00306122 </v>
   <v>       0.00306122 </v>
   <v>       0.00306122 </v>
   <v>       0.00306122 </v>
   <v>       0.00306122 </v>
   <v>       0.00306122 </v>
   <v>       0.00153061 </v>
   <v>       0.00306122 </v>
   <v>       0.00306122 </v>
   <v>       0.00306122 </v>
   <v>       0.00306122 </v>
   <v>       0.00306122 </v>
   <v>       0.00306122 </v>
   <v>       0.00306122 </v>
   <v>       0.00153061 </v>
   <v>       0.00153061 </v>
   <v>       0.00306122 </v>
   <v>       0.00306122 </v>
   <v>       0.00306122 </v>
   <v>       0.00306122 </v>
   <v>       0.00306122 </v>
   <v>       0.00306122 </v>
   <v>       0.00153061 </v>
   <v>       0.00306122 </v>
   <v>       0.00306122 </v>
   <v>       0.00306122 </v>
   <v>       0.00306122 </v>
   <v>       0.00153061 </v>
   <v>       0.00153061 </v>
   <v>       0.00306122 </v>
   <v>       0.00306122 </v>
   <v>       0.00306122 </v>
   <v>       0.00153061 </v>
   <v>       0.00306122 </v>
   <v>       0.00153061 </v>
   <v>       0.00153061 </v>
   <v>       0.00051020 </v>
   <v>       0.00153061 </v>
   <v>       0.00153061 </v>
   <v>       0.00153061 </v>
   <v>       0.00153061 </v>
   <v>       0.00153061 </v>
   <v>       0.00153061 </v>
   <v>       0.00153061 </v>
   <v>       0.00153061 </v>
   <v>       0.00153061 </v>
   <v>       0.00153061 </v>
   <v>       0.00153061 </v>
   <v>       0.00153061 </v>
   <v>       0.00153061 </v>
   <v>       0.00153061 </v>
   <v>       0.00153061 </v>
   <v>       0.00153061 </v>
   <v>       0.00153061 </v>
   <v>       0.00153061 </v>
   <v>       0.00153061 </v>
   <v>       0.00153061 </v>
   <v>       0.00153061 </v>
   <v>       0.00153061 </v>
   <v>       0.00153061 </v>
   <v>       0.00153061 </v>
   <v>       0.00153061 </v>
   <v>       0.00153061 </v>
   <v>       0.00153061 </v>
   <v>       0.00306122 </v>
   <v>       0.00306122 </v>
   <v>       0.00306122 </v>
   <v>       0.00306122 </v>
   <v>       0.00306122 </v>
   <v>       0.00306122 </v>
   <v>       0.00306122 </v>
   <v>       0.00306122 </v>
   <v>       0.00306122 </v>
   <v>       0.00306122 </v>
   <v>       0.00306122 </v>
   <v>       0.00306122 </v>
   <v>       0.00306122 </v>
   <v>       0.00306122 </v>
   <v>       0.00306122 </v>
   <v>       0.00306122 </v>
   <v>       0.00306122 </v>
   <v>       0.00306122 </v>
   <v>       0.00306122 </v>
   <v>       0.00306122 </v>
   <v>       0.00306122 </v>
   <v>       0.00306122 </v>
   <v>       0.00306122 </v>
   <v>       0.00306122 </v>
   <v>       0.00306122 </v>
   <v>       0.00306122 </v>
   <v>       0.00306122 </v>
   <v>       0.00306122 </v>
   <v>       0.00306122 </v>
   <v>       0.00306122 </v>
   <v>       0.00306122 </v>
   <v>       0.00306122 </v>
   <v>       0.00306122 </v>
   <v>       0.00306122 </v>
   <v>       0.00306122 </v>
   <v>       0.00306122 </v>
   <v>       0.00306122 </v>
   <v>       0.00306122 </v>
   <v>       0.00306122 </v>
   <v>       0.00306122 </v>
   <v>       0.00306122 </v>
   <v>       0.00306122 </v>
   <v>       0.00306122 </v>
   <v>       0.00306122 </v>
   <v>       0.00306122 </v>
   <v>       0.00306122 </v>
   <v>       0.00306122 </v>
   <v>       0.00306122 </v>
   <v>       0.00306122 </v>
   <v>       0.00306122 </v>
   <v>       0.00306122 </v>
   <v>       0.00306122 </v>
   <v>       0.00306122 </v>
   <v>       0.00306122 </v>
   <v>       0.00306122 </v>
   <v>       0.00306122 </v>
   <v>       0.00306122 </v>
   <v>       0.00306122 </v>
   <v>       0.00306122 </v>
   <v>       0.00306122 </v>
   <v>       0.00306122 </v>
   <v>       0.00306122 </v>
   <v>       0.00306122 </v>
   <v>       0.00306122 </v>
   <v>       0.00306122 </v>
   <v>       0.00306122 </v>
   <v>       0.00306122 </v>
   <v>       0.00306122 </v>
   <v>       0.00306122 </v>
   <v>       0.00306122 </v>
   <v>       0.00306122 </v>
   <v>       0.00306122 </v>
   <v>       0.00306122 </v>
   <v>       0.00306122 </v>
   <v>       0.00306122 </v>
   <v>       0.00306122 </v>
   <v>       0.00306122 </v>
   <v>       0.00306122 </v>
   <v>       0.00306122 </v>
   <v>       0.00306122 </v>
   <v>       0.00306122 </v>
   <v>       0.00306122 </v>
   <v>       0.00306122 </v>
   <v>       0.00306122 </v>
   <v>       0.00306122 </v>
   <v>       0.00306122 </v>
   <v>       0.00306122 </v>
   <v>       0.00306122 </v>
   <v>       0.00306122 </v>
   <v>       0.00306122 </v>
   <v>       0.00306122 </v>
   <v>       0.00306122 </v>
   <v>       0.00306122 </v>
   <v>       0.00306122 </v>
   <v>       0.00306122 </v>
   <v>       0.00306122 </v>
   <v>       0.00306122 </v>
   <v>       0.00306122 </v>
   <v>       0.00306122 </v>
   <v>       0.00306122 </v>
   <v>       0.00306122 </v>
   <v>       0.00306122 </v>
   <v>       0.00306122 </v>
   <v>       0.00306122 </v>
   <v>       0.00306122 </v>
   <v>       0.00306122 </v>
   <v>       0.00306122 </v>
   <v>       0.00306122 </v>
   <v>       0.00306122 </v>
   <v>       0.00306122 </v>
   <v>       0.00306122 </v>
   <v>       0.00306122 </v>
   <v>       0.00306122 </v>
   <v>       0.00306122 </v>
   <v>       0.00306122 </v>
   <v>       0.00306122 </v>
   <v>       0.00306122 </v>
   <v>       0.00051020 </v>
   <v>       0.00153061 </v>
   <v>       0.00153061 </v>
   <v>       0.00153061 </v>
   <v>       0.00153061 </v>
   <v>       0.00153061 </v>
   <v>       0.00153061 </v>
   <v>       0.00153061 </v>
   <v>       0.00153061 </v>
   <v>       0.00153061 </v>
   <v>       0.00153061 </v>
   <v>       0.00153061 </v>
   <v>       0.00153061 </v>
   <v>       0.00153061 </v>
   <v>       0.00153061 </v>
   <v>       0.00153061 </v>
   <v>       0.00153061 </v>
   <v>       0.00153061 </v>
   <v>       0.00153061 </v>
   <v>       0.00153061 </v>
   <v>       0.00153061 </v>
   <v>       0.00153061 </v>
   <v>       0.00153061 </v>
   <v>       0.00153061 </v>
   <v>       0.00153061 </v>
   <v>       0.00153061 </v>
   <v>       0.00153061 </v>
   <v>       0.00153061 </v>
   <v>       0.00306122 </v>
   <v>       0.00306122 </v>
   <v>       0.00306122 </v>
   <v>       0.00306122 </v>
   <v>       0.00306122 </v>
   <v>       0.00306122 </v>
   <v>       0.00306122 </v>
   <v>       0.00306122 </v>
   <v>       0.00306122 </v>
   <v>       0.00306122 </v>
   <v>       0.00306122 </v>
   <v>       0.00306122 </v>
   <v>       0.00306122 </v>
   <v>       0.00306122 </v>
   <v>       0.00306122 </v>
   <v>       0.00306122 </v>
   <v>       0.00306122 </v>
   <v>       0.00306122 </v>
   <v>       0.00306122 </v>
   <v>       0.00306122 </v>
   <v>       0.00306122 </v>
   <v>       0.00306122 </v>
   <v>       0.00306122 </v>
   <v>       0.00306122 </v>
   <v>       0.00306122 </v>
   <v>       0.00306122 </v>
   <v>       0.00306122 </v>
   <v>       0.00306122 </v>
   <v>       0.00306122 </v>
   <v>       0.00306122 </v>
   <v>       0.00306122 </v>
   <v>       0.00306122 </v>
   <v>       0.00306122 </v>
   <v>       0.00306122 </v>
   <v>       0.00306122 </v>
   <v>       0.00306122 </v>
   <v>       0.00306122 </v>
   <v>       0.00306122 </v>
   <v>       0.00306122 </v>
   <v>       0.00306122 </v>
   <v>       0.00306122 </v>
   <v>       0.00306122 </v>
   <v>       0.00306122 </v>
   <v>       0.00306122 </v>
   <v>       0.00306122 </v>
   <v>       0.00306122 </v>
   <v>       0.00306122 </v>
   <v>       0.00306122 </v>
   <v>       0.00306122 </v>
   <v>       0.00306122 </v>
   <v>       0.00306122 </v>
   <v>       0.00306122 </v>
   <v>       0.00306122 </v>
   <v>       0.00306122 </v>
   <v>       0.00306122 </v>
   <v>       0.00306122 </v>
   <v>       0.00306122 </v>
   <v>       0.00306122 </v>
   <v>       0.00306122 </v>
   <v>       0.00306122 </v>
   <v>       0.00306122 </v>
   <v>       0.00306122 </v>
   <v>       0.00306122 </v>
   <v>       0.00306122 </v>
   <v>       0.00306122 </v>
   <v>       0.00306122 </v>
   <v>       0.00306122 </v>
   <v>       0.00306122 </v>
   <v>       0.00306122 </v>
   <v>       0.00306122 </v>
   <v>       0.00306122 </v>
   <v>       0.00306122 </v>
   <v>       0.00306122 </v>
   <v>       0.00306122 </v>
   <v>       0.00306122 </v>
   <v>       0.00306122 </v>
   <v>       0.00306122 </v>
   <v>       0.00306122 </v>
   <v>       0.00306122 </v>
   <v>       0.00306122 </v>
   <v>       0.00306122 </v>
   <v>       0.00306122 </v>
   <v>       0.00306122 </v>
   <v>       0.00306122 </v>
   <v>       0.00306122 </v>
   <v>       0.00306122 </v>
   <v>       0.00306122 </v>
   <v>       0.00306122 </v>
   <v>       0.00306122 </v>
   <v>       0.00306122 </v>
   <v>       0.00306122 </v>
   <v>       0.00306122 </v>
   <v>       0.00306122 </v>
   <v>       0.00306122 </v>
   <v>       0.00306122 </v>
   <v>       0.00306122 </v>
   <v>       0.00306122 </v>
   <v>       0.00306122 </v>
   <v>       0.00306122 </v>
   <v>       0.00306122 </v>
   <v>       0.00306122 </v>
   <v>       0.00306122 </v>
   <v>       0.00306122 </v>
   <v>       0.00306122 </v>
   <v>       0.00306122 </v>
   <v>       0.00306122 </v>
   <v>       0.00306122 </v>
   <v>       0.00306122 </v>
   <v>       0.00306122 </v>
   <v>       0.00306122 </v>
   <v>       0.00306122 </v>
   <v>       0.00306122 </v>
   <v>       0.00306122 </v>
   <v>       0.00306122 </v>
   <v>       0.00306122 </v>
   <v>       0.00306122 </v>
   <v>       0.00306122 </v>
  </varray>
 </kpoints>
 <parameters>
  <separator name="general" >
   <i type="string" name="SYSTEM">unknown system</i>
   <i type="logical" name="LCOMPAT"> F  </i>
  </separator>
  <separator name="electronic" >
   <i type="string" name="PREC">accura</i>
   <i name="ENMAX">    500.00000000</i>
   <i name="ENAUG">    586.98000000</i>
   <i name="EDIFF">      0.00000100</i>
   <i type="int" name="IALGO">    68</i>
   <i type="int" name="IWAVPR">    11</i>
   <i type="int" name="NBANDS">    40</i>
   <i name="NELECT">     66.00000000</i>
   <i type="int" name="TURBO">     0</i>
   <i type="int" name="IRESTART">     0</i>
   <i type="int" name="NREBOOT">     0</i>
   <i type="int" name="NMIN">     0</i>
   <i name="EREF">      0.00000000</i>
   <separator name="electronic smearing" >
    <i type="int" name="ISMEAR">     1</i>
    <i name="SIGMA">      0.30000000</i>
    <i name="KSPACING">      0.50000000</i>
    <i type="logical" name="KGAMMA"> T  </i>
   </separator>
   <separator name="electronic projectors" >
    <i type="logical" name="LREAL"> F  </i>
    <v name="ROPT">      0.00000000      0.00000000      0.00000000</v>
    <i type="int" name="LMAXPAW">  -100</i>
    <i type="int" name="LMAXMIX">     2</i>
    <i type="logical" name="NLSPLINE"> F  </i>
   </separator>
   <separator name="electronic startup" >
    <i type="int" name="ISTART">     0</i>
    <i type="int" name="ICHARG">     2</i>
    <i type="int" name="INIWAV">     1</i>
   </separator>
   <separator name="electronic spin" >
    <i type="int" name="ISPIN">     1</i>
    <i type="logical" name="LNONCOLLINEAR"> F  </i>
    <v name="MAGMOM">      1.00000000      1.00000000      1.00000000      1.00000000      1.00000000      1.00000000</v>
    <i name="NUPDOWN">     -1.00000000</i>
    <i type="logical" name="LSORBIT"> F  </i>
    <v name="SAXIS">      0.00000000      0.00000000      1.00000000</v>
    <i type="logical" name="LSPIRAL"> F  </i>
    <v name="QSPIRAL">      0.00000000      0.00000000      0.00000000</v>
    <i type="logical" name="LZEROZ"> F  </i>
   </separator>
   <separator name="electronic exchange-correlation" >
    <i type="logical" name="LASPH"> F  </i>
    <i type="logical" name="LMETAGGA"> F  </i>
   </separator>
   <separator name="electronic convergence" >
    <i type="int" name="NELM">   200</i>
    <i type="int" name="NELMDL">     0</i>
    <i type="int" name="NELMIN">     4</i>
    <i name="ENINI">    500.00000000</i>
    <separator name="electronic convergence detail" >
     <i type="logical" name="LDIAG"> T  </i>
     <i type="logical" name="LSUBROT"> F  </i>
     <i name="WEIMIN">      0.00100000</i>
     <i name="EBREAK">      0.00000001</i>
     <i name="DEPER">      0.30000000</i>
     <i type="int" name="NRMM">     4</i>
     <i name="TIME">      0.40000000</i>
    </separator>
   </separator>
   <separator name="electronic mixer" >
    <i name="AMIX">      0.40000000</i>
    <i name="BMIX">      1.00000000</i>
    <i name="AMIN">      0.10000000</i>
    <i name="AMIX_MAG">      1.60000000</i>
    <i name="BMIX_MAG">      1.00000000</i>
    <separator name="electronic mixer details" >
     <i type="int" name="IMIX">     4</i>
     <i type="int" name="MAXMIX">   -45</i>
     <i name="WC">    100.00000000</i>
     <i type="int" name="INIMIX">     1</i>
     <i type="int" name="MIXPRE">     1</i>
     <i type="int" name="MREMOVE">     5</i>
    </separator>
   </separator>
   <separator name="electronic dipolcorrection" >
    <i type="logical" name="LDIPOL"> F  </i>
    <i type="logical" name="LMONO"> F  </i>
    <i type="int" name="IDIPOL">     0</i>
    <i name="EPSILON">      1.00000000</i>
    <v name="DIPOL">   -100.00000000   -100.00000000   -100.00000000</v>
    <i name="EFIELD">      0.00000000</i>
   </separator>
  </separator>
  <separator name="grids" >
   <i type="int" name="NGX">    24</i>
   <i type="int" name="NGY">    24</i>
   <i type="int" name="NGZ">   100</i>
   <i type="int" name="NGXF">    48</i>
   <i type="int" name="NGYF">    48</i>
   <i type="int" name="NGZF">   200</i>
   <i type="logical" name="ADDGRID"> T  </i>
  </separator>
  <separator name="ionic" >
   <i type="int" name="NSW">    30</i>
   <i type="int" name="IBRION">     2</i>
   <i type="int" name="ISIF">     3</i>
   <i name="PSTRESS">      0.00000000</i>
   <i name="EDIFFG">     -0.02000000</i>
   <i type="int" name="NFREE">     1</i>
   <i name="POTIM">      0.50000000</i>
   <i name="SMASS">     -3.00000000</i>
   <i name="SCALEE">      1.00000000</i>
  </separator>
  <separator name="ionic md" >
   <i name="TEBEG">      0.00010000</i>
   <i name="TEEND">      0.00010000</i>
   <i type="int" name="NBLOCK">     1</i>
   <i type="int" name="KBLOCK">    30</i>
   <i type="int" name="NPACO">   256</i>
   <i name="APACO">     16.00000000</i>
  </separator>
  <separator name="symmetry" >
   <i type="int" name="ISYM">     2</i>
   <i name="SYMPREC">      0.00001000</i>
  </separator>
  <separator name="dos" >
   <i type="logical" name="LORBIT"> F  </i>
   <v name="RWIGS">     -1.00000000     -1.00000000     -1.00000000</v>
   <i type="int" name="NEDOS">   301</i>
   <i name="EMIN">     10.00000000</i>
   <i name="EMAX">    -10.00000000</i>
   <i name="EFERMI">      0.00000000</i>
  </separator>
  <separator name="writing" >
   <i type="int" name="NWRITE">     2</i>
   <i type="logical" name="LWAVE"> F  </i>
   <i type="logical" name="LCHARG"> F  </i>
   <i type="logical" name="LPARD"> F  </i>
   <i type="logical" name="LVTOT"> F  </i>
   <i type="logical" name="LVHAR"> F  </i>
   <i type="logical" name="LELF"> F  </i>
   <i type="logical" name="LOPTICS"> F  </i>
   <v name="STM">      0.00000000      0.00000000      0.00000000      0.00000000      0.00000000      0.00000000      0.00000000</v>
  </separator>
  <separator name="performance" >
   <i type="int" name="NPAR">     4</i>
   <i type="int" name="NSIM">     4</i>
   <i type="int" name="NBLK">    -1</i>
   <i type="logical" name="LPLANE"> T  </i>
   <i type="logical" name="LSCALAPACK"> T  </i>
   <i type="logical" name="LSCAAWARE"> F  </i>
   <i type="logical" name="LSCALU"> F  </i>
   <i type="logical" name="LASYNC"> F  </i>
   <i type="logical" name="LORBITALREAL"> F  </i>
  </separator>
  <separator name="miscellaneous" >
   <i type="int" name="IDIOT">     3</i>
   <i type="logical" name="LMUSIC"> F  </i>
   <v name="POMASS">     63.54600000    107.86800000    196.96600000</v>
   <v name="DARWINR">      0.00000000      0.00000000      0.00000000</v>
   <v name="DARWINV">      1.00000000      1.00000000      1.00000000</v>
   <i type="logical" name="LCORR"> T  </i>
  </separator>
  <i type="logical" name="GGA_COMPAT"> T  </i>
  <i type="logical" name="LBERRY"> F  </i>
  <i type="int" name="ICORELEVEL">     0</i>
  <i type="logical" name="LDAU"> F  </i>
  <i type="int" name="I_CONSTRAINED_M">     0</i>
  <separator name="electronic exchange-correlation" >
   <i type="string" name="GGA">--</i>
   <i type="int" name="VOSKOWN">     0</i>
   <i type="logical" name="LHFCALC"> F  </i>
   <i type="string" name="PRECFOCK"></i>
   <i type="logical" name="LSYMGRAD"> F  </i>
   <i type="logical" name="LHFONE"> F  </i>
   <i type="logical" name="LRHFCALC"> F  </i>
   <i type="logical" name="LTHOMAS"> F  </i>
   <i type="logical" name="LMODELHF"> F  </i>
   <i name="ENCUT4O">     -1.00000000</i>
   <i type="int" name="EXXOEP">     0</i>
   <i type="int" name="FOURORBIT">     0</i>
   <i name="AEXX">      0.00000000</i>
   <i name="HFALPHA">      0.00000000</i>
   <i name="MCALPHA">      0.00000000</i>
   <i name="ALDAX">      1.00000000</i>
   <i name="AGGAX">      1.00000000</i>
   <i name="ALDAC">      1.00000000</i>
   <i name="AGGAC">      1.00000000</i>
   <i type="int" name="NKREDX">     1</i>
   <i type="int" name="NKREDY">     1</i>
   <i type="int" name="NKREDZ">     1</i>
   <i type="logical" name="SHIFTRED"> F  </i>
   <i type="logical" name="ODDONLY"> F  </i>
   <i type="logical" name="EVENONLY"> F  </i>
   <i type="int" name="LMAXFOCK">     0</i>
   <i type="int" name="NMAXFOCKAE">     0</i>
   <i type="logical" name="LFOCKAEDFT"> F  </i>
   <i name="HFSCREEN">      0.00000000</i>
   <i name="HFSCREENC">      0.00000000</i>
   <i type="int" name="NBANDSGWLOW">     0</i>
  </separator>
  <separator name="vdW DFT" >
   <i type="logical" name="LUSE_VDW"> F  </i>
   <i name="Zab_VDW">     -0.84910000</i>
   <i name="PARAM1">      0.12340000</i>
   <i name="PARAM2">      1.00000000</i>
   <i name="PARAM3">      0.00000000</i>
  </separator>
  <separator name="model GW" >
   <i type="int" name="MODEL_GW">     0</i>
   <i name="MODEL_EPS0">      9.70343142</i>
   <i name="MODEL_ALPHA">      1.00000000</i>
  </separator>
  <separator name="linear response parameters" >
   <i type="logical" name="LEPSILON"> F  </i>
   <i type="logical" name="LRPA"> F  </i>
   <i type="logical" name="LNABLA"> F  </i>
   <i type="logical" name="LVEL"> F  </i>
   <i type="int" name="KINTER">     0</i>
   <i name="CSHIFT">      0.10000000</i>
   <i name="OMEGAMAX">     -1.00000000</i>
   <i name="DEG_THRESHOLD">      0.00200000</i>
  </separator>
  <separator name="orbital magnetization" >
   <i type="logical" name="NUCIND"> F  </i>
   <v name="MAGPOS">      0.00000000      0.00000000      0.00000000</v>
   <i type="logical" name="LNICSALL"> T  </i>
   <i type="logical" name="ORBITALMAG"> F  </i>
   <i type="logical" name="LMAGBLOCH"> F  </i>
   <i type="logical" name="LCHIMAG"> F  </i>
   <i type="logical" name="LGAUGE"> T  </i>
   <i type="int" name="MAGATOM">     0</i>
   <v name="MAGDIPOL">      0.00000000      0.00000000      0.00000000</v>
   <v name="AVECCONST">      0.00000000      0.00000000      0.00000000</v>
  </separator>
  <separator name="response functions" >
   <i type="logical" name="LADDER"> F  </i>
   <i type="logical" name="LFXC"> F  </i>
   <i type="logical" name="LHARTREE"> T  </i>
   <i type="int" name="IBSE">     0</i>
   <i type="logical" name="LTCTE"> F  </i>
   <i type="logical" name="LTETE"> F  </i>
   <i type="logical" name="LTRIPLET"> F  </i>
   <i type="logical" name="LFXCEPS"> F  </i>
   <i type="logical" name="LFXHEG"> F  </i>
   <i type="logical" name="L2ORDER"> F  </i>
   <i type="logical" name="LUSEW"> F  </i>
   <i name="ENCUTGW">     -2.00000000</i>
   <i name="ENCUTGWSOFT">     -2.00000000</i>
   <i name="ENCUTLF">     -1.00000000</i>
   <i type="int" name="LMAXMP2">    -1</i>
   <i name="SCISSOR">      0.00000000</i>
   <i type="int" name="NOMEGA">     0</i>
   <i type="int" name="NOMEGAR">     0</i>
   <i type="int" name="NBANDSGW">    -1</i>
   <i type="int" name="NBANDSO">    -1</i>
   <i type="int" name="NBANDSV">    -1</i>
   <i type="int" name="NELM">   200</i>
   <i type="int" name="DIM">     3</i>
   <i type="int" name="ANTIRES">     0</i>
   <i name="OMEGAMAX">    -30.00000000</i>
   <i name="OMEGAMIN">    -30.00000000</i>
   <i name="OMEGATL">   -200.00000000</i>
   <i type="int" name="OMEGAGRID">     0</i>
   <i name="CSHIFT">     -0.10000000</i>
   <i type="logical" name="SELFENERGY"> F  </i>
   <i type="logical" name="LSPECTRAL"> F  </i>
   <i type="logical" name="ODDONLYGW"> F  </i>
   <i type="logical" name="EVENONLYGW"> F  </i>
   <i type="int" name="NKREDLFX">     1</i>
   <i type="int" name="NKREDLFY">     1</i>
   <i type="int" name="NKREDLFZ">     1</i>
   <i type="int" name="MAXMEM">  1800</i>
   <i type="int" name="TELESCOPE">     0</i>
   <i type="int" name="TAUPAR">     1</i>
  </separator>
  <separator name="External order field" >
   <i name="OFIELD_KAPPA">      0.00000000</i>
   <v name="OFIELD_K">      0.00000000      0.00000000      0.00000000</v>
   <i name="OFIELD_Q6_NEAR">      0.00000000</i>
   <i name="OFIELD_Q6_FAR">      0.00000000</i>
   <i name="OFIELD_A">      0.00000000</i>
  </separator>
 </parameters>
 <atominfo>
  <atoms>       6 </atoms>
  <types>       3 </types>
  <array name="atoms" >
   <dimension dim="1">ion</dimension>
   <field type="string">element</field>
   <field type="int">atomtype</field>
   <set>
    <rc><c>Cu</c><c>   1</c></rc>
    <rc><c>Cu</c><c>   1</c></rc>
    <rc><c>Ag</c><c>   2</c></rc>
    <rc><c>Au</c><c>   3</c></rc>
    <rc><c>Au</c><c>   3</c></rc>
    <rc><c>Au</c><c>   3</c></rc>
   </set>
  </array>
  <array name="atomtypes" >
   <dimension dim="1">type</dimension>
   <field type="int">atomspertype</field>
   <field type="string">element</field>
   <field>mass</field>
   <field>valence</field>
   <field type="string">pseudopotential</field>
   <set>
    <rc><c>   2</c><c>Cu</c><c>     63.54600000</c><c>     11.00000000</c><c>  PAW_PBE Cu 22Jun2005                  </c></rc>
    <rc><c>   1</c><c>Ag</c><c>    107.86800000</c><c>     11.00000000</c><c>  PAW_PBE Ag 02Apr2005                  </c></rc>
    <rc><c>   3</c><c>Au</c><c>    196.96600000</c><c>     11.00000000</c><c>  PAW_PBE Au 04Oct2007                  </c></rc>
   </set>
  </array>
 </atominfo>
 <structure name="initialpos" >
  <crystal>
   <varray name="basis" >
    <v>       2.02786172       0.00000000       2.02786172 </v>
    <v>       0.00000000      -2.02786172      -2.02786172 </v>
    <v>       7.86551949       7.86551949      -7.86551949 </v>
   </varray>
   <i name="volume">     97.03431424 </i>
   <varray name="rec_basis" >
    <v>       0.32875351      -0.16437676       0.16437676 </v>
    <v>       0.16437676      -0.32875351      -0.16437676 </v>
    <v>       0.04237906       0.04237906      -0.04237906 </v>
   </varray>
  </crystal>
  <varray name="positions" >
   <v>       0.33333333       0.66666667       0.67968697 </v>
   <v>       0.66666667       0.33333333       0.81892464 </v>
   <v>       0.66666667       0.33333333       0.34099169 </v>
   <v>       0.00000000       0.00000000       0.97704679 </v>
   <v>       0.33333333       0.66666667       0.16259319 </v>
   <v>       0.00000000       0.00000000       0.52075672 </v>
  </varray>
 </structure>
 <calculation>
  <scstep>
   <time name="dav">    4.44    4.52</time>
   <time name="total">    4.49    4.58</time>
   <energy>
    <i name="alphaZ">    359.10733260 </i>
    <i name="ewald">  -5797.98862578 </i>
    <i name="hartreedc">  -1565.61417187 </i>
    <i name="XCdc">    127.17749834 </i>
    <i name="pawpsdc">   6082.16797914 </i>
    <i name="pawaedc">  -6178.47661296 </i>
    <i name="eentropy">      0.00002866 </i>
    <i name="bandstr">    998.71260476 </i>
    <i name="atom">   6597.46278871 </i>
    <i name="e_fr_energy">    622.54882160 </i>
    <i name="e_wo_entrp">    622.54879294 </i>
    <i name="e_0_energy">    622.54881205 </i>
   </energy>
  </scstep>
  <scstep>
   <time name="dav">    4.66    4.66</time>
   <time name="total">    4.68    4.69</time>
   <energy>
    <i name="e_fr_energy">     38.35424206 </i>
    <i name="e_wo_entrp">     38.35308202 </i>
    <i name="e_0_energy">     38.35385538 </i>
   </energy>
  </scstep>
  <scstep>
   <time name="dav">    5.00    5.00</time>
   <time name="total">    5.02    5.03</time>
   <energy>
    <i name="e_fr_energy">    -20.58493890 </i>
    <i name="e_wo_entrp">    -20.58450709 </i>
    <i name="e_0_energy">    -20.58479496 </i>
   </energy>
  </scstep>
  <scstep>
   <time name="dav">    5.41    5.42</time>
   <time name="total">    5.43    5.45</time>
   <energy>
    <i name="e_fr_energy">    -22.32094116 </i>
    <i name="e_wo_entrp">    -22.32060822 </i>
    <i name="e_0_energy">    -22.32083018 </i>
   </energy>
  </scstep>
  <scstep>
   <time name="dav">    5.63    5.64</time>
   <time name="total">    5.98    6.00</time>
   <energy>
    <i name="e_fr_energy">    -22.36233986 </i>
    <i name="e_wo_entrp">    -22.36198340 </i>
    <i name="e_0_energy">    -22.36222104 </i>
   </energy>
  </scstep>
  <scstep>
   <time name="diag">    1.27    1.28</time>
   <time name="diis">    2.13    2.13</time>
   <time name="orth">    0.19    0.19</time>
   <time name="total">    3.97    4.00</time>
   <energy>
    <i name="e_fr_energy">    -20.85734899 </i>
    <i name="e_wo_entrp">    -20.85897664 </i>
    <i name="e_0_energy">    -20.85789154 </i>
   </energy>
  </scstep>
  <scstep>
   <time name="diag">    1.23    1.23</time>
   <time name="diis">    2.26    2.26</time>
   <time name="orth">    0.18    0.18</time>
   <time name="total">    4.05    4.07</time>
   <energy>
    <i name="e_fr_energy">    -20.33548242 </i>
    <i name="e_wo_entrp">    -20.34711326 </i>
    <i name="e_0_energy">    -20.33935937 </i>
   </energy>
  </scstep>
  <scstep>
   <time name="diag">    1.22    1.23</time>
   <time name="diis">    2.17    2.17</time>
   <time name="orth">    0.19    0.19</time>
   <time name="total">    3.97    3.99</time>
   <energy>
    <i name="e_fr_energy">    -19.78288056 </i>
    <i name="e_wo_entrp">    -19.77798130 </i>
    <i name="e_0_energy">    -19.78124747 </i>
   </energy>
  </scstep>
  <scstep>
   <time name="diag">    1.23    1.23</time>
   <time name="diis">    2.26    2.26</time>
   <time name="orth">    0.18    0.18</time>
   <time name="total">    4.06    4.08</time>
   <energy>
    <i name="e_fr_energy">    -19.78057171 </i>
    <i name="e_wo_entrp">    -19.77802394 </i>
    <i name="e_0_energy">    -19.77972245 </i>
   </energy>
  </scstep>
  <scstep>
   <time name="diag">    1.23    1.23</time>
   <time name="diis">    2.22    2.22</time>
   <time name="orth">    0.19    0.19</time>
   <time name="total">    4.03    4.04</time>
   <energy>
    <i name="e_fr_energy">    -19.75753039 </i>
    <i name="e_wo_entrp">    -19.75206278 </i>
    <i name="e_0_energy">    -19.75570785 </i>
   </energy>
  </scstep>
  <scstep>
   <time name="diag">    1.22    1.22</time>
   <time name="diis">    2.22    2.22</time>
   <time name="orth">    0.18    0.18</time>
   <time name="total">    4.04    4.06</time>
   <energy>
    <i name="e_fr_energy">    -19.75515983 </i>
    <i name="e_wo_entrp">    -19.74938233 </i>
    <i name="e_0_energy">    -19.75323400 </i>
   </energy>
  </scstep>
  <scstep>
   <time name="diag">    1.23    1.23</time>
   <time name="diis">    2.25    2.25</time>
   <time name="orth">    0.19    0.19</time>
   <time name="total">    4.06    4.08</time>
   <energy>
    <i name="e_fr_energy">    -19.75445859 </i>
    <i name="e_wo_entrp">    -19.74863535 </i>
    <i name="e_0_energy">    -19.75251751 </i>
   </energy>
  </scstep>
  <scstep>
   <time name="diag">    1.23    1.23</time>
   <time name="diis">    2.51    2.51</time>
   <time name="orth">    0.18    0.18</time>
   <time name="total">    4.32    4.34</time>
   <energy>
    <i name="e_fr_energy">    -19.75444532 </i>
    <i name="e_wo_entrp">    -19.74861934 </i>
    <i name="e_0_energy">    -19.75250332 </i>
   </energy>
  </scstep>
  <scstep>
   <time name="diag">    1.23    1.23</time>
   <time name="diis">    2.25    2.25</time>
   <time name="orth">    0.19    0.19</time>
   <time name="total">    4.07    4.09</time>
   <energy>
    <i name="e_fr_energy">    -19.75440566 </i>
    <i name="e_wo_entrp">    -19.74860349 </i>
    <i name="e_0_energy">    -19.75247160 </i>
   </energy>
  </scstep>
  <scstep>
   <time name="diag">    1.23    1.23</time>
   <time name="diis">    2.05    2.05</time>
   <time name="orth">    0.18    0.18</time>
   <time name="total">    3.86    3.87</time>
   <energy>
    <i name="e_fr_energy">    -19.75440573 </i>
    <i name="e_wo_entrp">    -19.74859793 </i>
    <i name="e_0_energy">    -19.75246980 </i>
   </energy>
  </scstep>
  <scstep>
   <time name="diag">    1.22    1.22</time>
   <time name="diis">    1.71    1.71</time>
   <time name="orth">    0.19    0.19</time>
   <time name="total">    3.18    3.20</time>
   <energy>
    <i name="alphaZ">    359.10733260 </i>
    <i name="ewald">  -5797.98862578 </i>
    <i name="hartreedc">  -1479.85869173 </i>
    <i name="XCdc">    123.29252972 </i>
    <i name="pawpsdc">   6783.72742520 </i>
    <i name="pawaedc">  -6893.72311407 </i>
    <i name="eentropy">     -0.00581011 </i>
    <i name="bandstr">    288.23175995 </i>
    <i name="atom">   6597.46278871 </i>
    <i name="e_fr_energy">    -19.75440552 </i>
    <i name="e_wo_entrp">    -19.74859541 </i>
    <i name="e_0_energy">    -19.75246882 </i>
   </energy>
  </scstep>
  <structure>
   <crystal>
    <varray name="basis" >
     <v>       2.02786172       0.00000000       2.02786172 </v>
     <v>       0.00000000      -2.02786172      -2.02786172 </v>
     <v>       7.86551949       7.86551949      -7.86551949 </v>
    </varray>
    <i name="volume">     97.03431424 </i>
    <varray name="rec_basis" >
     <v>       0.32875351      -0.16437676       0.16437676 </v>
     <v>       0.16437676      -0.32875351      -0.16437676 </v>
     <v>       0.04237906       0.04237906      -0.04237906 </v>
    </varray>
   </crystal>
   <varray name="positions" >
    <v>       0.33333333       0.66666667       0.67968697 </v>
    <v>       0.66666667       0.33333333       0.81892464 </v>
    <v>       0.66666667       0.33333333       0.34099169 </v>
    <v>       0.00000000       0.00000000       0.97704679 </v>
    <v>       0.33333333       0.66666667       0.16259319 </v>
    <v>       0.00000000       0.00000000       0.52075672 </v>
   </varray>
  </structure>
  <varray name="forces" >
   <v>       0.00211859       0.00211859      -0.00211859 </v>
   <v>       0.00087885       0.00087885      -0.00087885 </v>
   <v>       0.00026551       0.00026551      -0.00026551 </v>
   <v>      -0.00211066      -0.00211066       0.00211066 </v>
   <v>      -0.00802346      -0.00802346       0.00802346 </v>
   <v>       0.00687116       0.00687116      -0.00687116 </v>
  </varray>
  <varray name="stress" >
   <v>       0.74134206      -0.09863348       0.09863348 </v>
   <v>      -0.09863348       0.74134206       0.09863348 </v>
   <v>       0.09863348       0.09863348       0.74134206 </v>
  </varray>
  <energy>
   <i name="e_fr_energy">    -19.75440552 </i>
   <i name="e_wo_entrp">    -19.75246882 </i>
   <i name="e_0_energy">     -0.00581011 </i>
  </energy>
  <time name="totalsc">   72.66   73.03</time>
  <eigenvalues>
   <array>
    <dimension dim="1">band</dimension>
    <dimension dim="2">kpoint</dimension>
    <dimension dim="3">spin</dimension>
    <field>eigene</field>
    <field>occ</field>
    <set>
     <set comment="spin 1">
      <set comment="kpoint 1">
       <r>   -1.0520    1.0000 </r>
       <r>   -0.5058    1.0000 </r>
       <r>    0.1803    1.0000 </r>
       <r>    1.2503    1.0000 </r>
       <r>    1.4697    1.0000 </r>
       <r>    2.5880    1.0000 </r>
       <r>    3.1372    1.0000 </r>
       <r>    3.3657    1.0000 </r>
       <r>    3.3657    1.0000 </r>
       <r>    3.5172    1.0000 </r>
       <r>    3.5172    1.0000 </r>
       <r>    3.5820    1.0000 </r>
       <r>    3.5820    1.0000 </r>
       <r>    3.6793    1.0000 </r>
       <r>    3.6793    1.0000 </r>
       <r>    3.9076    1.0000 </r>
       <r>    4.4539    1.0000 </r>
       <r>    4.4969    1.0000 </r>
       <r>    4.4969    1.0000 </r>
       <r>    4.8576    1.0000 </r>
       <r>    4.8576    1.0000 </r>
       <r>    4.9370    1.0000 </r>
       <r>    4.9370    1.0000 </r>
       <r>    5.2257    1.0000 </r>
       <r>    5.4543    1.0000 </r>
       <r>    5.4543    1.0000 </r>
       <r>    5.5948    1.0000 </r>
       <r>    5.5948    1.0000 </r>
       <r>    5.7569    1.0000 </r>
       <r>    5.7569    1.0000 </r>
       <r>    5.7958    1.0000 </r>
       <r>    6.0980    1.0000 </r>
       <r>    6.0980    1.0000 </r>
       <r>    6.5432    1.0000 </r>
       <r>    6.5432    1.0000 </r>
       <r>    7.7673    1.0257 </r>
       <r>   11.4558    0.0000 </r>
       <r>   16.1545    0.0000 </r>
       <r>   16.3450    0.0000 </r>
       <r>   19.8462    0.0000 </r>
      </set>
      <set comment="kpoint 2">
       <r>   -1.0123    1.0000 </r>
       <r>   -0.4657    1.0000 </r>
       <r>    0.2177    1.0000 </r>
       <r>    1.2801    1.0000 </r>
       <r>    1.4989    1.0000 </r>
       <r>    2.6002    1.0000 </r>
       <r>    3.1373    1.0000 </r>
       <r>    3.3534    1.0000 </r>
       <r>    3.3849    1.0000 </r>
       <r>    3.5003    1.0000 </r>
       <r>    3.5389    1.0000 </r>
       <r>    3.5655    1.0000 </r>
       <r>    3.6075    1.0000 </r>
       <r>    3.6646    1.0000 </r>
       <r>    3.7033    1.0000 </r>
       <r>    3.8759    1.0000 </r>
       <r>    4.3421    1.0000 </r>
       <r>    4.4898    1.0000 </r>
       <r>    4.5452    1.0000 </r>
       <r>    4.8337    1.0000 </r>
       <r>    4.8435    1.0000 </r>
       <r>    4.9243    1.0000 </r>
       <r>    4.9501    1.0000 </r>
       <r>    5.1932    1.0000 </r>
       <r>    5.4408    1.0000 </r>
       <r>    5.4541    1.0000 </r>
       <r>    5.5739    1.0000 </r>
       <r>    5.5846    1.0000 </r>
       <r>    5.7684    1.0000 </r>
       <r>    5.8220    1.0000 </r>
       <r>    5.8773    1.0000 </r>
       <r>    6.1024    1.0000 </r>
       <r>    6.1030    1.0000 </r>
       <r>    6.4773    1.0000 </r>
       <r>    6.5442    1.0000 </r>
       <r>    7.9239    0.8610 </r>
       <r>   11.4620    0.0000 </r>
       <r>   16.1723    0.0000 </r>
       <r>   16.3561    0.0000 </r>
       <r>   19.9123    0.0000 </r>
      </set>
      <set comment="kpoint 3">
       <r>   -0.8942    1.0000 </r>
       <r>   -0.3469    1.0000 </r>
       <r>    0.3279    1.0000 </r>
       <r>    1.3680    1.0000 </r>
       <r>    1.5845    1.0000 </r>
       <r>    2.6340    1.0000 </r>
       <r>    3.1337    1.0000 </r>
       <r>    3.3179    1.0000 </r>
       <r>    3.4413    1.0000 </r>
       <r>    3.4541    1.0000 </r>
       <r>    3.5206    1.0000 </r>
       <r>    3.6024    1.0000 </r>
       <r>    3.6268    1.0000 </r>
       <r>    3.6834    1.0000 </r>
       <r>    3.7745    1.0000 </r>
       <r>    3.7804    1.0000 </r>
       <r>    4.1675    1.0000 </r>
       <r>    4.4701    1.0000 </r>
       <r>    4.5393    1.0000 </r>
       <r>    4.7766    1.0000 </r>
       <r>    4.8160    1.0000 </r>
       <r>    4.8779    1.0000 </r>
       <r>    4.9743    1.0000 </r>
       <r>    5.1580    1.0000 </r>
       <r>    5.4314    1.0000 </r>
       <r>    5.4487    1.0000 </r>
       <r>    5.5518    1.0000 </r>
       <r>    5.5695    1.0000 </r>
       <r>    5.7945    1.0000 </r>
       <r>    5.9044    1.0000 </r>
       <r>    6.0148    1.0000 </r>
       <r>    6.1148    1.0000 </r>
       <r>    6.1351    1.0000 </r>
       <r>    6.4282    1.0000 </r>
       <r>    6.5472    1.0000 </r>
       <r>    8.3018    0.0164 </r>
       <r>   11.4815    0.0000 </r>
       <r>   16.2007    0.0000 </r>
       <r>   16.2413    0.0000 </r>
       <r>   20.1263    0.0000 </r>
      </set>
      <set comment="kpoint 4">
       <r>   -0.7011    1.0000 </r>
       <r>   -0.1541    1.0000 </r>
       <r>    0.5049    1.0000 </r>
       <r>    1.5087    1.0000 </r>
       <r>    1.7190    1.0000 </r>
       <r>    2.6804    1.0000 </r>
       <r>    3.1159    1.0000 </r>
       <r>    3.2605    1.0000 </r>
       <r>    3.3896    1.0000 </r>
       <r>    3.4589    1.0000 </r>
       <r>    3.5316    1.0000 </r>
       <r>    3.5844    1.0000 </r>
       <r>    3.6316    1.0000 </r>
       <r>    3.7014    1.0000 </r>
       <r>    3.8073    1.0000 </r>
       <r>    3.8905    1.0000 </r>
       <r>    3.9718    1.0000 </r>
       <r>    4.4438    1.0000 </r>
       <r>    4.4674    1.0000 </r>
       <r>    4.6984    1.0000 </r>
       <r>    4.7881    1.0000 </r>
       <r>    4.8320    1.0000 </r>
       <r>    4.9950    1.0000 </r>
       <r>    5.1528    1.0000 </r>
       <r>    5.4306    1.0000 </r>
       <r>    5.4374    1.0000 </r>
       <r>    5.5342    1.0000 </r>
       <r>    5.5725    1.0000 </r>
       <r>    5.8249    1.0000 </r>
       <r>    5.8858    1.0000 </r>
       <r>    6.0546    1.0000 </r>
       <r>    6.1336    1.0000 </r>
       <r>    6.2630    1.0000 </r>
       <r>    6.5523    1.0000 </r>
       <r>    6.5868    1.0000 </r>
       <r>    8.7931   -0.0017 </r>
       <r>   11.5175    0.0000 </r>
       <r>   16.2646    0.0000 </r>
       <r>   15.8037    0.0000 </r>
       <r>   19.0973    0.0000 </r>
      </set>
      <set comment="kpoint 5">
       <r>   -0.4394    1.0000 </r>
       <r>    0.1036    1.0000 </r>
       <r>    0.7365    1.0000 </r>
       <r>    1.6894    1.0000 </r>
       <r>    1.8878    1.0000 </r>
       <r>    2.7212    1.0000 </r>
       <r>    3.0782    1.0000 </r>
       <r>    3.1825    1.0000 </r>
       <r>    3.3208    1.0000 </r>
       <r>    3.3763    1.0000 </r>
       <r>    3.4552    1.0000 </r>
       <r>    3.5924    1.0000 </r>
       <r>    3.6500    1.0000 </r>
       <r>    3.7776    1.0000 </r>
       <r>    3.8205    1.0000 </r>
       <r>    3.9744    1.0000 </r>
       <r>    4.0472    1.0000 </r>
       <r>    4.3545    1.0000 </r>
       <r>    4.4239    1.0000 </r>
       <r>    4.6175    1.0000 </r>
       <r>    4.7680    1.0000 </r>
       <r>    4.8107    1.0000 </r>
       <r>    5.0057    1.0000 </r>
       <r>    5.1575    1.0000 </r>
       <r>    5.4073    1.0000 </r>
       <r>    5.4311    1.0000 </r>
       <r>    5.5194    1.0000 </r>
       <r>    5.5963    1.0000 </r>
       <r>    5.8432    1.0000 </r>
       <r>    5.8568    1.0000 </r>
       <r>    6.0611    1.0000 </r>
       <r>    6.1571    1.0000 </r>
       <r>    6.4551    1.0000 </r>
       <r>    6.5595    1.0000 </r>
       <r>    6.8572    1.0000 </r>
       <r>    9.3497    0.0000 </r>
       <r>   11.5748    0.0000 </r>
       <r>   16.3077    0.0000 </r>
       <r>   15.2039    0.0000 </r>
       <r>   17.4493    0.0000 </r>
      </set>
      <set comment="kpoint 6">
       <r>   -0.1196    1.0000 </r>
       <r>    0.4095    1.0000 </r>
       <r>    1.0017    1.0000 </r>
       <r>    1.8795    1.0000 </r>
       <r>    2.0675    1.0000 </r>
       <r>    2.7296    1.0000 </r>
       <r>    3.0185    1.0000 </r>
       <r>    3.0910    1.0000 </r>
       <r>    3.2264    1.0000 </r>
       <r>    3.3005    1.0000 </r>
       <r>    3.3642    1.0000 </r>
       <r>    3.5812    1.0000 </r>
       <r>    3.6813    1.0000 </r>
       <r>    3.7838    1.0000 </r>
       <r>    3.9318    1.0000 </r>
       <r>    4.1738    1.0000 </r>
       <r>    4.2356    1.0000 </r>
       <r>    4.2395    1.0000 </r>
       <r>    4.4329    1.0000 </r>
       <r>    4.5547    1.0000 </r>
       <r>    4.7697    1.0000 </r>
       <r>    4.8028    1.0000 </r>
       <r>    5.0060    1.0000 </r>
       <r>    5.1511    1.0000 </r>
       <r>    5.3862    1.0000 </r>
       <r>    5.3920    1.0000 </r>
       <r>    5.5438    1.0000 </r>
       <r>    5.6322    1.0000 </r>
       <r>    5.8354    1.0000 </r>
       <r>    5.8917    1.0000 </r>
       <r>    6.0829    1.0000 </r>
       <r>    6.1843    1.0000 </r>
       <r>    6.5685    1.0000 </r>
       <r>    6.6676    1.0000 </r>
       <r>    7.1608    1.0001 </r>
       <r>    9.9479    0.0000 </r>
       <r>   11.6609    0.0000 </r>
       <r>   16.2612    0.0000 </r>
       <r>   14.4604    0.0000 </r>
       <r>   15.7737    0.0000 </r>
      </set>
      <set comment="kpoint 7">
       <r>    0.2414    1.0000 </r>
       <r>    0.7352    1.0000 </r>
       <r>    1.2664    1.0000 </r>
       <r>    2.0200    1.0000 </r>
       <r>    2.2235    1.0000 </r>
       <r>    2.6888    1.0000 </r>
       <r>    2.8742    1.0000 </r>
       <r>    3.0674    1.0000 </r>
       <r>    3.1559    1.0000 </r>
       <r>    3.2917    1.0000 </r>
       <r>    3.3426    1.0000 </r>
       <r>    3.4875    1.0000 </r>
       <r>    3.8222    1.0000 </r>
       <r>    3.8876    1.0000 </r>
       <r>    4.0342    1.0000 </r>
       <r>    4.1395    1.0000 </r>
       <r>    4.3557    1.0000 </r>
       <r>    4.4610    1.0000 </r>
       <r>    4.5110    1.0000 </r>
       <r>    4.5216    1.0000 </r>
       <r>    4.8002    1.0000 </r>
       <r>    4.8176    1.0000 </r>
       <r>    5.0130    1.0000 </r>
       <r>    5.1301    1.0000 </r>
       <r>    5.3315    1.0000 </r>
       <r>    5.3894    1.0000 </r>
       <r>    5.6205    1.0000 </r>
       <r>    5.6723    1.0000 </r>
       <r>    5.8358    1.0000 </r>
       <r>    5.9326    1.0000 </r>
       <r>    6.1312    1.0000 </r>
       <r>    6.2149    1.0000 </r>
       <r>    6.5787    1.0000 </r>
       <r>    6.8919    1.0000 </r>
       <r>    7.4814    1.0091 </r>
       <r>   10.5702    0.0000 </r>
       <r>   11.7857    0.0000 </r>
       <r>   16.1424    0.0000 </r>
       <r>   14.3382    0.0000 </r>
       <r>   14.2665    0.0000 </r>
      </set>
      <set comment="kpoint 8">
       <r>    0.6156    1.0000 </r>
       <r>    1.0362    1.0000 </r>
       <r>    1.4856    1.0000 </r>
       <r>    2.0691    1.0000 </r>
       <r>    2.2919    1.0000 </r>
       <r>    2.6033    1.0000 </r>
       <r>    2.7241    1.0000 </r>
       <r>    3.0811    1.0000 </r>
       <r>    3.1512    1.0000 </r>
       <r>    3.2753    1.0000 </r>
       <r>    3.4361    1.0000 </r>
       <r>    3.5779    1.0000 </r>
       <r>    3.9011    1.0000 </r>
       <r>    4.0412    1.0000 </r>
       <r>    4.1007    1.0000 </r>
       <r>    4.1757    1.0000 </r>
       <r>    4.4170    1.0000 </r>
       <r>    4.5346    1.0000 </r>
       <r>    4.6846    1.0000 </r>
       <r>    4.7148    1.0000 </r>
       <r>    4.7974    1.0000 </r>
       <r>    4.9062    1.0000 </r>
       <r>    5.0926    1.0000 </r>
       <r>    5.1072    1.0000 </r>
       <r>    5.3067    1.0000 </r>
       <r>    5.3986    1.0000 </r>
       <r>    5.7108    1.0000 </r>
       <r>    5.7315    1.0000 </r>
       <r>    5.8333    1.0000 </r>
       <r>    5.9829    1.0000 </r>
       <r>    6.2030    1.0000 </r>
       <r>    6.2488    1.0000 </r>
       <r>    6.5892    1.0000 </r>
       <r>    7.1289    1.0000 </r>
       <r>    7.8205    0.9969 </r>
       <r>   11.1947    0.0000 </r>
       <r>   11.9615    0.0000 </r>
       <r>   16.1557    0.0000 </r>
       <r>   15.6521    0.0000 </r>
       <r>   14.2499    0.0000 </r>
      </set>
      <set comment="kpoint 9">
       <r>    0.9570    1.0000 </r>
       <r>    1.2605    1.0000 </r>
       <r>    1.6206    1.0000 </r>
       <r>    2.0558    1.0000 </r>
       <r>    2.2428    1.0000 </r>
       <r>    2.4810    1.0000 </r>
       <r>    2.6698    1.0000 </r>
       <r>    2.9631    1.0000 </r>
       <r>    3.2204    1.0000 </r>
       <r>    3.3819    1.0000 </r>
       <r>    3.6808    1.0000 </r>
       <r>    3.7740    1.0000 </r>
       <r>    3.8667    1.0000 </r>
       <r>    4.1278    1.0000 </r>
       <r>    4.2977    1.0000 </r>
       <r>    4.3347    1.0000 </r>
       <r>    4.4542    1.0000 </r>
       <r>    4.6499    1.0000 </r>
       <r>    4.7818    1.0000 </r>
       <r>    4.7945    1.0000 </r>
       <r>    4.9676    1.0000 </r>
       <r>    5.0813    1.0000 </r>
       <r>    5.0871    1.0000 </r>
       <r>    5.2843    1.0000 </r>
       <r>    5.3505    1.0000 </r>
       <r>    5.4231    1.0000 </r>
       <r>    5.7459    1.0000 </r>
       <r>    5.7907    1.0000 </r>
       <r>    5.9067    1.0000 </r>
       <r>    6.0429    1.0000 </r>
       <r>    6.2854    1.0000 </r>
       <r>    6.2897    1.0000 </r>
       <r>    6.5993    1.0000 </r>
       <r>    7.3862    1.0030 </r>
       <r>    8.1881    0.1916 </r>
       <r>   11.7811    0.0000 </r>
       <r>   12.1985    0.0000 </r>
       <r>   15.0588    0.0000 </r>
       <r>   16.2413    0.0000 </r>
       <r>   15.8274    0.0000 </r>
      </set>
      <set comment="kpoint 10">
       <r>    1.2009    1.0000 </r>
       <r>    1.3878    1.0000 </r>
       <r>    1.6618    1.0000 </r>
       <r>    2.0197    1.0000 </r>
       <r>    2.1316    1.0000 </r>
       <r>    2.3774    1.0000 </r>
       <r>    2.7132    1.0000 </r>
       <r>    2.8589    1.0000 </r>
       <r>    3.2120    1.0000 </r>
       <r>    3.5777    1.0000 </r>
       <r>    3.8187    1.0000 </r>
       <r>    3.8758    1.0000 </r>
       <r>    4.0650    1.0000 </r>
       <r>    4.3168    1.0000 </r>
       <r>    4.3411    1.0000 </r>
       <r>    4.5486    1.0000 </r>
       <r>    4.5557    1.0000 </r>
       <r>    4.8011    1.0000 </r>
       <r>    4.8053    1.0000 </r>
       <r>    4.9921    1.0000 </r>
       <r>    5.0885    1.0000 </r>
       <r>    5.1838    1.0000 </r>
       <r>    5.3262    1.0000 </r>
       <r>    5.4766    1.0000 </r>
       <r>    5.4980    1.0000 </r>
       <r>    5.5346    1.0000 </r>
       <r>    5.7792    1.0000 </r>
       <r>    5.7852    1.0000 </r>
       <r>    6.0756    1.0000 </r>
       <r>    6.1097    1.0000 </r>
       <r>    6.3227    1.0000 </r>
       <r>    6.3888    1.0000 </r>
       <r>    6.6084    1.0000 </r>
       <r>    7.6790    1.0347 </r>
       <r>    8.5979   -0.0159 </r>
       <r>   12.2645    0.0000 </r>
       <r>   12.4366    0.0000 </r>
       <r>   14.0187    0.0000 </r>
       <r>   15.5379    0.0000 </r>
       <r>   15.7318    0.0000 </r>
      </set>
      <set comment="kpoint 11">
       <r>    1.3084    1.0000 </r>
       <r>    1.4433    1.0000 </r>
       <r>    1.6399    1.0000 </r>
       <r>    1.9627    1.0000 </r>
       <r>    2.0206    1.0000 </r>
       <r>    2.2975    1.0000 </r>
       <r>    2.7734    1.0000 </r>
       <r>    2.8494    1.0000 </r>
       <r>    3.2096    1.0000 </r>
       <r>    3.7143    1.0000 </r>
       <r>    3.7704    1.0000 </r>
       <r>    3.9973    1.0000 </r>
       <r>    4.2935    1.0000 </r>
       <r>    4.3023    1.0000 </r>
       <r>    4.6238    1.0000 </r>
       <r>    4.6389    1.0000 </r>
       <r>    4.7173    1.0000 </r>
       <r>    4.8720    1.0000 </r>
       <r>    4.9422    1.0000 </r>
       <r>    5.1125    1.0000 </r>
       <r>    5.2925    1.0000 </r>
       <r>    5.5285    1.0000 </r>
       <r>    5.5387    1.0000 </r>
       <r>    5.6480    1.0000 </r>
       <r>    5.7568    1.0000 </r>
       <r>    5.7664    1.0000 </r>
       <r>    5.7812    1.0000 </r>
       <r>    5.8591    1.0000 </r>
       <r>    6.1777    1.0000 </r>
       <r>    6.2816    1.0000 </r>
       <r>    6.3577    1.0000 </r>
       <r>    6.5156    1.0000 </r>
       <r>    6.6163    1.0000 </r>
       <r>    8.0262    0.6194 </r>
       <r>    9.0596    0.0000 </r>
       <r>   12.1682    0.0000 </r>
       <r>   12.7212    0.0000 </r>
       <r>   13.2734    0.0000 </r>
       <r>   14.3585    0.0000 </r>
       <r>   15.0683    0.0000 </r>
      </set>
      <set comment="kpoint 12">
       <r>    1.3251    1.0000 </r>
       <r>    1.4485    1.0000 </r>
       <r>    1.5973    1.0000 </r>
       <r>    1.8786    1.0000 </r>
       <r>    1.9476    1.0000 </r>
       <r>    2.2301    1.0000 </r>
       <r>    2.7218    1.0000 </r>
       <r>    2.9634    1.0000 </r>
       <r>    3.2682    1.0000 </r>
       <r>    3.7283    1.0000 </r>
       <r>    3.7641    1.0000 </r>
       <r>    4.1380    1.0000 </r>
       <r>    4.2655    1.0000 </r>
       <r>    4.4199    1.0000 </r>
       <r>    4.6309    1.0000 </r>
       <r>    4.7476    1.0000 </r>
       <r>    4.8463    1.0000 </r>
       <r>    4.9841    1.0000 </r>
       <r>    5.0248    1.0000 </r>
       <r>    5.3265    1.0000 </r>
       <r>    5.5657    1.0000 </r>
       <r>    5.6321    1.0000 </r>
       <r>    5.7493    1.0000 </r>
       <r>    5.8618    1.0000 </r>
       <r>    5.9504    1.0000 </r>
       <r>    6.0186    1.0000 </r>
       <r>    6.0223    1.0000 </r>
       <r>    6.1973    1.0000 </r>
       <r>    6.2410    1.0000 </r>
       <r>    6.3863    1.0000 </r>
       <r>    6.5622    1.0000 </r>
       <r>    6.6232    1.0000 </r>
       <r>    6.7643    1.0000 </r>
       <r>    8.4370   -0.0355 </r>
       <r>    9.5554    0.0000 </r>
       <r>   11.3923    0.0000 </r>
       <r>   12.4365    0.0000 </r>
       <r>   13.0050    0.0000 </r>
       <r>   13.4710    0.0000 </r>
       <r>   15.0993    0.0000 </r>
      </set>
      <set comment="kpoint 13">
       <r>    1.3112    1.0000 </r>
       <r>    1.4271    1.0000 </r>
       <r>    1.5574    1.0000 </r>
       <r>    1.8032    1.0000 </r>
       <r>    1.8990    1.0000 </r>
       <r>    2.1764    1.0000 </r>
       <r>    2.6846    1.0000 </r>
       <r>    2.9937    1.0000 </r>
       <r>    3.4035    1.0000 </r>
       <r>    3.6961    1.0000 </r>
       <r>    3.7584    1.0000 </r>
       <r>    4.2421    1.0000 </r>
       <r>    4.2729    1.0000 </r>
       <r>    4.4752    1.0000 </r>
       <r>    4.6210    1.0000 </r>
       <r>    4.7882    1.0000 </r>
       <r>    4.9233    1.0000 </r>
       <r>    5.0775    1.0000 </r>
       <r>    5.0871    1.0000 </r>
       <r>    5.3390    1.0000 </r>
       <r>    5.6686    1.0000 </r>
       <r>    5.7337    1.0000 </r>
       <r>    6.0338    1.0000 </r>
       <r>    6.0416    1.0000 </r>
       <r>    6.1012    1.0000 </r>
       <r>    6.1929    1.0000 </r>
       <r>    6.2764    1.0000 </r>
       <r>    6.2951    1.0000 </r>
       <r>    6.4038    1.0000 </r>
       <r>    6.6297    1.0000 </r>
       <r>    6.6443    1.0000 </r>
       <r>    7.0234    1.0000 </r>
       <r>    7.3540    1.0019 </r>
       <r>    8.8818   -0.0004 </r>
       <r>    9.8506    0.0000 </r>
       <r>   10.7007    0.0000 </r>
       <r>   11.5348    0.0000 </r>
       <r>   12.1585    0.0000 </r>
       <r>   13.8281    0.0000 </r>
       <r>   14.2629    0.0000 </r>
      </set>
      <set comment="kpoint 14">
       <r>    1.2951    1.0000 </r>
       <r>    1.4052    1.0000 </r>
       <r>    1.5300    1.0000 </r>
       <r>    1.7554    1.0000 </r>
       <r>    1.8685    1.0000 </r>
       <r>    2.1417    1.0000 </r>
       <r>    2.6625    1.0000 </r>
       <r>    2.9905    1.0000 </r>
       <r>    3.5378    1.0000 </r>
       <r>    3.6760    1.0000 </r>
       <r>    3.7175    1.0000 </r>
       <r>    4.2270    1.0000 </r>
       <r>    4.3770    1.0000 </r>
       <r>    4.4902    1.0000 </r>
       <r>    4.6117    1.0000 </r>
       <r>    4.8170    1.0000 </r>
       <r>    4.9469    1.0000 </r>
       <r>    5.1274    1.0000 </r>
       <r>    5.1551    1.0000 </r>
       <r>    5.3450    1.0000 </r>
       <r>    5.6805    1.0000 </r>
       <r>    5.7309    1.0000 </r>
       <r>    6.1608    1.0000 </r>
       <r>    6.2036    1.0000 </r>
       <r>    6.2292    1.0000 </r>
       <r>    6.3053    1.0000 </r>
       <r>    6.3392    1.0000 </r>
       <r>    6.3996    1.0000 </r>
       <r>    6.4057    1.0000 </r>
       <r>    6.6355    1.0000 </r>
       <r>    7.0821    1.0000 </r>
       <r>    7.6707    1.0340 </r>
       <r>    8.1822    0.2046 </r>
       <r>    9.2288    0.0000 </r>
       <r>    9.3449    0.0000 </r>
       <r>   10.1531    0.0000 </r>
       <r>   11.2430    0.0000 </r>
       <r>   11.5864    0.0000 </r>
       <r>   13.1578    0.0000 </r>
       <r>   14.2864    0.0000 </r>
      </set>
      <set comment="kpoint 15">
       <r>    1.2886    1.0000 </r>
       <r>    1.3966    1.0000 </r>
       <r>    1.5203    1.0000 </r>
       <r>    1.7392    1.0000 </r>
       <r>    1.8580    1.0000 </r>
       <r>    2.1298    1.0000 </r>
       <r>    2.6551    1.0000 </r>
       <r>    2.9871    1.0000 </r>
       <r>    3.6248    1.0000 </r>
       <r>    3.6623    1.0000 </r>
       <r>    3.6691    1.0000 </r>
       <r>    4.2217    1.0000 </r>
       <r>    4.4229    1.0000 </r>
       <r>    4.4854    1.0000 </r>
       <r>    4.6083    1.0000 </r>
       <r>    4.8275    1.0000 </r>
       <r>    4.9522    1.0000 </r>
       <r>    5.1459    1.0000 </r>
       <r>    5.1785    1.0000 </r>
       <r>    5.3471    1.0000 </r>
       <r>    5.6833    1.0000 </r>
       <r>    5.7298    1.0000 </r>
       <r>    6.2037    1.0000 </r>
       <r>    6.2371    1.0000 </r>
       <r>    6.2747    1.0000 </r>
       <r>    6.3421    1.0000 </r>
       <r>    6.3668    1.0000 </r>
       <r>    6.3968    1.0000 </r>
       <r>    6.4359    1.0000 </r>
       <r>    6.6382    1.0000 </r>
[...]
       <r>    5.1789    1.0000 </r>
       <r>    5.5017    1.0000 </r>
       <r>    5.8534    1.0000 </r>
       <r>    5.9763    1.0000 </r>
       <r>    6.0199    1.0000 </r>
       <r>    6.1380    1.0000 </r>
       <r>    6.3233    1.0000 </r>
       <r>    6.4146    1.0000 </r>
       <r>    6.4503    1.0000 </r>
       <r>    9.6836    0.0000 </r>
       <r>   10.1155    0.0000 </r>
       <r>   10.4494    0.0000 </r>
       <r>   10.7689    0.0000 </r>
       <r>   11.4427    0.0000 </r>
       <r>   11.7372    0.0000 </r>
       <r>   12.1261    0.0000 </r>
       <r>   12.3030    0.0000 </r>
       <r>   12.6002    0.0000 </r>
       <r>   13.0277    0.0000 </r>
      </set>
      <set comment="kpoint 369">
       <r>    2.2709    1.0000 </r>
       <r>    2.3691    1.0000 </r>
       <r>    2.5142    1.0000 </r>
       <r>    2.6213    1.0000 </r>
       <r>    2.7433    1.0000 </r>
       <r>    2.8364    1.0000 </r>
       <r>    2.9155    1.0000 </r>
       <r>    3.0076    1.0000 </r>
       <r>    3.0791    1.0000 </r>
       <r>    3.2162    1.0000 </r>
       <r>    3.3216    1.0000 </r>
       <r>    3.5094    1.0000 </r>
       <r>    3.6521    1.0000 </r>
       <r>    4.1530    1.0000 </r>
       <r>    4.3025    1.0000 </r>
       <r>    4.3787    1.0000 </r>
       <r>    4.5602    1.0000 </r>
       <r>    4.6571    1.0000 </r>
       <r>    4.6852    1.0000 </r>
       <r>    4.9447    1.0000 </r>
       <r>    4.9805    1.0000 </r>
       <r>    5.1703    1.0000 </r>
       <r>    5.5071    1.0000 </r>
       <r>    5.8550    1.0000 </r>
       <r>    5.9492    1.0000 </r>
       <r>    6.0486    1.0000 </r>
       <r>    6.1315    1.0000 </r>
       <r>    6.3351    1.0000 </r>
       <r>    6.4063    1.0000 </r>
       <r>    6.4714    1.0000 </r>
       <r>    9.1794    0.0000 </r>
       <r>    9.8856    0.0000 </r>
       <r>   10.6563    0.0000 </r>
       <r>   11.0429    0.0000 </r>
       <r>   11.2142    0.0000 </r>
       <r>   11.6233    0.0000 </r>
       <r>   11.8737    0.0000 </r>
       <r>   12.4314    0.0000 </r>
       <r>   12.9064    0.0000 </r>
       <r>   13.6511    0.0000 </r>
      </set>
      <set comment="kpoint 370">
       <r>    2.3725    1.0000 </r>
       <r>    2.4246    1.0000 </r>
       <r>    2.5268    1.0000 </r>
       <r>    2.6551    1.0000 </r>
       <r>    2.7861    1.0000 </r>
       <r>    2.8628    1.0000 </r>
       <r>    2.9852    1.0000 </r>
       <r>    3.0697    1.0000 </r>
       <r>    3.0993    1.0000 </r>
       <r>    3.1804    1.0000 </r>
       <r>    3.2320    1.0000 </r>
       <r>    3.4724    1.0000 </r>
       <r>    3.5492    1.0000 </r>
       <r>    4.2034    1.0000 </r>
       <r>    4.3244    1.0000 </r>
       <r>    4.3820    1.0000 </r>
       <r>    4.5318    1.0000 </r>
       <r>    4.6307    1.0000 </r>
       <r>    4.6735    1.0000 </r>
       <r>    4.9248    1.0000 </r>
       <r>    4.9538    1.0000 </r>
       <r>    5.1710    1.0000 </r>
       <r>    5.4982    1.0000 </r>
       <r>    5.8941    1.0000 </r>
       <r>    5.9541    1.0000 </r>
       <r>    6.0014    1.0000 </r>
       <r>    6.1390    1.0000 </r>
       <r>    6.3144    1.0000 </r>
       <r>    6.4123    1.0000 </r>
       <r>    6.4403    1.0000 </r>
       <r>    9.7762    0.0000 </r>
       <r>   10.4544    0.0000 </r>
       <r>   10.5908    0.0000 </r>
       <r>   10.8783    0.0000 </r>
       <r>   11.0471    0.0000 </r>
       <r>   11.8959    0.0000 </r>
       <r>   12.0274    0.0000 </r>
       <r>   12.4728    0.0000 </r>
       <r>   12.7818    0.0000 </r>
       <r>   13.3667    0.0000 </r>
      </set>
     </set>
    </set>
   </array>
  </eigenvalues>
  <separator name="orbital magnetization" >
   <v name="MAGDIPOLOUT">      0.00000000      0.00000000      0.00000000</v>
  </separator>
  <dos>
   <i name="efermi">      8.06898317 </i>
   <total>
    <array>
     <dimension dim="1">gridpoints</dimension>
     <dimension dim="2">spin</dimension>
     <field>energy</field>
     <field>total</field>
     <field>integrated</field>
     <set>
      <set comment="spin 1">
       <r>    -4.0520     0.0000     0.0000 </r>
       <r>    -3.9612     0.0000     0.0000 </r>
       <r>    -3.8703     0.0000     0.0000 </r>
       <r>    -3.7795     0.0000     0.0000 </r>
       <r>    -3.6886     0.0000     0.0000 </r>
       <r>    -3.5978     0.0000     0.0000 </r>
       <r>    -3.5069     0.0000     0.0000 </r>
       <r>    -3.4161     0.0000     0.0000 </r>
       <r>    -3.3252     0.0000     0.0000 </r>
       <r>    -3.2344     0.0000     0.0000 </r>
       <r>    -3.1435     0.0000     0.0000 </r>
       <r>    -3.0527     0.0000     0.0000 </r>
       <r>    -2.9618     0.0000     0.0000 </r>
       <r>    -2.8710     0.0000     0.0000 </r>
       <r>    -2.7801     0.0000     0.0000 </r>
       <r>    -2.6893     0.0000     0.0000 </r>
       <r>    -2.5984     0.0000     0.0000 </r>
       <r>    -2.5076     0.0000     0.0000 </r>
       <r>    -2.4167     0.0000     0.0000 </r>
       <r>    -2.3259     0.0000     0.0000 </r>
       <r>    -2.2350     0.0000     0.0000 </r>
       <r>    -2.1442     0.0000     0.0000 </r>
       <r>    -2.0533     0.0000     0.0000 </r>
       <r>    -1.9625     0.0000     0.0000 </r>
       <r>    -1.8716     0.0000     0.0000 </r>
       <r>    -1.7808    -0.0001     0.0000 </r>
       <r>    -1.6899    -0.0004    -0.0001 </r>
       <r>    -1.5991    -0.0014    -0.0002 </r>
       <r>    -1.5082    -0.0034    -0.0005 </r>
       <r>    -1.4174    -0.0064    -0.0011 </r>
       <r>    -1.3265    -0.0080    -0.0018 </r>
       <r>    -1.2357    -0.0025    -0.0020 </r>
       <r>    -1.1448     0.0176    -0.0004 </r>
       <r>    -1.0540     0.0567     0.0047 </r>
       <r>    -0.9631     0.1111     0.0148 </r>
       <r>    -0.8723     0.1715     0.0304 </r>
       <r>    -0.7814     0.2307     0.0514 </r>
       <r>    -0.6906     0.2881     0.0775 </r>
       <r>    -0.5997     0.3459     0.1090 </r>
       <r>    -0.5089     0.4025     0.1455 </r>
       <r>    -0.4180     0.4508     0.1865 </r>
       <r>    -0.3271     0.4843     0.2305 </r>
       <r>    -0.2363     0.5021     0.2761 </r>
       <r>    -0.1454     0.5099     0.3224 </r>
       <r>    -0.0546     0.5166     0.3693 </r>
       <r>     0.0363     0.5312     0.4176 </r>
       <r>     0.1271     0.5621     0.4687 </r>
       <r>     0.2180     0.6146     0.5245 </r>
       <r>     0.3088     0.6846     0.5867 </r>
       <r>     0.3997     0.7571     0.6555 </r>
       <r>     0.4905     0.8174     0.7297 </r>
       <r>     0.5814     0.8621     0.8081 </r>
       <r>     0.6722     0.8927     0.8892 </r>
       <r>     0.7631     0.9077     0.9716 </r>
       <r>     0.8539     0.9128     1.0546 </r>
       <r>     0.9448     0.9400     1.1400 </r>
       <r>     1.0356     1.0556     1.2359 </r>
       <r>     1.1265     1.3497     1.3585 </r>
       <r>     1.2173     1.8962     1.5308 </r>
       <r>     1.3082     2.6871     1.7749 </r>
       <r>     1.3990     3.5985     2.1018 </r>
       <r>     1.4899     4.4528     2.5063 </r>
       <r>     1.5807     5.1391     2.9732 </r>
       <r>     1.6716     5.6828     3.4895 </r>
       <r>     1.7624     6.2129     4.0540 </r>
       <r>     1.8533     6.8651     4.6777 </r>
       <r>     1.9441     7.6856     5.3759 </r>
       <r>     2.0350     8.5773     6.1552 </r>
       <r>     2.1258     9.3184     7.0017 </r>
       <r>     2.2167     9.6730     7.8805 </r>
       <r>     2.3075     9.5652     8.7495 </r>
       <r>     2.3984     9.1900     9.5844 </r>
       <r>     2.4892     8.9004    10.3930 </r>
       <r>     2.5801     8.9053    11.2021 </r>
       <r>     2.6709     9.0876    12.0277 </r>
       <r>     2.7618     9.1907    12.8627 </r>
       <r>     2.8526     9.1646    13.6953 </r>
       <r>     2.9435     9.2356    14.5344 </r>
       <r>     3.0343     9.6235    15.4087 </r>
       <r>     3.1252    10.2789    16.3425 </r>
       <r>     3.2160    10.9409    17.3365 </r>
       <r>     3.3069    11.4150    18.3735 </r>
       <r>     3.3977    11.7439    19.4405 </r>
       <r>     3.4886    12.0816    20.5381 </r>
       <r>     3.5794    12.4186    21.6663 </r>
       <r>     3.6703    12.4978    22.8018 </r>
       <r>     3.7611    12.0580    23.8972 </r>
       <r>     3.8520    11.1592    24.9111 </r>
       <r>     3.9428    10.2349    25.8409 </r>
       <r>     4.0337     9.7947    26.7307 </r>
       <r>     4.1245    10.0462    27.6435 </r>
       <r>     4.2154    10.7860    28.6234 </r>
       <r>     4.3062    11.6462    29.6814 </r>
       <r>     4.3971    12.4461    30.8122 </r>
       <r>     4.4879    13.3019    32.0206 </r>
       <r>     4.5788    14.4016    33.3290 </r>
       <r>     4.6696    15.6880    34.7543 </r>
       <r>     4.7605    16.7754    36.2784 </r>
       <r>     4.8513    17.1893    37.8400 </r>
       <r>     4.9422    16.7132    39.3584 </r>
       <r>     5.0330    15.5419    40.7704 </r>
       <r>     5.1239    14.1238    42.0536 </r>
       <r>     5.2147    12.8713    43.2229 </r>
       <r>     5.3056    11.9958    44.3127 </r>
       <r>     5.3964    11.5460    45.3617 </r>
       <r>     5.4873    11.5323    46.4094 </r>
       <r>     5.5781    12.0018    47.4998 </r>
       <r>     5.6690    12.9654    48.6777 </r>
       <r>     5.7598    14.2144    49.9691 </r>
       <r>     5.8507    15.2871    51.3579 </r>
       <r>     5.9415    15.7714    52.7908 </r>
       <r>     6.0324    15.6787    54.2152 </r>
       <r>     6.1232    15.4385    55.6178 </r>
       <r>     6.2141    15.4738    57.0236 </r>
       <r>     6.3049    15.7518    58.4546 </r>
       <r>     6.3958    15.6945    59.8805 </r>
       <r>     6.4866    14.5584    61.2031 </r>
       <r>     6.5775    12.0443    62.2974 </r>
       <r>     6.6683     8.6427    63.0826 </r>
       <r>     6.7592     5.3581    63.5693 </r>
       <r>     6.8500     3.0315    63.8447 </r>
       <r>     6.9409     1.8727    64.0149 </r>
       <r>     7.0317     1.5417    64.1549 </r>
       <r>     7.1226     1.5625    64.2969 </r>
       <r>     7.2134     1.6460    64.4464 </r>
       <r>     7.3043     1.7291    64.6035 </r>
       <r>     7.3951     1.8289    64.7697 </r>
       <r>     7.4860     1.9147    64.9436 </r>
       <r>     7.5768     1.9151    65.1176 </r>
       <r>     7.6677     1.8142    65.2824 </r>
       <r>     7.7585     1.6978    65.4367 </r>
       <r>     7.8494     1.6803    65.5893 </r>
       <r>     7.9402     1.7865    65.7516 </r>
       <r>     8.0311     1.9179    65.9259 </r>
       <r>     8.1220     1.9409    66.1022 </r>
       <r>     8.2128     1.8150    66.2671 </r>
       <r>     8.3037     1.6338    66.4156 </r>
       <r>     8.3945     1.5419    66.5556 </r>
       <r>     8.4854     1.6076    66.7017 </r>
       <r>     8.5762     1.7674    66.8623 </r>
       <r>     8.6671     1.8843    67.0334 </r>
       <r>     8.7579     1.8614    67.2026 </r>
       <r>     8.8488     1.7148    67.3583 </r>
       <r>     8.9396     1.5523    67.4994 </r>
       <r>     9.0305     1.4860    67.6344 </r>
       <r>     9.1213     1.5470    67.7749 </r>
       <r>     9.2122     1.6693    67.9266 </r>
       <r>     9.3030     1.7524    68.0858 </r>
       <r>     9.3939     1.7443    68.2442 </r>
       <r>     9.4847     1.6692    68.3959 </r>
       <r>     9.5756     1.5881    68.5402 </r>
       <r>     9.6664     1.5470    68.6807 </r>
       <r>     9.7573     1.5555    68.8220 </r>
       <r>     9.8481     1.5927    68.9667 </r>
       <r>     9.9390     1.6260    69.1145 </r>
       <r>    10.0298     1.6297    69.2625 </r>
       <r>    10.1207     1.5925    69.4072 </r>
       <r>    10.2115     1.5181    69.5451 </r>
       <r>    10.3024     1.4275    69.6748 </r>
       <r>    10.3932     1.3590    69.7983 </r>
       <r>    10.4841     1.3455    69.9205 </r>
       <r>    10.5749     1.3815    70.0460 </r>
       <r>    10.6658     1.4214    70.1752 </r>
       <r>    10.7566     1.4292    70.3050 </r>
       <r>    10.8475     1.4289    70.4348 </r>
       <r>    10.9383     1.4868    70.5699 </r>
       <r>    11.0292     1.6283    70.7178 </r>
       <r>    11.1200     1.7879    70.8803 </r>
       <r>    11.2109     1.8678    71.0500 </r>
       <r>    11.3017     1.8423    71.2173 </r>
       <r>    11.3926     1.7827    71.3793 </r>
       <r>    11.4834     1.7758    71.5406 </r>
       <r>    11.5743     1.8421    71.7080 </r>
       <r>    11.6651     1.9374    71.8840 </r>
       <r>    11.7560     2.0107    72.0667 </r>
       <r>    11.8468     2.0390    72.2519 </r>
       <r>    11.9377     2.0224    72.4357 </r>
       <r>    12.0285     1.9757    72.6151 </r>
       <r>    12.1194     1.9267    72.7902 </r>
       <r>    12.2102     1.9008    72.9629 </r>
       <r>    12.3011     1.8983    73.1353 </r>
       <r>    12.3919     1.8976    73.3077 </r>
       <r>    12.4828     1.8829    73.4788 </r>
       <r>    12.5736     1.8580    73.6476 </r>
       <r>    12.6645     1.8318    73.8140 </r>
       <r>    12.7553     1.8041    73.9779 </r>
       <r>    12.8462     1.7713    74.1388 </r>
       <r>    12.9370     1.7389    74.2968 </r>
       <r>    13.0279     1.7210    74.4532 </r>
       <r>    13.1187     1.7273    74.6101 </r>
       <r>    13.2096     1.7488    74.7690 </r>
       <r>    13.3004     1.7586    74.9287 </r>
       <r>    13.3913     1.7302    75.0859 </r>
       <r>    13.4821     1.6589    75.2366 </r>
       <r>    13.5730     1.5659    75.3789 </r>
       <r>    13.6638     1.4802    75.5134 </r>
       <r>    13.7547     1.4266    75.6430 </r>
       <r>    13.8455     1.4304    75.7729 </r>
       <r>    13.9364     1.5185    75.9109 </r>
       <r>    14.0272     1.7005    76.0654 </r>
       <r>    14.1181     1.9491    76.2425 </r>
       <r>    14.2089     2.1988    76.4422 </r>
       <r>    14.2998     2.3643    76.6570 </r>
       <r>    14.3906     2.3762    76.8729 </r>
       <r>    14.4815     2.2200    77.0746 </r>
       <r>    14.5723     1.9482    77.2516 </r>
       <r>    14.6632     1.6522    77.4017 </r>
       <r>    14.7540     1.4197    77.5307 </r>
       <r>    14.8449     1.3047    77.6492 </r>
       <r>    14.9357     1.3119    77.7684 </r>
       <r>    15.0266     1.3972    77.8953 </r>
       <r>    15.1174     1.4908    78.0308 </r>
       <r>    15.2083     1.5331    78.1700 </r>
       <r>    15.2991     1.4987    78.3062 </r>
       <r>    15.3900     1.3997    78.4334 </r>
       <r>    15.4808     1.2772    78.5494 </r>
       <r>    15.5717     1.1817    78.6568 </r>
       <r>    15.6625     1.1455    78.7608 </r>
       <r>    15.7534     1.1684    78.8670 </r>
       <r>    15.8442     1.2299    78.9787 </r>
       <r>    15.9351     1.3125    79.0980 </r>
       <r>    16.0259     1.4011    79.2252 </r>
       <r>    16.1168     1.4563    79.3575 </r>
       <r>    16.2076     1.4082    79.4855 </r>
       <r>    16.2985     1.2088    79.5953 </r>
       <r>    16.3893     0.8956    79.6767 </r>
       <r>    16.4802     0.5772    79.7291 </r>
       <r>    16.5711     0.3469    79.7606 </r>
       <r>    16.6619     0.2193    79.7805 </r>
       <r>    16.7528     0.1528    79.7944 </r>
       <r>    16.8436     0.1067    79.8041 </r>
       <r>    16.9345     0.0674    79.8103 </r>
       <r>    17.0253     0.0384    79.8137 </r>
       <r>    17.1162     0.0254    79.8160 </r>
       <r>    17.2070     0.0319    79.8189 </r>
       <r>    17.2979     0.0551    79.8239 </r>
       <r>    17.3887     0.0834    79.8315 </r>
       <r>    17.4796     0.0992    79.8405 </r>
       <r>    17.5704     0.0922    79.8489 </r>
       <r>    17.6613     0.0703    79.8553 </r>
       <r>    17.7521     0.0556    79.8604 </r>
       <r>    17.8430     0.0656    79.8663 </r>
       <r>    17.9338     0.0984    79.8753 </r>
       <r>    18.0247     0.1345    79.8875 </r>
       <r>    18.1155     0.1531    79.9014 </r>
       <r>    18.2064     0.1447    79.9145 </r>
       <r>    18.2972     0.1137    79.9249 </r>
       <r>    18.3881     0.0720    79.9314 </r>
       <r>    18.4789     0.0330    79.9344 </r>
       <r>    18.5698     0.0059    79.9349 </r>
       <r>    18.6606    -0.0063    79.9344 </r>
       <r>    18.7515    -0.0041    79.9340 </r>
       <r>    18.8423     0.0112    79.9350 </r>
       <r>    18.9332     0.0374    79.9384 </r>
       <r>    19.0240     0.0678    79.9446 </r>
       <r>    19.1149     0.0914    79.9529 </r>
       <r>    19.2057     0.0982    79.9618 </r>
       <r>    19.2966     0.0864    79.9696 </r>
       <r>    19.3874     0.0637    79.9754 </r>
       <r>    19.4783     0.0414    79.9792 </r>
       <r>    19.5691     0.0275    79.9817 </r>
       <r>    19.6600     0.0231    79.9838 </r>
       <r>    19.7508     0.0249    79.9861 </r>
       <r>    19.8417     0.0283    79.9886 </r>
       <r>    19.9325     0.0297    79.9913 </r>
       <r>    20.0234     0.0283    79.9939 </r>
       <r>    20.1142     0.0247    79.9961 </r>
       <r>    20.2051     0.0199    79.9980 </r>
       <r>    20.2959     0.0141    79.9992 </r>
       <r>    20.3868     0.0080    80.0000 </r>
       <r>    20.4776     0.0029    80.0002 </r>
       <r>    20.5685     0.0000    80.0002 </r>
       <r>    20.6593    -0.0009    80.0001 </r>
       <r>    20.7502    -0.0008    80.0001 </r>
       <r>    20.8410    -0.0004    80.0000 </r>
       <r>    20.9319    -0.0002    80.0000 </r>
       <r>    21.0227    -0.0001    80.0000 </r>
       <r>    21.1136     0.0000    80.0000 </r>
       <r>    21.2044     0.0000    80.0000 </r>
       <r>    21.2953     0.0000    80.0000 </r>
       <r>    21.3861     0.0000    80.0000 </r>
       <r>    21.4770     0.0000    80.0000 </r>
       <r>    21.5678     0.0000    80.0000 </r>
       <r>    21.6587     0.0000    80.0000 </r>
       <r>    21.7495     0.0000    80.0000 </r>
       <r>    21.8404     0.0000    80.0000 </r>
       <r>    21.9312     0.0000    80.0000 </r>
       <r>    22.0221     0.0000    80.0000 </r>
       <r>    22.1129     0.0000    80.0000 </r>
       <r>    22.2038     0.0000    80.0000 </r>
       <r>    22.2946     0.0000    80.0000 </r>
       <r>    22.3855     0.0000    80.0000 </r>
       <r>    22.4763     0.0000    80.0000 </r>
       <r>    22.5672     0.0000    80.0000 </r>
       <r>    22.6580     0.0000    80.0000 </r>
       <r>    22.7489     0.0000    80.0000 </r>
       <r>    22.8397     0.0000    80.0000 </r>
       <r>    22.9306     0.0000    80.0000 </r>
       <r>    23.0214     0.0000    80.0000 </r>
       <r>    23.1123     0.0000    80.0000 </r>
       <r>    23.2031     0.0000    80.0000 </r>
      </set>
     </set>
    </array>
   </total>
  </dos>
 </calculation>
 <structure name="finalpos" >
  <crystal>
   <varray name="basis" >
    <v>       2.02786172       0.00000000       2.02786172 </v>
    <v>       0.00000000      -2.02786172      -2.02786172 </v>
    <v>       7.86551949       7.86551949      -7.86551949 </v>
   </varray>
   <i name="volume">     97.03431424 </i>
   <varray name="rec_basis" >
    <v>       0.32875351      -0.16437676       0.16437676 </v>
    <v>       0.16437676      -0.32875351      -0.16437676 </v>
    <v>       0.04237906       0.04237906      -0.04237906 </v>
   </varray>
  </crystal>
  <varray name="positions" >
   <v>       0.33333333       0.66666667       0.67968697 </v>
   <v>       0.66666667       0.33333333       0.81892464 </v>
   <v>       0.66666667       0.33333333       0.34099169 </v>
   <v>       0.00000000       0.00000000       0.97704679 </v>
   <v>       0.33333333       0.66666667       0.16259319 </v>
   <v>       0.00000000       0.00000000       0.52075672 </v>
  </varray>
 </structure>
</modeling>
