<?xml version="1.0" encoding="ISO-8859-1"?>
<modeling>
 <generator>
  <i name="program" type="string">vasp </i>
  <i name="version" type="string">5.3.5  </i>
  <i name="subversion" type="string">31Mar14 (build Jun 20 2014 13:15:13) complex                          parallel </i>
  <i name="platform" type="string">LinuxIFC </i>
  <i name="date" type="string">2025 12 16 </i>
  <i name="time" type="string">17:40:37 </i>
 </generator>
 <incar>
  <i type="string" name="PREC">accurate</i>
  <i type="int" name="IALGO">    68</i>
  <i type="logical" name="ADDGRID"> T  </i>
  <i type="int" name="NELM">   100</i>
  <i type="int" name="NELMIN">     4</i>
  <i type="int" name="IBRION">     2</i>
  <i name="EDIFF">      0.00000100</i>
  <i name="EDIFFG">     -0.02000000</i>
  <i type="int" name="NSW">    30</i>
  <i type="int" name="ISIF">     3</i>
  <i name="ENCUT">    600.00000000</i>
  <i type="logical" name="LREAL"> F  </i>
  <i type="int" name="ISMEAR">     0</i>
  <i name="SIGMA">      0.10000000</i>
  <i type="logical" name="LWAVE"> F  </i>
  <i type="logical" name="LCHARG"> F  </i>
  <i type="int" name="NELM">   100</i>
 </incar>
 <kpoints>
  <generation param="Auto">
   <i name="subdivisionlength">     20.00000000 </i>
   <v type="int" name="divisions">       3        6        3 </v>
   <v name="usershift">      0.00000000       0.00000000       0.00000000 </v>
   <v name="genvec1">      0.33333333       0.00000000       0.00000000 </v>
   <v name="genvec2">      0.00000000       0.16666667       0.00000000 </v>
   <v name="genvec3">      0.00000000       0.00000000       0.33333333 </v>
   <v name="shift">      0.00000000       0.00000000       0.00000000 </v>
  </generation>
  <varray name="kpointlist" >
   <v>       0.00000000       0.00000000       0.00000000 </v>
   <v>       0.33333333       0.00000000       0.00000000 </v>
   <v>       0.00000000       0.16666667       0.00000000 </v>
   <v>       0.33333333       0.16666667       0.00000000 </v>
   <v>       0.00000000       0.33333333       0.00000000 </v>
   <v>       0.33333333       0.33333333       0.00000000 </v>
   <v>       0.00000000       0.50000000       0.00000000 </v>
   <v>       0.33333333       0.50000000       0.00000000 </v>
   <v>       0.00000000       0.00000000       0.33333333 </v>
   <v>       0.33333333       0.00000000       0.33333333 </v>
   <v>      -0.33333333       0.00000000       0.33333333 </v>
   <v>       0.00000000       0.16666667       0.33333333 </v>
   <v>       0.33333333       0.16666667       0.33333333 </v>
   <v>      -0.33333333       0.16666667       0.33333333 </v>
   <v>       0.00000000       0.33333333       0.33333333 </v>
   <v>       0.33333333       0.33333333       0.33333333 </v>
   <v>      -0.33333333       0.33333333       0.33333333 </v>
   <v>       0.00000000       0.50000000       0.33333333 </v>
   <v>       0.33333333       0.50000000       0.33333333 </v>
   <v>      -0.33333333       0.50000000       0.33333333 </v>
  </varray>
  <varray name="weights" >
   <v>       0.01851852 </v>
   <v>       0.03703704 </v>
   <v>       0.03703704 </v>
   <v>       0.07407407 </v>
   <v>       0.03703704 </v>
   <v>       0.07407407 </v>
   <v>       0.01851852 </v>
   <v>       0.03703704 </v>
   <v>       0.03703704 </v>
   <v>       0.03703704 </v>
   <v>       0.03703704 </v>
   <v>       0.07407407 </v>
   <v>       0.07407407 </v>
   <v>       0.07407407 </v>
   <v>       0.07407407 </v>
   <v>       0.07407407 </v>
   <v>       0.07407407 </v>
   <v>       0.03703704 </v>
   <v>       0.03703704 </v>
   <v>       0.03703704 </v>
  </varray>
 </kpoints>
 <parameters>
  <separator name="general" >
   <i type="string" name="SYSTEM">unknown system</i>
   <i type="logical" name="LCOMPAT"> F  </i>
  </separator>
  <separator name="electronic" >
   <i type="string" name="PREC">accura</i>
   <i name="ENMAX">    600.00000000</i>
   <i name="ENAUG">    644.87300000</i>
   <i name="EDIFF">      0.00000100</i>
   <i type="int" name="IALGO">    68</i>
   <i type="int" name="IWAVPR">    11</i>
   <i type="int" name="NBANDS">    44</i>
   <i name="NELECT">     64.00000000</i>
   <i type="int" name="TURBO">     0</i>
   <i type="int" name="IRESTART">     0</i>
   <i type="int" name="NREBOOT">     0</i>
   <i type="int" name="NMIN">     0</i>
   <i name="EREF">      0.00000000</i>
   <separator name="electronic smearing" >
    <i type="int" name="ISMEAR">     0</i>
    <i name="SIGMA">      0.10000000</i>
    <i name="KSPACING">      0.50000000</i>
    <i type="logical" name="KGAMMA"> T  </i>
   </separator>
   <separator name="electronic projectors" >
    <i type="logical" name="LREAL"> F  </i>
    <v name="ROPT">      0.00000000      0.00000000      0.00000000      0.00000000</v>
    <i type="int" name="LMAXPAW">  -100</i>
    <i type="int" name="LMAXMIX">     2</i>
    <i type="logical" name="NLSPLINE"> F  </i>
   </separator>
   <separator name="electronic startup" >
    <i type="int" name="ISTART">     0</i>
    <i type="int" name="ICHARG">     2</i>
    <i type="int" name="INIWAV">     1</i>
   </separator>
   <separator name="electronic spin" >
    <i type="int" name="ISPIN">     1</i>
    <i type="logical" name="LNONCOLLINEAR"> F  </i>
    <v name="MAGMOM">      1.00000000      1.00000000      1.00000000      1.00000000      1.00000000      1.00000000      1.00000000      1.00000000      1.00000000      1.00000000      1.00000000      1.00000000      1.00000000      1.00000000      1.00000000      1.00000000</v>
    <i name="NUPDOWN">     -1.00000000</i>
    <i type="logical" name="LSORBIT"> F  </i>
    <v name="SAXIS">      0.00000000      0.00000000      1.00000000</v>
    <i type="logical" name="LSPIRAL"> F  </i>
    <v name="QSPIRAL">      0.00000000      0.00000000      0.00000000</v>
    <i type="logical" name="LZEROZ"> F  </i>
   </separator>
   <separator name="electronic exchange-correlation" >
    <i type="logical" name="LASPH"> F  </i>
    <i type="logical" name="LMETAGGA"> F  </i>
   </separator>
   <separator name="electronic convergence" >
    <i type="int" name="NELM">   100</i>
    <i type="int" name="NELMDL">     0</i>
    <i type="int" name="NELMIN">     4</i>
    <i name="ENINI">    600.00000000</i>
    <separator name="electronic convergence detail" >
     <i type="logical" name="LDIAG"> T  </i>
     <i type="logical" name="LSUBROT"> F  </i>
     <i name="WEIMIN">      0.00100000</i>
     <i name="EBREAK">      0.00000001</i>
     <i name="DEPER">      0.30000000</i>
     <i type="int" name="NRMM">     4</i>
     <i name="TIME">      0.40000000</i>
    </separator>
   </separator>
   <separator name="electronic mixer" >
    <i name="AMIX">      0.40000000</i>
    <i name="BMIX">      1.00000000</i>
    <i name="AMIN">      0.10000000</i>
    <i name="AMIX_MAG">      1.60000000</i>
    <i name="BMIX_MAG">      1.00000000</i>
    <separator name="electronic mixer details" >
     <i type="int" name="IMIX">     4</i>
     <i type="int" name="MAXMIX">   -45</i>
     <i name="WC">    100.00000000</i>
     <i type="int" name="INIMIX">     1</i>
     <i type="int" name="MIXPRE">     1</i>
     <i type="int" name="MREMOVE">     5</i>
    </separator>
   </separator>
   <separator name="electronic dipolcorrection" >
    <i type="logical" name="LDIPOL"> F  </i>
    <i type="logical" name="LMONO"> F  </i>
    <i type="int" name="IDIPOL">     0</i>
    <i name="EPSILON">      1.00000000</i>
    <v name="DIPOL">   -100.00000000   -100.00000000   -100.00000000</v>
    <i name="EFIELD">      0.00000000</i>
   </separator>
  </separator>
  <separator name="grids" >
   <i type="int" name="NGX">    60</i>
   <i type="int" name="NGY">    28</i>
   <i type="int" name="NGZ">    60</i>
   <i type="int" name="NGXF">   120</i>
   <i type="int" name="NGYF">    56</i>
   <i type="int" name="NGZF">   120</i>
   <i type="logical" name="ADDGRID"> T  </i>
  </separator>
  <separator name="ionic" >
   <i type="int" name="NSW">    30</i>
   <i type="int" name="IBRION">     2</i>
   <i type="int" name="ISIF">     3</i>
   <i name="PSTRESS">      0.00000000</i>
   <i name="EDIFFG">     -0.02000000</i>
   <i type="int" name="NFREE">     1</i>
   <i name="POTIM">      0.50000000</i>
   <i name="SMASS">     -3.00000000</i>
   <i name="SCALEE">      1.00000000</i>
  </separator>
  <separator name="ionic md" >
   <i name="TEBEG">      0.00010000</i>
   <i name="TEEND">      0.00010000</i>
   <i type="int" name="NBLOCK">     1</i>
   <i type="int" name="KBLOCK">    30</i>
   <i type="int" name="NPACO">   256</i>
   <i name="APACO">     16.00000000</i>
  </separator>
  <separator name="symmetry" >
   <i type="int" name="ISYM">     2</i>
   <i name="SYMPREC">      0.00001000</i>
  </separator>
  <separator name="dos" >
   <i type="logical" name="LORBIT"> F  </i>
   <v name="RWIGS">     -1.00000000     -1.00000000     -1.00000000     -1.00000000</v>
   <i type="int" name="NEDOS">   301</i>
   <i name="EMIN">     10.00000000</i>
   <i name="EMAX">    -10.00000000</i>
   <i name="EFERMI">      0.00000000</i>
  </separator>
  <separator name="writing" >
   <i type="int" name="NWRITE">     2</i>
   <i type="logical" name="LWAVE"> F  </i>
   <i type="logical" name="LCHARG"> F  </i>
   <i type="logical" name="LPARD"> F  </i>
   <i type="logical" name="LVTOT"> F  </i>
   <i type="logical" name="LVHAR"> F  </i>
   <i type="logical" name="LELF"> F  </i>
   <i type="logical" name="LOPTICS"> F  </i>
   <v name="STM">      0.00000000      0.00000000      0.00000000      0.00000000      0.00000000      0.00000000      0.00000000</v>
  </separator>
  <separator name="performance" >
   <i type="int" name="NPAR">     4</i>
   <i type="int" name="NSIM">     4</i>
   <i type="int" name="NBLK">    -1</i>
   <i type="logical" name="LPLANE"> T  </i>
   <i type="logical" name="LSCALAPACK"> T  </i>
   <i type="logical" name="LSCAAWARE"> F  </i>
   <i type="logical" name="LSCALU"> F  </i>
   <i type="logical" name="LASYNC"> F  </i>
   <i type="logical" name="LORBITALREAL"> F  </i>
  </separator>
  <separator name="miscellaneous" >
   <i type="int" name="IDIOT">     3</i>
   <i type="logical" name="LMUSIC"> F  </i>
   <v name="POMASS">     28.08500000     26.98100000     12.01100000     14.00100000</v>
   <v name="DARWINR">      0.00000000      0.00000000      0.00000000      0.00000000</v>
   <v name="DARWINV">      1.00000000      1.00000000      1.00000000      1.00000000</v>
   <i type="logical" name="LCORR"> T  </i>
  </separator>
  <i type="logical" name="GGA_COMPAT"> T  </i>
  <i type="logical" name="LBERRY"> F  </i>
  <i type="int" name="ICORELEVEL">     0</i>
  <i type="logical" name="LDAU"> F  </i>
  <i type="int" name="I_CONSTRAINED_M">     0</i>
  <separator name="electronic exchange-correlation" >
   <i type="string" name="GGA">--</i>
   <i type="int" name="VOSKOWN">     0</i>
   <i type="logical" name="LHFCALC"> F  </i>
   <i type="string" name="PRECFOCK"></i>
   <i type="logical" name="LSYMGRAD"> F  </i>
   <i type="logical" name="LHFONE"> F  </i>
   <i type="logical" name="LRHFCALC"> F  </i>
   <i type="logical" name="LTHOMAS"> F  </i>
   <i type="logical" name="LMODELHF"> F  </i>
   <i name="ENCUT4O">     -1.00000000</i>
   <i type="int" name="EXXOEP">     0</i>
   <i type="int" name="FOURORBIT">     0</i>
   <i name="AEXX">      0.00000000</i>
   <i name="HFALPHA">      0.00000000</i>
   <i name="MCALPHA">      0.00000000</i>
   <i name="ALDAX">      1.00000000</i>
   <i name="AGGAX">      1.00000000</i>
   <i name="ALDAC">      1.00000000</i>
   <i name="AGGAC">      1.00000000</i>
   <i type="int" name="NKREDX">     1</i>
   <i type="int" name="NKREDY">     1</i>
   <i type="int" name="NKREDZ">     1</i>
   <i type="logical" name="SHIFTRED"> F  </i>
   <i type="logical" name="ODDONLY"> F  </i>
   <i type="logical" name="EVENONLY"> F  </i>
   <i type="int" name="LMAXFOCK">     0</i>
   <i type="int" name="NMAXFOCKAE">     0</i>
   <i type="logical" name="LFOCKAEDFT"> F  </i>
   <i name="HFSCREEN">      0.00000000</i>
   <i name="HFSCREENC">      0.00000000</i>
   <i type="int" name="NBANDSGWLOW">     0</i>
  </separator>
  <separator name="vdW DFT" >
   <i type="logical" name="LUSE_VDW"> F  </i>
   <i name="Zab_VDW">     -0.84910000</i>
   <i name="PARAM1">      0.12340000</i>
   <i name="PARAM2">      1.00000000</i>
   <i name="PARAM3">      0.00000000</i>
  </separator>
  <separator name="model GW" >
   <i type="int" name="MODEL_GW">     0</i>
   <i name="MODEL_EPS0">      6.41876974</i>
   <i name="MODEL_ALPHA">      1.00000000</i>
  </separator>
  <separator name="linear response parameters" >
   <i type="logical" name="LEPSILON"> F  </i>
   <i type="logical" name="LRPA"> F  </i>
   <i type="logical" name="LNABLA"> F  </i>
   <i type="logical" name="LVEL"> F  </i>
   <i type="int" name="KINTER">     0</i>
   <i name="CSHIFT">      0.10000000</i>
   <i name="OMEGAMAX">     -1.00000000</i>
   <i name="DEG_THRESHOLD">      0.00200000</i>
  </separator>
  <separator name="orbital magnetization" >
   <i type="logical" name="NUCIND"> F  </i>
   <v name="MAGPOS">      0.00000000      0.00000000      0.00000000</v>
   <i type="logical" name="LNICSALL"> T  </i>
   <i type="logical" name="ORBITALMAG"> F  </i>
   <i type="logical" name="LMAGBLOCH"> F  </i>
   <i type="logical" name="LCHIMAG"> F  </i>
   <i type="logical" name="LGAUGE"> T  </i>
   <i type="int" name="MAGATOM">     0</i>
   <v name="MAGDIPOL">      0.00000000      0.00000000      0.00000000</v>
   <v name="AVECCONST">      0.00000000      0.00000000      0.00000000</v>
  </separator>
  <separator name="response functions" >
   <i type="logical" name="LADDER"> F  </i>
   <i type="logical" name="LFXC"> F  </i>
   <i type="logical" name="LHARTREE"> T  </i>
   <i type="int" name="IBSE">     0</i>
   <i type="logical" name="LTCTE"> F  </i>
   <i type="logical" name="LTETE"> F  </i>
   <i type="logical" name="LTRIPLET"> F  </i>
   <i type="logical" name="LFXCEPS"> F  </i>
   <i type="logical" name="LFXHEG"> F  </i>
   <i type="logical" name="L2ORDER"> F  </i>
   <i type="logical" name="LUSEW"> F  </i>
   <i name="ENCUTGW">     -2.00000000</i>
   <i name="ENCUTGWSOFT">     -2.00000000</i>
   <i name="ENCUTLF">     -1.00000000</i>
   <i type="int" name="LMAXMP2">    -1</i>
   <i name="SCISSOR">      0.00000000</i>
   <i type="int" name="NOMEGA">     0</i>
   <i type="int" name="NOMEGAR">     0</i>
   <i type="int" name="NBANDSGW">    -1</i>
   <i type="int" name="NBANDSO">    -1</i>
   <i type="int" name="NBANDSV">    -1</i>
   <i type="int" name="NELM">   100</i>
   <i type="int" name="DIM">     3</i>
   <i type="int" name="ANTIRES">     0</i>
   <i name="OMEGAMAX">    -30.00000000</i>
   <i name="OMEGAMIN">    -30.00000000</i>
   <i name="OMEGATL">   -200.00000000</i>
   <i type="int" name="OMEGAGRID">     0</i>
   <i name="CSHIFT">     -0.10000000</i>
   <i type="logical" name="SELFENERGY"> F  </i>
   <i type="logical" name="LSPECTRAL"> F  </i>
   <i type="logical" name="ODDONLYGW"> F  </i>
   <i type="logical" name="EVENONLYGW"> F  </i>
   <i type="int" name="NKREDLFX">     1</i>
   <i type="int" name="NKREDLFY">     1</i>
   <i type="int" name="NKREDLFZ">     1</i>
   <i type="int" name="MAXMEM">  1800</i>
   <i type="int" name="TELESCOPE">     0</i>
   <i type="int" name="TAUPAR">     1</i>
  </separator>
  <separator name="External order field" >
   <i name="OFIELD_KAPPA">      0.00000000</i>
   <v name="OFIELD_K">      0.00000000      0.00000000      0.00000000</v>
   <i name="OFIELD_Q6_NEAR">      0.00000000</i>
   <i name="OFIELD_Q6_FAR">      0.00000000</i>
   <i name="OFIELD_A">      0.00000000</i>
  </separator>
 </parameters>
 <atominfo>
  <atoms>      16 </atoms>
  <types>       4 </types>
  <array name="atoms" >
   <dimension dim="1">ion</dimension>
   <field type="string">element</field>
   <field type="int">atomtype</field>
   <set>
    <rc><c>Si</c><c>   1</c></rc>
    <rc><c>Si</c><c>   1</c></rc>
    <rc><c>Si</c><c>   1</c></rc>
    <rc><c>Si</c><c>   1</c></rc>
    <rc><c>Al</c><c>   2</c></rc>
    <rc><c>Al</c><c>   2</c></rc>
    <rc><c>Al</c><c>   2</c></rc>
    <rc><c>Al</c><c>   2</c></rc>
    <rc><c>C </c><c>   3</c></rc>
    <rc><c>C </c><c>   3</c></rc>
    <rc><c>C </c><c>   3</c></rc>
    <rc><c>C </c><c>   3</c></rc>
    <rc><c>N </c><c>   4</c></rc>
    <rc><c>N </c><c>   4</c></rc>
    <rc><c>N </c><c>   4</c></rc>
    <rc><c>N </c><c>   4</c></rc>
   </set>
  </array>
  <array name="atomtypes" >
   <dimension dim="1">type</dimension>
   <field type="int">atomspertype</field>
   <field type="string">element</field>
   <field>mass</field>
   <field>valence</field>
   <field type="string">pseudopotential</field>
   <set>
    <rc><c>   4</c><c>Si</c><c>     28.08500000</c><c>      4.00000000</c><c>  PAW_PBE Si 05Jan2001                  </c></rc>
    <rc><c>   4</c><c>Al</c><c>     26.98100000</c><c>      3.00000000</c><c>  PAW_PBE Al 04Jan2001                  </c></rc>
    <rc><c>   4</c><c>C </c><c>     12.01100000</c><c>      4.00000000</c><c>  PAW_PBE C 08Apr2002                   </c></rc>
    <rc><c>   4</c><c>N </c><c>     14.00100000</c><c>      5.00000000</c><c>  PAW_PBE N_s 07Sep2000                 </c></rc>
   </set>
  </array>
 </atominfo>
 <structure name="initialpos" >
  <crystal>
   <varray name="basis" >
    <v>       7.39051901       0.00000000       0.05759135 </v>
    <v>       0.00000000       3.12724528       0.00000000 </v>
    <v>      -0.52698929       0.00000000       7.40189230 </v>
   </varray>
   <i name="volume">    171.16719304 </i>
   <varray name="rec_basis" >
    <v>       0.13523347       0.00000000       0.00962816 </v>
    <v>       0.00000000       0.31977025       0.00000000 </v>
    <v>      -0.00105220       0.00000000       0.13502567 </v>
   </varray>
  </crystal>
  <varray name="positions" >
   <v>       0.91945989       0.50000000       0.07644220 </v>
   <v>       0.33687173       0.50000000       0.16735621 </v>
   <v>       0.57797956       0.00000000       0.91431536 </v>
   <v>       0.07822518       0.00000000       0.42540185 </v>
   <v>       0.16649726       0.00000000       0.82837039 </v>
   <v>       0.41562101       0.50000000       0.58374553 </v>
   <v>       0.66010695       0.00000000       0.33323218 </v>
   <v>       0.83453703       0.50000000       0.66547421 </v>
   <v>       0.36078152       0.00000000       0.03735160 </v>
   <v>       0.60630767       0.50000000       0.79186611 </v>
   <v>       0.85974136       0.00000000       0.51254677 </v>
   <v>       0.26374578       0.00000000       0.59008514 </v>
   <v>       0.10085736       0.50000000       0.25978763 </v>
   <v>       0.51367274       0.50000000       0.34150561 </v>
   <v>       0.78622116       0.00000000       0.09944652 </v>
   <v>       0.01937382       0.50000000       0.87307272 </v>
  </varray>
 </structure>
 <calculation>
  <scstep>
   <time name="dav">    0.64    0.64</time>
   <time name="total">    0.73    0.74</time>
   <energy>
    <i name="alphaZ">     63.54369445 </i>
    <i name="ewald">  -2247.18524543 </i>
    <i name="hartreedc">   -380.05006998 </i>
    <i name="XCdc">     -5.72379580 </i>
    <i name="pawpsdc">   1871.13760811 </i>
    <i name="pawaedc">  -1679.96522576 </i>
    <i name="eentropy">     -0.01118057 </i>
    <i name="bandstr">    437.81988732 </i>
    <i name="atom">   2273.20978491 </i>
    <i name="e_fr_energy">    332.77545725 </i>
    <i name="e_wo_entrp">    332.78663781 </i>
    <i name="e_0_energy">    332.78104753 </i>
   </energy>
  </scstep>
  <scstep>
   <time name="dav">    0.76    0.76</time>
   <time name="total">    0.76    0.77</time>
   <energy>
    <i name="e_fr_energy">   -101.43802276 </i>
    <i name="e_wo_entrp">   -101.43802276 </i>
    <i name="e_0_energy">   -101.43802276 </i>
   </energy>
  </scstep>
  <scstep>
   <time name="dav">    0.82    0.82</time>
   <time name="total">    0.82    0.83</time>
   <energy>
    <i name="e_fr_energy">   -133.83724872 </i>
    <i name="e_wo_entrp">   -133.83724872 </i>
    <i name="e_0_energy">   -133.83724872 </i>
   </energy>
  </scstep>
  <scstep>
   <time name="dav">    0.78    0.78</time>
   <time name="total">    0.78    0.80</time>
   <energy>
    <i name="e_fr_energy">   -134.68263015 </i>
    <i name="e_wo_entrp">   -134.68263015 </i>
    <i name="e_0_energy">   -134.68263015 </i>
   </energy>
  </scstep>
  <scstep>
   <time name="dav">    0.77    0.77</time>
   <time name="total">    0.90    0.92</time>
   <energy>
    <i name="e_fr_energy">   -134.71004886 </i>
    <i name="e_wo_entrp">   -134.71004886 </i>
    <i name="e_0_energy">   -134.71004886 </i>
   </energy>
  </scstep>
  <scstep>
   <time name="diag">    0.15    0.15</time>
   <time name="diis">    0.49    0.49</time>
   <time name="orth">    0.02    0.02</time>
   <time name="total">    0.88    0.89</time>
   <energy>
    <i name="e_fr_energy">   -116.33695309 </i>
    <i name="e_wo_entrp">   -116.33695309 </i>
    <i name="e_0_energy">   -116.33695309 </i>
   </energy>
  </scstep>
  <scstep>
   <time name="diag">    0.15    0.15</time>
   <time name="diis">    0.53    0.53</time>
   <time name="orth">    0.02    0.02</time>
   <time name="total">    0.91    0.93</time>
   <energy>
    <i name="e_fr_energy">   -116.19899496 </i>
    <i name="e_wo_entrp">   -116.19899496 </i>
    <i name="e_0_energy">   -116.19899496 </i>
   </energy>
  </scstep>
  <scstep>
   <time name="diag">    0.15    0.15</time>
   <time name="diis">    0.48    0.49</time>
   <time name="orth">    0.02    0.02</time>
   <time name="total">    0.87    0.89</time>
   <energy>
    <i name="e_fr_energy">   -116.58705739 </i>
    <i name="e_wo_entrp">   -116.58705739 </i>
    <i name="e_0_energy">   -116.58705739 </i>
   </energy>
  </scstep>
  <scstep>
   <time name="diag">    0.15    0.15</time>
   <time name="diis">    0.48    0.48</time>
   <time name="orth">    0.02    0.02</time>
   <time name="total">    0.87    0.89</time>
   <energy>
    <i name="e_fr_energy">   -116.07828676 </i>
    <i name="e_wo_entrp">   -116.07828676 </i>
    <i name="e_0_energy">   -116.07828676 </i>
   </energy>
  </scstep>
  <scstep>
   <time name="diag">    0.15    0.15</time>
   <time name="diis">    0.50    0.50</time>
   <time name="orth">    0.02    0.02</time>
   <time name="total">    0.88    0.89</time>
   <energy>
    <i name="e_fr_energy">   -116.08936071 </i>
    <i name="e_wo_entrp">   -116.08936071 </i>
    <i name="e_0_energy">   -116.08936071 </i>
   </energy>
  </scstep>
  <scstep>
   <time name="diag">    0.16    0.16</time>
   <time name="diis">    0.49    0.49</time>
   <time name="orth">    0.02    0.02</time>
   <time name="total">    0.88    0.90</time>
   <energy>
    <i name="e_fr_energy">   -116.08692202 </i>
    <i name="e_wo_entrp">   -116.08692202 </i>
    <i name="e_0_energy">   -116.08692202 </i>
   </energy>
  </scstep>
  <scstep>
   <time name="diag">    0.15    0.15</time>
   <time name="diis">    0.49    0.49</time>
   <time name="orth">    0.02    0.02</time>
   <time name="total">    0.87    0.89</time>
   <energy>
    <i name="e_fr_energy">   -116.08636081 </i>
    <i name="e_wo_entrp">   -116.08636081 </i>
    <i name="e_0_energy">   -116.08636081 </i>
   </energy>
  </scstep>
  <scstep>
   <time name="diag">    0.15    0.15</time>
   <time name="diis">    0.49    0.49</time>
   <time name="orth">    0.02    0.02</time>
   <time name="total">    0.88    0.89</time>
   <energy>
    <i name="e_fr_energy">   -116.08635982 </i>
    <i name="e_wo_entrp">   -116.08635982 </i>
    <i name="e_0_energy">   -116.08635982 </i>
   </energy>
  </scstep>
  <scstep>
   <time name="diag">    0.15    0.15</time>
   <time name="diis">    0.50    0.50</time>
   <time name="orth">    0.02    0.02</time>
   <time name="total">    0.89    0.90</time>
   <energy>
    <i name="e_fr_energy">   -116.08636429 </i>
    <i name="e_wo_entrp">   -116.08636429 </i>
    <i name="e_0_energy">   -116.08636429 </i>
   </energy>
  </scstep>
  <scstep>
   <time name="diag">    0.15    0.15</time>
   <time name="diis">    0.46    0.46</time>
   <time name="orth">    0.02    0.02</time>
   <time name="total">    0.85    0.86</time>
   <energy>
    <i name="e_fr_energy">   -116.08636494 </i>
    <i name="e_wo_entrp">   -116.08636494 </i>
    <i name="e_0_energy">   -116.08636494 </i>
   </energy>
  </scstep>
  <scstep>
   <time name="diag">    0.15    0.15</time>
   <time name="diis">    0.33    0.33</time>
   <time name="orth">    0.02    0.02</time>
   <time name="total">    0.59    0.60</time>
   <energy>
    <i name="alphaZ">     63.54369445 </i>
    <i name="ewald">  -2247.18524543 </i>
    <i name="hartreedc">   -484.54749059 </i>
    <i name="XCdc">      3.81901489 </i>
    <i name="pawpsdc">  10136.98304019 </i>
    <i name="pawaedc">  -9949.95628306 </i>
    <i name="eentropy">      0.00000000 </i>
    <i name="bandstr">     88.04712008 </i>
    <i name="atom">   2273.20978491 </i>
    <i name="e_fr_energy">   -116.08636456 </i>
    <i name="e_wo_entrp">   -116.08636456 </i>
    <i name="e_0_energy">   -116.08636456 </i>
   </energy>
  </scstep>
  <structure>
   <crystal>
    <varray name="basis" >
     <v>       7.39051901       0.00000000       0.05759135 </v>
     <v>       0.00000000       3.12724528       0.00000000 </v>
     <v>      -0.52698929       0.00000000       7.40189230 </v>
    </varray>
    <i name="volume">    171.16719304 </i>
    <varray name="rec_basis" >
     <v>       0.13523347       0.00000000       0.00962816 </v>
     <v>       0.00000000       0.31977025       0.00000000 </v>
     <v>      -0.00105220       0.00000000       0.13502567 </v>
    </varray>
   </crystal>
   <varray name="positions" >
    <v>       0.91945989       0.50000000       0.07644220 </v>
    <v>       0.33687173       0.50000000       0.16735621 </v>
    <v>       0.57797956       0.00000000       0.91431536 </v>
    <v>       0.07822518       0.00000000       0.42540185 </v>
    <v>       0.16649726       0.00000000       0.82837039 </v>
    <v>       0.41562101       0.50000000       0.58374553 </v>
    <v>       0.66010695       0.00000000       0.33323218 </v>
    <v>       0.83453703       0.50000000       0.66547421 </v>
    <v>       0.36078152       0.00000000       0.03735160 </v>
    <v>       0.60630767       0.50000000       0.79186611 </v>
    <v>       0.85974136       0.00000000       0.51254677 </v>
    <v>       0.26374578       0.00000000       0.59008514 </v>
    <v>       0.10085736       0.50000000       0.25978763 </v>
    <v>       0.51367274       0.50000000       0.34150561 </v>
    <v>       0.78622116       0.00000000       0.09944652 </v>
    <v>       0.01937382       0.50000000       0.87307272 </v>
   </varray>
  </structure>
  <varray name="forces" >
   <v>       0.00137991       0.00000000      -0.00015323 </v>
   <v>      -0.00221085       0.00000000      -0.00402497 </v>
   <v>      -0.00846834       0.00000000       0.00161448 </v>
   <v>      -0.00193258       0.00000000      -0.00952705 </v>
   <v>       0.00267289       0.00000000       0.00397179 </v>
   <v>       0.00033596       0.00000000      -0.00146530 </v>
   <v>       0.00942512       0.00000000       0.00039494 </v>
   <v>       0.00111169       0.00000000      -0.00062886 </v>
   <v>      -0.00259553       0.00000000       0.00574286 </v>
   <v>      -0.00046864       0.00000000       0.00239661 </v>
   <v>      -0.00444181       0.00000000       0.00354649 </v>
   <v>       0.00619744       0.00000000       0.00304295 </v>
   <v>      -0.00056308       0.00000000      -0.00026930 </v>
   <v>       0.00540495       0.00000000       0.00354998 </v>
   <v>      -0.00767917       0.00000000      -0.00551802 </v>
   <v>       0.00183203       0.00000000      -0.00267337 </v>
  </varray>
  <varray name="stress" >
   <v>       0.12978780       0.00000000      -0.07978783 </v>
   <v>       0.00000000      -0.04899783       0.00000000 </v>
   <v>      -0.07978782       0.00000000       0.00776490 </v>
  </varray>
  <energy>
   <i name="e_fr_energy">   -116.08636456 </i>
   <i name="e_wo_entrp">   -116.08636456 </i>
   <i name="e_0_energy">      0.00000000 </i>
  </energy>
  <time name="totalsc">   15.92   16.17</time>
  <eigenvalues>
   <array>
    <dimension dim="1">band</dimension>
    <dimension dim="2">kpoint</dimension>
    <dimension dim="3">spin</dimension>
    <field>eigene</field>
    <field>occ</field>
    <set>
     <set comment="spin 1">
      <set comment="kpoint 1">
       <r>   -9.9467    1.0000 </r>
       <r>   -8.5461    1.0000 </r>
       <r>   -7.9328    1.0000 </r>
       <r>   -7.5954    1.0000 </r>
       <r>   -5.2560    1.0000 </r>
       <r>   -4.5557    1.0000 </r>
       <r>   -3.4305    1.0000 </r>
       <r>   -2.8661    1.0000 </r>
       <r>   -0.5887    1.0000 </r>
       <r>    0.1201    1.0000 </r>
       <r>    0.8527    1.0000 </r>
       <r>    1.9086    1.0000 </r>
       <r>    2.0924    1.0000 </r>
       <r>    2.4800    1.0000 </r>
       <r>    2.6201    1.0000 </r>
       <r>    2.7229    1.0000 </r>
       <r>    3.2345    1.0000 </r>
       <r>    3.9721    1.0000 </r>
       <r>    4.0010    1.0000 </r>
       <r>    4.3877    1.0000 </r>
       <r>    4.7682    1.0000 </r>
       <r>    4.9874    1.0000 </r>
       <r>    5.1103    1.0000 </r>
       <r>    5.1940    1.0000 </r>
       <r>    5.4723    1.0000 </r>
       <r>    5.8061    1.0000 </r>
       <r>    6.3943    1.0000 </r>
       <r>    6.7422    1.0000 </r>
       <r>    7.1509    1.0000 </r>
       <r>    7.2691    1.0000 </r>
       <r>    7.9445    1.0000 </r>
       <r>    8.3313    1.0000 </r>
       <r>    9.9553    0.0000 </r>
       <r>   10.5029    0.0000 </r>
       <r>   11.3946    0.0000 </r>
       <r>   11.9321    0.0000 </r>
       <r>   12.5710    0.0000 </r>
       <r>   12.6457    0.0000 </r>
       <r>   13.0300    0.0000 </r>
       <r>   13.2323    0.0000 </r>
       <r>   13.9465    0.0000 </r>
       <r>   14.7002    0.0000 </r>
       <r>   15.2766    0.0000 </r>
       <r>   15.3749    0.0000 </r>
      </set>
      <set comment="kpoint 2">
       <r>   -9.8855    1.0000 </r>
       <r>   -8.7636    1.0000 </r>
       <r>   -7.8295    1.0000 </r>
       <r>   -7.5514    1.0000 </r>
       <r>   -5.2076    1.0000 </r>
       <r>   -4.3653    1.0000 </r>
       <r>   -3.7996    1.0000 </r>
       <r>   -2.7525    1.0000 </r>
       <r>   -0.3644    1.0000 </r>
       <r>    0.2444    1.0000 </r>
       <r>    0.9065    1.0000 </r>
       <r>    1.4987    1.0000 </r>
       <r>    1.7671    1.0000 </r>
       <r>    2.2456    1.0000 </r>
       <r>    2.6445    1.0000 </r>
       <r>    2.7157    1.0000 </r>
       <r>    3.4888    1.0000 </r>
       <r>    3.8325    1.0000 </r>
       <r>    3.9114    1.0000 </r>
       <r>    4.6573    1.0000 </r>
       <r>    4.8023    1.0000 </r>
       <r>    4.8888    1.0000 </r>
       <r>    5.1406    1.0000 </r>
       <r>    5.4983    1.0000 </r>
       <r>    5.8042    1.0000 </r>
       <r>    6.0609    1.0000 </r>
       <r>    6.4289    1.0000 </r>
       <r>    6.5532    1.0000 </r>
       <r>    6.8877    1.0000 </r>
       <r>    7.0696    1.0000 </r>
       <r>    7.8586    1.0000 </r>
       <r>    8.3925    1.0000 </r>
       <r>   10.1204    0.0000 </r>
       <r>   10.5064    0.0000 </r>
       <r>   11.5783    0.0000 </r>
       <r>   12.1388    0.0000 </r>
       <r>   12.5109    0.0000 </r>
       <r>   12.9411    0.0000 </r>
       <r>   13.1783    0.0000 </r>
       <r>   13.4365    0.0000 </r>
       <r>   13.9167    0.0000 </r>
       <r>   14.6030    0.0000 </r>
       <r>   14.6644    0.0000 </r>
       <r>   15.4577    0.0000 </r>
      </set>
      <set comment="kpoint 3">
       <r>   -9.6906    1.0000 </r>
       <r>   -8.3748    1.0000 </r>
       <r>   -7.7624    1.0000 </r>
       <r>   -7.4617    1.0000 </r>
       <r>   -4.9684    1.0000 </r>
       <r>   -4.2644    1.0000 </r>
       <r>   -3.2868    1.0000 </r>
       <r>   -2.6096    1.0000 </r>
       <r>   -0.3900    1.0000 </r>
       <r>    0.3303    1.0000 </r>
       <r>    0.7572    1.0000 </r>
       <r>    1.3840    1.0000 </r>
       <r>    1.8849    1.0000 </r>
       <r>    2.0665    1.0000 </r>
       <r>    2.4001    1.0000 </r>
       <r>    2.6637    1.0000 </r>
       <r>    2.8697    1.0000 </r>
       <r>    3.5106    1.0000 </r>
       <r>    3.8988    1.0000 </r>
       <r>    4.0254    1.0000 </r>
       <r>    4.4668    1.0000 </r>
       <r>    4.5947    1.0000 </r>
       <r>    4.6887    1.0000 </r>
       <r>    4.9746    1.0000 </r>
       <r>    5.3350    1.0000 </r>
       <r>    5.5183    1.0000 </r>
       <r>    5.6243    1.0000 </r>
       <r>    6.6461    1.0000 </r>
       <r>    6.7291    1.0000 </r>
       <r>    6.9303    1.0000 </r>
       <r>    7.1374    1.0000 </r>
       <r>    7.2563    1.0000 </r>
       <r>   11.0650    0.0000 </r>
       <r>   11.4976    0.0000 </r>
       <r>   11.7185    0.0000 </r>
       <r>   12.6110    0.0000 </r>
       <r>   12.8577    0.0000 </r>
       <r>   13.0575    0.0000 </r>
       <r>   13.4212    0.0000 </r>
       <r>   13.4596    0.0000 </r>
       <r>   14.2779    0.0000 </r>
       <r>   14.3123    0.0000 </r>
       <r>   14.7236    0.0000 </r>
       <r>   15.3602    0.0000 </r>
      </set>
      <set comment="kpoint 4">
       <r>   -9.6327    1.0000 </r>
       <r>   -8.5697    1.0000 </r>
       <r>   -7.6600    1.0000 </r>
       <r>   -7.4373    1.0000 </r>
       <r>   -4.9297    1.0000 </r>
       <r>   -4.1007    1.0000 </r>
       <r>   -3.5692    1.0000 </r>
       <r>   -2.5206    1.0000 </r>
       <r>   -0.3208    1.0000 </r>
       <r>    0.4597    1.0000 </r>
       <r>    0.9272    1.0000 </r>
       <r>    1.3103    1.0000 </r>
       <r>    1.6152    1.0000 </r>
       <r>    1.7134    1.0000 </r>
       <r>    2.3926    1.0000 </r>
       <r>    2.9379    1.0000 </r>
       <r>    3.0890    1.0000 </r>
       <r>    3.3264    1.0000 </r>
       <r>    3.7421    1.0000 </r>
       <r>    3.9041    1.0000 </r>
       <r>    4.3018    1.0000 </r>
       <r>    4.4170    1.0000 </r>
       <r>    4.7915    1.0000 </r>
       <r>    4.8862    1.0000 </r>
       <r>    5.4067    1.0000 </r>
       <r>    5.6567    1.0000 </r>
       <r>    6.1156    1.0000 </r>
       <r>    6.5901    1.0000 </r>
       <r>    6.7383    1.0000 </r>
       <r>    6.9376    1.0000 </r>
       <r>    7.1590    1.0000 </r>
       <r>    7.3597    1.0000 </r>
       <r>   11.1766    0.0000 </r>
       <r>   11.6751    0.0000 </r>
       <r>   11.9952    0.0000 </r>
       <r>   12.5970    0.0000 </r>
       <r>   12.8369    0.0000 </r>
       <r>   13.1304    0.0000 </r>
       <r>   13.4085    0.0000 </r>
       <r>   13.7501    0.0000 </r>
       <r>   13.9980    0.0000 </r>
       <r>   14.2243    0.0000 </r>
       <r>   14.3630    0.0000 </r>
       <r>   14.7947    0.0000 </r>
      </set>
      <set comment="kpoint 5">
       <r>   -9.0136    1.0000 </r>
       <r>   -8.0503    1.0000 </r>
       <r>   -7.4051    1.0000 </r>
       <r>   -7.1761    1.0000 </r>
       <r>   -4.2025    1.0000 </r>
       <r>   -3.5607    1.0000 </r>
       <r>   -2.9839    1.0000 </r>
       <r>   -1.9693    1.0000 </r>
       <r>   -0.8365    1.0000 </r>
       <r>    0.0900    1.0000 </r>
       <r>    0.4209    1.0000 </r>
       <r>    0.7081    1.0000 </r>
       <r>    1.2068    1.0000 </r>
       <r>    1.3525    1.0000 </r>
       <r>    1.6692    1.0000 </r>
       <r>    2.5191    1.0000 </r>
       <r>    2.7183    1.0000 </r>
       <r>    2.9125    1.0000 </r>
       <r>    3.2393    1.0000 </r>
       <r>    3.4560    1.0000 </r>
       <r>    3.6066    1.0000 </r>
       <r>    4.2590    1.0000 </r>
       <r>    4.4453    1.0000 </r>
       <r>    4.8557    1.0000 </r>
       <r>    5.0635    1.0000 </r>
       <r>    5.4267    1.0000 </r>
       <r>    5.4508    1.0000 </r>
       <r>    5.8106    1.0000 </r>
       <r>    5.9353    1.0000 </r>
       <r>    6.3351    1.0000 </r>
       <r>    6.5977    1.0000 </r>
       <r>    7.0894    1.0000 </r>
       <r>   10.6511    0.0000 </r>
       <r>   11.3698    0.0000 </r>
       <r>   11.5618    0.0000 </r>
       <r>   11.8489    0.0000 </r>
       <r>   12.1775    0.0000 </r>
       <r>   13.1756    0.0000 </r>
       <r>   13.4117    0.0000 </r>
       <r>   13.7185    0.0000 </r>
       <r>   13.7916    0.0000 </r>
       <r>   14.2899    0.0000 </r>
       <r>   14.7522    0.0000 </r>
       <r>   15.1211    0.0000 </r>
      </set>
      <set comment="kpoint 6">
       <r>   -8.9681    1.0000 </r>
       <r>   -8.1616    1.0000 </r>
       <r>   -7.3290    1.0000 </r>
       <r>   -7.1970    1.0000 </r>
       <r>   -4.2158    1.0000 </r>
       <r>   -3.5015    1.0000 </r>
       <r>   -2.9784    1.0000 </r>
       <r>   -1.9637    1.0000 </r>
       <r>   -1.0026    1.0000 </r>
       <r>    0.1080    1.0000 </r>
       <r>    0.5280    1.0000 </r>
       <r>    0.8856    1.0000 </r>
       <r>    1.1463    1.0000 </r>
       <r>    1.5298    1.0000 </r>
       <r>    1.8645    1.0000 </r>
       <r>    2.2046    1.0000 </r>
       <r>    2.5739    1.0000 </r>
       <r>    2.9559    1.0000 </r>
       <r>    3.1865    1.0000 </r>
       <r>    3.4453    1.0000 </r>
       <r>    3.6765    1.0000 </r>
       <r>    4.1449    1.0000 </r>
       <r>    4.3244    1.0000 </r>
       <r>    4.5172    1.0000 </r>
       <r>    4.8877    1.0000 </r>
       <r>    5.2454    1.0000 </r>
       <r>    5.3866    1.0000 </r>
       <r>    6.0434    1.0000 </r>
       <r>    6.3328    1.0000 </r>
       <r>    6.4508    1.0000 </r>
       <r>    6.7360    1.0000 </r>
       <r>    7.0913    1.0000 </r>
       <r>   11.2213    0.0000 </r>
       <r>   11.3316    0.0000 </r>
       <r>   11.6361    0.0000 </r>
       <r>   12.0413    0.0000 </r>
       <r>   12.5195    0.0000 </r>
       <r>   12.9982    0.0000 </r>
       <r>   13.1397    0.0000 </r>
       <r>   13.4539    0.0000 </r>
       <r>   13.8831    0.0000 </r>
       <r>   14.2785    0.0000 </r>
       <r>   14.3615    0.0000 </r>
       <r>   14.6325    0.0000 </r>
      </set>
      <set comment="kpoint 7">
       <r>   -8.3834    1.0000 </r>
       <r>   -8.0968    1.0000 </r>
       <r>   -7.2366    1.0000 </r>
       <r>   -6.9981    1.0000 </r>
       <r>   -3.6655    1.0000 </r>
       <r>   -3.1097    1.0000 </r>
       <r>   -2.6858    1.0000 </r>
       <r>   -1.4987    1.0000 </r>
       <r>   -1.4732    1.0000 </r>
       <r>   -0.5925    1.0000 </r>
       <r>   -0.3932    1.0000 </r>
       <r>    0.5387    1.0000 </r>
       <r>    1.0154    1.0000 </r>
       <r>    1.2736    1.0000 </r>
       <r>    1.8228    1.0000 </r>
       <r>    1.9590    1.0000 </r>
       <r>    2.5887    1.0000 </r>
       <r>    2.7548    1.0000 </r>
       <r>    3.0960    1.0000 </r>
       <r>    3.3935    1.0000 </r>
       <r>    3.4014    1.0000 </r>
       <r>    3.7138    1.0000 </r>
       <r>    4.3443    1.0000 </r>
       <r>    4.8381    1.0000 </r>
       <r>    4.9879    1.0000 </r>
       <r>    5.1752    1.0000 </r>
       <r>    5.5654    1.0000 </r>
       <r>    5.7088    1.0000 </r>
       <r>    6.0541    1.0000 </r>
       <r>    6.1712    1.0000 </r>
       <r>    6.6084    1.0000 </r>
       <r>    6.8950    1.0000 </r>
       <r>   10.6937    0.0000 </r>
       <r>   10.8798    0.0000 </r>
       <r>   10.9723    0.0000 </r>
       <r>   11.4096    0.0000 </r>
       <r>   11.4109    0.0000 </r>
       <r>   11.8413    0.0000 </r>
       <r>   13.3906    0.0000 </r>
       <r>   13.5296    0.0000 </r>
       <r>   13.7941    0.0000 </r>
       <r>   14.4077    0.0000 </r>
       <r>   14.4462    0.0000 </r>
       <r>   14.7181    0.0000 </r>
      </set>
      <set comment="kpoint 8">
       <r>   -8.3716    1.0000 </r>
       <r>   -8.0941    1.0000 </r>
       <r>   -7.2572    1.0000 </r>
       <r>   -6.9986    1.0000 </r>
       <r>   -3.7240    1.0000 </r>
       <r>   -3.0660    1.0000 </r>
       <r>   -2.7331    1.0000 </r>
       <r>   -1.5984    1.0000 </r>
       <r>   -1.3558    1.0000 </r>
       <r>   -0.2736    1.0000 </r>
       <r>   -0.2629    1.0000 </r>
       <r>    0.4420    1.0000 </r>
       <r>    0.8790    1.0000 </r>
       <r>    0.9897    1.0000 </r>
       <r>    1.7647    1.0000 </r>
       <r>    1.9652    1.0000 </r>
       <r>    2.5804    1.0000 </r>
       <r>    2.8865    1.0000 </r>
       <r>    3.3643    1.0000 </r>
       <r>    3.4137    1.0000 </r>
       <r>    3.4563    1.0000 </r>
       <r>    3.8836    1.0000 </r>
       <r>    4.3044    1.0000 </r>
       <r>    4.7521    1.0000 </r>
       <r>    4.7794    1.0000 </r>
       <r>    4.9932    1.0000 </r>
       <r>    5.1898    1.0000 </r>
       <r>    5.6060    1.0000 </r>
       <r>    5.9942    1.0000 </r>
       <r>    6.2654    1.0000 </r>
       <r>    6.5913    1.0000 </r>
       <r>    6.9600    1.0000 </r>
       <r>   10.7912    0.0000 </r>
       <r>   11.1843    0.0000 </r>
       <r>   11.5703    0.0000 </r>
       <r>   11.7604    0.0000 </r>
       <r>   11.9152    0.0000 </r>
       <r>   12.2453    0.0000 </r>
       <r>   13.1606    0.0000 </r>
       <r>   13.2609    0.0000 </r>
       <r>   13.5333    0.0000 </r>
       <r>   13.7919    0.0000 </r>
       <r>   14.1672    0.0000 </r>
       <r>   14.6409    0.0000 </r>
      </set>
      <set comment="kpoint 9">
       <r>   -9.9262    1.0000 </r>
       <r>   -8.5757    1.0000 </r>
       <r>   -7.9368    1.0000 </r>
       <r>   -7.6111    1.0000 </r>
       <r>   -5.4394    1.0000 </r>
       <r>   -4.0817    1.0000 </r>
       <r>   -3.5535    1.0000 </r>
       <r>   -2.9616    1.0000 </r>
       <r>   -0.3945    1.0000 </r>
       <r>    0.2152    1.0000 </r>
       <r>    0.7098    1.0000 </r>
       <r>    1.4888    1.0000 </r>
       <r>    1.7311    1.0000 </r>
       <r>    2.2627    1.0000 </r>
       <r>    2.6270    1.0000 </r>
       <r>    2.8893    1.0000 </r>
       <r>    3.4083    1.0000 </r>
       <r>    3.9998    1.0000 </r>
       <r>    4.0324    1.0000 </r>
       <r>    4.5503    1.0000 </r>
       <r>    4.7874    1.0000 </r>
       <r>    5.0707    1.0000 </r>
       <r>    5.3171    1.0000 </r>
       <r>    5.4796    1.0000 </r>
       <r>    5.7190    1.0000 </r>
       <r>    6.0587    1.0000 </r>
       <r>    6.2115    1.0000 </r>
       <r>    6.5113    1.0000 </r>
       <r>    6.7075    1.0000 </r>
       <r>    7.2423    1.0000 </r>
       <r>    7.9519    1.0000 </r>
       <r>    8.3242    1.0000 </r>
       <r>    9.9459    0.0000 </r>
       <r>   10.6447    0.0000 </r>
       <r>   11.4099    0.0000 </r>
       <r>   11.9259    0.0000 </r>
       <r>   12.1703    0.0000 </r>
       <r>   12.9670    0.0000 </r>
       <r>   13.4854    0.0000 </r>
       <r>   13.7100    0.0000 </r>
       <r>   14.1419    0.0000 </r>
       <r>   14.7142    0.0000 </r>
       <r>   14.9593    0.0000 </r>
       <r>   15.3124    0.0000 </r>
      </set>
      <set comment="kpoint 10">
       <r>   -9.8670    1.0000 </r>
       <r>   -8.7636    1.0000 </r>
       <r>   -7.8886    1.0000 </r>
       <r>   -7.5471    1.0000 </r>
       <r>   -5.3542    1.0000 </r>
       <r>   -4.1455    1.0000 </r>
       <r>   -3.6445    1.0000 </r>
       <r>   -2.7039    1.0000 </r>
       <r>   -0.5869    1.0000 </r>
       <r>   -0.0683    1.0000 </r>
       <r>    0.9391    1.0000 </r>
       <r>    1.2467    1.0000 </r>
       <r>    1.8114    1.0000 </r>
       <r>    2.6501    1.0000 </r>
       <r>    2.6553    1.0000 </r>
       <r>    3.0581    1.0000 </r>
       <r>    3.5600    1.0000 </r>
       <r>    3.6814    1.0000 </r>
       <r>    3.9194    1.0000 </r>
       <r>    4.2446    1.0000 </r>
       <r>    4.7588    1.0000 </r>
       <r>    4.7984    1.0000 </r>
       <r>    5.1216    1.0000 </r>
       <r>    5.5599    1.0000 </r>
       <r>    5.7203    1.0000 </r>
       <r>    6.1336    1.0000 </r>
       <r>    6.5145    1.0000 </r>
       <r>    6.6457    1.0000 </r>
       <r>    6.9664    1.0000 </r>
       <r>    7.3284    1.0000 </r>
       <r>    7.8952    1.0000 </r>
       <r>    8.3936    1.0000 </r>
       <r>   10.0193    0.0000 </r>
       <r>   10.4708    0.0000 </r>
       <r>   11.5941    0.0000 </r>
       <r>   12.1116    0.0000 </r>
       <r>   12.5506    0.0000 </r>
       <r>   13.0809    0.0000 </r>
       <r>   13.3473    0.0000 </r>
       <r>   13.5198    0.0000 </r>
       <r>   13.8803    0.0000 </r>
       <r>   14.4864    0.0000 </r>
       <r>   14.7603    0.0000 </r>
       <r>   15.2058    0.0000 </r>
      </set>
      <set comment="kpoint 11">
       <r>   -9.8684    1.0000 </r>
       <r>   -8.7592    1.0000 </r>
       <r>   -7.8850    1.0000 </r>
       <r>   -7.5526    1.0000 </r>
       <r>   -5.3851    1.0000 </r>
       <r>   -3.9970    1.0000 </r>
       <r>   -3.7928    1.0000 </r>
       <r>   -2.6421    1.0000 </r>
       <r>   -0.6781    1.0000 </r>
       <r>    0.0936    1.0000 </r>
       <r>    0.6826    1.0000 </r>
       <r>    1.4530    1.0000 </r>
       <r>    1.7660    1.0000 </r>
       <r>    2.4870    1.0000 </r>
       <r>    2.6495    1.0000 </r>
       <r>    3.0067    1.0000 </r>
       <r>    3.4040    1.0000 </r>
       <r>    3.9233    1.0000 </r>
       <r>    4.0514    1.0000 </r>
       <r>    4.4155    1.0000 </r>
       <r>    4.7894    1.0000 </r>
       <r>    4.9297    1.0000 </r>
       <r>    5.1315    1.0000 </r>
       <r>    5.4827    1.0000 </r>
       <r>    5.7111    1.0000 </r>
       <r>    6.0455    1.0000 </r>
       <r>    6.5199    1.0000 </r>
       <r>    6.5683    1.0000 </r>
       <r>    6.7963    1.0000 </r>
       <r>    7.2162    1.0000 </r>
       <r>    7.8859    1.0000 </r>
       <r>    8.4047    1.0000 </r>
       <r>   10.0944    0.0000 </r>
       <r>   10.7661    0.0000 </r>
       <r>   11.6580    0.0000 </r>
       <r>   11.9526    0.0000 </r>
       <r>   12.5644    0.0000 </r>
       <r>   12.9015    0.0000 </r>
       <r>   13.2909    0.0000 </r>
       <r>   13.6238    0.0000 </r>
       <r>   14.1390    0.0000 </r>
       <r>   14.4958    0.0000 </r>
       <r>   14.6889    0.0000 </r>
       <r>   15.1178    0.0000 </r>
      </set>
      <set comment="kpoint 12">
       <r>   -9.6718    1.0000 </r>
       <r>   -8.3974    1.0000 </r>
       <r>   -7.7720    1.0000 </r>
       <r>   -7.4734    1.0000 </r>
       <r>   -5.1362    1.0000 </r>
       <r>   -3.8477    1.0000 </r>
       <r>   -3.3682    1.0000 </r>
       <r>   -2.6999    1.0000 </r>
       <r>   -0.3115    1.0000 </r>
       <r>    0.3913    1.0000 </r>
       <r>    0.6847    1.0000 </r>
       <r>    1.2910    1.0000 </r>
       <r>    1.6150    1.0000 </r>
       <r>    2.0786    1.0000 </r>
       <r>    2.3302    1.0000 </r>
       <r>    2.7960    1.0000 </r>
       <r>    3.0853    1.0000 </r>
       <r>    3.4116    1.0000 </r>
       <r>    3.7449    1.0000 </r>
       <r>    3.9705    1.0000 </r>
       <r>    4.0967    1.0000 </r>
       <r>    4.4066    1.0000 </r>
       <r>    4.8774    1.0000 </r>
       <r>    5.0678    1.0000 </r>
       <r>    5.4845    1.0000 </r>
       <r>    5.7374    1.0000 </r>
       <r>    6.1318    1.0000 </r>
       <r>    6.3476    1.0000 </r>
       <r>    6.7499    1.0000 </r>
       <r>    7.0017    1.0000 </r>
       <r>    7.0677    1.0000 </r>
       <r>    7.3960    1.0000 </r>
       <r>   11.1723    0.0000 </r>
       <r>   11.4085    0.0000 </r>
       <r>   11.9125    0.0000 </r>
       <r>   12.4886    0.0000 </r>
       <r>   12.8477    0.0000 </r>
       <r>   13.0938    0.0000 </r>
       <r>   13.3951    0.0000 </r>
       <r>   13.7425    0.0000 </r>
       <r>   13.9940    0.0000 </r>
       <r>   14.3559    0.0000 </r>
       <r>   14.7111    0.0000 </r>
       <r>   15.0152    0.0000 </r>
      </set>
      <set comment="kpoint 13">
       <r>   -9.6157    1.0000 </r>
       <r>   -8.5695    1.0000 </r>
       <r>   -7.7124    1.0000 </r>
       <r>   -7.4326    1.0000 </r>
       <r>   -5.0641    1.0000 </r>
       <r>   -3.9102    1.0000 </r>
       <r>   -3.4372    1.0000 </r>
       <r>   -2.4635    1.0000 </r>
       <r>   -0.4974    1.0000 </r>
       <r>    0.0928    1.0000 </r>
       <r>    1.1108    1.0000 </r>
       <r>    1.2781    1.0000 </r>
       <r>    1.4262    1.0000 </r>
       <r>    2.0979    1.0000 </r>
       <r>    2.5000    1.0000 </r>
       <r>    2.7449    1.0000 </r>
       <r>    3.1198    1.0000 </r>
       <r>    3.3821    1.0000 </r>
       <r>    3.5636    1.0000 </r>
       <r>    3.8474    1.0000 </r>
       <r>    4.1394    1.0000 </r>
       <r>    4.4049    1.0000 </r>
       <r>    4.8348    1.0000 </r>
       <r>    5.1163    1.0000 </r>
       <r>    5.3856    1.0000 </r>
       <r>    5.8017    1.0000 </r>
       <r>    6.2425    1.0000 </r>
       <r>    6.5996    1.0000 </r>
       <r>    6.7489    1.0000 </r>
       <r>    6.8471    1.0000 </r>
       <r>    7.1158    1.0000 </r>
       <r>    7.4005    1.0000 </r>
       <r>   11.0868    0.0000 </r>
       <r>   11.6851    0.0000 </r>
       <r>   12.3809    0.0000 </r>
       <r>   12.7148    0.0000 </r>
       <r>   13.2572    0.0000 </r>
       <r>   13.4022    0.0000 </r>
       <r>   13.5245    0.0000 </r>
       <r>   13.6650    0.0000 </r>
       <r>   13.9969    0.0000 </r>
       <r>   14.2277    0.0000 </r>
       <r>   14.3799    0.0000 </r>
       <r>   14.6480    0.0000 </r>
      </set>
      <set comment="kpoint 14">
       <r>   -9.6171    1.0000 </r>
       <r>   -8.5656    1.0000 </r>
       <r>   -7.7075    1.0000 </r>
       <r>   -7.4395    1.0000 </r>
       <r>   -5.0894    1.0000 </r>
       <r>   -3.7994    1.0000 </r>
       <r>   -3.5453    1.0000 </r>
       <r>   -2.4162    1.0000 </r>
       <r>   -0.5677    1.0000 </r>
       <r>    0.2270    1.0000 </r>
       <r>    0.8718    1.0000 </r>
       <r>    1.3513    1.0000 </r>
       <r>    1.6388    1.0000 </r>
       <r>    1.8480    1.0000 </r>
       <r>    2.4446    1.0000 </r>
       <r>    2.8891    1.0000 </r>
       <r>    3.1129    1.0000 </r>
       <r>    3.3075    1.0000 </r>
       <r>    3.5937    1.0000 </r>
       <r>    3.9235    1.0000 </r>
       <r>    4.1375    1.0000 </r>
       <r>    4.5012    1.0000 </r>
       <r>    4.7775    1.0000 </r>
       <r>    5.1948    1.0000 </r>
       <r>    5.3501    1.0000 </r>
       <r>    5.8819    1.0000 </r>
       <r>    6.0681    1.0000 </r>
       <r>    6.5117    1.0000 </r>
       <r>    6.7409    1.0000 </r>
       <r>    6.9641    1.0000 </r>
       <r>    7.1939    1.0000 </r>
       <r>    7.3363    1.0000 </r>
       <r>   11.3093    0.0000 </r>
       <r>   11.6915    0.0000 </r>
       <r>   12.0570    0.0000 </r>
       <r>   12.5837    0.0000 </r>
       <r>   12.9130    0.0000 </r>
       <r>   13.2258    0.0000 </r>
       <r>   13.4215    0.0000 </r>
       <r>   13.7476    0.0000 </r>
       <r>   14.0488    0.0000 </r>
       <r>   14.2080    0.0000 </r>
       <r>   14.4703    0.0000 </r>
       <r>   15.0142    0.0000 </r>
      </set>
      <set comment="kpoint 15">
       <r>   -8.9998    1.0000 </r>
       <r>   -8.0554    1.0000 </r>
       <r>   -7.4290    1.0000 </r>
       <r>   -7.1751    1.0000 </r>
       <r>   -4.2975    1.0000 </r>
       <r>   -3.4279    1.0000 </r>
       <r>   -2.9000    1.0000 </r>
       <r>   -2.0315    1.0000 </r>
       <r>   -0.9078    1.0000 </r>
       <r>    0.0335    1.0000 </r>
       <r>    0.2306    1.0000 </r>
       <r>    1.0450    1.0000 </r>
       <r>    1.2243    1.0000 </r>
       <r>    1.6218    1.0000 </r>
       <r>    1.8152    1.0000 </r>
       <r>    2.2865    1.0000 </r>
       <r>    2.6479    1.0000 </r>
       <r>    2.9570    1.0000 </r>
       <r>    3.1548    1.0000 </r>
       <r>    3.4369    1.0000 </r>
       <r>    3.6957    1.0000 </r>
       <r>    3.9309    1.0000 </r>
       <r>    4.1152    1.0000 </r>
       <r>    4.5134    1.0000 </r>
       <r>    5.1841    1.0000 </r>
       <r>    5.3230    1.0000 </r>
       <r>    5.5423    1.0000 </r>
       <r>    5.9671    1.0000 </r>
       <r>    6.1146    1.0000 </r>
       <r>    6.4641    1.0000 </r>
       <r>    6.7943    1.0000 </r>
       <r>    7.1037    1.0000 </r>
       <r>   11.0605    0.0000 </r>
       <r>   11.3492    0.0000 </r>
       <r>   11.6276    0.0000 </r>
       <r>   12.1219    0.0000 </r>
       <r>   12.3408    0.0000 </r>
       <r>   12.8157    0.0000 </r>
       <r>   12.9676    0.0000 </r>
       <r>   13.5619    0.0000 </r>
       <r>   14.0787    0.0000 </r>
       <r>   14.3477    0.0000 </r>
       <r>   14.4908    0.0000 </r>
       <r>   14.9445    0.0000 </r>
      </set>
      <set comment="kpoint 16">
       <r>   -8.9558    1.0000 </r>
       <r>   -8.1603    1.0000 </r>
       <r>   -7.3613    1.0000 </r>
       <r>   -7.1939    1.0000 </r>
       <r>   -4.2883    1.0000 </r>
       <r>   -3.4161    1.0000 </r>
       <r>   -2.9368    1.0000 </r>
       <r>   -1.9189    1.0000 </r>
       <r>   -1.0228    1.0000 </r>
       <r>   -0.0449    1.0000 </r>
       <r>    0.5578    1.0000 </r>
       <r>    1.0646    1.0000 </r>
       <r>    1.3222    1.0000 </r>
       <r>    1.5293    1.0000 </r>
       <r>    1.8665    1.0000 </r>
       <r>    2.2067    1.0000 </r>
       <r>    2.4605    1.0000 </r>
       <r>    2.7095    1.0000 </r>
       <r>    3.0596    1.0000 </r>
       <r>    3.2706    1.0000 </r>
       <r>    3.6744    1.0000 </r>
       <r>    3.9819    1.0000 </r>
       <r>    4.2856    1.0000 </r>
       <r>    4.8368    1.0000 </r>
       <r>    5.0657    1.0000 </r>
       <r>    5.3156    1.0000 </r>
       <r>    5.5823    1.0000 </r>
       <r>    6.0534    1.0000 </r>
       <r>    6.1069    1.0000 </r>
       <r>    6.3512    1.0000 </r>
       <r>    6.7474    1.0000 </r>
       <r>    7.0592    1.0000 </r>
       <r>   11.4157    0.0000 </r>
       <r>   11.7736    0.0000 </r>
       <r>   11.9767    0.0000 </r>
       <r>   12.2339    0.0000 </r>
       <r>   12.4578    0.0000 </r>
       <r>   12.5942    0.0000 </r>
       <r>   13.1503    0.0000 </r>
       <r>   13.2350    0.0000 </r>
       <r>   13.6806    0.0000 </r>
       <r>   14.2252    0.0000 </r>
       <r>   14.6891    0.0000 </r>
       <r>   14.8139    0.0000 </r>
      </set>
      <set comment="kpoint 17">
       <r>   -8.9570    1.0000 </r>
       <r>   -8.1580    1.0000 </r>
       <r>   -7.3506    1.0000 </r>
       <r>   -7.2061    1.0000 </r>
       <r>   -4.2870    1.0000 </r>
       <r>   -3.4333    1.0000 </r>
       <r>   -2.9255    1.0000 </r>
       <r>   -1.9183    1.0000 </r>
       <r>   -0.9787    1.0000 </r>
       <r>   -0.1126    1.0000 </r>
       <r>    0.6804    1.0000 </r>
       <r>    0.9403    1.0000 </r>
       <r>    1.2508    1.0000 </r>
       <r>    1.6525    1.0000 </r>
       <r>    1.9772    1.0000 </r>
       <r>    2.1758    1.0000 </r>
       <r>    2.3204    1.0000 </r>
       <r>    2.8069    1.0000 </r>
       <r>    3.0264    1.0000 </r>
       <r>    3.0951    1.0000 </r>
       <r>    3.6534    1.0000 </r>
       <r>    4.0733    1.0000 </r>
       <r>    4.4515    1.0000 </r>
       <r>    4.6494    1.0000 </r>
       <r>    5.1488    1.0000 </r>
       <r>    5.4139    1.0000 </r>
       <r>    5.6849    1.0000 </r>
       <r>    5.8997    1.0000 </r>
       <r>    6.0740    1.0000 </r>
       <r>    6.3522    1.0000 </r>
       <r>    6.6516    1.0000 </r>
       <r>    7.2080    1.0000 </r>
       <r>   11.4591    0.0000 </r>
       <r>   11.6227    0.0000 </r>
       <r>   11.8529    0.0000 </r>
       <r>   12.2299    0.0000 </r>
       <r>   12.4547    0.0000 </r>
       <r>   12.8539    0.0000 </r>
       <r>   13.0436    0.0000 </r>
       <r>   13.3468    0.0000 </r>
       <r>   13.4738    0.0000 </r>
       <r>   13.8931    0.0000 </r>
       <r>   14.4526    0.0000 </r>
       <r>   14.6833    0.0000 </r>
      </set>
      <set comment="kpoint 18">
       <r>   -8.3747    1.0000 </r>
       <r>   -8.0956    1.0000 </r>
       <r>   -7.2559    1.0000 </r>
       <r>   -6.9925    1.0000 </r>
       <r>   -3.5781    1.0000 </r>
       <r>   -3.2441    1.0000 </r>
       <r>   -2.7183    1.0000 </r>
       <r>   -1.5273    1.0000 </r>
       <r>   -1.4918    1.0000 </r>
       <r>   -0.4741    1.0000 </r>
       <r>   -0.1831    1.0000 </r>
       <r>    0.3467    1.0000 </r>
       <r>    1.1562    1.0000 </r>
       <r>    1.3723    1.0000 </r>
       <r>    1.8208    1.0000 </r>
       <r>    1.8938    1.0000 </r>
       <r>    2.4343    1.0000 </r>
       <r>    2.9616    1.0000 </r>
       <r>    3.0659    1.0000 </r>
       <r>    3.2439    1.0000 </r>
       <r>    3.4705    1.0000 </r>
       <r>    4.0691    1.0000 </r>
       <r>    4.3259    1.0000 </r>
       <r>    4.6174    1.0000 </r>
       <r>    4.7672    1.0000 </r>
       <r>    5.0878    1.0000 </r>
       <r>    5.1611    1.0000 </r>
       <r>    5.6373    1.0000 </r>
       <r>    5.9136    1.0000 </r>
       <r>    6.3661    1.0000 </r>
       <r>    6.6077    1.0000 </r>
       <r>    6.9450    1.0000 </r>
       <r>   10.6671    0.0000 </r>
       <r>   11.1078    0.0000 </r>
       <r>   11.4924    0.0000 </r>
       <r>   11.7900    0.0000 </r>
       <r>   11.8413    0.0000 </r>
       <r>   12.3424    0.0000 </r>
       <r>   13.0264    0.0000 </r>
       <r>   13.4781    0.0000 </r>
       <r>   13.6407    0.0000 </r>
       <r>   13.7641    0.0000 </r>
       <r>   14.4342    0.0000 </r>
       <r>   14.6820    0.0000 </r>
      </set>
      <set comment="kpoint 19">
       <r>   -8.3638    1.0000 </r>
       <r>   -8.0929    1.0000 </r>
       <r>   -7.2673    1.0000 </r>
       <r>   -7.0012    1.0000 </r>
       <r>   -3.6489    1.0000 </r>
       <r>   -3.1730    1.0000 </r>
       <r>   -2.7732    1.0000 </r>
       <r>   -1.6935    1.0000 </r>
       <r>   -1.3431    1.0000 </r>
       <r>   -0.1852    1.0000 </r>
       <r>   -0.1347    1.0000 </r>
       <r>    0.3760    1.0000 </r>
       <r>    1.1648    1.0000 </r>
       <r>    1.3295    1.0000 </r>
       <r>    1.7001    1.0000 </r>
       <r>    2.0504    1.0000 </r>
       <r>    2.4933    1.0000 </r>
       <r>    2.6969    1.0000 </r>
       <r>    2.9325    1.0000 </r>
       <r>    3.3018    1.0000 </r>
       <r>    3.4039    1.0000 </r>
       <r>    3.8865    1.0000 </r>
       <r>    3.9676    1.0000 </r>
       <r>    4.6332    1.0000 </r>
       <r>    4.8708    1.0000 </r>
       <r>    5.0604    1.0000 </r>
       <r>    5.2049    1.0000 </r>
       <r>    5.8390    1.0000 </r>
       <r>    5.9697    1.0000 </r>
       <r>    6.3669    1.0000 </r>
       <r>    6.6405    1.0000 </r>
       <r>    7.1046    1.0000 </r>
       <r>   10.8976    0.0000 </r>
       <r>   11.2488    0.0000 </r>
       <r>   11.3646    0.0000 </r>
       <r>   11.5280    0.0000 </r>
       <r>   12.1617    0.0000 </r>
       <r>   12.3739    0.0000 </r>
       <r>   12.6378    0.0000 </r>
       <r>   13.2698    0.0000 </r>
       <r>   13.8057    0.0000 </r>
       <r>   14.2938    0.0000 </r>
       <r>   14.4386    0.0000 </r>
       <r>   15.0247    0.0000 </r>
      </set>
      <set comment="kpoint 20">
       <r>   -8.3646    1.0000 </r>
       <r>   -8.0930    1.0000 </r>
       <r>   -7.2595    1.0000 </r>
       <r>   -7.0085    1.0000 </r>
       <r>   -3.6202    1.0000 </r>
       <r>   -3.2118    1.0000 </r>
       <r>   -2.7804    1.0000 </r>
       <r>   -1.7092    1.0000 </r>
       <r>   -1.3145    1.0000 </r>
       <r>   -0.1622    1.0000 </r>
       <r>   -0.0699    1.0000 </r>
       <r>    0.3535    1.0000 </r>
       <r>    1.1765    1.0000 </r>
       <r>    1.1975    1.0000 </r>
       <r>    1.7961    1.0000 </r>
       <r>    2.0126    1.0000 </r>
       <r>    2.3512    1.0000 </r>
       <r>    2.7509    1.0000 </r>
       <r>    3.0673    1.0000 </r>
       <r>    3.1988    1.0000 </r>
       <r>    3.2999    1.0000 </r>
       <r>    3.9166    1.0000 </r>
       <r>    4.1424    1.0000 </r>
       <r>    4.7073    1.0000 </r>
       <r>    4.8068    1.0000 </r>
       <r>    5.2200    1.0000 </r>
       <r>    5.3725    1.0000 </r>
       <r>    5.7272    1.0000 </r>
       <r>    5.7666    1.0000 </r>
       <r>    6.2590    1.0000 </r>
       <r>    6.5557    1.0000 </r>
       <r>    7.0704    1.0000 </r>
       <r>   11.3878    0.0000 </r>
       <r>   11.5216    0.0000 </r>
       <r>   11.5972    0.0000 </r>
       <r>   11.9472    0.0000 </r>
       <r>   11.9757    0.0000 </r>
       <r>   12.0812    0.0000 </r>
       <r>   12.2380    0.0000 </r>
       <r>   13.0409    0.0000 </r>
       <r>   13.5571    0.0000 </r>
       <r>   14.1498    0.0000 </r>
       <r>   14.4721    0.0000 </r>
       <r>   14.6753    0.0000 </r>
      </set>
     </set>
    </set>
   </array>
  </eigenvalues>
  <separator name="orbital magnetization" >
   <v name="MAGDIPOLOUT">      0.00000000      0.00000000      0.00000000</v>
  </separator>
  <dos>
   <i name="efermi">      8.90482633 </i>
   <total>
    <array>
     <dimension dim="1">gridpoints</dimension>
     <dimension dim="2">spin</dimension>
     <field>energy</field>
     <field>total</field>
     <field>integrated</field>
     <set>
      <set comment="spin 1">
       <r>   -11.2169     0.0000     0.0000 </r>
       <r>   -11.1237     0.0000     0.0000 </r>
       <r>   -11.0306     0.0000     0.0000 </r>
       <r>   -10.9374     0.0000     0.0000 </r>
       <r>   -10.8443     0.0000     0.0000 </r>
       <r>   -10.7511     0.0000     0.0000 </r>
       <r>   -10.6580     0.0000     0.0000 </r>
       <r>   -10.5648     0.0000     0.0000 </r>
       <r>   -10.4717     0.0000     0.0000 </r>
       <r>   -10.3785     0.0000     0.0000 </r>
       <r>   -10.2854     0.0000     0.0000 </r>
       <r>   -10.1923     0.0002     0.0000 </r>
       <r>   -10.0991     0.0136     0.0013 </r>
       <r>   -10.0060     0.2447     0.0241 </r>
       <r>    -9.9128     1.1668     0.1328 </r>
       <r>    -9.8197     1.6205     0.2837 </r>
       <r>    -9.7265     1.4129     0.4153 </r>
       <r>    -9.6334     2.9491     0.6900 </r>
       <r>    -9.5402     2.6649     0.9383 </r>
       <r>    -9.4471     0.6280     0.9968 </r>
       <r>    -9.3539     0.0344     1.0000 </r>
       <r>    -9.2608     0.0008     1.0000 </r>
       <r>    -9.1676     0.0336     1.0032 </r>
       <r>    -9.0745     0.6088     1.0599 </r>
       <r>    -8.9813     2.6860     1.3101 </r>
       <r>    -8.8882     3.0584     1.5950 </r>
       <r>    -8.7950     1.4883     1.7336 </r>
       <r>    -8.7019     1.3716     1.8614 </r>
       <r>    -8.6087     1.9471     2.0427 </r>
       <r>    -8.5156     3.1011     2.3316 </r>
       <r>    -8.4224     2.6932     2.5825 </r>
       <r>    -8.3293     3.0405     2.8657 </r>
       <r>    -8.2361     2.0625     3.0578 </r>
       <r>    -8.1430     3.3416     3.3691 </r>
       <r>    -8.0498     4.4801     3.7864 </r>
       <r>    -7.9567     2.7399     4.0416 </r>
       <r>    -7.8635     2.0697     4.2344 </r>
       <r>    -7.7704     2.7170     4.4875 </r>
       <r>    -7.6772     3.5624     4.8193 </r>
       <r>    -7.5841     3.3240     5.1290 </r>
       <r>    -7.4909     4.1023     5.5111 </r>
       <r>    -7.3978     6.1873     6.0874 </r>
       <r>    -7.3046     5.9068     6.6377 </r>
       <r>    -7.2115     5.5963     7.1589 </r>
       <r>    -7.1183     4.4175     7.5704 </r>
       <r>    -7.0252     2.2494     7.7800 </r>
       <r>    -6.9320     1.7562     7.9435 </r>
       <r>    -6.8389     0.5647     7.9961 </r>
       <r>    -6.7457     0.0408     7.9999 </r>
       <r>    -6.6526     0.0006     8.0000 </r>
       <r>    -6.5594     0.0000     8.0000 </r>
       <r>    -6.4663     0.0000     8.0000 </r>
       <r>    -6.3731     0.0000     8.0000 </r>
       <r>    -6.2800     0.0000     8.0000 </r>
       <r>    -6.1868     0.0000     8.0000 </r>
       <r>    -6.0937     0.0000     8.0000 </r>
       <r>    -6.0005     0.0000     8.0000 </r>
       <r>    -5.9074     0.0000     8.0000 </r>
       <r>    -5.8142     0.0000     8.0000 </r>
       <r>    -5.7211     0.0000     8.0000 </r>
       <r>    -5.6279     0.0033     8.0003 </r>
       <r>    -5.5348     0.0852     8.0082 </r>
       <r>    -5.4416     0.5561     8.0600 </r>
       <r>    -5.3485     1.1087     8.1633 </r>
       <r>    -5.2553     1.0305     8.2593 </r>
       <r>    -5.1622     1.4908     8.3982 </r>
       <r>    -5.0690     2.4275     8.6243 </r>
       <r>    -4.9759     2.1466     8.8242 </r>
       <r>    -4.8827     1.3832     8.9531 </r>
       <r>    -4.7896     0.4613     8.9961 </r>
       <r>    -4.6964     0.0506     9.0008 </r>
       <r>    -4.6033     0.0915     9.0093 </r>
       <r>    -4.5101     0.2155     9.0294 </r>
       <r>    -4.4170     0.4537     9.0716 </r>
       <r>    -4.3238     2.0351     9.2612 </r>
       <r>    -4.2307     3.8321     9.6182 </r>
       <r>    -4.1375     3.1531     9.9119 </r>
       <r>    -4.0444     2.1259    10.1099 </r>
       <r>    -3.9512     1.5531    10.2546 </r>
       <r>    -3.8581     2.2118    10.4606 </r>
       <r>    -3.7649     2.9147    10.7321 </r>
       <r>    -3.6718     2.6620    10.9801 </r>
       <r>    -3.5786     3.8107    11.3350 </r>
       <r>    -3.4855     5.1429    11.8141 </r>
       <r>    -3.3923     5.2140    12.2998 </r>
       <r>    -3.2992     3.2787    12.6052 </r>
       <r>    -3.2060     1.8294    12.7756 </r>
       <r>    -3.1129     1.4610    12.9117 </r>
       <r>    -3.0197     1.9544    13.0937 </r>
       <r>    -2.9266     3.7214    13.4404 </r>
       <r>    -2.8335     3.5013    13.7665 </r>
       <r>    -2.7403     3.1736    14.0621 </r>
       <r>    -2.6472     3.4164    14.3804 </r>
       <r>    -2.5540     2.2581    14.5907 </r>
       <r>    -2.4609     2.1153    14.7877 </r>
       <r>    -2.3677     1.7224    14.9482 </r>
       <r>    -2.2746     0.5144    14.9961 </r>
       <r>    -2.1814     0.0711    15.0027 </r>
       <r>    -2.0883     0.4313    15.0429 </r>
       <r>    -1.9951     1.8984    15.2197 </r>
       <r>    -1.9020     3.0148    15.5006 </r>
       <r>    -1.8088     1.6639    15.6556 </r>
       <r>    -1.7157     0.8238    15.7323 </r>
       <r>    -1.6225     1.0841    15.8333 </r>
       <r>    -1.5294     1.3060    15.9549 </r>
       <r>    -1.4362     1.4333    16.0884 </r>
       <r>    -1.3431     1.3318    16.2125 </r>
       <r>    -1.2499     1.0264    16.3081 </r>
       <r>    -1.1568     0.3345    16.3393 </r>
       <r>    -1.0636     0.8982    16.4229 </r>
       <r>    -0.9705     2.5279    16.6584 </r>
       <r>    -0.8773     2.3552    16.8778 </r>
       <r>    -0.7842     1.1180    16.9819 </r>
       <r>    -0.6910     0.7049    17.0476 </r>
       <r>    -0.5979     1.5880    17.1955 </r>
       <r>    -0.5047     2.5258    17.4308 </r>
       <r>    -0.4116     2.6788    17.6803 </r>
       <r>    -0.3184     3.3168    17.9893 </r>
       <r>    -0.2253     3.3004    18.2967 </r>
       <r>    -0.1321     3.2078    18.5955 </r>
       <r>    -0.0390     3.4724    18.9190 </r>
       <r>     0.0542     3.4305    19.2385 </r>
       <r>     0.1473     3.8171    19.5941 </r>
       <r>     0.2405     3.5745    19.9270 </r>
       <r>     0.3336     3.4461    20.2480 </r>
       <r>     0.4268     3.7800    20.6001 </r>
       <r>     0.5199     3.5301    20.9290 </r>
       <r>     0.6131     2.9346    21.2023 </r>
       <r>     0.7062     3.2826    21.5081 </r>
       <r>     0.7994     3.1000    21.7969 </r>
       <r>     0.8925     3.8900    22.1592 </r>
       <r>     0.9857     4.8677    22.6126 </r>
       <r>     1.0788     4.3063    23.0138 </r>
       <r>     1.1720     5.1846    23.4967 </r>
       <r>     1.2651     6.8674    24.1364 </r>
       <r>     1.3583     7.2939    24.8158 </r>
       <r>     1.4514     5.3053    25.3100 </r>
       <r>     1.5446     4.5742    25.7361 </r>
       <r>     1.6377     5.8112    26.2774 </r>
       <r>     1.7309     6.3529    26.8692 </r>
       <r>     1.8240     6.5839    27.4824 </r>
       <r>     1.9172     6.2128    28.0612 </r>
       <r>     2.0103     4.4061    28.4716 </r>
       <r>     2.1035     4.1049    28.8540 </r>
       <r>     2.1966     4.3199    29.2564 </r>
       <r>     2.2898     4.8321    29.7065 </r>
       <r>     2.3829     5.1889    30.1898 </r>
       <r>     2.4761     5.6564    30.7167 </r>
       <r>     2.5692     5.6527    31.2432 </r>
       <r>     2.6624     6.4291    31.8421 </r>
       <r>     2.7555     6.9525    32.4897 </r>
       <r>     2.8487     5.8211    33.0320 </r>
       <r>     2.9418     6.3656    33.6249 </r>
       <r>     3.0350     7.6060    34.3334 </r>
       <r>     3.1281     8.5105    35.1262 </r>
       <r>     3.2213     6.8135    35.7608 </r>
       <r>     3.3144     6.1406    36.3328 </r>
       <r>     3.4076     7.6464    37.0451 </r>
       <r>     3.5007     7.4257    37.7368 </r>
       <r>     3.5939     5.4634    38.2457 </r>
       <r>     3.6870     5.8684    38.7923 </r>
       <r>     3.7802     5.4561    39.3006 </r>
       <r>     3.8733     5.6861    39.8302 </r>
       <r>     3.9665     8.3969    40.6124 </r>
       <r>     4.0596     8.0524    41.3625 </r>
       <r>     4.1528     6.9610    42.0109 </r>
       <r>     4.2459     5.1007    42.4860 </r>
       <r>     4.3391     5.4074    42.9897 </r>
       <r>     4.4322     6.6469    43.6088 </r>
       <r>     4.5254     6.4147    44.2064 </r>
       <r>     4.6185     4.8088    44.6543 </r>
       <r>     4.7116     5.0863    45.1281 </r>
       <r>     4.8048     8.2039    45.8923 </r>
       <r>     4.8979     9.1222    46.7420 </r>
       <r>     4.9911     6.0365    47.3043 </r>
       <r>     5.0842     6.2968    47.8908 </r>
       <r>     5.1774     8.2279    48.6573 </r>
       <r>     5.2705     7.1983    49.3278 </r>
       <r>     5.3637     7.1083    49.9899 </r>
       <r>     5.4568     7.7982    50.7163 </r>
       <r>     5.5500     6.6296    51.3339 </r>
       <r>     5.6431     5.8183    51.8758 </r>
       <r>     5.7363     6.0826    52.4424 </r>
       <r>     5.8294     5.7166    52.9749 </r>
       <r>     5.9226     5.1193    53.4518 </r>
       <r>     6.0157     6.1642    54.0260 </r>
       <r>     6.1089     8.3592    54.8046 </r>
       <r>     6.2020     6.5559    55.4153 </r>
       <r>     6.2952     4.9393    55.8754 </r>
       <r>     6.3883     6.1845    56.4515 </r>
       <r>     6.4815     6.1763    57.0268 </r>
       <r>     6.5746     7.0956    57.6878 </r>
       <r>     6.6678     8.1115    58.4433 </r>
       <r>     6.7609     8.6060    59.2450 </r>
       <r>     6.8541     6.8242    59.8807 </r>
       <r>     6.9472     5.3834    60.3821 </r>
       <r>     7.0404     6.6481    61.0014 </r>
       <r>     7.1335     7.9998    61.7465 </r>
       <r>     7.2267     6.6118    62.3624 </r>
       <r>     7.3198     4.5663    62.7878 </r>
       <r>     7.4130     3.8245    63.1440 </r>
       <r>     7.5061     1.7812    63.3099 </r>
       <r>     7.5993     0.2434    63.3326 </r>
       <r>     7.6924     0.0195    63.3344 </r>
       <r>     7.7856     0.2307    63.3559 </r>
       <r>     7.8787     1.1238    63.4606 </r>
       <r>     7.9719     1.5212    63.6023 </r>
       <r>     8.0650     0.6177    63.6598 </r>
       <r>     8.1582     0.0826    63.6675 </r>
       <r>     8.2513     0.2101    63.6871 </r>
       <r>     8.3445     1.0442    63.7844 </r>
       <r>     8.4376     1.5701    63.9306 </r>
       <r>     8.5308     0.6720    63.9932 </r>
       <r>     8.6239     0.0713    63.9998 </r>
       <r>     8.7171     0.0016    64.0000 </r>
       <r>     8.8102     0.0000    64.0000 </r>
       <r>     8.9034     0.0000    64.0000 </r>
       <r>     8.9965     0.0000    64.0000 </r>
       <r>     9.0897     0.0000    64.0000 </r>
       <r>     9.1828     0.0000    64.0000 </r>
       <r>     9.2760     0.0000    64.0000 </r>
       <r>     9.3691     0.0000    64.0000 </r>
       <r>     9.4623     0.0000    64.0000 </r>
       <r>     9.5554     0.0000    64.0000 </r>
       <r>     9.6486     0.0000    64.0000 </r>
       <r>     9.7417     0.0021    64.0002 </r>
       <r>     9.8349     0.0656    64.0063 </r>
       <r>     9.9280     0.4781    64.0508 </r>
       <r>    10.0212     1.0527    64.1489 </r>
       <r>    10.1143     1.1633    64.2573 </r>
       <r>    10.2075     0.6833    64.3209 </r>
       <r>    10.3006     0.1364    64.3336 </r>
       <r>    10.3938     0.1758    64.3500 </r>
       <r>    10.4869     0.7887    64.4234 </r>
       <r>    10.5801     1.1804    64.5334 </r>
       <r>    10.6732     1.5377    64.6766 </r>
       <r>    10.7664     1.6210    64.8276 </r>
       <r>    10.8595     1.2562    64.9446 </r>
       <r>    10.9527     1.1073    65.0478 </r>
       <r>    11.0458     1.9222    65.2268 </r>
       <r>    11.1390     3.6201    65.5640 </r>
       <r>    11.2321     4.2735    65.9621 </r>
       <r>    11.3253     4.8149    66.4106 </r>
       <r>    11.4184     6.4165    67.0083 </r>
       <r>    11.5116     6.0140    67.5685 </r>
       <r>    11.6047     6.2492    68.1506 </r>
       <r>    11.6979     7.0893    68.8110 </r>
       <r>    11.7910     5.5024    69.3235 </r>
       <r>    11.8842     4.9340    69.7831 </r>
       <r>    11.9773     5.7700    70.3206 </r>
       <r>    12.0704     5.6241    70.8445 </r>
       <r>    12.1636     5.1174    71.3212 </r>
       <r>    12.2567     4.6910    71.7582 </r>
       <r>    12.3499     3.9366    72.1248 </r>
       <r>    12.4430     4.3366    72.5288 </r>
       <r>    12.5362     5.6528    73.0553 </r>
       <r>    12.6293     5.8150    73.5970 </r>
       <r>    12.7225     3.6026    73.9326 </r>
       <r>    12.8156     3.4980    74.2584 </r>
       <r>    12.9088     5.3898    74.7605 </r>
       <r>    13.0019     5.8489    75.3053 </r>
       <r>    13.0951     6.4386    75.9051 </r>
       <r>    13.1882     6.8879    76.5467 </r>
       <r>    13.2814     6.4334    77.1459 </r>
       <r>    13.3745     6.6395    77.7644 </r>
       <r>    13.4677     8.5915    78.5647 </r>
       <r>    13.5608     7.3080    79.2454 </r>
       <r>    13.6540     5.2811    79.7374 </r>
       <r>    13.7471     6.0429    80.3002 </r>
       <r>    13.8403     5.7599    80.8368 </r>
       <r>    13.9334     4.6767    81.2724 </r>
       <r>    14.0266     4.7559    81.7154 </r>
       <r>    14.1197     4.5656    82.1407 </r>
       <r>    14.2129     5.5297    82.6558 </r>
       <r>    14.3060     7.2520    83.3313 </r>
       <r>    14.3992     7.8504    84.0626 </r>
       <r>    14.4923     6.9098    84.7062 </r>
       <r>    14.5855     4.9508    85.1674 </r>
       <r>    14.6786     6.7044    85.7919 </r>
       <r>    14.7718     7.3702    86.4784 </r>
       <r>    14.8649     3.9201    86.8436 </r>
       <r>    14.9581     2.5691    87.0829 </r>
       <r>    15.0512     3.1305    87.3745 </r>
       <r>    15.1444     2.1871    87.5782 </r>
       <r>    15.2375     1.2826    87.6977 </r>
       <r>    15.3307     1.2228    87.8116 </r>
       <r>    15.4238     1.1808    87.9216 </r>
       <r>    15.5170     0.6607    87.9832 </r>
       <r>    15.6101     0.1682    87.9988 </r>
       <r>    15.7033     0.0125    88.0000 </r>
       <r>    15.7964     0.0002    88.0000 </r>
       <r>    15.8896     0.0000    88.0000 </r>
       <r>    15.9827     0.0000    88.0000 </r>
       <r>    16.0759     0.0000    88.0000 </r>
       <r>    16.1690     0.0000    88.0000 </r>
       <r>    16.2622     0.0000    88.0000 </r>
       <r>    16.3553     0.0000    88.0000 </r>
       <r>    16.4485     0.0000    88.0000 </r>
       <r>    16.5416     0.0000    88.0000 </r>
       <r>    16.6348     0.0000    88.0000 </r>
       <r>    16.7279     0.0000    88.0000 </r>
      </set>
     </set>
    </array>
   </total>
  </dos>
 </calculation>
 <structure name="finalpos" >
  <crystal>
   <varray name="basis" >
    <v>       7.39051901       0.00000000       0.05759135 </v>
    <v>       0.00000000       3.12724528       0.00000000 </v>
    <v>      -0.52698929       0.00000000       7.40189230 </v>
   </varray>
   <i name="volume">    171.16719304 </i>
   <varray name="rec_basis" >
    <v>       0.13523347       0.00000000       0.00962816 </v>
    <v>       0.00000000       0.31977025       0.00000000 </v>
    <v>      -0.00105220       0.00000000       0.13502567 </v>
   </varray>
  </crystal>
  <varray name="positions" >
   <v>       0.91945989       0.50000000       0.07644220 </v>
   <v>       0.33687173       0.50000000       0.16735621 </v>
   <v>       0.57797956       0.00000000       0.91431536 </v>
   <v>       0.07822518       0.00000000       0.42540185 </v>
   <v>       0.16649726       0.00000000       0.82837039 </v>
   <v>       0.41562101       0.50000000       0.58374553 </v>
   <v>       0.66010695       0.00000000       0.33323218 </v>
   <v>       0.83453703       0.50000000       0.66547421 </v>
   <v>       0.36078152       0.00000000       0.03735160 </v>
   <v>       0.60630767       0.50000000       0.79186611 </v>
   <v>       0.85974136       0.00000000       0.51254677 </v>
   <v>       0.26374578       0.00000000       0.59008514 </v>
   <v>       0.10085736       0.50000000       0.25978763 </v>
   <v>       0.51367274       0.50000000       0.34150561 </v>
   <v>       0.78622116       0.00000000       0.09944652 </v>
   <v>       0.01937382       0.50000000       0.87307272 </v>
  </varray>
 </structure>
</modeling>
