<?xml version="1.0" encoding="ISO-8859-1"?>
<modeling>
 <generator>
  <i name="program" type="string">vasp </i>
  <i name="version" type="string">5.3.5  </i>
  <i name="subversion" type="string">31Mar14 (build Jun 20 2014 13:15:13) complex                          parallel </i>
  <i name="platform" type="string">LinuxIFC </i>
  <i name="date" type="string">2025 12 16 </i>
  <i name="time" type="string">15:51:22 </i>
 </generator>
 <incar>
  <i type="string" name="PREC">accurate</i>
  <i type="int" name="IALGO">    68</i>
  <i type="logical" name="ADDGRID"> T  </i>
  <i type="int" name="NELM">   100</i>
  <i type="int" name="NELMIN">     4</i>
  <i type="int" name="IBRION">     2</i>
  <i name="EDIFF">      0.00000100</i>
  <i name="EDIFFG">     -0.02000000</i>
  <i type="int" name="NSW">    30</i>
  <i type="int" name="ISIF">     3</i>
  <i name="ENCUT">    600.00000000</i>
  <i type="logical" name="LREAL"> F  </i>
  <i type="int" name="ISMEAR">     0</i>
  <i name="SIGMA">      0.10000000</i>
  <i type="logical" name="LWAVE"> F  </i>
  <i type="logical" name="LCHARG"> F  </i>
  <i type="int" name="NELM">   100</i>
 </incar>
 <kpoints>
  <generation param="Auto">
   <i name="subdivisionlength">     20.00000000 </i>
   <v type="int" name="divisions">       7        7        2 </v>
   <v name="usershift">      0.00000000       0.00000000       0.00000000 </v>
   <v name="genvec1">      0.14285714       0.00000000       0.00000000 </v>
   <v name="genvec2">      0.00000000       0.14285714       0.00000000 </v>
   <v name="genvec3">      0.00000000       0.00000000       0.50000000 </v>
   <v name="shift">      0.00000000       0.00000000       0.00000000 </v>
  </generation>
  <varray name="kpointlist" >
   <v>       0.00000000       0.00000000       0.00000000 </v>
   <v>       0.14285714       0.00000000       0.00000000 </v>
   <v>       0.28571429       0.00000000       0.00000000 </v>
   <v>       0.42857143       0.00000000       0.00000000 </v>
   <v>       0.14285714       0.14285714       0.00000000 </v>
   <v>       0.28571429       0.14285714       0.00000000 </v>
   <v>       0.42857143       0.14285714       0.00000000 </v>
   <v>       0.28571429       0.28571429       0.00000000 </v>
   <v>       0.00000000       0.00000000       0.50000000 </v>
   <v>       0.14285714       0.00000000       0.50000000 </v>
   <v>       0.28571429       0.00000000       0.50000000 </v>
   <v>       0.42857143       0.00000000       0.50000000 </v>
   <v>       0.14285714       0.14285714       0.50000000 </v>
   <v>       0.28571429       0.14285714       0.50000000 </v>
   <v>       0.42857143       0.14285714       0.50000000 </v>
   <v>       0.28571429       0.28571429       0.50000000 </v>
  </varray>
  <varray name="weights" >
   <v>       0.01020408 </v>
   <v>       0.06122449 </v>
   <v>       0.06122449 </v>
   <v>       0.06122449 </v>
   <v>       0.06122449 </v>
   <v>       0.12244898 </v>
   <v>       0.06122449 </v>
   <v>       0.06122449 </v>
   <v>       0.01020408 </v>
   <v>       0.06122449 </v>
   <v>       0.06122449 </v>
   <v>       0.06122449 </v>
   <v>       0.06122449 </v>
   <v>       0.12244898 </v>
   <v>       0.06122449 </v>
   <v>       0.06122449 </v>
  </varray>
 </kpoints>
 <parameters>
  <separator name="general" >
   <i type="string" name="SYSTEM">unknown system</i>
   <i type="logical" name="LCOMPAT"> F  </i>
  </separator>
  <separator name="electronic" >
   <i type="string" name="PREC">accura</i>
   <i name="ENMAX">    600.00000000</i>
   <i name="ENAUG">    644.87300000</i>
   <i name="EDIFF">      0.00000100</i>
   <i type="int" name="IALGO">    68</i>
   <i type="int" name="IWAVPR">    11</i>
   <i type="int" name="NBANDS">    24</i>
   <i name="NELECT">     32.00000000</i>
   <i type="int" name="TURBO">     0</i>
   <i type="int" name="IRESTART">     0</i>
   <i type="int" name="NREBOOT">     0</i>
   <i type="int" name="NMIN">     0</i>
   <i name="EREF">      0.00000000</i>
   <separator name="electronic smearing" >
    <i type="int" name="ISMEAR">     0</i>
    <i name="SIGMA">      0.10000000</i>
    <i name="KSPACING">      0.50000000</i>
    <i type="logical" name="KGAMMA"> T  </i>
   </separator>
   <separator name="electronic projectors" >
    <i type="logical" name="LREAL"> F  </i>
    <v name="ROPT">      0.00000000      0.00000000      0.00000000      0.00000000</v>
    <i type="int" name="LMAXPAW">  -100</i>
    <i type="int" name="LMAXMIX">     2</i>
    <i type="logical" name="NLSPLINE"> F  </i>
   </separator>
   <separator name="electronic startup" >
    <i type="int" name="ISTART">     0</i>
    <i type="int" name="ICHARG">     2</i>
    <i type="int" name="INIWAV">     1</i>
   </separator>
   <separator name="electronic spin" >
    <i type="int" name="ISPIN">     1</i>
    <i type="logical" name="LNONCOLLINEAR"> F  </i>
    <v name="MAGMOM">      1.00000000      1.00000000      1.00000000      1.00000000      1.00000000      1.00000000      1.00000000      1.00000000</v>
    <i name="NUPDOWN">     -1.00000000</i>
    <i type="logical" name="LSORBIT"> F  </i>
    <v name="SAXIS">      0.00000000      0.00000000      1.00000000</v>
    <i type="logical" name="LSPIRAL"> F  </i>
    <v name="QSPIRAL">      0.00000000      0.00000000      0.00000000</v>
    <i type="logical" name="LZEROZ"> F  </i>
   </separator>
   <separator name="electronic exchange-correlation" >
    <i type="logical" name="LASPH"> F  </i>
    <i type="logical" name="LMETAGGA"> F  </i>
   </separator>
   <separator name="electronic convergence" >
    <i type="int" name="NELM">   100</i>
    <i type="int" name="NELMDL">     0</i>
    <i type="int" name="NELMIN">     4</i>
    <i name="ENINI">    600.00000000</i>
    <separator name="electronic convergence detail" >
     <i type="logical" name="LDIAG"> T  </i>
     <i type="logical" name="LSUBROT"> F  </i>
     <i name="WEIMIN">      0.00100000</i>
     <i name="EBREAK">      0.00000001</i>
     <i name="DEPER">      0.30000000</i>
     <i type="int" name="NRMM">     4</i>
     <i name="TIME">      0.40000000</i>
    </separator>
   </separator>
   <separator name="electronic mixer" >
    <i name="AMIX">      0.40000000</i>
    <i name="BMIX">      1.00000000</i>
    <i name="AMIN">      0.10000000</i>
    <i name="AMIX_MAG">      1.60000000</i>
    <i name="BMIX_MAG">      1.00000000</i>
    <separator name="electronic mixer details" >
     <i type="int" name="IMIX">     4</i>
     <i type="int" name="MAXMIX">   -45</i>
     <i name="WC">    100.00000000</i>
     <i type="int" name="INIMIX">     1</i>
     <i type="int" name="MIXPRE">     1</i>
     <i type="int" name="MREMOVE">     5</i>
    </separator>
   </separator>
   <separator name="electronic dipolcorrection" >
    <i type="logical" name="LDIPOL"> F  </i>
    <i type="logical" name="LMONO"> F  </i>
    <i type="int" name="IDIPOL">     0</i>
    <i name="EPSILON">      1.00000000</i>
    <v name="DIPOL">   -100.00000000   -100.00000000   -100.00000000</v>
    <i name="EFIELD">      0.00000000</i>
   </separator>
  </separator>
  <separator name="grids" >
   <i type="int" name="NGX">    28</i>
   <i type="int" name="NGY">    28</i>
   <i type="int" name="NGZ">    80</i>
   <i type="int" name="NGXF">    56</i>
   <i type="int" name="NGYF">    56</i>
   <i type="int" name="NGZF">   160</i>
   <i type="logical" name="ADDGRID"> T  </i>
  </separator>
  <separator name="ionic" >
   <i type="int" name="NSW">    30</i>
   <i type="int" name="IBRION">     2</i>
   <i type="int" name="ISIF">     3</i>
   <i name="PSTRESS">      0.00000000</i>
   <i name="EDIFFG">     -0.02000000</i>
   <i type="int" name="NFREE">     1</i>
   <i name="POTIM">      0.50000000</i>
   <i name="SMASS">     -3.00000000</i>
   <i name="SCALEE">      1.00000000</i>
  </separator>
  <separator name="ionic md" >
   <i name="TEBEG">      0.00010000</i>
   <i name="TEEND">      0.00010000</i>
   <i type="int" name="NBLOCK">     1</i>
   <i type="int" name="KBLOCK">    30</i>
   <i type="int" name="NPACO">   256</i>
   <i name="APACO">     16.00000000</i>
  </separator>
  <separator name="symmetry" >
   <i type="int" name="ISYM">     2</i>
   <i name="SYMPREC">      0.00001000</i>
  </separator>
  <separator name="dos" >
   <i type="logical" name="LORBIT"> F  </i>
   <v name="RWIGS">     -1.00000000     -1.00000000     -1.00000000     -1.00000000</v>
   <i type="int" name="NEDOS">   301</i>
   <i name="EMIN">     10.00000000</i>
   <i name="EMAX">    -10.00000000</i>
   <i name="EFERMI">      0.00000000</i>
  </separator>
  <separator name="writing" >
   <i type="int" name="NWRITE">     2</i>
   <i type="logical" name="LWAVE"> F  </i>
   <i type="logical" name="LCHARG"> F  </i>
   <i type="logical" name="LPARD"> F  </i>
   <i type="logical" name="LVTOT"> F  </i>
   <i type="logical" name="LVHAR"> F  </i>
   <i type="logical" name="LELF"> F  </i>
   <i type="logical" name="LOPTICS"> F  </i>
   <v name="STM">      0.00000000      0.00000000      0.00000000      0.00000000      0.00000000      0.00000000      0.00000000</v>
  </separator>
  <separator name="performance" >
   <i type="int" name="NPAR">     4</i>
   <i type="int" name="NSIM">     4</i>
   <i type="int" name="NBLK">    -1</i>
   <i type="logical" name="LPLANE"> T  </i>
   <i type="logical" name="LSCALAPACK"> T  </i>
   <i type="logical" name="LSCAAWARE"> F  </i>
   <i type="logical" name="LSCALU"> F  </i>
   <i type="logical" name="LASYNC"> F  </i>
   <i type="logical" name="LORBITALREAL"> F  </i>
  </separator>
  <separator name="miscellaneous" >
   <i type="int" name="IDIOT">     3</i>
   <i type="logical" name="LMUSIC"> F  </i>
   <v name="POMASS">     28.08500000     26.98100000     12.01100000     14.00100000</v>
   <v name="DARWINR">      0.00000000      0.00000000      0.00000000      0.00000000</v>
   <v name="DARWINV">      1.00000000      1.00000000      1.00000000      1.00000000</v>
   <i type="logical" name="LCORR"> T  </i>
  </separator>
  <i type="logical" name="GGA_COMPAT"> T  </i>
  <i type="logical" name="LBERRY"> F  </i>
  <i type="int" name="ICORELEVEL">     0</i>
  <i type="logical" name="LDAU"> F  </i>
  <i type="int" name="I_CONSTRAINED_M">     0</i>
  <separator name="electronic exchange-correlation" >
   <i type="string" name="GGA">--</i>
   <i type="int" name="VOSKOWN">     0</i>
   <i type="logical" name="LHFCALC"> F  </i>
   <i type="string" name="PRECFOCK"></i>
   <i type="logical" name="LSYMGRAD"> F  </i>
   <i type="logical" name="LHFONE"> F  </i>
   <i type="logical" name="LRHFCALC"> F  </i>
   <i type="logical" name="LTHOMAS"> F  </i>
   <i type="logical" name="LMODELHF"> F  </i>
   <i name="ENCUT4O">     -1.00000000</i>
   <i type="int" name="EXXOEP">     0</i>
   <i type="int" name="FOURORBIT">     0</i>
   <i name="AEXX">      0.00000000</i>
   <i name="HFALPHA">      0.00000000</i>
   <i name="MCALPHA">      0.00000000</i>
   <i name="ALDAX">      1.00000000</i>
   <i name="AGGAX">      1.00000000</i>
   <i name="ALDAC">      1.00000000</i>
   <i name="AGGAC">      1.00000000</i>
   <i type="int" name="NKREDX">     1</i>
   <i type="int" name="NKREDY">     1</i>
   <i type="int" name="NKREDZ">     1</i>
   <i type="logical" name="SHIFTRED"> F  </i>
   <i type="logical" name="ODDONLY"> F  </i>
   <i type="logical" name="EVENONLY"> F  </i>
   <i type="int" name="LMAXFOCK">     0</i>
   <i type="int" name="NMAXFOCKAE">     0</i>
   <i type="logical" name="LFOCKAEDFT"> F  </i>
   <i name="HFSCREEN">      0.00000000</i>
   <i name="HFSCREENC">      0.00000000</i>
   <i type="int" name="NBANDSGWLOW">     0</i>
  </separator>
  <separator name="vdW DFT" >
   <i type="logical" name="LUSE_VDW"> F  </i>
   <i name="Zab_VDW">     -0.84910000</i>
   <i name="PARAM1">      0.12340000</i>
   <i name="PARAM2">      1.00000000</i>
   <i name="PARAM3">      0.00000000</i>
  </separator>
  <separator name="model GW" >
   <i type="int" name="MODEL_GW">     0</i>
   <i name="MODEL_EPS0">      6.46631578</i>
   <i name="MODEL_ALPHA">      1.00000000</i>
  </separator>
  <separator name="linear response parameters" >
   <i type="logical" name="LEPSILON"> F  </i>
   <i type="logical" name="LRPA"> F  </i>
   <i type="logical" name="LNABLA"> F  </i>
   <i type="logical" name="LVEL"> F  </i>
   <i type="int" name="KINTER">     0</i>
   <i name="CSHIFT">      0.10000000</i>
   <i name="OMEGAMAX">     -1.00000000</i>
   <i name="DEG_THRESHOLD">      0.00200000</i>
  </separator>
  <separator name="orbital magnetization" >
   <i type="logical" name="NUCIND"> F  </i>
   <v name="MAGPOS">      0.00000000      0.00000000      0.00000000</v>
   <i type="logical" name="LNICSALL"> T  </i>
   <i type="logical" name="ORBITALMAG"> F  </i>
   <i type="logical" name="LMAGBLOCH"> F  </i>
   <i type="logical" name="LCHIMAG"> F  </i>
   <i type="logical" name="LGAUGE"> T  </i>
   <i type="int" name="MAGATOM">     0</i>
   <v name="MAGDIPOL">      0.00000000      0.00000000      0.00000000</v>
   <v name="AVECCONST">      0.00000000      0.00000000      0.00000000</v>
  </separator>
  <separator name="response functions" >
   <i type="logical" name="LADDER"> F  </i>
   <i type="logical" name="LFXC"> F  </i>
   <i type="logical" name="LHARTREE"> T  </i>
   <i type="int" name="IBSE">     0</i>
   <i type="logical" name="LTCTE"> F  </i>
   <i type="logical" name="LTETE"> F  </i>
   <i type="logical" name="LTRIPLET"> F  </i>
   <i type="logical" name="LFXCEPS"> F  </i>
   <i type="logical" name="LFXHEG"> F  </i>
   <i type="logical" name="L2ORDER"> F  </i>
   <i type="logical" name="LUSEW"> F  </i>
   <i name="ENCUTGW">     -2.00000000</i>
   <i name="ENCUTGWSOFT">     -2.00000000</i>
   <i name="ENCUTLF">     -1.00000000</i>
   <i type="int" name="LMAXMP2">    -1</i>
   <i name="SCISSOR">      0.00000000</i>
   <i type="int" name="NOMEGA">     0</i>
   <i type="int" name="NOMEGAR">     0</i>
   <i type="int" name="NBANDSGW">    -1</i>
   <i type="int" name="NBANDSO">    -1</i>
   <i type="int" name="NBANDSV">    -1</i>
   <i type="int" name="NELM">   100</i>
   <i type="int" name="DIM">     3</i>
   <i type="int" name="ANTIRES">     0</i>
   <i name="OMEGAMAX">    -30.00000000</i>
   <i name="OMEGAMIN">    -30.00000000</i>
   <i name="OMEGATL">   -200.00000000</i>
   <i type="int" name="OMEGAGRID">     0</i>
   <i name="CSHIFT">     -0.10000000</i>
   <i type="logical" name="SELFENERGY"> F  </i>
   <i type="logical" name="LSPECTRAL"> F  </i>
   <i type="logical" name="ODDONLYGW"> F  </i>
   <i type="logical" name="EVENONLYGW"> F  </i>
   <i type="int" name="NKREDLFX">     1</i>
   <i type="int" name="NKREDLFY">     1</i>
   <i type="int" name="NKREDLFZ">     1</i>
   <i type="int" name="MAXMEM">  1800</i>
   <i type="int" name="TELESCOPE">     0</i>
   <i type="int" name="TAUPAR">     1</i>
  </separator>
  <separator name="External order field" >
   <i name="OFIELD_KAPPA">      0.00000000</i>
   <v name="OFIELD_K">      0.00000000      0.00000000      0.00000000</v>
   <i name="OFIELD_Q6_NEAR">      0.00000000</i>
   <i name="OFIELD_Q6_FAR">      0.00000000</i>
   <i name="OFIELD_A">      0.00000000</i>
  </separator>
 </parameters>
 <atominfo>
  <atoms>       8 </atoms>
  <types>       4 </types>
  <array name="atoms" >
   <dimension dim="1">ion</dimension>
   <field type="string">element</field>
   <field type="int">atomtype</field>
   <set>
    <rc><c>Si</c><c>   1</c></rc>
    <rc><c>Si</c><c>   1</c></rc>
    <rc><c>Al</c><c>   2</c></rc>
    <rc><c>Al</c><c>   2</c></rc>
    <rc><c>C </c><c>   3</c></rc>
    <rc><c>C </c><c>   3</c></rc>
    <rc><c>N </c><c>   4</c></rc>
    <rc><c>N </c><c>   4</c></rc>
   </set>
  </array>
  <array name="atomtypes" >
   <dimension dim="1">type</dimension>
   <field type="int">atomspertype</field>
   <field type="string">element</field>
   <field>mass</field>
   <field>valence</field>
   <field type="string">pseudopotential</field>
   <set>
    <rc><c>   2</c><c>Si</c><c>     28.08500000</c><c>      4.00000000</c><c>  PAW_PBE Si 05Jan2001                  </c></rc>
    <rc><c>   2</c><c>Al</c><c>     26.98100000</c><c>      3.00000000</c><c>  PAW_PBE Al 04Jan2001                  </c></rc>
    <rc><c>   2</c><c>C </c><c>     12.01100000</c><c>      4.00000000</c><c>  PAW_PBE C 08Apr2002                   </c></rc>
    <rc><c>   2</c><c>N </c><c>     14.00100000</c><c>      5.00000000</c><c>  PAW_PBE N_s 07Sep2000                 </c></rc>
   </set>
  </array>
 </atominfo>
 <structure name="initialpos" >
  <crystal>
   <varray name="basis" >
    <v>       3.14380158       0.00000000       0.00000000 </v>
    <v>      -1.57190079       2.72261204       0.00000000 </v>
    <v>       0.00000000       0.00000000      10.07290545 </v>
   </varray>
   <i name="volume">     86.21754368 </i>
   <varray name="rec_basis" >
    <v>       0.31808623       0.18364717       0.00000000 </v>
    <v>       0.00000000       0.36729434       0.00000000 </v>
    <v>       0.00000000       0.00000000       0.09927622 </v>
   </varray>
  </crystal>
  <varray name="positions" >
   <v>       0.66666667       0.33333333       0.24919730 </v>
   <v>       0.66666667       0.33333333       0.75659108 </v>
   <v>       0.33333333       0.66666667       0.98689491 </v>
   <v>       0.33333333       0.66666667       0.49923634 </v>
   <v>       0.33333333       0.66666667       0.69231148 </v>
   <v>       0.66666667       0.33333333       0.94108136 </v>
   <v>       0.33333333       0.66666667       0.20170982 </v>
   <v>       0.66666667       0.33333333       0.42297769 </v>
  </varray>
 </structure>
 <calculation>
  <scstep>
   <time name="dav">    0.15    0.15</time>
   <time name="total">    0.19    0.20</time>
   <energy>
    <i name="alphaZ">     31.53823268 </i>
    <i name="ewald">  -1118.53772779 </i>
    <i name="hartreedc">   -192.83208433 </i>
    <i name="XCdc">     -3.00192161 </i>
    <i name="pawpsdc">    935.56880406 </i>
    <i name="pawaedc">   -839.98261288 </i>
    <i name="eentropy">     -0.00746543 </i>
    <i name="bandstr">    202.46843331 </i>
    <i name="atom">   1136.60489245 </i>
    <i name="e_fr_energy">    151.81855046 </i>
    <i name="e_wo_entrp">    151.82601589 </i>
    <i name="e_0_energy">    151.82228318 </i>
   </energy>
  </scstep>
  <scstep>
   <time name="dav">    0.19    0.19</time>
   <time name="total">    0.19    0.20</time>
   <energy>
    <i name="e_fr_energy">    -53.93449502 </i>
    <i name="e_wo_entrp">    -53.93449502 </i>
    <i name="e_0_energy">    -53.93449502 </i>
   </energy>
  </scstep>
  <scstep>
   <time name="dav">    0.19    0.19</time>
   <time name="total">    0.19    0.21</time>
   <energy>
    <i name="e_fr_energy">    -66.97694455 </i>
    <i name="e_wo_entrp">    -66.97694455 </i>
    <i name="e_0_energy">    -66.97694455 </i>
   </energy>
  </scstep>
  <scstep>
   <time name="dav">    0.18    0.18</time>
   <time name="total">    0.18    0.20</time>
   <energy>
    <i name="e_fr_energy">    -67.21238411 </i>
    <i name="e_wo_entrp">    -67.21238411 </i>
    <i name="e_0_energy">    -67.21238411 </i>
   </energy>
  </scstep>
  <scstep>
   <time name="dav">    0.19    0.19</time>
   <time name="total">    0.24    0.25</time>
   <energy>
    <i name="e_fr_energy">    -67.21783434 </i>
    <i name="e_wo_entrp">    -67.21783434 </i>
    <i name="e_0_energy">    -67.21783434 </i>
   </energy>
  </scstep>
  <scstep>
   <time name="diag">    0.04    0.04</time>
   <time name="diis">    0.08    0.08</time>
   <time name="orth">    0.00    0.00</time>
   <time name="total">    0.21    0.23</time>
   <energy>
    <i name="e_fr_energy">    -57.50134108 </i>
    <i name="e_wo_entrp">    -57.50134108 </i>
    <i name="e_0_energy">    -57.50134108 </i>
   </energy>
  </scstep>
  <scstep>
   <time name="diag">    0.04    0.04</time>
   <time name="diis">    0.09    0.09</time>
   <time name="orth">    0.00    0.00</time>
   <time name="total">    0.21    0.23</time>
   <energy>
    <i name="e_fr_energy">    -57.15698444 </i>
    <i name="e_wo_entrp">    -57.15543239 </i>
    <i name="e_0_energy">    -57.15620842 </i>
   </energy>
  </scstep>
  <scstep>
   <time name="diag">    0.04    0.04</time>
   <time name="diis">    0.08    0.08</time>
   <time name="orth">    0.00    0.00</time>
   <time name="total">    0.21    0.22</time>
   <energy>
    <i name="e_fr_energy">    -57.29638939 </i>
    <i name="e_wo_entrp">    -57.28547743 </i>
    <i name="e_0_energy">    -57.29093341 </i>
   </energy>
  </scstep>
  <scstep>
   <time name="diag">    0.04    0.04</time>
   <time name="diis">    0.08    0.08</time>
   <time name="orth">    0.00    0.00</time>
   <time name="total">    0.21    0.22</time>
   <energy>
    <i name="e_fr_energy">    -57.01833385 </i>
    <i name="e_wo_entrp">    -57.00642903 </i>
    <i name="e_0_energy">    -57.01238144 </i>
   </energy>
  </scstep>
  <scstep>
   <time name="diag">    0.04    0.04</time>
   <time name="diis">    0.08    0.08</time>
   <time name="orth">    0.00    0.00</time>
   <time name="total">    0.21    0.22</time>
   <energy>
    <i name="e_fr_energy">    -57.02748897 </i>
    <i name="e_wo_entrp">    -57.02272619 </i>
    <i name="e_0_energy">    -57.02510758 </i>
   </energy>
  </scstep>
  <scstep>
   <time name="diag">    0.04    0.04</time>
   <time name="diis">    0.08    0.08</time>
   <time name="orth">    0.00    0.00</time>
   <time name="total">    0.21    0.22</time>
   <energy>
    <i name="e_fr_energy">    -57.01395780 </i>
    <i name="e_wo_entrp">    -57.00209783 </i>
    <i name="e_0_energy">    -57.00802782 </i>
   </energy>
  </scstep>
  <scstep>
   <time name="diag">    0.04    0.04</time>
   <time name="diis">    0.09    0.09</time>
   <time name="orth">    0.00    0.00</time>
   <time name="total">    0.22    0.23</time>
   <energy>
    <i name="e_fr_energy">    -57.00923150 </i>
    <i name="e_wo_entrp">    -57.00024449 </i>
    <i name="e_0_energy">    -57.00473799 </i>
   </energy>
  </scstep>
  <scstep>
   <time name="diag">    0.04    0.04</time>
   <time name="diis">    0.08    0.08</time>
   <time name="orth">    0.00    0.00</time>
   <time name="total">    0.21    0.23</time>
   <energy>
    <i name="e_fr_energy">    -57.00944233 </i>
    <i name="e_wo_entrp">    -57.00078300 </i>
    <i name="e_0_energy">    -57.00511267 </i>
   </energy>
  </scstep>
  <scstep>
   <time name="diag">    0.04    0.04</time>
   <time name="diis">    0.08    0.08</time>
   <time name="orth">    0.00    0.00</time>
   <time name="total">    0.21    0.22</time>
   <energy>
    <i name="e_fr_energy">    -57.00900928 </i>
    <i name="e_wo_entrp">    -56.99920279 </i>
    <i name="e_0_energy">    -57.00410604 </i>
   </energy>
  </scstep>
  <scstep>
   <time name="diag">    0.04    0.04</time>
   <time name="diis">    0.08    0.08</time>
   <time name="orth">    0.00    0.00</time>
   <time name="total">    0.20    0.22</time>
   <energy>
    <i name="e_fr_energy">    -57.00901227 </i>
    <i name="e_wo_entrp">    -56.99930996 </i>
    <i name="e_0_energy">    -57.00416111 </i>
   </energy>
  </scstep>
  <scstep>
   <time name="diag">    0.04    0.04</time>
   <time name="diis">    0.08    0.08</time>
   <time name="orth">    0.00    0.00</time>
   <time name="total">    0.20    0.22</time>
   <energy>
    <i name="e_fr_energy">    -57.00901046 </i>
    <i name="e_wo_entrp">    -56.99923379 </i>
    <i name="e_0_energy">    -57.00412213 </i>
   </energy>
  </scstep>
  <scstep>
   <time name="diag">    0.04    0.04</time>
   <time name="diis">    0.06    0.06</time>
   <time name="orth">    0.00    0.00</time>
   <time name="total">    0.14    0.16</time>
   <energy>
    <i name="alphaZ">     31.53823268 </i>
    <i name="ewald">  -1118.53772779 </i>
    <i name="hartreedc">   -243.17027324 </i>
    <i name="XCdc">      1.65577329 </i>
    <i name="pawpsdc">   4989.41856053 </i>
    <i name="pawaedc">  -4895.83750765 </i>
    <i name="eentropy">     -0.00976688 </i>
    <i name="bandstr">     41.32880624 </i>
    <i name="atom">   1136.60489245 </i>
    <i name="e_fr_energy">    -57.00901036 </i>
    <i name="e_wo_entrp">    -56.99924348 </i>
    <i name="e_0_energy">    -57.00412692 </i>
   </energy>
  </scstep>
  <structure>
   <crystal>
    <varray name="basis" >
     <v>       3.14380158       0.00000000       0.00000000 </v>
     <v>      -1.57190079       2.72261204       0.00000000 </v>
     <v>       0.00000000       0.00000000      10.07290545 </v>
    </varray>
    <i name="volume">     86.21754368 </i>
    <varray name="rec_basis" >
     <v>       0.31808623       0.18364717       0.00000000 </v>
     <v>       0.00000000       0.36729434       0.00000000 </v>
     <v>       0.00000000       0.00000000       0.09927622 </v>
    </varray>
   </crystal>
   <varray name="positions" >
    <v>       0.66666667       0.33333333       0.24919730 </v>
    <v>       0.66666667       0.33333333       0.75659108 </v>
    <v>       0.33333333       0.66666667       0.98689491 </v>
    <v>       0.33333333       0.66666667       0.49923634 </v>
    <v>       0.33333333       0.66666667       0.69231148 </v>
    <v>       0.66666667       0.33333333       0.94108136 </v>
    <v>       0.33333333       0.66666667       0.20170982 </v>
    <v>       0.66666667       0.33333333       0.42297769 </v>
   </varray>
  </structure>
  <varray name="forces" >
   <v>       0.00000000       0.00000000       0.00160929 </v>
   <v>       0.00000000       0.00000000      -0.01376387 </v>
   <v>       0.00000000       0.00000000       0.00351209 </v>
   <v>       0.00000000       0.00000000       0.01154566 </v>
   <v>       0.00000000       0.00000000      -0.00987987 </v>
   <v>       0.00000000       0.00000000       0.00781390 </v>
   <v>       0.00000000       0.00000000       0.01347021 </v>
   <v>       0.00000000       0.00000000      -0.01430742 </v>
  </varray>
  <varray name="stress" >
   <v>       0.11658362       0.00000000       0.00000000 </v>
   <v>       0.00000000       0.11658362       0.00000000 </v>
   <v>       0.00000000       0.00000000      -0.51223858 </v>
  </varray>
  <energy>
   <i name="e_fr_energy">    -57.00901036 </i>
   <i name="e_wo_entrp">    -57.00412692 </i>
   <i name="e_0_energy">     -0.00976688 </i>
  </energy>
  <time name="totalsc">    4.34    4.62</time>
  <eigenvalues>
   <array>
    <dimension dim="1">band</dimension>
    <dimension dim="2">kpoint</dimension>
    <dimension dim="3">spin</dimension>
    <field>eigene</field>
    <field>occ</field>
    <set>
     <set comment="spin 1">
      <set comment="kpoint 1">
       <r>  -10.9928    1.0000 </r>
       <r>   -8.5158    1.0000 </r>
       <r>   -5.6900    1.0000 </r>
       <r>   -3.1336    1.0000 </r>
       <r>   -0.5564    1.0000 </r>
       <r>    2.7905    1.0000 </r>
       <r>    2.7905    1.0000 </r>
       <r>    2.8105    1.0000 </r>
       <r>    3.3121    1.0000 </r>
       <r>    5.0110    1.0000 </r>
       <r>    5.0110    1.0000 </r>
       <r>    7.2039    1.0000 </r>
       <r>    7.7180    1.0000 </r>
       <r>    7.7180    1.0000 </r>
       <r>    8.5712    1.0000 </r>
       <r>    9.0239    0.0335 </r>
       <r>    9.0239    0.0335 </r>
       <r>   11.3919    0.0000 </r>
       <r>   12.9989    0.0000 </r>
       <r>   13.6985    0.0000 </r>
       <r>   14.8793    0.0000 </r>
       <r>   15.2882    0.0000 </r>
       <r>   15.4856    0.0000 </r>
       <r>   15.6079    0.0000 </r>
      </set>
      <set comment="kpoint 2">
       <r>  -10.7322    1.0000 </r>
       <r>   -8.3511    1.0000 </r>
       <r>   -5.3640    1.0000 </r>
       <r>   -2.8727    1.0000 </r>
       <r>   -0.3335    1.0000 </r>
       <r>    1.3710    1.0000 </r>
       <r>    2.5026    1.0000 </r>
       <r>    2.9487    1.0000 </r>
       <r>    3.3929    1.0000 </r>
       <r>    4.4959    1.0000 </r>
       <r>    4.8685    1.0000 </r>
       <r>    6.1720    1.0000 </r>
       <r>    7.1267    1.0000 </r>
       <r>    7.2798    1.0000 </r>
       <r>    7.9686    1.0000 </r>
       <r>    8.8259    0.8334 </r>
       <r>    9.5414    0.0000 </r>
       <r>   11.9368    0.0000 </r>
       <r>   12.3562    0.0000 </r>
       <r>   13.9003    0.0000 </r>
       <r>   14.3715    0.0000 </r>
       <r>   15.0955    0.0000 </r>
       <r>   15.8609    0.0000 </r>
       <r>   16.2706    0.0000 </r>
      </set>
      <set comment="kpoint 3">
       <r>  -10.0199    1.0000 </r>
       <r>   -7.9833    1.0000 </r>
       <r>   -4.4239    1.0000 </r>
       <r>   -2.2368    1.0000 </r>
       <r>   -0.8594    1.0000 </r>
       <r>    0.7011    1.0000 </r>
       <r>    1.7746    1.0000 </r>
       <r>    1.9576    1.0000 </r>
       <r>    2.9248    1.0000 </r>
       <r>    4.2575    1.0000 </r>
       <r>    4.4280    1.0000 </r>
       <r>    4.5451    1.0000 </r>
       <r>    5.8460    1.0000 </r>
       <r>    6.5321    1.0000 </r>
       <r>    6.9916    1.0000 </r>
       <r>    8.3781    1.0000 </r>
       <r>    9.6322    0.0000 </r>
       <r>   11.8647    0.0000 </r>
       <r>   12.3846    0.0000 </r>
       <r>   13.0040    0.0000 </r>
       <r>   13.6946    0.0000 </r>
       <r>   14.4083    0.0000 </r>
       <r>   15.5148    0.0000 </r>
       <r>   16.0390    0.0000 </r>
      </set>
      <set comment="kpoint 4">
       <r>   -9.1818    1.0000 </r>
       <r>   -7.7927    1.0000 </r>
       <r>   -3.1047    1.0000 </r>
       <r>   -2.4281    1.0000 </r>
       <r>   -1.4103    1.0000 </r>
       <r>    0.4703    1.0000 </r>
       <r>    1.3149    1.0000 </r>
       <r>    1.5888    1.0000 </r>
       <r>    1.7960    1.0000 </r>
       <r>    3.3484    1.0000 </r>
       <r>    3.9518    1.0000 </r>
       <r>    4.2955    1.0000 </r>
       <r>    5.5971    1.0000 </r>
       <r>    6.0606    1.0000 </r>
       <r>    6.4551    1.0000 </r>
       <r>    8.0487    1.0000 </r>
       <r>    8.9923    0.0829 </r>
       <r>   11.1436    0.0000 </r>
       <r>   11.7754    0.0000 </r>
       <r>   12.6592    0.0000 </r>
       <r>   13.4262    0.0000 </r>
       <r>   13.9398    0.0000 </r>
       <r>   15.2072    0.0000 </r>
       <r>   15.7730    0.0000 </r>
      </set>
      <set comment="kpoint 5">
       <r>  -10.2430    1.0000 </r>
       <r>   -8.0816    1.0000 </r>
       <r>   -4.7290    1.0000 </r>
       <r>   -2.4094    1.0000 </r>
       <r>   -0.3910    1.0000 </r>
       <r>    0.6576    1.0000 </r>
       <r>    1.5901    1.0000 </r>
       <r>    2.4254    1.0000 </r>
       <r>    3.3677    1.0000 </r>
       <r>    4.2536    1.0000 </r>
       <r>    4.5621    1.0000 </r>
       <r>    4.8442    1.0000 </r>
       <r>    5.8953    1.0000 </r>
       <r>    6.7736    1.0000 </r>
       <r>    7.2315    1.0000 </r>
       <r>    8.1112    1.0000 </r>
       <r>   10.7005    0.0000 </r>
       <r>   11.3587    0.0000 </r>
       <r>   12.5216    0.0000 </r>
       <r>   13.9208    0.0000 </r>
       <r>   14.1374    0.0000 </r>
       <r>   14.2404    0.0000 </r>
       <r>   15.3162    0.0000 </r>
       <r>   16.0929    0.0000 </r>
      </set>
      <set comment="kpoint 6">
       <r>   -9.4307    1.0000 </r>
       <r>   -7.7970    1.0000 </r>
       <r>   -3.5586    1.0000 </r>
       <r>   -2.0281    1.0000 </r>
       <r>   -1.2737    1.0000 </r>
       <r>    0.6145    1.0000 </r>
       <r>    1.1684    1.0000 </r>
       <r>    1.6882    1.0000 </r>
       <r>    2.1231    1.0000 </r>
       <r>    3.5710    1.0000 </r>
       <r>    4.0389    1.0000 </r>
       <r>    4.3198    1.0000 </r>
       <r>    5.0624    1.0000 </r>
       <r>    5.7889    1.0000 </r>
       <r>    6.7699    1.0000 </r>
       <r>    7.4082    1.0000 </r>
       <r>   10.3161    0.0000 </r>
       <r>   11.7630    0.0000 </r>
       <r>   12.4761    0.0000 </r>
       <r>   12.8881    0.0000 </r>
       <r>   13.4930    0.0000 </r>
       <r>   14.7408    0.0000 </r>
       <r>   15.2335    0.0000 </r>
       <r>   15.7459    0.0000 </r>
      </set>
      <set comment="kpoint 7">
       <r>   -8.8918    1.0000 </r>
       <r>   -7.7804    1.0000 </r>
       <r>   -2.5368    1.0000 </r>
       <r>   -2.4098    1.0000 </r>
       <r>   -1.4252    1.0000 </r>
       <r>    0.2514    1.0000 </r>
       <r>    0.8194    1.0000 </r>
       <r>    1.3496    1.0000 </r>
       <r>    2.1947    1.0000 </r>
       <r>    3.1227    1.0000 </r>
       <r>    3.5459    1.0000 </r>
       <r>    3.8692    1.0000 </r>
       <r>    4.8051    1.0000 </r>
       <r>    5.9365    1.0000 </r>
       <r>    6.3807    1.0000 </r>
       <r>    7.2535    1.0000 </r>
       <r>    9.9862    0.0000 </r>
       <r>   11.3047    0.0000 </r>
       <r>   12.2638    0.0000 </r>
       <r>   12.7571    0.0000 </r>
       <r>   13.6480    0.0000 </r>
       <r>   14.3642    0.0000 </r>
       <r>   15.5942    0.0000 </r>
       <r>   15.6224    0.0000 </r>
      </set>
      <set comment="kpoint 8">
       <r>   -8.7851    1.0000 </r>
       <r>   -7.7557    1.0000 </r>
       <r>   -2.3895    1.0000 </r>
       <r>   -2.0584    1.0000 </r>
       <r>   -1.2864    1.0000 </r>
       <r>   -0.4714    1.0000 </r>
       <r>    0.9721    1.0000 </r>
       <r>    1.7664    1.0000 </r>
       <r>    2.3357    1.0000 </r>
       <r>    2.4753    1.0000 </r>
       <r>    3.2752    1.0000 </r>
       <r>    3.6854    1.0000 </r>
       <r>    4.2908    1.0000 </r>
       <r>    5.5876    1.0000 </r>
       <r>    6.2522    1.0000 </r>
       <r>    6.9661    1.0000 </r>
       <r>   10.7631    0.0000 </r>
       <r>   11.9705    0.0000 </r>
       <r>   12.5566    0.0000 </r>
       <r>   13.0770    0.0000 </r>
       <r>   13.7050    0.0000 </r>
       <r>   14.5563    0.0000 </r>
       <r>   15.2759    0.0000 </r>
       <r>   15.9502    0.0000 </r>
      </set>
      <set comment="kpoint 9">
       <r>  -10.9923    1.0000 </r>
       <r>   -8.5221    1.0000 </r>
       <r>   -5.6399    1.0000 </r>
       <r>   -3.3167    1.0000 </r>
       <r>    0.0739    1.0000 </r>
       <r>    1.4100    1.0000 </r>
       <r>    2.7905    1.0000 </r>
       <r>    2.7905    1.0000 </r>
       <r>    4.7562    1.0000 </r>
       <r>    5.0108    1.0000 </r>
       <r>    5.0108    1.0000 </r>
       <r>    6.3305    1.0000 </r>
       <r>    7.7183    1.0000 </r>
       <r>    7.7183    1.0000 </r>
       <r>    8.9082    0.4222 </r>
       <r>    9.0249    0.0325 </r>
       <r>    9.0249    0.0325 </r>
       <r>   11.5493    0.0000 </r>
       <r>   12.9924    0.0000 </r>
       <r>   13.5203    0.0000 </r>
       <r>   14.4622    0.0000 </r>
       <r>   15.3490    0.0000 </r>
       <r>   15.5802    0.0000 </r>
       <r>   15.8774    0.0000 </r>
      </set>
      <set comment="kpoint 10">
       <r>  -10.7317    1.0000 </r>
       <r>   -8.3561    1.0000 </r>
       <r>   -5.3210    1.0000 </r>
       <r>   -3.0276    1.0000 </r>
       <r>    0.1290    1.0000 </r>
       <r>    1.2311    1.0000 </r>
       <r>    2.0884    1.0000 </r>
       <r>    2.5027    1.0000 </r>
       <r>    3.9719    1.0000 </r>
       <r>    4.8467    1.0000 </r>
       <r>    4.8678    1.0000 </r>
       <r>    6.0104    1.0000 </r>
       <r>    6.9111    1.0000 </r>
       <r>    7.2831    1.0000 </r>
       <r>    7.9804    1.0000 </r>
       <r>    8.8231    0.8432 </r>
       <r>    9.6883    0.0000 </r>
       <r>   11.9080    0.0000 </r>
       <r>   12.3847    0.0000 </r>
       <r>   13.7801    0.0000 </r>
       <r>   14.4653    0.0000 </r>
       <r>   15.1366    0.0000 </r>
       <r>   15.8204    0.0000 </r>
       <r>   16.0545    0.0000 </r>
      </set>
      <set comment="kpoint 11">
       <r>  -10.0196    1.0000 </r>
       <r>   -7.9855    1.0000 </r>
       <r>   -4.4044    1.0000 </r>
       <r>   -2.2525    1.0000 </r>
       <r>   -0.9859    1.0000 </r>
       <r>    0.9499    1.0000 </r>
       <r>    1.7946    1.0000 </r>
       <r>    1.9578    1.0000 </r>
       <r>    3.1253    1.0000 </r>
       <r>    3.5715    1.0000 </r>
       <r>    4.4782    1.0000 </r>
       <r>    4.5428    1.0000 </r>
       <r>    6.0841    1.0000 </r>
       <r>    6.5419    1.0000 </r>
       <r>    7.1583    1.0000 </r>
       <r>    8.3655    1.0000 </r>
       <r>    9.5827    0.0000 </r>
       <r>   11.6088    0.0000 </r>
       <r>   12.6639    0.0000 </r>
       <r>   12.9856    0.0000 </r>
       <r>   13.6535    0.0000 </r>
       <r>   14.4471    0.0000 </r>
       <r>   15.1779    0.0000 </r>
       <r>   16.7152    0.0000 </r>
      </set>
      <set comment="kpoint 12">
       <r>   -9.1816    1.0000 </r>
       <r>   -7.7930    1.0000 </r>
       <r>   -3.1561    1.0000 </r>
       <r>   -2.2669    1.0000 </r>
       <r>   -1.5329    1.0000 </r>
       <r>    0.3535    1.0000 </r>
       <r>    1.2456    1.0000 </r>
       <r>    1.5890    1.0000 </r>
       <r>    2.3632    1.0000 </r>
       <r>    2.9302    1.0000 </r>
       <r>    3.9464    1.0000 </r>
       <r>    4.2915    1.0000 </r>
       <r>    5.5200    1.0000 </r>
       <r>    6.0751    1.0000 </r>
       <r>    6.6854    1.0000 </r>
       <r>    8.0295    1.0000 </r>
       <r>    8.8675    0.6481 </r>
       <r>   11.0599    0.0000 </r>
       <r>   11.7109    0.0000 </r>
       <r>   12.4158    0.0000 </r>
       <r>   13.9481    0.0000 </r>
       <r>   14.4167    0.0000 </r>
       <r>   14.9504    0.0000 </r>
       <r>   16.0186    0.0000 </r>
      </set>
      <set comment="kpoint 13">
       <r>  -10.2426    1.0000 </r>
       <r>   -8.0846    1.0000 </r>
       <r>   -4.7010    1.0000 </r>
       <r>   -2.4899    1.0000 </r>
       <r>   -0.4319    1.0000 </r>
       <r>    1.0248    1.0000 </r>
       <r>    1.5217    1.0000 </r>
       <r>    2.2100    1.0000 </r>
       <r>    3.3462    1.0000 </r>
       <r>    4.2970    1.0000 </r>
       <r>    4.4013    1.0000 </r>
       <r>    4.8495    1.0000 </r>
       <r>    5.9242    1.0000 </r>
       <r>    6.8813    1.0000 </r>
       <r>    7.3139    1.0000 </r>
       <r>    8.1113    1.0000 </r>
       <r>   10.6652    0.0000 </r>
       <r>   11.4105    0.0000 </r>
       <r>   12.3836    0.0000 </r>
       <r>   13.9076    0.0000 </r>
       <r>   14.1588    0.0000 </r>
       <r>   14.4815    0.0000 </r>
       <r>   15.2301    0.0000 </r>
       <r>   15.7336    0.0000 </r>
      </set>
      <set comment="kpoint 14">
       <r>   -9.4305    1.0000 </r>
       <r>   -7.7978    1.0000 </r>
       <r>   -3.5678    1.0000 </r>
       <r>   -1.7917    1.0000 </r>
       <r>   -1.5566    1.0000 </r>
       <r>    0.5653    1.0000 </r>
       <r>    1.0584    1.0000 </r>
       <r>    1.8243    1.0000 </r>
       <r>    2.6353    1.0000 </r>
       <r>    3.3936    1.0000 </r>
       <r>    3.7418    1.0000 </r>
       <r>    4.1806    1.0000 </r>
       <r>    5.0323    1.0000 </r>
       <r>    5.8523    1.0000 </r>
       <r>    6.9663    1.0000 </r>
       <r>    7.3971    1.0000 </r>
       <r>   10.2442    0.0000 </r>
       <r>   11.7994    0.0000 </r>
       <r>   12.5591    0.0000 </r>
       <r>   13.0478    0.0000 </r>
       <r>   13.6915    0.0000 </r>
       <r>   14.0950    0.0000 </r>
       <r>   15.2440    0.0000 </r>
       <r>   15.9415    0.0000 </r>
      </set>
      <set comment="kpoint 15">
       <r>   -8.8917    1.0000 </r>
       <r>   -7.7805    1.0000 </r>
       <r>   -2.6735    1.0000 </r>
       <r>   -2.2148    1.0000 </r>
       <r>   -1.4685    1.0000 </r>
       <r>    0.2523    1.0000 </r>
       <r>    0.8021    1.0000 </r>
       <r>    1.2019    1.0000 </r>
       <r>    2.5581    1.0000 </r>
       <r>    2.8277    1.0000 </r>
       <r>    3.3595    1.0000 </r>
       <r>    4.3101    1.0000 </r>
       <r>    4.8852    1.0000 </r>
       <r>    5.6548    1.0000 </r>
       <r>    6.4389    1.0000 </r>
       <r>    7.1488    1.0000 </r>
       <r>    9.8400    0.0000 </r>
       <r>   11.5037    0.0000 </r>
       <r>   12.1828    0.0000 </r>
       <r>   13.3886    0.0000 </r>
       <r>   13.7167    0.0000 </r>
       <r>   14.4542    0.0000 </r>
       <r>   15.0702    0.0000 </r>
       <r>   15.3223    0.0000 </r>
      </set>
      <set comment="kpoint 16">
       <r>   -8.7851    1.0000 </r>
       <r>   -7.7558    1.0000 </r>
       <r>   -2.4703    1.0000 </r>
       <r>   -1.9324    1.0000 </r>
       <r>   -1.3001    1.0000 </r>
       <r>   -0.4739    1.0000 </r>
       <r>    0.9527    1.0000 </r>
       <r>    1.4890    1.0000 </r>
       <r>    2.4132    1.0000 </r>
       <r>    2.8200    1.0000 </r>
       <r>    3.1563    1.0000 </r>
       <r>    3.5491    1.0000 </r>
       <r>    4.7026    1.0000 </r>
       <r>    5.4553    1.0000 </r>
       <r>    6.0792    1.0000 </r>
       <r>    6.7897    1.0000 </r>
       <r>   11.1205    0.0000 </r>
       <r>   12.1324    0.0000 </r>
       <r>   12.4961    0.0000 </r>
       <r>   13.0357    0.0000 </r>
       <r>   13.7513    0.0000 </r>
       <r>   14.7830    0.0000 </r>
       <r>   15.1190    0.0000 </r>
       <r>   15.5427    0.0000 </r>
      </set>
     </set>
    </set>
   </array>
  </eigenvalues>
  <separator name="orbital magnetization" >
   <v name="MAGDIPOLOUT">      0.00000000      0.00000000      0.00000000</v>
  </separator>
  <dos>
   <i name="efermi">      8.89435175 </i>
   <total>
    <array>
     <dimension dim="1">gridpoints</dimension>
     <dimension dim="2">spin</dimension>
     <field>energy</field>
     <field>total</field>
     <field>integrated</field>
     <set>
      <set comment="spin 1">
       <r>   -12.3782     0.0000     0.0000 </r>
       <r>   -12.2766     0.0000     0.0000 </r>
       <r>   -12.1750     0.0000     0.0000 </r>
       <r>   -12.0734     0.0000     0.0000 </r>
       <r>   -11.9718     0.0000     0.0000 </r>
       <r>   -11.8702     0.0000     0.0000 </r>
       <r>   -11.7686     0.0000     0.0000 </r>
       <r>   -11.6670     0.0000     0.0000 </r>
       <r>   -11.5655     0.0000     0.0000 </r>
       <r>   -11.4639     0.0000     0.0000 </r>
       <r>   -11.3623     0.0000     0.0000 </r>
       <r>   -11.2607     0.0000     0.0000 </r>
       <r>   -11.1591     0.0037     0.0004 </r>
       <r>   -11.0575     0.0684     0.0073 </r>
       <r>   -10.9559     0.2103     0.0287 </r>
       <r>   -10.8543     0.2100     0.0500 </r>
       <r>   -10.7527     0.8362     0.1350 </r>
       <r>   -10.6511     1.1788     0.2547 </r>
       <r>   -10.5495     0.2930     0.2845 </r>
       <r>   -10.4479     0.0163     0.2862 </r>
       <r>   -10.3463     0.1682     0.3032 </r>
       <r>   -10.2447     1.0082     0.4057 </r>
       <r>   -10.1431     1.1362     0.5211 </r>
       <r>   -10.0415     1.0022     0.6229 </r>
       <r>    -9.9399     1.1898     0.7438 </r>
       <r>    -9.8383     0.2996     0.7743 </r>
       <r>    -9.7367     0.0124     0.7755 </r>
       <r>    -9.6351     0.0092     0.7764 </r>
       <r>    -9.5335     0.3413     0.8111 </r>
       <r>    -9.4319     2.0236     1.0167 </r>
       <r>    -9.3303     2.1130     1.2314 </r>
       <r>    -9.2287     0.9333     1.3262 </r>
       <r>    -9.1271     1.2814     1.4564 </r>
       <r>    -9.0255     0.5682     1.5141 </r>
       <r>    -8.9240     0.8027     1.5957 </r>
       <r>    -8.8224     1.8970     1.7884 </r>
       <r>    -8.7208     1.6277     1.9538 </r>
       <r>    -8.6192     0.4639     2.0009 </r>
       <r>    -8.5176     0.2197     2.0232 </r>
       <r>    -8.4160     0.5998     2.0841 </r>
       <r>    -8.3144     1.2865     2.2149 </r>
       <r>    -8.2128     0.7233     2.2883 </r>
       <r>    -8.1112     0.8947     2.3792 </r>
       <r>    -8.0096     2.0107     2.5835 </r>
       <r>    -7.9080     2.0682     2.7936 </r>
       <r>    -7.8064     4.4256     3.2433 </r>
       <r>    -7.7048     5.8210     3.8347 </r>
       <r>    -7.6032     1.5521     3.9923 </r>
       <r>    -7.5016     0.0748     3.9999 </r>
       <r>    -7.4000     0.0006     4.0000 </r>
       <r>    -7.2984     0.0000     4.0000 </r>
       <r>    -7.1968     0.0000     4.0000 </r>
       <r>    -7.0952     0.0000     4.0000 </r>
       <r>    -6.9936     0.0000     4.0000 </r>
       <r>    -6.8920     0.0000     4.0000 </r>
       <r>    -6.7904     0.0000     4.0000 </r>
       <r>    -6.6888     0.0000     4.0000 </r>
       <r>    -6.5872     0.0000     4.0000 </r>
       <r>    -6.4856     0.0000     4.0000 </r>
       <r>    -6.3841     0.0000     4.0000 </r>
       <r>    -6.2825     0.0000     4.0000 </r>
       <r>    -6.1809     0.0000     4.0000 </r>
       <r>    -6.0793     0.0000     4.0000 </r>
       <r>    -5.9777     0.0000     4.0000 </r>
       <r>    -5.8761     0.0009     4.0001 </r>
       <r>    -5.7745     0.0281     4.0030 </r>
       <r>    -5.6729     0.1550     4.0187 </r>
       <r>    -5.5713     0.1773     4.0367 </r>
       <r>    -5.4697     0.1415     4.0511 </r>
       <r>    -5.3681     0.7788     4.1302 </r>
       <r>    -5.2665     1.1641     4.2485 </r>
       <r>    -5.1649     0.3472     4.2837 </r>
       <r>    -5.0633     0.0192     4.2857 </r>
       <r>    -4.9617     0.0009     4.2858 </r>
       <r>    -4.8601     0.0524     4.2911 </r>
       <r>    -4.7585     0.6053     4.3526 </r>
       <r>    -4.6569     1.2461     4.4792 </r>
       <r>    -4.5553     0.5315     4.5332 </r>
       <r>    -4.4537     0.6720     4.6015 </r>
       <r>    -4.3521     1.2488     4.7284 </r>
       <r>    -4.2505     0.4378     4.7728 </r>
       <r>    -4.1489     0.0262     4.7755 </r>
       <r>    -4.0473     0.0002     4.7755 </r>
       <r>    -3.9457     0.0000     4.7755 </r>
       <r>    -3.8442     0.0002     4.7755 </r>
       <r>    -3.7426     0.0272     4.7783 </r>
       <r>    -3.6410     0.6292     4.8422 </r>
       <r>    -3.5394     2.3887     5.0849 </r>
       <r>    -3.4378     1.5995     5.2474 </r>
       <r>    -3.3362     0.2592     5.2737 </r>
       <r>    -3.2346     0.3115     5.3054 </r>
       <r>    -3.1330     1.1610     5.4233 </r>
       <r>    -3.0314     1.6062     5.5865 </r>
       <r>    -2.9298     0.9991     5.6880 </r>
       <r>    -2.8282     0.7575     5.7650 </r>
       <r>    -2.7266     0.5592     5.8218 </r>
       <r>    -2.6250     0.8391     5.9070 </r>
       <r>    -2.5234     1.7121     6.0810 </r>
       <r>    -2.4218     3.5631     6.4430 </r>
       <r>    -2.3202     3.4205     6.7905 </r>
       <r>    -2.2186     2.8885     7.0840 </r>
       <r>    -2.1170     2.0785     7.2951 </r>
       <r>    -2.0154     2.1036     7.5088 </r>
       <r>    -1.9138     1.8952     7.7014 </r>
       <r>    -1.8122     1.4026     7.8439 </r>
       <r>    -1.7106     1.2756     7.9735 </r>
       <r>    -1.6090     1.0084     8.0759 </r>
       <r>    -1.5074     2.4527     8.3251 </r>
       <r>    -1.4058     2.8866     8.6184 </r>
       <r>    -1.3043     2.8573     8.9087 </r>
       <r>    -1.2027     2.4832     9.1610 </r>
       <r>    -1.1011     0.6621     9.2282 </r>
       <r>    -0.9995     0.5025     9.2793 </r>
       <r>    -0.8979     0.8910     9.3698 </r>
       <r>    -0.7963     0.7519     9.4462 </r>
       <r>    -0.6947     0.2237     9.4689 </r>
       <r>    -0.5931     0.1886     9.4881 </r>
       <r>    -0.4915     1.2834     9.6185 </r>
       <r>    -0.3899     2.5897     9.8816 </r>
       <r>    -0.2883     1.7305    10.0574 </r>
       <r>    -0.1867     0.4142    10.0994 </r>
       <r>    -0.0851     0.0292    10.1024 </r>
       <r>     0.0165     0.1064    10.1132 </r>
       <r>     0.1181     0.6369    10.1779 </r>
       <r>     0.2197     1.3529    10.3154 </r>
       <r>     0.3213     1.7326    10.4914 </r>
       <r>     0.4229     1.3387    10.6274 </r>
       <r>     0.5245     1.7477    10.8050 </r>
       <r>     0.6261     3.1756    11.1276 </r>
       <r>     0.7277     2.8823    11.4204 </r>
       <r>     0.8293     2.0129    11.6249 </r>
       <r>     0.9309     2.2339    11.8519 </r>
       <r>     1.0325     3.3141    12.1886 </r>
       <r>     1.1341     3.2599    12.5198 </r>
       <r>     1.2357     3.5356    12.8790 </r>
       <r>     1.3372     3.2504    13.2092 </r>
       <r>     1.4388     2.4033    13.4534 </r>
       <r>     1.5404     2.5186    13.7093 </r>
       <r>     1.6420     3.3195    14.0465 </r>
       <r>     1.7436     3.6983    14.4222 </r>
       <r>     1.8452     4.3374    14.8629 </r>
       <r>     1.9468     2.6977    15.1370 </r>
       <r>     2.0484     1.9531    15.3354 </r>
       <r>     2.1500     2.6030    15.5999 </r>
       <r>     2.2516     2.4823    15.8521 </r>
       <r>     2.3532     2.1827    16.0738 </r>
       <r>     2.4548     3.3381    16.4130 </r>
       <r>     2.5564     3.5185    16.7704 </r>
       <r>     2.6580     2.4786    17.0222 </r>
       <r>     2.7596     1.6666    17.1916 </r>
       <r>     2.8612     2.3875    17.4341 </r>
       <r>     2.9628     2.6719    17.7056 </r>
       <r>     3.0644     1.7643    17.8848 </r>
       <r>     3.1660     2.0357    18.0916 </r>
       <r>     3.2676     2.2503    18.3203 </r>
       <r>     3.3692     4.2321    18.7502 </r>
       <r>     3.4708     4.3302    19.1901 </r>
       <r>     3.5724     3.5660    19.5524 </r>
       <r>     3.6740     3.1798    19.8755 </r>
       <r>     3.7756     2.2726    20.1064 </r>
       <r>     3.8771     1.8544    20.2948 </r>
       <r>     3.9787     2.7642    20.5756 </r>
       <r>     4.0803     2.7590    20.8559 </r>
       <r>     4.1819     2.5227    21.1122 </r>
       <r>     4.2835     5.2836    21.6490 </r>
       <r>     4.3851     5.9467    22.2532 </r>
       <r>     4.4867     3.9802    22.6575 </r>
       <r>     4.5883     3.3690    22.9998 </r>
       <r>     4.6899     1.7913    23.1818 </r>
       <r>     4.7915     2.3777    23.4234 </r>
       <r>     4.8931     4.5115    23.8817 </r>
       <r>     4.9947     3.5911    24.2466 </r>
       <r>     5.0963     3.1063    24.5622 </r>
       <r>     5.1979     1.2036    24.6844 </r>
       <r>     5.2995     0.1094    24.6956 </r>
       <r>     5.4011     0.3148    24.7275 </r>
       <r>     5.5027     1.3235    24.8620 </r>
       <r>     5.6043     2.2577    25.0914 </r>
       <r>     5.7059     2.0642    25.3011 </r>
       <r>     5.8075     2.7027    25.5757 </r>
       <r>     5.9091     4.2888    26.0114 </r>
       <r>     6.0107     3.7895    26.3964 </r>
       <r>     6.1123     3.6587    26.7681 </r>
       <r>     6.2139     2.4010    27.0120 </r>
       <r>     6.3155     1.4147    27.1558 </r>
       <r>     6.4170     1.8003    27.3387 </r>
       <r>     6.5186     2.4502    27.5876 </r>
       <r>     6.6202     1.8265    27.7732 </r>
       <r>     6.7218     1.9538    27.9717 </r>
       <r>     6.8234     3.3199    28.3090 </r>
       <r>     6.9250     3.4927    28.6638 </r>
       <r>     7.0266     3.5312    29.0226 </r>
       <r>     7.1282     2.5948    29.2862 </r>
       <r>     7.2298     3.4790    29.6396 </r>
       <r>     7.3314     4.1664    30.0629 </r>
       <r>     7.4330     3.6912    30.4379 </r>
       <r>     7.5346     1.5666    30.5971 </r>
       <r>     7.6362     0.2459    30.6221 </r>
       <r>     7.7378     0.3941    30.6621 </r>
       <r>     7.8394     0.3529    30.6980 </r>
       <r>     7.9410     0.9502    30.7945 </r>
       <r>     8.0426     2.6661    31.0654 </r>
       <r>     8.1442     2.6139    31.3309 </r>
       <r>     8.2458     0.9790    31.4304 </r>
       <r>     8.3474     0.8618    31.5179 </r>
       <r>     8.4490     1.2052    31.6404 </r>
       <r>     8.5506     0.3889    31.6799 </r>
       <r>     8.6522     0.1314    31.6933 </r>
       <r>     8.7538     0.4557    31.7396 </r>
       <r>     8.8554     1.7670    31.9191 </r>
       <r>     8.9569     1.8615    32.1082 </r>
       <r>     9.0585     1.2756    32.2378 </r>
       <r>     9.1601     0.4390    32.2824 </r>
       <r>     9.2617     0.0324    32.2857 </r>
       <r>     9.3633     0.0087    32.2866 </r>
       <r>     9.4649     0.2295    32.3099 </r>
       <r>     9.5665     1.2897    32.4409 </r>
       <r>     9.6681     2.0153    32.6457 </r>
       <r>     9.7697     1.2851    32.7762 </r>
       <r>     9.8713     0.8582    32.8634 </r>
       <r>     9.9729     0.8165    32.9464 </r>
       <r>    10.0745     0.6212    33.0095 </r>
       <r>    10.1761     0.5650    33.0669 </r>
       <r>    10.2777     1.8940    33.2593 </r>
       <r>    10.3793     1.9542    33.4578 </r>
       <r>    10.4809     0.4974    33.5084 </r>
       <r>    10.5825     0.2277    33.5315 </r>
       <r>    10.6841     1.1712    33.6505 </r>
       <r>    10.7857     1.5927    33.8123 </r>
       <r>    10.8873     0.5982    33.8731 </r>
       <r>    10.9889     0.2880    33.9023 </r>
       <r>    11.0905     1.2385    34.0282 </r>
       <r>    11.1921     1.6909    34.1999 </r>
       <r>    11.2937     1.2341    34.3253 </r>
       <r>    11.3953     1.8172    34.5099 </r>
       <r>    11.4969     1.6977    34.6824 </r>
       <r>    11.5984     1.3897    34.8236 </r>
       <r>    11.7000     1.9650    35.0232 </r>
       <r>    11.8016     3.9143    35.4209 </r>
       <r>    11.9032     3.8208    35.8091 </r>
       <r>    12.0048     2.4162    36.0546 </r>
       <r>    12.1064     1.2365    36.1802 </r>
       <r>    12.2080     1.5412    36.3368 </r>
       <r>    12.3096     2.0865    36.5488 </r>
       <r>    12.4112     3.9654    36.9516 </r>
       <r>    12.5128     5.1625    37.4761 </r>
       <r>    12.6144     4.3812    37.9212 </r>
       <r>    12.7160     2.5565    38.1810 </r>
       <r>    12.8176     1.5679    38.3402 </r>
       <r>    12.9192     2.0294    38.5464 </r>
       <r>    13.0208     3.5838    38.9105 </r>
       <r>    13.1224     3.3934    39.2553 </r>
       <r>    13.2240     0.8724    39.3439 </r>
       <r>    13.3256     0.3695    39.3815 </r>
       <r>    13.4272     1.5674    39.5407 </r>
       <r>    13.5288     2.3228    39.7767 </r>
       <r>    13.6304     2.7493    40.0560 </r>
       <r>    13.7320     5.1442    40.5786 </r>
       <r>    13.8336     3.9872    40.9837 </r>
       <r>    13.9352     3.3675    41.3258 </r>
       <r>    14.0368     2.8954    41.6200 </r>
       <r>    14.1383     2.6389    41.8881 </r>
       <r>    14.2399     2.3243    42.1242 </r>
       <r>    14.3415     2.1584    42.3435 </r>
       <r>    14.4431     4.3540    42.7859 </r>
       <r>    14.5447     3.9309    43.1852 </r>
       <r>    14.6463     1.4922    43.3368 </r>
       <r>    14.7479     1.5787    43.4972 </r>
       <r>    14.8495     1.7386    43.6739 </r>
       <r>    14.9511     1.0575    43.7813 </r>
       <r>    15.0527     1.7132    43.9554 </r>
       <r>    15.1543     3.9448    44.3561 </r>
       <r>    15.2559     6.1996    44.9860 </r>
       <r>    15.3575     4.7107    45.4646 </r>
       <r>    15.4591     1.7020    45.6375 </r>
       <r>    15.5607     2.1030    45.8511 </r>
       <r>    15.6623     2.7402    46.1295 </r>
       <r>    15.7639     3.2679    46.4615 </r>
       <r>    15.8655     3.5437    46.8216 </r>
       <r>    15.9671     3.5264    47.1798 </r>
       <r>    16.0687     3.5519    47.5407 </r>
       <r>    16.1703     1.9181    47.7356 </r>
       <r>    16.2719     0.7946    47.8163 </r>
       <r>    16.3735     0.5151    47.8686 </r>
       <r>    16.4751     0.0860    47.8774 </r>
       <r>    16.5767     0.0321    47.8806 </r>
       <r>    16.6782     0.3322    47.9144 </r>
       <r>    16.7798     0.6256    47.9779 </r>
       <r>    16.8814     0.2060    47.9989 </r>
       <r>    16.9830     0.0112    48.0000 </r>
       <r>    17.0846     0.0001    48.0000 </r>
       <r>    17.1862     0.0000    48.0000 </r>
       <r>    17.2878     0.0000    48.0000 </r>
       <r>    17.3894     0.0000    48.0000 </r>
       <r>    17.4910     0.0000    48.0000 </r>
       <r>    17.5926     0.0000    48.0000 </r>
       <r>    17.6942     0.0000    48.0000 </r>
       <r>    17.7958     0.0000    48.0000 </r>
       <r>    17.8974     0.0000    48.0000 </r>
       <r>    17.9990     0.0000    48.0000 </r>
       <r>    18.1006     0.0000    48.0000 </r>
      </set>
     </set>
    </array>
   </total>
  </dos>
 </calculation>
 <structure name="finalpos" >
  <crystal>
   <varray name="basis" >
    <v>       3.14380158       0.00000000       0.00000000 </v>
    <v>      -1.57190079       2.72261204       0.00000000 </v>
    <v>       0.00000000       0.00000000      10.07290545 </v>
   </varray>
   <i name="volume">     86.21754368 </i>
   <varray name="rec_basis" >
    <v>       0.31808623       0.18364717       0.00000000 </v>
    <v>       0.00000000       0.36729434       0.00000000 </v>
    <v>       0.00000000       0.00000000       0.09927622 </v>
   </varray>
  </crystal>
  <varray name="positions" >
   <v>       0.66666667       0.33333333       0.24919730 </v>
   <v>       0.66666667       0.33333333       0.75659108 </v>
   <v>       0.33333333       0.66666667       0.98689491 </v>
   <v>       0.33333333       0.66666667       0.49923634 </v>
   <v>       0.33333333       0.66666667       0.69231148 </v>
   <v>       0.66666667       0.33333333       0.94108136 </v>
   <v>       0.33333333       0.66666667       0.20170982 </v>
   <v>       0.66666667       0.33333333       0.42297769 </v>
  </varray>
 </structure>
</modeling>
