<?xml version="1.0" encoding="ISO-8859-1"?>
<modeling>
 <generator>
  <i name="program" type="string">vasp </i>
  <i name="version" type="string">5.3.5  </i>
  <i name="subversion" type="string">31Mar14 (build Jun 20 2014 13:15:13) complex                          parallel </i>
  <i name="platform" type="string">LinuxIFC </i>
  <i name="date" type="string">2025 12 12 </i>
  <i name="time" type="string">13:39:05 </i>
 </generator>
 <incar>
  <i type="string" name="PREC">accurate</i>
  <i type="int" name="IALGO">    38</i>
  <i type="logical" name="ADDGRID"> T  </i>
  <i type="int" name="ISPIN">     2</i>
  <i type="int" name="NELM">   100</i>
  <i type="int" name="NELMIN">     4</i>
  <i name="EDIFF">      0.00000100</i>
  <i name="ENCUT">    500.00000000</i>
  <i type="logical" name="LREAL"> F  </i>
  <i type="int" name="ISMEAR">     0</i>
  <i name="SIGMA">      0.05000000</i>
  <i type="logical" name="LWAVE"> F  </i>
  <i type="logical" name="LCHARG"> F  </i>
  <i type="int" name="NELM">   100</i>
  <i type="logical" name="LDAU"> T  </i>
  <v name="LDAUU">      0.00000000      4.00000000      0.00000000</v>
  <v name="LDAUJ">      0.00000000      0.00000000      0.00000000</v>
 </incar>
 <kpoints>
  <generation param="Auto">
   <i name="subdivisionlength">     20.00000000 </i>
   <v type="int" name="divisions">       4        3        4 </v>
   <v name="usershift">      0.00000000       0.00000000       0.00000000 </v>
   <v name="genvec1">      0.25000000       0.00000000       0.00000000 </v>
   <v name="genvec2">      0.00000000       0.33333333       0.00000000 </v>
   <v name="genvec3">      0.00000000       0.00000000       0.25000000 </v>
   <v name="shift">      0.00000000       0.00000000       0.00000000 </v>
  </generation>
  <varray name="kpointlist" >
   <v>       0.00000000       0.00000000       0.00000000 </v>
   <v>       0.25000000       0.00000000       0.00000000 </v>
   <v>       0.50000000       0.00000000       0.00000000 </v>
   <v>       0.00000000       0.33333333       0.00000000 </v>
   <v>       0.25000000       0.33333333       0.00000000 </v>
   <v>       0.50000000       0.33333333       0.00000000 </v>
   <v>       0.00000000       0.00000000       0.25000000 </v>
   <v>       0.25000000       0.00000000       0.25000000 </v>
   <v>       0.50000000       0.00000000       0.25000000 </v>
   <v>      -0.25000000       0.00000000       0.25000000 </v>
   <v>       0.00000000       0.33333333       0.25000000 </v>
   <v>       0.25000000       0.33333333       0.25000000 </v>
   <v>       0.50000000       0.33333333       0.25000000 </v>
   <v>      -0.25000000       0.33333333       0.25000000 </v>
   <v>       0.00000000       0.00000000       0.50000000 </v>
   <v>       0.25000000       0.00000000       0.50000000 </v>
   <v>       0.50000000       0.00000000       0.50000000 </v>
   <v>       0.00000000       0.33333333       0.50000000 </v>
   <v>       0.25000000       0.33333333       0.50000000 </v>
   <v>       0.50000000       0.33333333       0.50000000 </v>
  </varray>
  <varray name="weights" >
   <v>       0.02083333 </v>
   <v>       0.04166667 </v>
   <v>       0.02083333 </v>
   <v>       0.04166667 </v>
   <v>       0.08333333 </v>
   <v>       0.04166667 </v>
   <v>       0.04166667 </v>
   <v>       0.04166667 </v>
   <v>       0.04166667 </v>
   <v>       0.04166667 </v>
   <v>       0.08333333 </v>
   <v>       0.08333333 </v>
   <v>       0.08333333 </v>
   <v>       0.08333333 </v>
   <v>       0.02083333 </v>
   <v>       0.04166667 </v>
   <v>       0.02083333 </v>
   <v>       0.04166667 </v>
   <v>       0.08333333 </v>
   <v>       0.04166667 </v>
  </varray>
 </kpoints>
 <parameters>
  <separator name="general" >
   <i type="string" name="SYSTEM">unknown system</i>
   <i type="logical" name="LCOMPAT"> F  </i>
  </separator>
  <separator name="electronic" >
   <i type="string" name="PREC">accura</i>
   <i name="ENMAX">    500.00000000</i>
   <i name="ENAUG">    586.98000000</i>
   <i name="EDIFF">      0.00000100</i>
   <i type="int" name="IALGO">    38</i>
   <i type="int" name="IWAVPR">    10</i>
   <i type="int" name="NBANDS">    92</i>
   <i name="NELECT">    138.00000000</i>
   <i type="int" name="TURBO">     0</i>
   <i type="int" name="IRESTART">     0</i>
   <i type="int" name="NREBOOT">     0</i>
   <i type="int" name="NMIN">     0</i>
   <i name="EREF">      0.00000000</i>
   <separator name="electronic smearing" >
    <i type="int" name="ISMEAR">     0</i>
    <i name="SIGMA">      0.05000000</i>
    <i name="KSPACING">      0.50000000</i>
    <i type="logical" name="KGAMMA"> T  </i>
   </separator>
   <separator name="electronic projectors" >
    <i type="logical" name="LREAL"> F  </i>
    <v name="ROPT">      0.00000000      0.00000000      0.00000000</v>
    <i type="int" name="LMAXPAW">  -100</i>
    <i type="int" name="LMAXMIX">     2</i>
    <i type="logical" name="NLSPLINE"> F  </i>
   </separator>
   <separator name="electronic startup" >
    <i type="int" name="ISTART">     0</i>
    <i type="int" name="ICHARG">     2</i>
    <i type="int" name="INIWAV">     1</i>
   </separator>
   <separator name="electronic spin" >
    <i type="int" name="ISPIN">     2</i>
    <i type="logical" name="LNONCOLLINEAR"> F  </i>
    <v name="MAGMOM">      1.00000000      1.00000000      1.00000000      1.00000000      1.00000000      1.00000000      1.00000000      1.00000000      1.00000000      1.00000000      1.00000000      1.00000000      1.00000000      1.00000000      1.00000000      1.00000000      1.00000000</v>
    <i name="NUPDOWN">     -1.00000000</i>
    <i type="logical" name="LSORBIT"> F  </i>
    <v name="SAXIS">      0.00000000      0.00000000      1.00000000</v>
    <i type="logical" name="LSPIRAL"> F  </i>
    <v name="QSPIRAL">      0.00000000      0.00000000      0.00000000</v>
    <i type="logical" name="LZEROZ"> F  </i>
   </separator>
   <separator name="electronic exchange-correlation" >
    <i type="logical" name="LASPH"> F  </i>
    <i type="logical" name="LMETAGGA"> F  </i>
   </separator>
   <separator name="electronic convergence" >
    <i type="int" name="NELM">   100</i>
    <i type="int" name="NELMDL">    -5</i>
    <i type="int" name="NELMIN">     4</i>
    <i name="ENINI">    500.00000000</i>
    <separator name="electronic convergence detail" >
     <i type="logical" name="LDIAG"> T  </i>
     <i type="logical" name="LSUBROT"> F  </i>
     <i name="WEIMIN">      0.00000000</i>
     <i name="EBREAK">      0.00000000</i>
     <i name="DEPER">      0.30000000</i>
     <i type="int" name="NRMM">     4</i>
     <i name="TIME">      0.40000000</i>
    </separator>
   </separator>
   <separator name="electronic mixer" >
    <i name="AMIX">      0.40000000</i>
    <i name="BMIX">      1.00000000</i>
    <i name="AMIN">      0.10000000</i>
    <i name="AMIX_MAG">      1.60000000</i>
    <i name="BMIX_MAG">      1.00000000</i>
    <separator name="electronic mixer details" >
     <i type="int" name="IMIX">     4</i>
     <i type="int" name="MAXMIX">   -45</i>
     <i name="WC">    100.00000000</i>
     <i type="int" name="INIMIX">     1</i>
     <i type="int" name="MIXPRE">     1</i>
     <i type="int" name="MREMOVE">     5</i>
    </separator>
   </separator>
   <separator name="electronic dipolcorrection" >
    <i type="logical" name="LDIPOL"> F  </i>
    <i type="logical" name="LMONO"> F  </i>
    <i type="int" name="IDIPOL">     0</i>
    <i name="EPSILON">      1.00000000</i>
    <v name="DIPOL">   -100.00000000   -100.00000000   -100.00000000</v>
    <i name="EFIELD">      0.00000000</i>
   </separator>
  </separator>
  <separator name="grids" >
   <i type="int" name="NGX">    42</i>
   <i type="int" name="NGY">    60</i>
   <i type="int" name="NGZ">    42</i>
   <i type="int" name="NGXF">    84</i>
   <i type="int" name="NGYF">   120</i>
   <i type="int" name="NGZF">    84</i>
   <i type="logical" name="ADDGRID"> T  </i>
  </separator>
  <separator name="ionic" >
   <i type="int" name="NSW">     0</i>
   <i type="int" name="IBRION">    -1</i>
   <i type="int" name="ISIF">     2</i>
   <i name="PSTRESS">      0.00000000</i>
   <i name="EDIFFG">      0.00001000</i>
   <i type="int" name="NFREE">     0</i>
   <i name="POTIM">      0.50000000</i>
   <i name="SMASS">     -3.00000000</i>
   <i name="SCALEE">      1.00000000</i>
  </separator>
  <separator name="ionic md" >
   <i name="TEBEG">      0.00010000</i>
   <i name="TEEND">      0.00010000</i>
   <i type="int" name="NBLOCK">     1</i>
   <i type="int" name="KBLOCK">     1</i>
   <i type="int" name="NPACO">   256</i>
   <i name="APACO">     16.00000000</i>
  </separator>
  <separator name="symmetry" >
   <i type="int" name="ISYM">     2</i>
   <i name="SYMPREC">      0.00001000</i>
  </separator>
  <separator name="dos" >
   <i type="logical" name="LORBIT"> F  </i>
   <v name="RWIGS">     -1.00000000     -1.00000000     -1.00000000</v>
   <i type="int" name="NEDOS">   301</i>
   <i name="EMIN">     10.00000000</i>
   <i name="EMAX">    -10.00000000</i>
   <i name="EFERMI">      0.00000000</i>
  </separator>
  <separator name="writing" >
   <i type="int" name="NWRITE">     2</i>
   <i type="logical" name="LWAVE"> F  </i>
   <i type="logical" name="LCHARG"> F  </i>
   <i type="logical" name="LPARD"> F  </i>
   <i type="logical" name="LVTOT"> F  </i>
   <i type="logical" name="LVHAR"> F  </i>
   <i type="logical" name="LELF"> F  </i>
   <i type="logical" name="LOPTICS"> F  </i>
   <v name="STM">      0.00000000      0.00000000      0.00000000      0.00000000      0.00000000      0.00000000      0.00000000</v>
  </separator>
  <separator name="performance" >
   <i type="int" name="NPAR">     4</i>
   <i type="int" name="NSIM">     4</i>
   <i type="int" name="NBLK">    -1</i>
   <i type="logical" name="LPLANE"> T  </i>
   <i type="logical" name="LSCALAPACK"> T  </i>
   <i type="logical" name="LSCAAWARE"> F  </i>
   <i type="logical" name="LSCALU"> F  </i>
   <i type="logical" name="LASYNC"> F  </i>
   <i type="logical" name="LORBITALREAL"> F  </i>
  </separator>
  <separator name="miscellaneous" >
   <i type="int" name="IDIOT">     3</i>
   <i type="logical" name="LMUSIC"> F  </i>
   <v name="POMASS">     87.62000000     63.54600000     16.00000000</v>
   <v name="DARWINR">      0.00000000      0.00000000      0.00000000</v>
   <v name="DARWINV">      1.00000000      1.00000000      1.00000000</v>
   <i type="logical" name="LCORR"> T  </i>
  </separator>
  <i type="logical" name="GGA_COMPAT"> T  </i>
  <i type="logical" name="LBERRY"> F  </i>
  <i type="int" name="ICORELEVEL">     0</i>
  <i type="logical" name="LDAU"> T  </i>
  <v type="int" name="LDAUTYPE">     2</v>
  <v type="int" name="LDAUL">     2</v>
  <v name="LDAUU">      0.00000000</v>
  <v name="LDAUJ">      0.00000000</v>
  <i type="int" name="LDAUPRINT">     0</i>
  <i type="int" name="I_CONSTRAINED_M">     0</i>
  <separator name="electronic exchange-correlation" >
   <i type="string" name="GGA">--</i>
   <i type="int" name="VOSKOWN">     0</i>
   <i type="logical" name="LHFCALC"> F  </i>
   <i type="string" name="PRECFOCK"></i>
   <i type="logical" name="LSYMGRAD"> F  </i>
   <i type="logical" name="LHFONE"> F  </i>
   <i type="logical" name="LRHFCALC"> F  </i>
   <i type="logical" name="LTHOMAS"> F  </i>
   <i type="logical" name="LMODELHF"> F  </i>
   <i name="ENCUT4O">     -1.00000000</i>
   <i type="int" name="EXXOEP">     0</i>
   <i type="int" name="FOURORBIT">     0</i>
   <i name="AEXX">      0.00000000</i>
   <i name="HFALPHA">      0.00000000</i>
   <i name="MCALPHA">      0.00000000</i>
   <i name="ALDAX">      1.00000000</i>
   <i name="AGGAX">      1.00000000</i>
   <i name="ALDAC">      1.00000000</i>
   <i name="AGGAC">      1.00000000</i>
   <i type="int" name="NKREDX">     1</i>
   <i type="int" name="NKREDY">     1</i>
   <i type="int" name="NKREDZ">     1</i>
   <i type="logical" name="SHIFTRED"> F  </i>
   <i type="logical" name="ODDONLY"> F  </i>
   <i type="logical" name="EVENONLY"> F  </i>
   <i type="int" name="LMAXFOCK">     0</i>
   <i type="int" name="NMAXFOCKAE">     0</i>
   <i type="logical" name="LFOCKAEDFT"> F  </i>
   <i name="HFSCREEN">      0.00000000</i>
   <i name="HFSCREENC">      0.00000000</i>
   <i type="int" name="NBANDSGWLOW">     0</i>
  </separator>
  <separator name="vdW DFT" >
   <i type="logical" name="LUSE_VDW"> F  </i>
   <i name="Zab_VDW">     -0.84910000</i>
   <i name="PARAM1">      0.12340000</i>
   <i name="PARAM2">      1.00000000</i>
   <i name="PARAM3">      0.00000000</i>
  </separator>
  <separator name="model GW" >
   <i type="int" name="MODEL_GW">     0</i>
   <i name="MODEL_EPS0">      9.03529412</i>
   <i name="MODEL_ALPHA">      1.00000000</i>
  </separator>
  <separator name="linear response parameters" >
   <i type="logical" name="LEPSILON"> F  </i>
   <i type="logical" name="LRPA"> F  </i>
   <i type="logical" name="LNABLA"> F  </i>
   <i type="logical" name="LVEL"> F  </i>
   <i type="int" name="KINTER">     0</i>
   <i name="CSHIFT">      0.10000000</i>
   <i name="OMEGAMAX">     -1.00000000</i>
   <i name="DEG_THRESHOLD">      0.00200000</i>
  </separator>
  <separator name="orbital magnetization" >
   <i type="logical" name="NUCIND"> F  </i>
   <v name="MAGPOS">      0.00000000      0.00000000      0.00000000</v>
   <i type="logical" name="LNICSALL"> T  </i>
   <i type="logical" name="ORBITALMAG"> F  </i>
   <i type="logical" name="LMAGBLOCH"> F  </i>
   <i type="logical" name="LCHIMAG"> F  </i>
   <i type="logical" name="LGAUGE"> T  </i>
   <i type="int" name="MAGATOM">     0</i>
   <v name="MAGDIPOL">      0.00000000      0.00000000      0.00000000</v>
   <v name="AVECCONST">      0.00000000      0.00000000      0.00000000</v>
  </separator>
  <separator name="response functions" >
   <i type="logical" name="LADDER"> F  </i>
   <i type="logical" name="LFXC"> F  </i>
   <i type="logical" name="LHARTREE"> T  </i>
   <i type="int" name="IBSE">     0</i>
   <i type="logical" name="LTCTE"> F  </i>
   <i type="logical" name="LTETE"> F  </i>
   <i type="logical" name="LTRIPLET"> F  </i>
   <i type="logical" name="LFXCEPS"> F  </i>
   <i type="logical" name="LFXHEG"> F  </i>
   <i type="logical" name="L2ORDER"> F  </i>
   <i type="logical" name="LUSEW"> F  </i>
   <i name="ENCUTGW">     -2.00000000</i>
   <i name="ENCUTGWSOFT">     -2.00000000</i>
   <i name="ENCUTLF">     -1.00000000</i>
   <i type="int" name="LMAXMP2">    -1</i>
   <i name="SCISSOR">      0.00000000</i>
   <i type="int" name="NOMEGA">     0</i>
   <i type="int" name="NOMEGAR">     0</i>
   <i type="int" name="NBANDSGW">    -1</i>
   <i type="int" name="NBANDSO">    -1</i>
   <i type="int" name="NBANDSV">    -1</i>
   <i type="int" name="NELM">   100</i>
   <i type="int" name="DIM">     3</i>
   <i type="int" name="ANTIRES">     0</i>
   <i name="OMEGAMAX">    -30.00000000</i>
   <i name="OMEGAMIN">    -30.00000000</i>
   <i name="OMEGATL">   -200.00000000</i>
   <i type="int" name="OMEGAGRID">     0</i>
   <i name="CSHIFT">     -0.10000000</i>
   <i type="logical" name="SELFENERGY"> F  </i>
   <i type="logical" name="LSPECTRAL"> F  </i>
   <i type="logical" name="ODDONLYGW"> F  </i>
   <i type="logical" name="EVENONLYGW"> F  </i>
   <i type="int" name="NKREDLFX">     1</i>
   <i type="int" name="NKREDLFY">     1</i>
   <i type="int" name="NKREDLFZ">     1</i>
   <i type="int" name="MAXMEM">  1800</i>
   <i type="int" name="TELESCOPE">     0</i>
   <i type="int" name="TAUPAR">     1</i>
  </separator>
  <separator name="External order field" >
   <i name="OFIELD_KAPPA">      0.00000000</i>
   <v name="OFIELD_K">      0.00000000      0.00000000      0.00000000</v>
   <i name="OFIELD_Q6_NEAR">      0.00000000</i>
   <i name="OFIELD_Q6_FAR">      0.00000000</i>
   <i name="OFIELD_A">      0.00000000</i>
  </separator>
 </parameters>
 <atominfo>
  <atoms>      17 </atoms>
  <types>       3 </types>
  <array name="atoms" >
   <dimension dim="1">ion</dimension>
   <field type="string">element</field>
   <field type="int">atomtype</field>
   <set>
    <rc><c>Sr</c><c>   1</c></rc>
    <rc><c>Sr</c><c>   1</c></rc>
    <rc><c>Sr</c><c>   1</c></rc>
    <rc><c>Sr</c><c>   1</c></rc>
    <rc><c>Cu</c><c>   2</c></rc>
    <rc><c>Cu</c><c>   2</c></rc>
    <rc><c>Cu</c><c>   2</c></rc>
    <rc><c>Cu</c><c>   2</c></rc>
    <rc><c>O </c><c>   3</c></rc>
    <rc><c>O </c><c>   3</c></rc>
    <rc><c>O </c><c>   3</c></rc>
    <rc><c>O </c><c>   3</c></rc>
    <rc><c>O </c><c>   3</c></rc>
    <rc><c>O </c><c>   3</c></rc>
    <rc><c>O </c><c>   3</c></rc>
    <rc><c>O </c><c>   3</c></rc>
    <rc><c>O </c><c>   3</c></rc>
   </set>
  </array>
  <array name="atomtypes" >
   <dimension dim="1">type</dimension>
   <field type="int">atomspertype</field>
   <field type="string">element</field>
   <field>mass</field>
   <field>valence</field>
   <field type="string">pseudopotential</field>
   <set>
    <rc><c>   4</c><c>Sr</c><c>     87.62000000</c><c>     10.00000000</c><c>  PAW_PBE Sr_sv 07Sep2000               </c></rc>
    <rc><c>   4</c><c>Cu</c><c>     63.54600000</c><c>     11.00000000</c><c>  PAW_PBE Cu 22Jun2005                  </c></rc>
    <rc><c>   9</c><c>O </c><c>     16.00000000</c><c>      6.00000000</c><c>  PAW_PBE O_s 07Sep2000                 </c></rc>
   </set>
  </array>
 </atominfo>
 <structure name="initialpos" >
  <crystal>
   <varray name="basis" >
    <v>       5.65685425       0.00000000       0.00000000 </v>
    <v>       0.00000000       8.00000000       0.00000000 </v>
    <v>       0.00000000       0.00000000       5.65685425 </v>
   </varray>
   <i name="volume">    256.00000000 </i>
   <varray name="rec_basis" >
    <v>       0.17677670       0.00000000       0.00000000 </v>
    <v>       0.00000000       0.12500000       0.00000000 </v>
    <v>       0.00000000       0.00000000       0.17677670 </v>
   </varray>
  </crystal>
  <varray name="positions" >
   <v>       0.25000000       0.75000000       0.25000000 </v>
   <v>       0.25000000       0.25000000       0.25000000 </v>
   <v>       0.75000000       0.75000000       0.75000000 </v>
   <v>       0.75000000       0.25000000       0.75000000 </v>
   <v>       0.75000000       0.00000000       0.25000000 </v>
   <v>       0.75000000       0.50000000       0.25000000 </v>
   <v>       0.25000000       0.00000000       0.75000000 </v>
   <v>       0.25000000       0.50000000       0.75000000 </v>
   <v>       0.50000000       0.50000000       0.00000000 </v>
   <v>       0.00000000       0.00000000       0.50000000 </v>
   <v>       0.50000000       0.50000000       0.50000000 </v>
   <v>       0.00000000       0.00000000       0.00000000 </v>
   <v>       0.00000000       0.50000000       0.00000000 </v>
   <v>       0.75000000       0.75000000       0.25000000 </v>
   <v>       0.75000000       0.25000000       0.25000000 </v>
   <v>       0.25000000       0.75000000       0.75000000 </v>
   <v>       0.25000000       0.25000000       0.75000000 </v>
  </varray>
 </structure>
 <calculation>
  <scstep>
   <time name="dav">    3.50    3.50</time>
   <time name="total">    3.65    3.66</time>
   <energy>
    <i name="alphaZ">    635.64916683 </i>
    <i name="ewald">  -9124.16220114 </i>
    <i name="hartreedc">  -3812.03819715 </i>
    <i name="XCdc">    571.21488262 </i>
    <i name="pawpsdc">  10532.98817047 </i>
    <i name="pawaedc"> -10865.93268589 </i>
    <i name="eentropy">     -0.00412685 </i>
    <i name="bandstr">    948.82678433 </i>
    <i name="atom">  12827.37956309 </i>
    <i name="e_fr_energy">   1713.92135630 </i>
    <i name="e_wo_entrp">   1713.92548315 </i>
    <i name="e_0_energy">   1713.92341972 </i>
   </energy>
  </scstep>
  <scstep>
   <time name="dav">    3.55    3.56</time>
   <time name="total">    3.56    3.57</time>
   <energy>
    <i name="e_fr_energy">    152.99401133 </i>
    <i name="e_wo_entrp">    153.00093821 </i>
    <i name="e_0_energy">    152.99747477 </i>
   </energy>
  </scstep>
  <scstep>
   <time name="dav">    3.72    3.72</time>
   <time name="total">    3.72    3.74</time>
   <energy>
    <i name="e_fr_energy">    -86.98796756 </i>
    <i name="e_wo_entrp">    -86.96877022 </i>
    <i name="e_0_energy">    -86.97836889 </i>
   </energy>
  </scstep>
  <scstep>
   <time name="dav">    4.80    4.81</time>
   <time name="total">    4.80    4.82</time>
   <energy>
    <i name="e_fr_energy">   -105.39016568 </i>
    <i name="e_wo_entrp">   -105.36957249 </i>
    <i name="e_0_energy">   -105.37986908 </i>
   </energy>
  </scstep>
  <scstep>
   <time name="dav">    5.85    5.85</time>
   <time name="total">    6.13    6.14</time>
   <energy>
    <i name="e_fr_energy">   -106.52844144 </i>
    <i name="e_wo_entrp">   -106.50757673 </i>
    <i name="e_0_energy">   -106.51800909 </i>
   </energy>
  </scstep>
  <scstep>
   <time name="dav">    4.72    4.72</time>
   <time name="total">    5.14    5.15</time>
   <energy>
    <i name="e_fr_energy">    -97.88492338 </i>
    <i name="e_wo_entrp">    -97.86676076 </i>
    <i name="e_0_energy">    -97.87584207 </i>
   </energy>
  </scstep>
  <scstep>
   <time name="dav">    4.74    4.74</time>
   <time name="total">    5.16    5.17</time>
   <energy>
    <i name="e_fr_energy">    -85.44202355 </i>
    <i name="e_wo_entrp">    -85.42975250 </i>
    <i name="e_0_energy">    -85.43588802 </i>
   </energy>
  </scstep>
  <scstep>
   <time name="dav">    5.32    5.32</time>
   <time name="total">    5.74    5.75</time>
   <energy>
    <i name="e_fr_energy">    -88.32119082 </i>
    <i name="e_wo_entrp">    -88.31175700 </i>
    <i name="e_0_energy">    -88.31647391 </i>
   </energy>
  </scstep>
  <scstep>
   <time name="dav">    4.97    4.98</time>
   <time name="total">    5.39    5.41</time>
   <energy>
    <i name="e_fr_energy">    -88.85952841 </i>
    <i name="e_wo_entrp">    -88.85239932 </i>
    <i name="e_0_energy">    -88.85596387 </i>
   </energy>
  </scstep>
  <scstep>
   <time name="dav">    4.66    4.66</time>
   <time name="total">    5.07    5.09</time>
   <energy>
    <i name="e_fr_energy">    -86.06946679 </i>
    <i name="e_wo_entrp">    -86.05735354 </i>
    <i name="e_0_energy">    -86.06341017 </i>
   </energy>
  </scstep>
  <scstep>
   <time name="dav">    4.88    4.88</time>
   <time name="total">    5.30    5.31</time>
   <energy>
    <i name="e_fr_energy">    -84.13352789 </i>
    <i name="e_wo_entrp">    -84.12824318 </i>
    <i name="e_0_energy">    -84.13088554 </i>
   </energy>
  </scstep>
  <scstep>
   <time name="dav">    4.87    4.87</time>
   <time name="total">    5.28    5.30</time>
   <energy>
    <i name="e_fr_energy">    -84.27727501 </i>
    <i name="e_wo_entrp">    -84.26838159 </i>
    <i name="e_0_energy">    -84.27282830 </i>
   </energy>
  </scstep>
  <scstep>
   <time name="dav">    4.99    5.00</time>
   <time name="total">    5.41    5.43</time>
   <energy>
    <i name="e_fr_energy">    -84.23926385 </i>
    <i name="e_wo_entrp">    -84.23080027 </i>
    <i name="e_0_energy">    -84.23503206 </i>
   </energy>
  </scstep>
  <scstep>
   <time name="dav">    4.67    4.68</time>
   <time name="total">    5.09    5.10</time>
   <energy>
    <i name="e_fr_energy">    -84.22576806 </i>
    <i name="e_wo_entrp">    -84.21631756 </i>
    <i name="e_0_energy">    -84.22104281 </i>
   </energy>
  </scstep>
  <scstep>
   <time name="dav">    4.96    4.96</time>
   <time name="total">    5.37    5.39</time>
   <energy>
    <i name="e_fr_energy">    -84.18384512 </i>
    <i name="e_wo_entrp">    -84.17095888 </i>
    <i name="e_0_energy">    -84.17740200 </i>
   </energy>
  </scstep>
  <scstep>
   <time name="dav">    4.88    4.88</time>
   <time name="total">    5.29    5.31</time>
   <energy>
    <i name="e_fr_energy">    -84.17120873 </i>
    <i name="e_wo_entrp">    -84.15807911 </i>
    <i name="e_0_energy">    -84.16464392 </i>
   </energy>
  </scstep>
  <scstep>
   <time name="dav">    4.71    4.71</time>
   <time name="total">    5.12    5.14</time>
   <energy>
    <i name="e_fr_energy">    -84.17171654 </i>
    <i name="e_wo_entrp">    -84.15928640 </i>
    <i name="e_0_energy">    -84.16550147 </i>
   </energy>
  </scstep>
  <scstep>
   <time name="dav">    5.00    5.00</time>
   <time name="total">    5.41    5.43</time>
   <energy>
    <i name="e_fr_energy">    -84.17261275 </i>
    <i name="e_wo_entrp">    -84.16066172 </i>
    <i name="e_0_energy">    -84.16663723 </i>
   </energy>
  </scstep>
  <scstep>
   <time name="dav">    4.66    4.67</time>
   <time name="total">    5.08    5.10</time>
   <energy>
    <i name="e_fr_energy">    -84.17344114 </i>
    <i name="e_wo_entrp">    -84.16209999 </i>
    <i name="e_0_energy">    -84.16777056 </i>
   </energy>
  </scstep>
  <scstep>
   <time name="dav">    4.84    4.85</time>
   <time name="total">    5.26    5.27</time>
   <energy>
    <i name="e_fr_energy">    -84.17360932 </i>
    <i name="e_wo_entrp">    -84.16274649 </i>
    <i name="e_0_energy">    -84.16817791 </i>
   </energy>
  </scstep>
  <scstep>
   <time name="dav">    4.74    4.75</time>
   <time name="total">    5.16    5.17</time>
   <energy>
    <i name="e_fr_energy">    -84.17379839 </i>
    <i name="e_wo_entrp">    -84.16319273 </i>
    <i name="e_0_energy">    -84.16849556 </i>
   </energy>
  </scstep>
  <scstep>
   <time name="dav">    4.95    4.95</time>
   <time name="total">    5.36    5.38</time>
   <energy>
    <i name="e_fr_energy">    -84.17398513 </i>
    <i name="e_wo_entrp">    -84.16365565 </i>
    <i name="e_0_energy">    -84.16882039 </i>
   </energy>
  </scstep>
  <scstep>
   <time name="dav">    5.01    5.01</time>
   <time name="total">    5.42    5.44</time>
   <energy>
    <i name="e_fr_energy">    -84.17410302 </i>
    <i name="e_wo_entrp">    -84.16399651 </i>
    <i name="e_0_energy">    -84.16904976 </i>
   </energy>
  </scstep>
  <scstep>
   <time name="dav">    5.14    5.14</time>
   <time name="total">    5.55    5.57</time>
   <energy>
    <i name="e_fr_energy">    -84.17415676 </i>
    <i name="e_wo_entrp">    -84.16421695 </i>
    <i name="e_0_energy">    -84.16918685 </i>
   </energy>
  </scstep>
  <scstep>
   <time name="dav">    5.10    5.10</time>
   <time name="total">    5.51    5.53</time>
   <energy>
    <i name="e_fr_energy">    -84.17419111 </i>
    <i name="e_wo_entrp">    -84.16437803 </i>
    <i name="e_0_energy">    -84.16928457 </i>
   </energy>
  </scstep>
  <scstep>
   <time name="dav">    4.92    4.92</time>
   <time name="total">    5.33    5.35</time>
   <energy>
    <i name="e_fr_energy">    -84.17421021 </i>
    <i name="e_wo_entrp">    -84.16446501 </i>
    <i name="e_0_energy">    -84.16933761 </i>
   </energy>
  </scstep>
  <scstep>
   <time name="dav">    4.05    4.06</time>
   <time name="total">    4.47    4.49</time>
   <energy>
    <i name="e_fr_energy">    -84.17421879 </i>
    <i name="e_wo_entrp">    -84.16451880 </i>
    <i name="e_0_energy">    -84.16936879 </i>
   </energy>
  </scstep>
  <scstep>
   <time name="dav">    3.56    3.56</time>
   <time name="total">    3.97    3.99</time>
   <energy>
    <i name="e_fr_energy">    -84.17422364 </i>
    <i name="e_wo_entrp">    -84.16455167 </i>
    <i name="e_0_energy">    -84.16938766 </i>
   </energy>
  </scstep>
  <scstep>
   <time name="dav">    2.93    2.93</time>
   <time name="total">    3.34    3.36</time>
   <energy>
    <i name="e_fr_energy">    -84.17422583 </i>
    <i name="e_wo_entrp">    -84.16457191 </i>
    <i name="e_0_energy">    -84.16939887 </i>
   </energy>
  </scstep>
  <scstep>
   <time name="dav">    2.63    2.63</time>
   <time name="total">    2.77    2.79</time>
   <energy>
    <i name="alphaZ">    635.64916683 </i>
    <i name="ewald">  -9124.16220114 </i>
    <i name="hartreedc">  -3806.23060454 </i>
    <i name="XCdc">    571.43161031 </i>
    <i name="pawpsdc">  16305.82792576 </i>
    <i name="pawaedc"> -16677.03777601 </i>
    <i name="eentropy">     -0.00963460 </i>
    <i name="bandstr">   -817.02227647 </i>
    <i name="atom">  12827.37956309 </i>
    <i name="e_fr_energy">    -84.17422677 </i>
    <i name="e_wo_entrp">    -84.16459217 </i>
    <i name="e_0_energy">    -84.16940947 </i>
   </energy>
  </scstep>
  <structure>
   <crystal>
    <varray name="basis" >
     <v>       5.65685425       0.00000000       0.00000000 </v>
     <v>       0.00000000       8.00000000       0.00000000 </v>
     <v>       0.00000000       0.00000000       5.65685425 </v>
    </varray>
    <i name="volume">    256.00000000 </i>
    <varray name="rec_basis" >
     <v>       0.17677670       0.00000000       0.00000000 </v>
     <v>       0.00000000       0.12500000       0.00000000 </v>
     <v>       0.00000000       0.00000000       0.17677670 </v>
    </varray>
   </crystal>
   <varray name="positions" >
    <v>       0.25000000       0.75000000       0.25000000 </v>
    <v>       0.25000000       0.25000000       0.25000000 </v>
    <v>       0.75000000       0.75000000       0.75000000 </v>
    <v>       0.75000000       0.25000000       0.75000000 </v>
    <v>       0.75000000       0.00000000       0.25000000 </v>
    <v>       0.75000000       0.50000000       0.25000000 </v>
    <v>       0.25000000       0.00000000       0.75000000 </v>
    <v>       0.25000000       0.50000000       0.75000000 </v>
    <v>       0.50000000       0.50000000       0.00000000 </v>
    <v>       0.00000000       0.00000000       0.50000000 </v>
    <v>       0.50000000       0.50000000       0.50000000 </v>
    <v>       0.00000000       0.00000000       0.00000000 </v>
    <v>       0.00000000       0.50000000       0.00000000 </v>
    <v>       0.75000000       0.75000000       0.25000000 </v>
    <v>       0.75000000       0.25000000       0.25000000 </v>
    <v>       0.25000000       0.75000000       0.75000000 </v>
    <v>       0.25000000       0.25000000       0.75000000 </v>
   </varray>
  </structure>
  <varray name="forces" >
   <v>      -0.40973094      -0.68904029      -0.50443842 </v>
   <v>      -0.40973094       0.68904029      -0.50443842 </v>
   <v>       0.40973094      -0.68904029       0.50443842 </v>
   <v>       0.40973094       0.68904029       0.50443842 </v>
   <v>       1.65524573       0.00000000       0.09236304 </v>
   <v>      -1.26132750       0.00000000      -0.98601632 </v>
   <v>      -1.65524573       0.00000000      -0.09236304 </v>
   <v>       1.26132750       0.00000000       0.98601632 </v>
   <v>       0.00000000       0.00000000       0.00000000 </v>
   <v>       0.00000000       0.00000000       0.00000000 </v>
   <v>       0.00000000       0.00000000       0.00000000 </v>
   <v>       0.00000000       0.00000000       0.00000000 </v>
   <v>       0.00000000       0.00000000       0.00000000 </v>
   <v>      -0.35272276       0.65961389       0.35780644 </v>
   <v>      -0.35272276      -0.65961389       0.35780644 </v>
   <v>       0.35272276       0.65961389      -0.35780644 </v>
   <v>       0.35272276      -0.65961389      -0.35780644 </v>
  </varray>
  <varray name="stress" >
   <v>    -102.00028972       0.00000000      -8.78074151 </v>
   <v>       0.00000000     -89.77929704       0.00000000 </v>
   <v>      -8.78074124       0.00000000     -74.89720994 </v>
  </varray>
  <energy>
   <i name="e_fr_energy">    -84.17422677 </i>
   <i name="e_wo_entrp">    -84.16940947 </i>
   <i name="e_0_energy">     -0.00963460 </i>
  </energy>
  <time name="totalsc">  152.91  153.43</time>
  <eigenvalues>
   <array>
    <dimension dim="1">band</dimension>
    <dimension dim="2">kpoint</dimension>
    <dimension dim="3">spin</dimension>
    <field>eigene</field>
    <field>occ</field>
    <set>
     <set comment="spin 1">
      <set comment="kpoint 1">
       <r>  -31.0671    1.0000 </r>
       <r>  -31.0531    1.0000 </r>
       <r>  -31.0402    1.0000 </r>
       <r>  -31.0281    1.0000 </r>
       <r>  -14.7051    1.0000 </r>
       <r>  -14.5622    1.0000 </r>
       <r>  -14.0831    1.0000 </r>
       <r>  -14.0382    1.0000 </r>
       <r>  -13.8543    1.0000 </r>
       <r>  -13.8200    1.0000 </r>
       <r>  -13.8071    1.0000 </r>
       <r>  -13.5728    1.0000 </r>
       <r>  -13.5607    1.0000 </r>
       <r>  -13.2926    1.0000 </r>
       <r>  -13.2553    1.0000 </r>
       <r>  -13.1242    1.0000 </r>
       <r>  -13.1163    1.0000 </r>
       <r>  -13.0150    1.0000 </r>
       <r>  -12.9816    1.0000 </r>
       <r>  -12.9656    1.0000 </r>
       <r>  -12.9220    1.0000 </r>
       <r>  -12.9171    1.0000 </r>
       <r>  -12.8431    1.0000 </r>
       <r>  -12.6098    1.0000 </r>
       <r>  -12.3865    1.0000 </r>
       <r>   -2.9597    1.0000 </r>
       <r>   -2.5567    1.0000 </r>
       <r>   -2.4520    1.0000 </r>
       <r>   -2.0236    1.0000 </r>
       <r>   -1.8839    1.0000 </r>
       <r>   -1.8049    1.0000 </r>
       <r>   -1.7413    1.0000 </r>
       <r>   -1.6893    1.0000 </r>
       <r>   -1.5822    1.0000 </r>
       <r>   -1.3173    1.0000 </r>
       <r>   -1.2191    1.0000 </r>
       <r>   -1.1996    1.0000 </r>
       <r>   -1.0933    1.0000 </r>
       <r>   -1.0183    1.0000 </r>
       <r>   -0.7939    1.0000 </r>
       <r>   -0.6853    1.0000 </r>
       <r>   -0.6393    1.0000 </r>
       <r>   -0.6170    1.0000 </r>
       <r>   -0.6169    1.0000 </r>
       <r>   -0.4376    1.0000 </r>
       <r>   -0.2416    1.0000 </r>
       <r>   -0.1768    1.0000 </r>
       <r>    0.0070    1.0000 </r>
       <r>    0.3532    1.0000 </r>
       <r>    0.4530    1.0000 </r>
       <r>    0.6615    1.0000 </r>
       <r>    0.8339    1.0000 </r>
       <r>    0.8763    1.0000 </r>
       <r>    0.8849    1.0000 </r>
       <r>    0.9916    1.0000 </r>
       <r>    1.2846    1.0000 </r>
       <r>    1.3433    1.0000 </r>
       <r>    1.4842    1.0000 </r>
       <r>    1.4887    1.0000 </r>
       <r>    1.5226    1.0000 </r>
       <r>    1.5441    1.0000 </r>
       <r>    1.6516    1.0000 </r>
       <r>    1.7714    1.0000 </r>
       <r>    1.8863    1.0000 </r>
       <r>    1.8870    1.0000 </r>
       <r>    1.9565    1.0000 </r>
       <r>    2.3554    1.0000 </r>
       <r>    2.3739    1.0000 </r>
       <r>    2.4885    0.9935 </r>
       <r>    3.1092    0.0000 </r>
       <r>    3.2280    0.0000 </r>
       <r>    3.3414    0.0000 </r>
       <r>    4.0740    0.0000 </r>
       <r>    5.4817    0.0000 </r>
       <r>    6.8181    0.0000 </r>
       <r>    6.9684    0.0000 </r>
       <r>    7.1950    0.0000 </r>
       <r>    7.4902    0.0000 </r>
       <r>    8.0725    0.0000 </r>
       <r>    8.3418    0.0000 </r>
       <r>    8.5467    0.0000 </r>
       <r>    8.5905    0.0000 </r>
       <r>    8.9272    0.0000 </r>
       <r>    9.7595    0.0000 </r>
       <r>    9.8443    0.0000 </r>
       <r>    9.8845    0.0000 </r>
       <r>    9.8896    0.0000 </r>
       <r>    9.9922    0.0000 </r>
       <r>   10.1462    0.0000 </r>
       <r>   10.3169    0.0000 </r>
       <r>   10.6459    0.0000 </r>
       <r>   10.8241    0.0000 </r>
      </set>
      <set comment="kpoint 2">
       <r>  -31.0630    1.0000 </r>
       <r>  -31.0493    1.0000 </r>
       <r>  -31.0440    1.0000 </r>
       <r>  -31.0316    1.0000 </r>
       <r>  -14.6773    1.0000 </r>
       <r>  -14.6445    1.0000 </r>
       <r>  -14.2700    1.0000 </r>
       <r>  -14.0004    1.0000 </r>
       <r>  -13.9998    1.0000 </r>
       <r>  -13.9639    1.0000 </r>
       <r>  -13.7774    1.0000 </r>
       <r>  -13.6568    1.0000 </r>
       <r>  -13.6069    1.0000 </r>
       <r>  -13.1631    1.0000 </r>
       <r>  -13.1464    1.0000 </r>
       <r>  -13.0869    1.0000 </r>
       <r>  -13.0584    1.0000 </r>
       <r>  -13.0074    1.0000 </r>
       <r>  -12.9417    1.0000 </r>
       <r>  -12.8631    1.0000 </r>
       <r>  -12.8481    1.0000 </r>
       <r>  -12.7796    1.0000 </r>
       <r>  -12.7323    1.0000 </r>
       <r>  -12.6242    1.0000 </r>
       <r>  -12.4398    1.0000 </r>
       <r>   -2.8764    1.0000 </r>
       <r>   -2.6095    1.0000 </r>
       <r>   -2.3336    1.0000 </r>
       <r>   -2.0276    1.0000 </r>
       <r>   -1.8602    1.0000 </r>
       <r>   -1.7490    1.0000 </r>
       <r>   -1.7237    1.0000 </r>
       <r>   -1.6929    1.0000 </r>
       <r>   -1.5822    1.0000 </r>
       <r>   -1.4370    1.0000 </r>
       <r>   -1.3236    1.0000 </r>
       <r>   -1.3161    1.0000 </r>
       <r>   -1.1282    1.0000 </r>
       <r>   -1.0662    1.0000 </r>
       <r>   -0.9344    1.0000 </r>
       <r>   -0.9179    1.0000 </r>
       <r>   -0.7354    1.0000 </r>
       <r>   -0.6516    1.0000 </r>
       <r>   -0.5612    1.0000 </r>
       <r>   -0.4683    1.0000 </r>
       <r>   -0.2592    1.0000 </r>
       <r>   -0.0738    1.0000 </r>
       <r>    0.0871    1.0000 </r>
       <r>    0.2010    1.0000 </r>
       <r>    0.3959    1.0000 </r>
       <r>    0.6303    1.0000 </r>
       <r>    0.8020    1.0000 </r>
       <r>    0.8448    1.0000 </r>
       <r>    1.0167    1.0000 </r>
       <r>    1.0906    1.0000 </r>
       <r>    1.1479    1.0000 </r>
       <r>    1.3543    1.0000 </r>
       <r>    1.3678    1.0000 </r>
       <r>    1.4049    1.0000 </r>
       <r>    1.4842    1.0000 </r>
       <r>    1.4967    1.0000 </r>
       <r>    1.7042    1.0000 </r>
       <r>    1.8393    1.0000 </r>
       <r>    1.8771    1.0000 </r>
       <r>    2.0257    1.0000 </r>
       <r>    2.1006    1.0000 </r>
       <r>    2.2476    1.0000 </r>
       <r>    2.2758    1.0000 </r>
       <r>    2.3574    1.0000 </r>
       <r>    3.0286    0.0000 </r>
       <r>    3.0801    0.0000 </r>
       <r>    3.6593    0.0000 </r>
       <r>    4.0020    0.0000 </r>
       <r>    5.7871    0.0000 </r>
       <r>    6.7478    0.0000 </r>
       <r>    6.9587    0.0000 </r>
       <r>    7.6094    0.0000 </r>
       <r>    7.9374    0.0000 </r>
       <r>    8.3787    0.0000 </r>
       <r>    8.4896    0.0000 </r>
       <r>    8.5015    0.0000 </r>
       <r>    8.8542    0.0000 </r>
       <r>    9.2483    0.0000 </r>
       <r>    9.3831    0.0000 </r>
       <r>    9.7175    0.0000 </r>
       <r>    9.9445    0.0000 </r>
       <r>   10.0284    0.0000 </r>
       <r>   10.1770    0.0000 </r>
       <r>   10.2129    0.0000 </r>
       <r>   10.4702    0.0000 </r>
       <r>   10.6380    0.0000 </r>
       <r>   10.6953    0.0000 </r>
      </set>
      <set comment="kpoint 3">
       <r>  -31.0533    1.0000 </r>
       <r>  -31.0533    1.0000 </r>
       <r>  -31.0405    1.0000 </r>
       <r>  -31.0402    1.0000 </r>
       <r>  -14.7199    1.0000 </r>
       <r>  -14.6692    1.0000 </r>
       <r>  -14.3070    1.0000 </r>
       <r>  -14.1179    1.0000 </r>
       <r>  -14.1166    1.0000 </r>
       <r>  -13.9680    1.0000 </r>
       <r>  -13.8237    1.0000 </r>
       <r>  -13.7686    1.0000 </r>
       <r>  -13.5634    1.0000 </r>
       <r>  -13.1060    1.0000 </r>
       <r>  -13.1014    1.0000 </r>
       <r>  -13.0324    1.0000 </r>
       <r>  -13.0032    1.0000 </r>
       <r>  -12.9962    1.0000 </r>
       <r>  -12.9524    1.0000 </r>
       <r>  -12.7981    1.0000 </r>
       <r>  -12.6540    1.0000 </r>
       <r>  -12.6529    1.0000 </r>
       <r>  -12.6437    1.0000 </r>
       <r>  -12.5756    1.0000 </r>
       <r>  -12.5703    1.0000 </r>
       <r>   -2.8266    1.0000 </r>
       <r>   -2.6375    1.0000 </r>
       <r>   -2.0926    1.0000 </r>
       <r>   -1.9063    1.0000 </r>
       <r>   -1.8664    1.0000 </r>
       <r>   -1.7943    1.0000 </r>
       <r>   -1.7320    1.0000 </r>
       <r>   -1.6896    1.0000 </r>
       <r>   -1.6820    1.0000 </r>
       <r>   -1.4886    1.0000 </r>
       <r>   -1.4765    1.0000 </r>
       <r>   -1.4413    1.0000 </r>
       <r>   -1.3695    1.0000 </r>
       <r>   -1.1437    1.0000 </r>
       <r>   -1.0451    1.0000 </r>
       <r>   -0.8565    1.0000 </r>
       <r>   -0.7873    1.0000 </r>
       <r>   -0.7001    1.0000 </r>
       <r>   -0.5045    1.0000 </r>
       <r>   -0.4350    1.0000 </r>
       <r>   -0.4016    1.0000 </r>
       <r>   -0.0493    1.0000 </r>
       <r>    0.1212    1.0000 </r>
       <r>    0.2462    1.0000 </r>
       <r>    0.2697    1.0000 </r>
       <r>    0.4471    1.0000 </r>
       <r>    0.8256    1.0000 </r>
       <r>    0.8858    1.0000 </r>
       <r>    1.1260    1.0000 </r>
       <r>    1.1509    1.0000 </r>
       <r>    1.1823    1.0000 </r>
       <r>    1.2650    1.0000 </r>
       <r>    1.2795    1.0000 </r>
       <r>    1.4274    1.0000 </r>
       <r>    1.4354    1.0000 </r>
       <r>    1.5092    1.0000 </r>
       <r>    1.6632    1.0000 </r>
       <r>    1.8398    1.0000 </r>
       <r>    1.8405    1.0000 </r>
       <r>    1.9722    1.0000 </r>
       <r>    2.0265    1.0000 </r>
       <r>    2.1588    1.0000 </r>
       <r>    2.2279    1.0000 </r>
       <r>    2.7735    0.0000 </r>
       <r>    2.9874    0.0000 </r>
       <r>    3.0068    0.0000 </r>
       <r>    3.2118    0.0000 </r>
       <r>    4.7745    0.0000 </r>
       <r>    5.5359    0.0000 </r>
       <r>    6.8827    0.0000 </r>
       <r>    7.0277    0.0000 </r>
       <r>    8.1180    0.0000 </r>
       <r>    8.4629    0.0000 </r>
       <r>    8.5309    0.0000 </r>
       <r>    8.6005    0.0000 </r>
       <r>    8.6221    0.0000 </r>
       <r>    8.9891    0.0000 </r>
       <r>    9.0075    0.0000 </r>
       <r>    9.4745    0.0000 </r>
       <r>    9.7625    0.0000 </r>
       <r>    9.7834    0.0000 </r>
       <r>    9.8732    0.0000 </r>
       <r>   10.0128    0.0000 </r>
       <r>   10.4270    0.0000 </r>
       <r>   10.4492    0.0000 </r>
       <r>   10.5393    0.0000 </r>
       <r>   10.5846    0.0000 </r>
      </set>
      <set comment="kpoint 4">
       <r>  -31.0636    1.0000 </r>
       <r>  -31.0566    1.0000 </r>
       <r>  -31.0372    1.0000 </r>
       <r>  -31.0311    1.0000 </r>
       <r>  -14.6725    1.0000 </r>
       <r>  -14.5491    1.0000 </r>
       <r>  -14.0392    1.0000 </r>
       <r>  -13.9856    1.0000 </r>
       <r>  -13.8766    1.0000 </r>
       <r>  -13.8545    1.0000 </r>
       <r>  -13.8144    1.0000 </r>
       <r>  -13.7318    1.0000 </r>
       <r>  -13.6680    1.0000 </r>
       <r>  -13.2738    1.0000 </r>
       <r>  -13.2462    1.0000 </r>
       <r>  -13.1611    1.0000 </r>
       <r>  -13.0511    1.0000 </r>
       <r>  -12.9531    1.0000 </r>
       <r>  -12.9284    1.0000 </r>
       <r>  -12.9236    1.0000 </r>
       <r>  -12.9086    1.0000 </r>
       <r>  -12.8705    1.0000 </r>
       <r>  -12.7677    1.0000 </r>
       <r>  -12.6756    1.0000 </r>
       <r>  -12.4898    1.0000 </r>
       <r>   -2.7622    1.0000 </r>
       <r>   -2.2853    1.0000 </r>
       <r>   -2.2375    1.0000 </r>
       <r>   -2.0248    1.0000 </r>
       <r>   -1.8457    1.0000 </r>
       <r>   -1.7948    1.0000 </r>
       <r>   -1.6995    1.0000 </r>
       <r>   -1.6837    1.0000 </r>
       <r>   -1.5339    1.0000 </r>
       <r>   -1.3550    1.0000 </r>
       <r>   -1.3548    1.0000 </r>
       <r>   -1.1809    1.0000 </r>
       <r>   -1.1735    1.0000 </r>
       <r>   -1.1552    1.0000 </r>
       <r>   -1.1332    1.0000 </r>
       <r>   -1.0802    1.0000 </r>
       <r>   -0.8608    1.0000 </r>
       <r>   -0.7938    1.0000 </r>
       <r>   -0.7678    1.0000 </r>
       <r>   -0.4641    1.0000 </r>
       <r>   -0.4375    1.0000 </r>
       <r>   -0.2000    1.0000 </r>
       <r>    0.0227    1.0000 </r>
       <r>    0.5583    1.0000 </r>
       <r>    0.5729    1.0000 </r>
       <r>    0.8919    1.0000 </r>
       <r>    0.9253    1.0000 </r>
       <r>    0.9702    1.0000 </r>
       <r>    0.9798    1.0000 </r>
       <r>    1.1544    1.0000 </r>
       <r>    1.3088    1.0000 </r>
       <r>    1.3429    1.0000 </r>
       <r>    1.4393    1.0000 </r>
       <r>    1.4728    1.0000 </r>
       <r>    1.5079    1.0000 </r>
       <r>    1.6167    1.0000 </r>
       <r>    1.7004    1.0000 </r>
       <r>    1.7798    1.0000 </r>
       <r>    1.8921    1.0000 </r>
       <r>    1.9310    1.0000 </r>
       <r>    2.0969    1.0000 </r>
       <r>    2.2550    1.0000 </r>
       <r>    2.3795    1.0000 </r>
       <r>    2.4239    1.0000 </r>
       <r>    3.1291    0.0000 </r>
       <r>    3.2636    0.0000 </r>
       <r>    3.8191    0.0000 </r>
       <r>    3.8943    0.0000 </r>
       <r>    5.2328    0.0000 </r>
       <r>    6.0547    0.0000 </r>
       <r>    6.9473    0.0000 </r>
       <r>    7.6421    0.0000 </r>
       <r>    7.8075    0.0000 </r>
       <r>    8.1219    0.0000 </r>
       <r>    8.5649    0.0000 </r>
       <r>    8.6270    0.0000 </r>
       <r>    9.0155    0.0000 </r>
       <r>    9.0957    0.0000 </r>
       <r>    9.3449    0.0000 </r>
       <r>    9.6041    0.0000 </r>
       <r>    9.6755    0.0000 </r>
       <r>    9.9417    0.0000 </r>
       <r>    9.9965    0.0000 </r>
       <r>   10.1152    0.0000 </r>
       <r>   10.1894    0.0000 </r>
       <r>   10.4092    0.0000 </r>
       <r>   10.6090    0.0000 </r>
      </set>
      <set comment="kpoint 5">
       <r>  -31.0596    1.0000 </r>
       <r>  -31.0527    1.0000 </r>
       <r>  -31.0409    1.0000 </r>
       <r>  -31.0347    1.0000 </r>
       <r>  -14.6536    1.0000 </r>
       <r>  -14.6140    1.0000 </r>
       <r>  -14.2778    1.0000 </r>
       <r>  -14.0775    1.0000 </r>
       <r>  -13.9473    1.0000 </r>
       <r>  -13.8980    1.0000 </r>
       <r>  -13.7943    1.0000 </r>
       <r>  -13.7668    1.0000 </r>
       <r>  -13.6412    1.0000 </r>
       <r>  -13.2035    1.0000 </r>
       <r>  -13.1259    1.0000 </r>
       <r>  -13.0889    1.0000 </r>
       <r>  -13.0773    1.0000 </r>
       <r>  -12.9893    1.0000 </r>
       <r>  -12.8688    1.0000 </r>
       <r>  -12.8561    1.0000 </r>
       <r>  -12.7998    1.0000 </r>
       <r>  -12.7574    1.0000 </r>
       <r>  -12.6823    1.0000 </r>
       <r>  -12.6724    1.0000 </r>
       <r>  -12.5027    1.0000 </r>
       <r>   -2.6037    1.0000 </r>
       <r>   -2.3672    1.0000 </r>
       <r>   -2.1997    1.0000 </r>
       <r>   -2.0283    1.0000 </r>
       <r>   -1.8683    1.0000 </r>
       <r>   -1.7160    1.0000 </r>
       <r>   -1.7009    1.0000 </r>
       <r>   -1.6569    1.0000 </r>
       <r>   -1.5298    1.0000 </r>
       <r>   -1.3851    1.0000 </r>
       <r>   -1.3566    1.0000 </r>
       <r>   -1.3265    1.0000 </r>
       <r>   -1.2449    1.0000 </r>
       <r>   -1.2225    1.0000 </r>
       <r>   -1.1580    1.0000 </r>
       <r>   -1.0880    1.0000 </r>
       <r>   -1.0295    1.0000 </r>
       <r>   -0.9216    1.0000 </r>
       <r>   -0.8223    1.0000 </r>
       <r>   -0.7306    1.0000 </r>
       <r>   -0.4675    1.0000 </r>
       <r>    0.0515    1.0000 </r>
       <r>    0.1070    1.0000 </r>
       <r>    0.4212    1.0000 </r>
       <r>    0.5506    1.0000 </r>
       <r>    0.7614    1.0000 </r>
       <r>    0.8840    1.0000 </r>
       <r>    1.0368    1.0000 </r>
       <r>    1.1429    1.0000 </r>
       <r>    1.1735    1.0000 </r>
       <r>    1.2327    1.0000 </r>
       <r>    1.3552    1.0000 </r>
       <r>    1.3908    1.0000 </r>
       <r>    1.4225    1.0000 </r>
       <r>    1.4420    1.0000 </r>
       <r>    1.5894    1.0000 </r>
       <r>    1.6037    1.0000 </r>
       <r>    1.7362    1.0000 </r>
       <r>    1.8742    1.0000 </r>
       <r>    1.9653    1.0000 </r>
       <r>    2.0242    1.0000 </r>
       <r>    2.1719    1.0000 </r>
       <r>    2.4389    0.9999 </r>
       <r>    2.6496    0.0191 </r>
       <r>    3.0657    0.0000 </r>
       <r>    3.1107    0.0000 </r>
       <r>    3.5869    0.0000 </r>
       <r>    4.2579    0.0000 </r>
       <r>    5.4769    0.0000 </r>
       <r>    6.4902    0.0000 </r>
       <r>    6.9784    0.0000 </r>
       <r>    7.8818    0.0000 </r>
       <r>    8.1050    0.0000 </r>
       <r>    8.2739    0.0000 </r>
       <r>    8.4102    0.0000 </r>
       <r>    8.7962    0.0000 </r>
       <r>    8.8257    0.0000 </r>
       <r>    9.2358    0.0000 </r>
       <r>    9.3042    0.0000 </r>
       <r>    9.4737    0.0000 </r>
       <r>    9.7236    0.0000 </r>
       <r>    9.9367    0.0000 </r>
       <r>   10.1683    0.0000 </r>
       <r>   10.2672    0.0000 </r>
       <r>   10.3620    0.0000 </r>
       <r>   10.5142    0.0000 </r>
       <r>   10.5766    0.0000 </r>
      </set>
      <set comment="kpoint 6">
       <r>  -31.0501    1.0000 </r>
       <r>  -31.0500    1.0000 </r>
       <r>  -31.0437    1.0000 </r>
       <r>  -31.0435    1.0000 </r>
       <r>  -14.6776    1.0000 </r>
       <r>  -14.6407    1.0000 </r>
       <r>  -14.4024    1.0000 </r>
       <r>  -14.1922    1.0000 </r>
       <r>  -13.9782    1.0000 </r>
       <r>  -13.9039    1.0000 </r>
       <r>  -13.8163    1.0000 </r>
       <r>  -13.7645    1.0000 </r>
       <r>  -13.7117    1.0000 </r>
       <r>  -13.1779    1.0000 </r>
       <r>  -13.1348    1.0000 </r>
       <r>  -13.0328    1.0000 </r>
       <r>  -12.9711    1.0000 </r>
       <r>  -12.9667    1.0000 </r>
       <r>  -12.8559    1.0000 </r>
       <r>  -12.7845    1.0000 </r>
       <r>  -12.7196    1.0000 </r>
       <r>  -12.6858    1.0000 </r>
       <r>  -12.6640    1.0000 </r>
       <r>  -12.5335    1.0000 </r>
       <r>  -12.5316    1.0000 </r>
       <r>   -2.5123    1.0000 </r>
       <r>   -2.3582    1.0000 </r>
       <r>   -2.0679    1.0000 </r>
       <r>   -1.9299    1.0000 </r>
       <r>   -1.8742    1.0000 </r>
       <r>   -1.7956    1.0000 </r>
       <r>   -1.7146    1.0000 </r>
       <r>   -1.6192    1.0000 </r>
       <r>   -1.5899    1.0000 </r>
       <r>   -1.5160    1.0000 </r>
       <r>   -1.4281    1.0000 </r>
       <r>   -1.3823    1.0000 </r>
       <r>   -1.3234    1.0000 </r>
       <r>   -1.3003    1.0000 </r>
       <r>   -1.2605    1.0000 </r>
       <r>   -1.1481    1.0000 </r>
       <r>   -1.0619    1.0000 </r>
       <r>   -1.0043    1.0000 </r>
       <r>   -0.9075    1.0000 </r>
       <r>   -0.8164    1.0000 </r>
       <r>   -0.5022    1.0000 </r>
       <r>    0.2178    1.0000 </r>
       <r>    0.2422    1.0000 </r>
       <r>    0.4119    1.0000 </r>
       <r>    0.4492    1.0000 </r>
       <r>    0.5691    1.0000 </r>
       <r>    0.8958    1.0000 </r>
       <r>    1.1134    1.0000 </r>
       <r>    1.1597    1.0000 </r>
       <r>    1.2391    1.0000 </r>
       <r>    1.2464    1.0000 </r>
       <r>    1.2670    1.0000 </r>
       <r>    1.3200    1.0000 </r>
       <r>    1.3657    1.0000 </r>
       <r>    1.4087    1.0000 </r>
       <r>    1.5019    1.0000 </r>
       <r>    1.5389    1.0000 </r>
       <r>    1.6363    1.0000 </r>
       <r>    1.7825    1.0000 </r>
       <r>    1.9705    1.0000 </r>
       <r>    2.1034    1.0000 </r>
       <r>    2.1351    1.0000 </r>
       <r>    2.6002    0.2506 </r>
       <r>    2.8571    0.0000 </r>
       <r>    3.0199    0.0000 </r>
       <r>    3.1042    0.0000 </r>
       <r>    3.2053    0.0000 </r>
       <r>    4.6776    0.0000 </r>
       <r>    5.7359    0.0000 </r>
       <r>    7.0005    0.0000 </r>
       <r>    7.0709    0.0000 </r>
       <r>    7.7260    0.0000 </r>
       <r>    7.9270    0.0000 </r>
       <r>    8.4037    0.0000 </r>
       <r>    8.5388    0.0000 </r>
       <r>    8.8308    0.0000 </r>
       <r>    9.1023    0.0000 </r>
       <r>    9.1800    0.0000 </r>
       <r>    9.3872    0.0000 </r>
       <r>    9.5015    0.0000 </r>
       <r>    9.5668    0.0000 </r>
       <r>    9.8010    0.0000 </r>
       <r>    9.9473    0.0000 </r>
       <r>   10.3816    0.0000 </r>
       <r>   10.5506    0.0000 </r>
       <r>   10.6807    0.0000 </r>
       <r>   10.6995    0.0000 </r>
      </set>
      <set comment="kpoint 7">
       <r>  -31.0630    1.0000 </r>
       <r>  -31.0493    1.0000 </r>
       <r>  -31.0440    1.0000 </r>
       <r>  -31.0316    1.0000 </r>
       <r>  -14.6741    1.0000 </r>
       <r>  -14.5404    1.0000 </r>
       <r>  -14.4075    1.0000 </r>
       <r>  -13.9970    1.0000 </r>
       <r>  -13.9960    1.0000 </r>
       <r>  -13.9429    1.0000 </r>
       <r>  -13.7724    1.0000 </r>
       <r>  -13.6456    1.0000 </r>
       <r>  -13.5746    1.0000 </r>
       <r>  -13.2524    1.0000 </r>
       <r>  -13.2170    1.0000 </r>
       <r>  -13.1298    1.0000 </r>
       <r>  -12.9993    1.0000 </r>
       <r>  -12.9670    1.0000 </r>
       <r>  -12.8901    1.0000 </r>
       <r>  -12.8661    1.0000 </r>
       <r>  -12.8151    1.0000 </r>
       <r>  -12.7913    1.0000 </r>
       <r>  -12.7681    1.0000 </r>
       <r>  -12.6132    1.0000 </r>
       <r>  -12.4356    1.0000 </r>
       <r>   -2.8512    1.0000 </r>
       <r>   -2.5946    1.0000 </r>
       <r>   -2.3362    1.0000 </r>
       <r>   -2.0276    1.0000 </r>
       <r>   -1.8187    1.0000 </r>
       <r>   -1.7421    1.0000 </r>
       <r>   -1.7198    1.0000 </r>
       <r>   -1.6919    1.0000 </r>
       <r>   -1.5872    1.0000 </r>
       <r>   -1.4313    1.0000 </r>
       <r>   -1.3225    1.0000 </r>
       <r>   -1.2250    1.0000 </r>
       <r>   -1.1272    1.0000 </r>
       <r>   -1.0621    1.0000 </r>
       <r>   -0.9435    1.0000 </r>
       <r>   -0.9177    1.0000 </r>
       <r>   -0.7196    1.0000 </r>
       <r>   -0.6697    1.0000 </r>
       <r>   -0.5709    1.0000 </r>
       <r>   -0.5540    1.0000 </r>
       <r>   -0.2553    1.0000 </r>
       <r>   -0.0836    1.0000 </r>
       <r>    0.1577    1.0000 </r>
       <r>    0.2796    1.0000 </r>
       <r>    0.4530    1.0000 </r>
       <r>    0.6995    1.0000 </r>
       <r>    0.8057    1.0000 </r>
       <r>    0.8832    1.0000 </r>
       <r>    0.9292    1.0000 </r>
       <r>    1.0009    1.0000 </r>
       <r>    1.2655    1.0000 </r>
       <r>    1.3767    1.0000 </r>
       <r>    1.3953    1.0000 </r>
       <r>    1.4769    1.0000 </r>
       <r>    1.5033    1.0000 </r>
       <r>    1.5462    1.0000 </r>
       <r>    1.5847    1.0000 </r>
       <r>    1.7794    1.0000 </r>
       <r>    1.8378    1.0000 </r>
       <r>    1.8928    1.0000 </r>
       <r>    2.0158    1.0000 </r>
       <r>    2.2111    1.0000 </r>
       <r>    2.2506    1.0000 </r>
       <r>    2.4123    1.0000 </r>
       <r>    2.7856    0.0000 </r>
       <r>    3.0899    0.0000 </r>
       <r>    3.6513    0.0000 </r>
       <r>    3.8195    0.0000 </r>
       <r>    5.5939    0.0000 </r>
       <r>    6.0868    0.0000 </r>
       <r>    7.5995    0.0000 </r>
       <r>    7.7360    0.0000 </r>
       <r>    7.9350    0.0000 </r>
       <r>    8.4475    0.0000 </r>
       <r>    8.4967    0.0000 </r>
       <r>    8.6943    0.0000 </r>
       <r>    9.0838    0.0000 </r>
       <r>    9.1961    0.0000 </r>
       <r>    9.7851    0.0000 </r>
       <r>    9.7878    0.0000 </r>
       <r>   10.0057    0.0000 </r>
       <r>   10.1413    0.0000 </r>
       <r>   10.2241    0.0000 </r>
       <r>   10.4254    0.0000 </r>
       <r>   10.4331    0.0000 </r>
       <r>   10.6011    0.0000 </r>
       <r>   10.6814    0.0000 </r>
      </set>
      <set comment="kpoint 8">
       <r>  -31.0600    1.0000 </r>
       <r>  -31.0466    1.0000 </r>
       <r>  -31.0466    1.0000 </r>
       <r>  -31.0340    1.0000 </r>
       <r>  -14.7500    1.0000 </r>
       <r>  -14.6684    1.0000 </r>
       <r>  -14.2512    1.0000 </r>
       <r>  -14.1401    1.0000 </r>
       <r>  -14.1146    1.0000 </r>
       <r>  -14.0363    1.0000 </r>
       <r>  -13.7882    1.0000 </r>
       <r>  -13.7038    1.0000 </r>
       <r>  -13.5231    1.0000 </r>
       <r>  -13.1202    1.0000 </r>
       <r>  -13.1191    1.0000 </r>
       <r>  -13.1060    1.0000 </r>
       <r>  -13.0004    1.0000 </r>
       <r>  -12.9668    1.0000 </r>
       <r>  -12.8666    1.0000 </r>
       <r>  -12.8573    1.0000 </r>
       <r>  -12.7688    1.0000 </r>
       <r>  -12.6845    1.0000 </r>
       <r>  -12.6649    1.0000 </r>
       <r>  -12.5872    1.0000 </r>
       <r>  -12.4263    1.0000 </r>
       <r>   -2.9482    1.0000 </r>
       <r>   -2.6364    1.0000 </r>
       <r>   -2.4216    1.0000 </r>
       <r>   -2.0383    1.0000 </r>
       <r>   -1.8978    1.0000 </r>
       <r>   -1.8349    1.0000 </r>
       <r>   -1.6914    1.0000 </r>
       <r>   -1.6355    1.0000 </r>
       <r>   -1.6235    1.0000 </r>
       <r>   -1.4759    1.0000 </r>
       <r>   -1.2776    1.0000 </r>
       <r>   -1.2240    1.0000 </r>
       <r>   -1.0645    1.0000 </r>
       <r>   -0.9358    1.0000 </r>
       <r>   -0.8743    1.0000 </r>
       <r>   -0.7559    1.0000 </r>
       <r>   -0.6389    1.0000 </r>
       <r>   -0.6282    1.0000 </r>
       <r>   -0.5984    1.0000 </r>
       <r>   -0.5443    1.0000 </r>
       <r>   -0.3173    1.0000 </r>
       <r>   -0.1714    1.0000 </r>
       <r>    0.0300    1.0000 </r>
       <r>    0.1356    1.0000 </r>
       <r>    0.4138    1.0000 </r>
       <r>    0.5055    1.0000 </r>
       <r>    0.6245    1.0000 </r>
       <r>    0.8884    1.0000 </r>
       <r>    0.9867    1.0000 </r>
       <r>    1.0761    1.0000 </r>
       <r>    1.2309    1.0000 </r>
       <r>    1.2674    1.0000 </r>
       <r>    1.2726    1.0000 </r>
       <r>    1.3694    1.0000 </r>
       <r>    1.4344    1.0000 </r>
       <r>    1.5129    1.0000 </r>
       <r>    1.5819    1.0000 </r>
       <r>    1.7883    1.0000 </r>
       <r>    1.8688    1.0000 </r>
       <r>    2.0070    1.0000 </r>
       <r>    2.0629    1.0000 </r>
       <r>    2.1134    1.0000 </r>
       <r>    2.1789    1.0000 </r>
       <r>    2.4418    0.9999 </r>
       <r>    2.5232    0.9339 </r>
       <r>    2.9596    0.0000 </r>
       <r>    3.8245    0.0000 </r>
       <r>    4.1848    0.0000 </r>
       <r>    5.8108    0.0000 </r>
       <r>    6.2426    0.0000 </r>
       <r>    7.4423    0.0000 </r>
       <r>    7.8052    0.0000 </r>
       <r>    8.1599    0.0000 </r>
       <r>    8.5925    0.0000 </r>
       <r>    8.6957    0.0000 </r>
       <r>    8.9380    0.0000 </r>
       <r>    9.1608    0.0000 </r>
       <r>    9.5967    0.0000 </r>
       <r>    9.6115    0.0000 </r>
       <r>    9.9404    0.0000 </r>
       <r>   10.2047    0.0000 </r>
       <r>   10.2775    0.0000 </r>
       <r>   10.3039    0.0000 </r>
       <r>   10.4364    0.0000 </r>
       <r>   10.4417    0.0000 </r>
       <r>   10.5303    0.0000 </r>
       <r>   10.6015    0.0000 </r>
      </set>
      <set comment="kpoint 9">
       <r>  -31.0532    1.0000 </r>
       <r>  -31.0531    1.0000 </r>
       <r>  -31.0403    1.0000 </r>
       <r>  -31.0401    1.0000 </r>
       <r>  -14.8014    1.0000 </r>
       <r>  -14.7451    1.0000 </r>
       <r>  -14.2518    1.0000 </r>
       <r>  -14.2396    1.0000 </r>
       <r>  -14.2196    1.0000 </r>
       <r>  -13.9880    1.0000 </r>
       <r>  -13.7928    1.0000 </r>
       <r>  -13.7414    1.0000 </r>
       <r>  -13.5487    1.0000 </r>
       <r>  -13.1263    1.0000 </r>
       <r>  -13.0633    1.0000 </r>
       <r>  -13.0127    1.0000 </r>
       <r>  -12.9676    1.0000 </r>
       <r>  -12.9158    1.0000 </r>
       <r>  -12.9043    1.0000 </r>
       <r>  -12.8647    1.0000 </r>
       <r>  -12.7130    1.0000 </r>
       <r>  -12.6108    1.0000 </r>
       <r>  -12.5836    1.0000 </r>
       <r>  -12.4590    1.0000 </r>
       <r>  -12.4444    1.0000 </r>
       <r>   -2.8517    1.0000 </r>
       <r>   -2.6730    1.0000 </r>
       <r>   -2.3035    1.0000 </r>
       <r>   -2.0237    1.0000 </r>
       <r>   -1.9422    1.0000 </r>
       <r>   -1.8358    1.0000 </r>
       <r>   -1.8173    1.0000 </r>
       <r>   -1.6944    1.0000 </r>
       <r>   -1.4060    1.0000 </r>
       <r>   -1.3988    1.0000 </r>
       <r>   -1.3737    1.0000 </r>
       <r>   -1.2413    1.0000 </r>
       <r>   -1.1789    1.0000 </r>
       <r>   -1.0448    1.0000 </r>
       <r>   -1.0273    1.0000 </r>
       <r>   -0.8992    1.0000 </r>
       <r>   -0.7441    1.0000 </r>
       <r>   -0.6785    1.0000 </r>
       <r>   -0.5979    1.0000 </r>
       <r>   -0.5124    1.0000 </r>
       <r>   -0.4465    1.0000 </r>
       <r>   -0.3826    1.0000 </r>
       <r>    0.0211    1.0000 </r>
       <r>    0.1408    1.0000 </r>
       <r>    0.3474    1.0000 </r>
       <r>    0.5488    1.0000 </r>
       <r>    0.7130    1.0000 </r>
       <r>    0.9241    1.0000 </r>
       <r>    1.0080    1.0000 </r>
       <r>    1.1115    1.0000 </r>
       <r>    1.1367    1.0000 </r>
       <r>    1.1870    1.0000 </r>
       <r>    1.2184    1.0000 </r>
       <r>    1.4307    1.0000 </r>
       <r>    1.5166    1.0000 </r>
       <r>    1.5174    1.0000 </r>
       <r>    1.6879    1.0000 </r>
       <r>    1.7366    1.0000 </r>
       <r>    1.7538    1.0000 </r>
       <r>    1.8120    1.0000 </r>
       <r>    1.9398    1.0000 </r>
       <r>    2.1795    1.0000 </r>
       <r>    2.3236    1.0000 </r>
       <r>    2.3428    1.0000 </r>
       <r>    2.3639    1.0000 </r>
       <r>    3.2895    0.0000 </r>
       <r>    3.5618    0.0000 </r>
       <r>    4.9283    0.0000 </r>
       <r>    5.9114    0.0000 </r>
       <r>    6.1040    0.0000 </r>
       <r>    7.5617    0.0000 </r>
       <r>    8.2078    0.0000 </r>
       <r>    8.4428    0.0000 </r>
       <r>    8.4854    0.0000 </r>
       <r>    8.8587    0.0000 </r>
       <r>    9.0748    0.0000 </r>
       <r>    9.3447    0.0000 </r>
       <r>    9.3761    0.0000 </r>
       <r>    9.5422    0.0000 </r>
       <r>    9.9060    0.0000 </r>
       <r>   10.1583    0.0000 </r>
       <r>   10.2395    0.0000 </r>
       <r>   10.2662    0.0000 </r>
       <r>   10.3596    0.0000 </r>
       <r>   10.4269    0.0000 </r>
       <r>   10.6489    0.0000 </r>
       <r>   10.7481    0.0000 </r>
      </set>
      <set comment="kpoint 10">
       <r>  -31.0600    1.0000 </r>
       <r>  -31.0466    1.0000 </r>
       <r>  -31.0465    1.0000 </r>
       <r>  -31.0341    1.0000 </r>
       <r>  -14.7108    1.0000 </r>
       <r>  -14.6522    1.0000 </r>
       <r>  -14.4256    1.0000 </r>
       <r>  -14.1316    1.0000 </r>
       <r>  -14.1210    1.0000 </r>
       <r>  -13.8177    1.0000 </r>
       <r>  -13.7537    1.0000 </r>
       <r>  -13.7509    1.0000 </r>
       <r>  -13.6116    1.0000 </r>
       <r>  -13.1767    1.0000 </r>
       <r>  -13.0969    1.0000 </r>
       <r>  -13.0685    1.0000 </r>
       <r>  -12.9952    1.0000 </r>
       <r>  -12.9437    1.0000 </r>
       <r>  -12.9084    1.0000 </r>
       <r>  -12.8692    1.0000 </r>
       <r>  -12.7435    1.0000 </r>
       <r>  -12.6936    1.0000 </r>
       <r>  -12.6650    1.0000 </r>
       <r>  -12.5881    1.0000 </r>
       <r>  -12.4244    1.0000 </r>
       <r>   -2.7704    1.0000 </r>
       <r>   -2.6283    1.0000 </r>
       <r>   -2.0417    1.0000 </r>
       <r>   -1.8767    1.0000 </r>
       <r>   -1.8543    1.0000 </r>
       <r>   -1.7836    1.0000 </r>
       <r>   -1.7541    1.0000 </r>
       <r>   -1.7257    1.0000 </r>
       <r>   -1.6923    1.0000 </r>
       <r>   -1.5633    1.0000 </r>
       <r>   -1.5406    1.0000 </r>
       <r>   -1.2674    1.0000 </r>
       <r>   -1.2189    1.0000 </r>
       <r>   -1.0957    1.0000 </r>
       <r>   -1.0445    1.0000 </r>
       <r>   -0.9728    1.0000 </r>
       <r>   -0.7492    1.0000 </r>
       <r>   -0.6191    1.0000 </r>
       <r>   -0.5825    1.0000 </r>
       <r>   -0.5483    1.0000 </r>
       <r>   -0.3403    1.0000 </r>
       <r>   -0.2765    1.0000 </r>
       <r>    0.0375    1.0000 </r>
       <r>    0.3225    1.0000 </r>
       <r>    0.4362    1.0000 </r>
       <r>    0.6197    1.0000 </r>
       <r>    0.8442    1.0000 </r>
       <r>    0.9378    1.0000 </r>
       <r>    1.0303    1.0000 </r>
       <r>    1.0496    1.0000 </r>
       <r>    1.1249    1.0000 </r>
       <r>    1.2803    1.0000 </r>
       <r>    1.3052    1.0000 </r>
       <r>    1.4640    1.0000 </r>
       <r>    1.4749    1.0000 </r>
       <r>    1.5284    1.0000 </r>
       <r>    1.6043    1.0000 </r>
       <r>    1.7254    1.0000 </r>
       <r>    1.8599    1.0000 </r>
       <r>    1.8912    1.0000 </r>
       <r>    2.0658    1.0000 </r>
       <r>    2.1843    1.0000 </r>
       <r>    2.3060    1.0000 </r>
       <r>    2.3565    1.0000 </r>
       <r>    2.8130    0.0000 </r>
       <r>    2.9672    0.0000 </r>
       <r>    3.5476    0.0000 </r>
       <r>    4.3614    0.0000 </r>
       <r>    5.7532    0.0000 </r>
       <r>    6.1318    0.0000 </r>
       <r>    7.8417    0.0000 </r>
       <r>    8.1377    0.0000 </r>
       <r>    8.1821    0.0000 </r>
       <r>    8.4495    0.0000 </r>
       <r>    8.6973    0.0000 </r>
       <r>    8.7912    0.0000 </r>
       <r>    9.1324    0.0000 </r>
       <r>    9.3410    0.0000 </r>
       <r>    9.6547    0.0000 </r>
       <r>    9.8049    0.0000 </r>
       <r>   10.0356    0.0000 </r>
       <r>   10.1351    0.0000 </r>
       <r>   10.2710    0.0000 </r>
       <r>   10.3467    0.0000 </r>
       <r>   10.4100    0.0000 </r>
       <r>   10.5310    0.0000 </r>
       <r>   10.6023    0.0000 </r>
      </set>
      <set comment="kpoint 11">
       <r>  -31.0596    1.0000 </r>
       <r>  -31.0527    1.0000 </r>
       <r>  -31.0409    1.0000 </r>
       <r>  -31.0347    1.0000 </r>
       <r>  -14.6507    1.0000 </r>
       <r>  -14.5234    1.0000 </r>
       <r>  -14.3431    1.0000 </r>
       <r>  -14.1635    1.0000 </r>
       <r>  -13.9574    1.0000 </r>
       <r>  -13.8547    1.0000 </r>
       <r>  -13.7698    1.0000 </r>
       <r>  -13.7213    1.0000 </r>
       <r>  -13.6417    1.0000 </r>
       <r>  -13.2571    1.0000 </r>
       <r>  -13.2200    1.0000 </r>
       <r>  -13.1657    1.0000 </r>
       <r>  -13.0283    1.0000 </r>
       <r>  -12.9107    1.0000 </r>
       <r>  -12.8470    1.0000 </r>
       <r>  -12.8135    1.0000 </r>
       <r>  -12.7817    1.0000 </r>
       <r>  -12.7573    1.0000 </r>
       <r>  -12.7387    1.0000 </r>
       <r>  -12.6321    1.0000 </r>
       <r>  -12.5248    1.0000 </r>
       <r>   -2.5911    1.0000 </r>
       <r>   -2.2763    1.0000 </r>
       <r>   -2.2428    1.0000 </r>
       <r>   -2.0289    1.0000 </r>
       <r>   -1.8305    1.0000 </r>
       <r>   -1.7372    1.0000 </r>
       <r>   -1.6917    1.0000 </r>
       <r>   -1.6645    1.0000 </r>
       <r>   -1.5244    1.0000 </r>
       <r>   -1.3743    1.0000 </r>
       <r>   -1.3428    1.0000 </r>
       <r>   -1.2973    1.0000 </r>
       <r>   -1.2231    1.0000 </r>
       <r>   -1.1957    1.0000 </r>
       <r>   -1.1582    1.0000 </r>
       <r>   -1.0772    1.0000 </r>
       <r>   -1.0338    1.0000 </r>
       <r>   -0.9250    1.0000 </r>
       <r>   -0.8220    1.0000 </r>
       <r>   -0.7291    1.0000 </r>
       <r>   -0.5696    1.0000 </r>
       <r>    0.0485    1.0000 </r>
       <r>    0.2152    1.0000 </r>
       <r>    0.4872    1.0000 </r>
       <r>    0.6729    1.0000 </r>
       <r>    0.7308    1.0000 </r>
       <r>    0.9472    1.0000 </r>
       <r>    0.9870    1.0000 </r>
       <r>    1.1226    1.0000 </r>
       <r>    1.1729    1.0000 </r>
       <r>    1.2336    1.0000 </r>
       <r>    1.3569    1.0000 </r>
       <r>    1.3789    1.0000 </r>
       <r>    1.4341    1.0000 </r>
       <r>    1.4901    1.0000 </r>
       <r>    1.5624    1.0000 </r>
       <r>    1.5818    1.0000 </r>
       <r>    1.6931    1.0000 </r>
       <r>    1.7842    1.0000 </r>
       <r>    1.9137    1.0000 </r>
       <r>    1.9919    1.0000 </r>
       <r>    2.0901    1.0000 </r>
       <r>    2.5111    0.9676 </r>
       <r>    2.5499    0.7732 </r>
       <r>    2.8814    0.0000 </r>
       <r>    3.0972    0.0000 </r>
       <r>    3.5590    0.0000 </r>
       <r>    4.2247    0.0000 </r>
       <r>    5.4427    0.0000 </r>
       <r>    5.5969    0.0000 </r>
       <r>    7.4464    0.0000 </r>
       <r>    7.9985    0.0000 </r>
       <r>    8.1199    0.0000 </r>
       <r>    8.5525    0.0000 </r>
       <r>    8.6199    0.0000 </r>
       <r>    8.8869    0.0000 </r>
       <r>    8.9694    0.0000 </r>
       <r>    9.2991    0.0000 </r>
       <r>    9.3771    0.0000 </r>
       <r>    9.6779    0.0000 </r>
       <r>    9.8013    0.0000 </r>
       <r>   10.0156    0.0000 </r>
       <r>   10.2407    0.0000 </r>
       <r>   10.2681    0.0000 </r>
       <r>   10.3555    0.0000 </r>
       <r>   10.4299    0.0000 </r>
       <r>   10.5328    0.0000 </r>
      </set>
      <set comment="kpoint 12">
       <r>  -31.0567    1.0000 </r>
       <r>  -31.0500    1.0000 </r>
       <r>  -31.0435    1.0000 </r>
       <r>  -31.0372    1.0000 </r>
       <r>  -14.7066    1.0000 </r>
       <r>  -14.6141    1.0000 </r>
       <r>  -14.3437    1.0000 </r>
       <r>  -14.2675    1.0000 </r>
       <r>  -14.0236    1.0000 </r>
       <r>  -13.9843    1.0000 </r>
       <r>  -13.7974    1.0000 </r>
       <r>  -13.7375    1.0000 </r>
       <r>  -13.5286    1.0000 </r>
       <r>  -13.1542    1.0000 </r>
       <r>  -13.1334    1.0000 </r>
       <r>  -13.0972    1.0000 </r>
       <r>  -12.9918    1.0000 </r>
       <r>  -12.9429    1.0000 </r>
       <r>  -12.9011    1.0000 </r>
       <r>  -12.8318    1.0000 </r>
       <r>  -12.6890    1.0000 </r>
       <r>  -12.6806    1.0000 </r>
       <r>  -12.6252    1.0000 </r>
       <r>  -12.5957    1.0000 </r>
       <r>  -12.5049    1.0000 </r>
       <r>   -2.7581    1.0000 </r>
       <r>   -2.3565    1.0000 </r>
       <r>   -2.2334    1.0000 </r>
       <r>   -2.0375    1.0000 </r>
       <r>   -1.8550    1.0000 </r>
       <r>   -1.8129    1.0000 </r>
       <r>   -1.7096    1.0000 </r>
       <r>   -1.6200    1.0000 </r>
       <r>   -1.5233    1.0000 </r>
       <r>   -1.4417    1.0000 </r>
       <r>   -1.3544    1.0000 </r>
       <r>   -1.2647    1.0000 </r>
       <r>   -1.2197    1.0000 </r>
       <r>   -1.1792    1.0000 </r>
       <r>   -1.1665    1.0000 </r>
       <r>   -1.0214    1.0000 </r>
       <r>   -0.9517    1.0000 </r>
       <r>   -0.8878    1.0000 </r>
       <r>   -0.8776    1.0000 </r>
       <r>   -0.5819    1.0000 </r>
       <r>   -0.3656    1.0000 </r>
       <r>    0.0519    1.0000 </r>
       <r>    0.1351    1.0000 </r>
       <r>    0.2384    1.0000 </r>
       <r>    0.5102    1.0000 </r>
       <r>    0.6383    1.0000 </r>
       <r>    0.9337    1.0000 </r>
       <r>    0.9625    1.0000 </r>
       <r>    1.0695    1.0000 </r>
       <r>    1.1648    1.0000 </r>
       <r>    1.2000    1.0000 </r>
       <r>    1.2707    1.0000 </r>
       <r>    1.3579    1.0000 </r>
       <r>    1.3722    1.0000 </r>
       <r>    1.4266    1.0000 </r>
       <r>    1.4440    1.0000 </r>
       <r>    1.6211    1.0000 </r>
       <r>    1.7182    1.0000 </r>
       <r>    1.7926    1.0000 </r>
       <r>    1.8057    1.0000 </r>
       <r>    1.8918    1.0000 </r>
       <r>    2.1284    1.0000 </r>
       <r>    2.2636    1.0000 </r>
       <r>    2.6884    0.0008 </r>
       <r>    2.8472    0.0000 </r>
       <r>    2.9837    0.0000 </r>
       <r>    3.6889    0.0000 </r>
       <r>    4.4810    0.0000 </r>
       <r>    5.7337    0.0000 </r>
       <r>    5.8657    0.0000 </r>
       <r>    7.5738    0.0000 </r>
       <r>    8.1317    0.0000 </r>
       <r>    8.4098    0.0000 </r>
       <r>    8.4749    0.0000 </r>
       <r>    8.8575    0.0000 </r>
       <r>    8.9572    0.0000 </r>
       <r>    9.1079    0.0000 </r>
       <r>    9.2280    0.0000 </r>
       <r>    9.7074    0.0000 </r>
       <r>    9.7900    0.0000 </r>
       <r>    9.9111    0.0000 </r>
       <r>   10.0722    0.0000 </r>
       <r>   10.2579    0.0000 </r>
       <r>   10.3501    0.0000 </r>
       <r>   10.4135    0.0000 </r>
       <r>   10.4984    0.0000 </r>
       <r>   10.5806    0.0000 </r>
      </set>
      <set comment="kpoint 13">
       <r>  -31.0499    1.0000 </r>
       <r>  -31.0499    1.0000 </r>
       <r>  -31.0435    1.0000 </r>
       <r>  -31.0433    1.0000 </r>
       <r>  -14.7276    1.0000 </r>
       <r>  -14.6839    1.0000 </r>
       <r>  -14.4579    1.0000 </r>
       <r>  -14.3668    1.0000 </r>
       <r>  -14.0662    1.0000 </r>
       <r>  -13.9304    1.0000 </r>
       <r>  -13.7928    1.0000 </r>
       <r>  -13.7434    1.0000 </r>
       <r>  -13.5806    1.0000 </r>
       <r>  -13.1188    1.0000 </r>
       <r>  -13.0522    1.0000 </r>
       <r>  -13.0324    1.0000 </r>
       <r>  -12.9986    1.0000 </r>
       <r>  -12.8905    1.0000 </r>
       <r>  -12.8851    1.0000 </r>
       <r>  -12.8602    1.0000 </r>
       <r>  -12.6987    1.0000 </r>
       <r>  -12.5789    1.0000 </r>
       <r>  -12.5591    1.0000 </r>
       <r>  -12.4958    1.0000 </r>
       <r>  -12.4815    1.0000 </r>
       <r>   -2.5863    1.0000 </r>
       <r>   -2.3987    1.0000 </r>
       <r>   -2.1920    1.0000 </r>
       <r>   -2.0246    1.0000 </r>
       <r>   -1.8683    1.0000 </r>
       <r>   -1.8242    1.0000 </r>
       <r>   -1.7144    1.0000 </r>
       <r>   -1.6825    1.0000 </r>
       <r>   -1.4709    1.0000 </r>
       <r>   -1.3884    1.0000 </r>
       <r>   -1.3473    1.0000 </r>
       <r>   -1.3215    1.0000 </r>
       <r>   -1.2727    1.0000 </r>
       <r>   -1.2260    1.0000 </r>
       <r>   -1.1777    1.0000 </r>
       <r>   -1.1317    1.0000 </r>
       <r>   -1.0747    1.0000 </r>
       <r>   -1.0722    1.0000 </r>
       <r>   -0.8527    1.0000 </r>
       <r>   -0.6946    1.0000 </r>
       <r>   -0.5980    1.0000 </r>
       <r>   -0.1246    1.0000 </r>
       <r>    0.1145    1.0000 </r>
       <r>    0.2948    1.0000 </r>
       <r>    0.5579    1.0000 </r>
       <r>    0.6844    1.0000 </r>
       <r>    0.8984    1.0000 </r>
       <r>    0.9832    1.0000 </r>
       <r>    1.0915    1.0000 </r>
       <r>    1.1044    1.0000 </r>
       <r>    1.1409    1.0000 </r>
       <r>    1.2216    1.0000 </r>
       <r>    1.2480    1.0000 </r>
       <r>    1.3789    1.0000 </r>
       <r>    1.4437    1.0000 </r>
       <r>    1.5213    1.0000 </r>
       <r>    1.5394    1.0000 </r>
       <r>    1.6485    1.0000 </r>
       <r>    1.7186    1.0000 </r>
       <r>    1.8853    1.0000 </r>
       <r>    1.9779    1.0000 </r>
       <r>    2.1820    1.0000 </r>
       <r>    2.2431    1.0000 </r>
       <r>    2.6236    0.0911 </r>
       <r>    2.8711    0.0000 </r>
       <r>    3.1616    0.0000 </r>
       <r>    3.4950    0.0000 </r>
       <r>    4.8439    0.0000 </r>
       <r>    6.0641    0.0000 </r>
       <r>    6.1355    0.0000 </r>
       <r>    7.6672    0.0000 </r>
       <r>    8.1895    0.0000 </r>
       <r>    8.1943    0.0000 </r>
       <r>    8.5780    0.0000 </r>
       <r>    8.7944    0.0000 </r>
       <r>    8.9001    0.0000 </r>
       <r>    9.0693    0.0000 </r>
       <r>    9.2940    0.0000 </r>
       <r>    9.6783    0.0000 </r>
       <r>    9.7928    0.0000 </r>
       <r>    9.8999    0.0000 </r>
       <r>   10.0306    0.0000 </r>
       <r>   10.3249    0.0000 </r>
       <r>   10.4898    0.0000 </r>
       <r>   10.5692    0.0000 </r>
       <r>   10.6698    0.0000 </r>
       <r>   10.7842    0.0000 </r>
      </set>
      <set comment="kpoint 14">
       <r>  -31.0567    1.0000 </r>
       <r>  -31.0499    1.0000 </r>
       <r>  -31.0435    1.0000 </r>
       <r>  -31.0372    1.0000 </r>
       <r>  -14.6478    1.0000 </r>
       <r>  -14.5959    1.0000 </r>
       <r>  -14.4843    1.0000 </r>
       <r>  -14.2722    1.0000 </r>
       <r>  -14.0535    1.0000 </r>
       <r>  -13.8548    1.0000 </r>
       <r>  -13.7403    1.0000 </r>
       <r>  -13.7354    1.0000 </r>
       <r>  -13.6130    1.0000 </r>
       <r>  -13.1518    1.0000 </r>
       <r>  -13.1334    1.0000 </r>
       <r>  -13.1119    1.0000 </r>
       <r>  -13.0220    1.0000 </r>
       <r>  -12.9018    1.0000 </r>
       <r>  -12.8815    1.0000 </r>
       <r>  -12.8524    1.0000 </r>
       <r>  -12.7042    1.0000 </r>
       <r>  -12.6677    1.0000 </r>
       <r>  -12.6241    1.0000 </r>
       <r>  -12.6044    1.0000 </r>
       <r>  -12.5029    1.0000 </r>
       <r>   -2.4209    1.0000 </r>
       <r>   -2.3064    1.0000 </r>
       <r>   -2.0454    1.0000 </r>
       <r>   -1.8882    1.0000 </r>
       <r>   -1.8711    1.0000 </r>
       <r>   -1.7934    1.0000 </r>
       <r>   -1.7382    1.0000 </r>
       <r>   -1.6623    1.0000 </r>
       <r>   -1.5975    1.0000 </r>
       <r>   -1.5272    1.0000 </r>
       <r>   -1.4947    1.0000 </r>
       <r>   -1.3590    1.0000 </r>
       <r>   -1.2784    1.0000 </r>
       <r>   -1.2217    1.0000 </r>
       <r>   -1.1683    1.0000 </r>
       <r>   -1.1437    1.0000 </r>
       <r>   -1.0965    1.0000 </r>
       <r>   -1.0354    1.0000 </r>
       <r>   -0.8366    1.0000 </r>
       <r>   -0.7983    1.0000 </r>
       <r>   -0.5808    1.0000 </r>
       <r>   -0.1280    1.0000 </r>
       <r>    0.1070    1.0000 </r>
       <r>    0.4662    1.0000 </r>
       <r>    0.6436    1.0000 </r>
       <r>    0.8139    1.0000 </r>
       <r>    0.9426    1.0000 </r>
       <r>    1.0178    1.0000 </r>
       <r>    1.0777    1.0000 </r>
       <r>    1.1624    1.0000 </r>
       <r>    1.1884    1.0000 </r>
       <r>    1.2857    1.0000 </r>
       <r>    1.3333    1.0000 </r>
       <r>    1.4113    1.0000 </r>
       <r>    1.5264    1.0000 </r>
       <r>    1.5418    1.0000 </r>
       <r>    1.6099    1.0000 </r>
       <r>    1.6711    1.0000 </r>
       <r>    1.7707    1.0000 </r>
       <r>    1.8591    1.0000 </r>
       <r>    2.0031    1.0000 </r>
       <r>    2.0422    1.0000 </r>
       <r>    2.4927    0.9910 </r>
       <r>    2.8589    0.0000 </r>
       <r>    2.8902    0.0000 </r>
       <r>    3.0465    0.0000 </r>
       <r>    3.3263    0.0000 </r>
       <r>    4.5117    0.0000 </r>
       <r>    5.6872    0.0000 </r>
       <r>    5.8442    0.0000 </r>
       <r>    7.7533    0.0000 </r>
       <r>    8.1896    0.0000 </r>
       <r>    8.2953    0.0000 </r>
       <r>    8.5264    0.0000 </r>
       <r>    8.6031    0.0000 </r>
       <r>    8.8624    0.0000 </r>
       <r>    9.0387    0.0000 </r>
       <r>    9.1524    0.0000 </r>
       <r>    9.3043    0.0000 </r>
       <r>    9.7507    0.0000 </r>
       <r>    9.8024    0.0000 </r>
       <r>   10.0069    0.0000 </r>
       <r>   10.2350    0.0000 </r>
       <r>   10.2556    0.0000 </r>
       <r>   10.4567    0.0000 </r>
       <r>   10.5460    0.0000 </r>
       <r>   10.6137    0.0000 </r>
      </set>
      <set comment="kpoint 15">
       <r>  -31.0534    1.0000 </r>
       <r>  -31.0532    1.0000 </r>
       <r>  -31.0405    1.0000 </r>
       <r>  -31.0402    1.0000 </r>
       <r>  -14.6906    1.0000 </r>
       <r>  -14.5779    1.0000 </r>
       <r>  -14.2749    1.0000 </r>
       <r>  -14.2623    1.0000 </r>
       <r>  -14.1126    1.0000 </r>
       <r>  -14.1121    1.0000 </r>
       <r>  -13.7934    1.0000 </r>
       <r>  -13.5874    1.0000 </r>
       <r>  -13.5299    1.0000 </r>
       <r>  -13.2665    1.0000 </r>
       <r>  -13.1688    1.0000 </r>
       <r>  -13.1668    1.0000 </r>
       <r>  -12.9650    1.0000 </r>
       <r>  -12.9200    1.0000 </r>
       <r>  -12.9179    1.0000 </r>
       <r>  -12.6785    1.0000 </r>
       <r>  -12.6764    1.0000 </r>
       <r>  -12.6742    1.0000 </r>
       <r>  -12.6206    1.0000 </r>
       <r>  -12.5902    1.0000 </r>
       <r>  -12.5698    1.0000 </r>
       <r>   -2.7297    1.0000 </r>
       <r>   -2.6624    1.0000 </r>
       <r>   -2.0915    1.0000 </r>
       <r>   -1.8596    1.0000 </r>
       <r>   -1.8426    1.0000 </r>
       <r>   -1.8005    1.0000 </r>
       <r>   -1.7329    1.0000 </r>
       <r>   -1.6966    1.0000 </r>
       <r>   -1.6548    1.0000 </r>
[...]
       <r>     2.3298     5.6430    67.6290 </r>
       <r>     2.4835     4.0045    68.2443 </r>
       <r>     2.6371     3.3908    68.7652 </r>
       <r>     2.7908     2.0514    69.0804 </r>
       <r>     2.9444     4.5556    69.7804 </r>
       <r>     3.0981     4.8905    70.5318 </r>
       <r>     3.2517     3.2011    71.0236 </r>
       <r>     3.4054     1.4499    71.2464 </r>
       <r>     3.5590     1.9126    71.5402 </r>
       <r>     3.7126     2.1432    71.8695 </r>
       <r>     3.8663     1.0952    72.0378 </r>
       <r>     4.0199     0.4929    72.1135 </r>
       <r>     4.1736     0.3564    72.1683 </r>
       <r>     4.3272     1.2404    72.3589 </r>
       <r>     4.4809     0.6145    72.4533 </r>
       <r>     4.6345     0.7408    72.5671 </r>
       <r>     4.7882     0.5464    72.6511 </r>
       <r>     4.9418     1.5284    72.8859 </r>
       <r>     5.0955     1.1091    73.0563 </r>
       <r>     5.2491     0.7007    73.1640 </r>
       <r>     5.4027     0.7430    73.2781 </r>
       <r>     5.5564     1.5031    73.5091 </r>
       <r>     5.7100     1.3904    73.7227 </r>
       <r>     5.8637     2.2049    74.0614 </r>
       <r>     6.0173     1.0542    74.2234 </r>
       <r>     6.1710     2.2484    74.5689 </r>
       <r>     6.3246     0.9072    74.7083 </r>
       <r>     6.4783     0.3647    74.7643 </r>
       <r>     6.6319     0.7197    74.8749 </r>
       <r>     6.7856     0.2578    74.9145 </r>
       <r>     6.9392     0.5802    75.0036 </r>
       <r>     7.0928     1.5253    75.2380 </r>
       <r>     7.2465     0.2039    75.2693 </r>
       <r>     7.4001     0.2026    75.3005 </r>
       <r>     7.5538     1.1972    75.4844 </r>
       <r>     7.7074     1.9921    75.7905 </r>
       <r>     7.8611     2.2282    76.1328 </r>
       <r>     8.0147     2.5808    76.5294 </r>
       <r>     8.1684     3.2983    77.0361 </r>
       <r>     8.3220     3.6884    77.6028 </r>
       <r>     8.4757     4.4460    78.2859 </r>
       <r>     8.6293     6.8383    79.3366 </r>
       <r>     8.7829     3.6274    79.8939 </r>
       <r>     8.9366     5.9589    80.8095 </r>
       <r>     9.0902     4.2907    81.4687 </r>
       <r>     9.2439     3.9428    82.0745 </r>
       <r>     9.3975     6.2798    83.0394 </r>
       <r>     9.5512     3.2221    83.5345 </r>
       <r>     9.7048     4.1079    84.1656 </r>
       <r>     9.8585     6.3586    85.1426 </r>
       <r>    10.0121     6.3729    86.1218 </r>
       <r>    10.1658     5.2810    86.9332 </r>
       <r>    10.3194     8.6709    88.2654 </r>
       <r>    10.4730     8.1091    89.5113 </r>
       <r>    10.6267     8.8966    90.8782 </r>
       <r>    10.7803     5.3199    91.6956 </r>
       <r>    10.9340     1.9788    91.9996 </r>
       <r>    11.0876     0.0023    92.0000 </r>
       <r>    11.2413     0.0000    92.0000 </r>
       <r>    11.3949     0.0000    92.0000 </r>
       <r>    11.5486     0.0000    92.0000 </r>
       <r>    11.7022     0.0000    92.0000 </r>
       <r>    11.8558     0.0000    92.0000 </r>
       <r>    12.0095     0.0000    92.0000 </r>
       <r>    12.1631     0.0000    92.0000 </r>
       <r>    12.3168     0.0000    92.0000 </r>
       <r>    12.4704     0.0000    92.0000 </r>
       <r>    12.6241     0.0000    92.0000 </r>
       <r>    12.7777     0.0000    92.0000 </r>
       <r>    12.9314     0.0000    92.0000 </r>
      </set>
      <set comment="spin 2">
       <r>   -33.1623     0.0000     0.0000 </r>
       <r>   -33.0086     0.0000     0.0000 </r>
       <r>   -32.8550     0.0000     0.0000 </r>
       <r>   -32.7013     0.0000     0.0000 </r>
       <r>   -32.5477     0.0000     0.0000 </r>
       <r>   -32.3940     0.0000     0.0000 </r>
       <r>   -32.2404     0.0000     0.0000 </r>
       <r>   -32.0867     0.0000     0.0000 </r>
       <r>   -31.9331     0.0000     0.0000 </r>
       <r>   -31.7794     0.0000     0.0000 </r>
       <r>   -31.6258     0.0000     0.0000 </r>
       <r>   -31.4722     0.0000     0.0000 </r>
       <r>   -31.3185     0.0000     0.0000 </r>
       <r>   -31.1649     0.0126     0.0019 </r>
       <r>   -31.0112    21.4981     3.3050 </r>
       <r>   -30.8576     4.5233     4.0000 </r>
       <r>   -30.7039     0.0000     4.0000 </r>
       <r>   -30.5503     0.0000     4.0000 </r>
       <r>   -30.3966     0.0000     4.0000 </r>
       <r>   -30.2430     0.0000     4.0000 </r>
       <r>   -30.0893     0.0000     4.0000 </r>
       <r>   -29.9357     0.0000     4.0000 </r>
       <r>   -29.7821     0.0000     4.0000 </r>
       <r>   -29.6284     0.0000     4.0000 </r>
       <r>   -29.4748     0.0000     4.0000 </r>
       <r>   -29.3211     0.0000     4.0000 </r>
       <r>   -29.1675     0.0000     4.0000 </r>
       <r>   -29.0138     0.0000     4.0000 </r>
       <r>   -28.8602     0.0000     4.0000 </r>
       <r>   -28.7065     0.0000     4.0000 </r>
       <r>   -28.5529     0.0000     4.0000 </r>
       <r>   -28.3992     0.0000     4.0000 </r>
       <r>   -28.2456     0.0000     4.0000 </r>
       <r>   -28.0920     0.0000     4.0000 </r>
       <r>   -27.9383     0.0000     4.0000 </r>
       <r>   -27.7847     0.0000     4.0000 </r>
       <r>   -27.6310     0.0000     4.0000 </r>
       <r>   -27.4774     0.0000     4.0000 </r>
       <r>   -27.3237     0.0000     4.0000 </r>
       <r>   -27.1701     0.0000     4.0000 </r>
       <r>   -27.0164     0.0000     4.0000 </r>
       <r>   -26.8628     0.0000     4.0000 </r>
       <r>   -26.7091     0.0000     4.0000 </r>
       <r>   -26.5555     0.0000     4.0000 </r>
       <r>   -26.4019     0.0000     4.0000 </r>
       <r>   -26.2482     0.0000     4.0000 </r>
       <r>   -26.0946     0.0000     4.0000 </r>
       <r>   -25.9409     0.0000     4.0000 </r>
       <r>   -25.7873     0.0000     4.0000 </r>
       <r>   -25.6336     0.0000     4.0000 </r>
       <r>   -25.4800     0.0000     4.0000 </r>
       <r>   -25.3263     0.0000     4.0000 </r>
       <r>   -25.1727     0.0000     4.0000 </r>
       <r>   -25.0190     0.0000     4.0000 </r>
       <r>   -24.8654     0.0000     4.0000 </r>
       <r>   -24.7118     0.0000     4.0000 </r>
       <r>   -24.5581     0.0000     4.0000 </r>
       <r>   -24.4045     0.0000     4.0000 </r>
       <r>   -24.2508     0.0000     4.0000 </r>
       <r>   -24.0972     0.0000     4.0000 </r>
       <r>   -23.9435     0.0000     4.0000 </r>
       <r>   -23.7899     0.0000     4.0000 </r>
       <r>   -23.6362     0.0000     4.0000 </r>
       <r>   -23.4826     0.0000     4.0000 </r>
       <r>   -23.3289     0.0000     4.0000 </r>
       <r>   -23.1753     0.0000     4.0000 </r>
       <r>   -23.0217     0.0000     4.0000 </r>
       <r>   -22.8680     0.0000     4.0000 </r>
       <r>   -22.7144     0.0000     4.0000 </r>
       <r>   -22.5607     0.0000     4.0000 </r>
       <r>   -22.4071     0.0000     4.0000 </r>
       <r>   -22.2534     0.0000     4.0000 </r>
       <r>   -22.0998     0.0000     4.0000 </r>
       <r>   -21.9461     0.0000     4.0000 </r>
       <r>   -21.7925     0.0000     4.0000 </r>
       <r>   -21.6388     0.0000     4.0000 </r>
       <r>   -21.4852     0.0000     4.0000 </r>
       <r>   -21.3316     0.0000     4.0000 </r>
       <r>   -21.1779     0.0000     4.0000 </r>
       <r>   -21.0243     0.0000     4.0000 </r>
       <r>   -20.8706     0.0000     4.0000 </r>
       <r>   -20.7170     0.0000     4.0000 </r>
       <r>   -20.5633     0.0000     4.0000 </r>
       <r>   -20.4097     0.0000     4.0000 </r>
       <r>   -20.2560     0.0000     4.0000 </r>
       <r>   -20.1024     0.0000     4.0000 </r>
       <r>   -19.9487     0.0000     4.0000 </r>
       <r>   -19.7951     0.0000     4.0000 </r>
       <r>   -19.6415     0.0000     4.0000 </r>
       <r>   -19.4878     0.0000     4.0000 </r>
       <r>   -19.3342     0.0000     4.0000 </r>
       <r>   -19.1805     0.0000     4.0000 </r>
       <r>   -19.0269     0.0000     4.0000 </r>
       <r>   -18.8732     0.0000     4.0000 </r>
       <r>   -18.7196     0.0000     4.0000 </r>
       <r>   -18.5659     0.0000     4.0000 </r>
       <r>   -18.4123     0.0000     4.0000 </r>
       <r>   -18.2586     0.0000     4.0000 </r>
       <r>   -18.1050     0.0000     4.0000 </r>
       <r>   -17.9514     0.0000     4.0000 </r>
       <r>   -17.7977     0.0000     4.0000 </r>
       <r>   -17.6441     0.0000     4.0000 </r>
       <r>   -17.4904     0.0000     4.0000 </r>
       <r>   -17.3368     0.0000     4.0000 </r>
       <r>   -17.1831     0.0000     4.0000 </r>
       <r>   -17.0295     0.0000     4.0000 </r>
       <r>   -16.8758     0.0000     4.0000 </r>
       <r>   -16.7222     0.0000     4.0000 </r>
       <r>   -16.5685     0.0000     4.0000 </r>
       <r>   -16.4149     0.0000     4.0000 </r>
       <r>   -16.2613     0.0000     4.0000 </r>
       <r>   -16.1076     0.0000     4.0000 </r>
       <r>   -15.9540     0.0000     4.0000 </r>
       <r>   -15.8003     0.0000     4.0000 </r>
       <r>   -15.6467     0.0000     4.0000 </r>
       <r>   -15.4930     0.0000     4.0000 </r>
       <r>   -15.3394     0.0000     4.0000 </r>
       <r>   -15.1857     0.0000     4.0000 </r>
       <r>   -15.0321     0.0024     4.0004 </r>
       <r>   -14.8784     0.9394     4.1447 </r>
       <r>   -14.7248     7.3913     5.2804 </r>
       <r>   -14.5712     5.4233     6.1136 </r>
       <r>   -14.4175     4.6639     6.8302 </r>
       <r>   -14.2639     4.9227     7.5866 </r>
       <r>   -14.1102     5.3863     8.4142 </r>
       <r>   -13.9566    11.1765    10.1314 </r>
       <r>   -13.8029     8.6836    11.4656 </r>
       <r>   -13.6493     6.3176    12.4362 </r>
       <r>   -13.4956     3.6371    12.9951 </r>
       <r>   -13.3420     0.0618    13.0045 </r>
       <r>   -13.1883     4.6505    13.7191 </r>
       <r>   -13.0347    16.3282    16.2278 </r>
       <r>   -12.8811    16.1459    18.7086 </r>
       <r>   -12.7274    15.8786    21.1483 </r>
       <r>   -12.5738    15.5035    23.5303 </r>
       <r>   -12.4201     9.0258    24.9171 </r>
       <r>   -12.2665     0.5398    25.0000 </r>
       <r>   -12.1128     0.0000    25.0000 </r>
       <r>   -11.9592     0.0000    25.0000 </r>
       <r>   -11.8055     0.0000    25.0000 </r>
       <r>   -11.6519     0.0000    25.0000 </r>
       <r>   -11.4982     0.0000    25.0000 </r>
       <r>   -11.3446     0.0000    25.0000 </r>
       <r>   -11.1910     0.0000    25.0000 </r>
       <r>   -11.0373     0.0000    25.0000 </r>
       <r>   -10.8837     0.0000    25.0000 </r>
       <r>   -10.7300     0.0000    25.0000 </r>
       <r>   -10.5764     0.0000    25.0000 </r>
       <r>   -10.4227     0.0000    25.0000 </r>
       <r>   -10.2691     0.0000    25.0000 </r>
       <r>   -10.1154     0.0000    25.0000 </r>
       <r>    -9.9618     0.0000    25.0000 </r>
       <r>    -9.8082     0.0000    25.0000 </r>
       <r>    -9.6545     0.0000    25.0000 </r>
       <r>    -9.5009     0.0000    25.0000 </r>
       <r>    -9.3472     0.0000    25.0000 </r>
       <r>    -9.1936     0.0000    25.0000 </r>
       <r>    -9.0399     0.0000    25.0000 </r>
       <r>    -8.8863     0.0000    25.0000 </r>
       <r>    -8.7326     0.0000    25.0000 </r>
       <r>    -8.5790     0.0000    25.0000 </r>
       <r>    -8.4253     0.0000    25.0000 </r>
       <r>    -8.2717     0.0000    25.0000 </r>
       <r>    -8.1181     0.0000    25.0000 </r>
       <r>    -7.9644     0.0000    25.0000 </r>
       <r>    -7.8108     0.0000    25.0000 </r>
       <r>    -7.6571     0.0000    25.0000 </r>
       <r>    -7.5035     0.0000    25.0000 </r>
       <r>    -7.3498     0.0000    25.0000 </r>
       <r>    -7.1962     0.0000    25.0000 </r>
       <r>    -7.0425     0.0000    25.0000 </r>
       <r>    -6.8889     0.0000    25.0000 </r>
       <r>    -6.7352     0.0000    25.0000 </r>
       <r>    -6.5816     0.0000    25.0000 </r>
       <r>    -6.4280     0.0000    25.0000 </r>
       <r>    -6.2743     0.0000    25.0000 </r>
       <r>    -6.1207     0.0000    25.0000 </r>
       <r>    -5.9670     0.0000    25.0000 </r>
       <r>    -5.8134     0.0000    25.0000 </r>
       <r>    -5.6597     0.0000    25.0000 </r>
       <r>    -5.5061     0.0000    25.0000 </r>
       <r>    -5.3524     0.0000    25.0000 </r>
       <r>    -5.1988     0.0000    25.0000 </r>
       <r>    -5.0451     0.0000    25.0000 </r>
       <r>    -4.8915     0.0000    25.0000 </r>
       <r>    -4.7379     0.0000    25.0000 </r>
       <r>    -4.5842     0.0000    25.0000 </r>
       <r>    -4.4306     0.0000    25.0000 </r>
       <r>    -4.2769     0.0000    25.0000 </r>
       <r>    -4.1233     0.0000    25.0000 </r>
       <r>    -3.9696     0.0000    25.0000 </r>
       <r>    -3.8160     0.0000    25.0000 </r>
       <r>    -3.6623     0.0000    25.0000 </r>
       <r>    -3.5087     0.0000    25.0000 </r>
       <r>    -3.3550     0.0000    25.0000 </r>
       <r>    -3.2014     0.0000    25.0000 </r>
       <r>    -3.0478     0.1951    25.0300 </r>
       <r>    -2.8941     1.5740    25.2718 </r>
       <r>    -2.7405     2.9674    25.7277 </r>
       <r>    -2.5868     3.1555    26.2126 </r>
       <r>    -2.4332     4.3721    26.8843 </r>
       <r>    -2.2795     5.6336    27.7499 </r>
       <r>    -2.1259     9.6997    29.2402 </r>
       <r>    -1.9722     7.4598    30.3864 </r>
       <r>    -1.8186     8.4327    31.6820 </r>
       <r>    -1.6649     8.2088    32.9433 </r>
       <r>    -1.5113     9.5381    34.4088 </r>
       <r>    -1.3577    15.8094    36.8378 </r>
       <r>    -1.2040    12.4964    38.7578 </r>
       <r>    -1.0504    14.6854    41.0141 </r>
       <r>    -0.8967    11.8462    42.8343 </r>
       <r>    -0.7431     8.5865    44.1535 </r>
       <r>    -0.5894     7.2468    45.2670 </r>
       <r>    -0.4358     3.2087    45.7600 </r>
       <r>    -0.2821     4.4112    46.4377 </r>
       <r>    -0.1285     4.9983    47.2057 </r>
       <r>     0.0252     4.2234    47.8546 </r>
       <r>     0.1788     4.2286    48.5043 </r>
       <r>     0.3324     4.6733    49.2224 </r>
       <r>     0.4861     5.7284    50.1025 </r>
       <r>     0.6397     4.8928    50.8543 </r>
       <r>     0.7934     7.1488    51.9527 </r>
       <r>     0.9470     9.0603    53.3447 </r>
       <r>     1.1007    12.8343    55.3167 </r>
       <r>     1.2543    14.0402    57.4739 </r>
       <r>     1.4080    15.9858    59.9300 </r>
       <r>     1.5616    14.5363    62.1634 </r>
       <r>     1.7153     9.9817    63.6971 </r>
       <r>     1.8689    10.7931    65.3554 </r>
       <r>     2.0225     6.1874    66.3061 </r>
       <r>     2.1762     6.1925    67.2575 </r>
       <r>     2.3298     5.1069    68.0422 </r>
       <r>     2.4835     5.4742    68.8833 </r>
       <r>     2.6371     4.8852    69.6338 </r>
       <r>     2.7908     1.4552    69.8574 </r>
       <r>     2.9444     2.9384    70.3089 </r>
       <r>     3.0981     4.6291    71.0201 </r>
       <r>     3.2517     1.2815    71.2170 </r>
       <r>     3.4054     1.4547    71.4405 </r>
       <r>     3.5590     2.0373    71.7536 </r>
       <r>     3.7126     1.4972    71.9836 </r>
       <r>     3.8663     0.7560    72.0998 </r>
       <r>     4.0199     0.3157    72.1483 </r>
       <r>     4.1736     1.2311    72.3374 </r>
       <r>     4.3272     0.4304    72.4035 </r>
       <r>     4.4809     1.0299    72.5618 </r>
       <r>     4.6345     0.3490    72.6154 </r>
       <r>     4.7882     1.3708    72.8260 </r>
       <r>     4.9418     1.0206    72.9828 </r>
       <r>     5.0955     0.8715    73.1167 </r>
       <r>     5.2491     0.6747    73.2204 </r>
       <r>     5.4027     0.8720    73.3544 </r>
       <r>     5.5564     1.3613    73.5635 </r>
       <r>     5.7100     1.7122    73.8266 </r>
       <r>     5.8637     1.8772    74.1150 </r>
       <r>     6.0173     0.9270    74.2575 </r>
       <r>     6.1710     2.2995    74.6108 </r>
       <r>     6.3246     0.7167    74.7209 </r>
       <r>     6.4783     0.4994    74.7976 </r>
       <r>     6.6319     0.5055    74.8753 </r>
       <r>     6.7856     0.3294    74.9259 </r>
       <r>     6.9392     0.8758    75.0604 </r>
       <r>     7.0928     1.2323    75.2498 </r>
       <r>     7.2465     0.1271    75.2693 </r>
       <r>     7.4001     0.2419    75.3065 </r>
       <r>     7.5538     1.2053    75.4917 </r>
       <r>     7.7074     2.1190    75.8172 </r>
       <r>     7.8611     2.2111    76.1570 </r>
       <r>     8.0147     2.4518    76.5337 </r>
       <r>     8.1684     3.7077    77.1033 </r>
       <r>     8.3220     3.3839    77.6233 </r>
       <r>     8.4757     4.8752    78.3723 </r>
       <r>     8.6293     6.6445    79.3932 </r>
       <r>     8.7829     3.4818    79.9282 </r>
       <r>     8.9366     6.0096    80.8515 </r>
       <r>     9.0902     4.3837    81.5251 </r>
       <r>     9.2439     3.9078    82.1255 </r>
       <r>     9.3975     6.3068    83.0945 </r>
       <r>     9.5512     3.0987    83.5706 </r>
       <r>     9.7048     4.2803    84.2283 </r>
       <r>     9.8585     6.1205    85.1686 </r>
       <r>    10.0121     6.5418    86.1738 </r>
       <r>    10.1658     5.2027    86.9731 </r>
       <r>    10.3194     8.8241    88.3289 </r>
       <r>    10.4730     8.2297    89.5934 </r>
       <r>    10.6267     9.0554    90.9847 </r>
       <r>    10.7803     5.2733    91.7949 </r>
       <r>    10.9340     1.3346    92.0000 </r>
       <r>    11.0876     0.0003    92.0000 </r>
       <r>    11.2413     0.0000    92.0000 </r>
       <r>    11.3949     0.0000    92.0000 </r>
       <r>    11.5486     0.0000    92.0000 </r>
       <r>    11.7022     0.0000    92.0000 </r>
       <r>    11.8558     0.0000    92.0000 </r>
       <r>    12.0095     0.0000    92.0000 </r>
       <r>    12.1631     0.0000    92.0000 </r>
       <r>    12.3168     0.0000    92.0000 </r>
       <r>    12.4704     0.0000    92.0000 </r>
       <r>    12.6241     0.0000    92.0000 </r>
       <r>    12.7777     0.0000    92.0000 </r>
       <r>    12.9314     0.0000    92.0000 </r>
      </set>
     </set>
    </array>
   </total>
  </dos>
 </calculation>
 <structure name="finalpos" >
  <crystal>
   <varray name="basis" >
    <v>       5.65685425       0.00000000       0.00000000 </v>
    <v>       0.00000000       8.00000000       0.00000000 </v>
    <v>       0.00000000       0.00000000       5.65685425 </v>
   </varray>
   <i name="volume">    256.00000000 </i>
   <varray name="rec_basis" >
    <v>       0.17677670       0.00000000       0.00000000 </v>
    <v>       0.00000000       0.12500000       0.00000000 </v>
    <v>       0.00000000       0.00000000       0.17677670 </v>
   </varray>
  </crystal>
  <varray name="positions" >
   <v>       0.25000000       0.75000000       0.25000000 </v>
   <v>       0.25000000       0.25000000       0.25000000 </v>
   <v>       0.75000000       0.75000000       0.75000000 </v>
   <v>       0.75000000       0.25000000       0.75000000 </v>
   <v>       0.75000000       0.00000000       0.25000000 </v>
   <v>       0.75000000       0.50000000       0.25000000 </v>
   <v>       0.25000000       0.00000000       0.75000000 </v>
   <v>       0.25000000       0.50000000       0.75000000 </v>
   <v>       0.50000000       0.50000000       0.00000000 </v>
   <v>       0.00000000       0.00000000       0.50000000 </v>
   <v>       0.50000000       0.50000000       0.50000000 </v>
   <v>       0.00000000       0.00000000       0.00000000 </v>
   <v>       0.00000000       0.50000000       0.00000000 </v>
   <v>       0.75000000       0.75000000       0.25000000 </v>
   <v>       0.75000000       0.25000000       0.25000000 </v>
   <v>       0.25000000       0.75000000       0.75000000 </v>
   <v>       0.25000000       0.25000000       0.75000000 </v>
  </varray>
 </structure>
</modeling>
