<?xml version="1.0" encoding="ISO-8859-1"?>
<modeling>
 <generator>
  <i name="program" type="string">vasp </i>
  <i name="version" type="string">5.3.5  </i>
  <i name="subversion" type="string">31Mar14 (build Jun 20 2014 13:15:13) complex                          parallel </i>
  <i name="platform" type="string">LinuxIFC </i>
  <i name="date" type="string">2025 11 21 </i>
  <i name="time" type="string">12:22:02 </i>
 </generator>
 <incar>
  <i type="string" name="PREC">accurate</i>
  <i type="int" name="IALGO">    68</i>
  <i type="logical" name="ADDGRID"> T  </i>
  <i type="int" name="NELM">   100</i>
  <i type="int" name="NELMIN">     4</i>
  <i type="int" name="IBRION">     2</i>
  <i name="EDIFF">      0.00000100</i>
  <i name="EDIFFG">     -0.02000000</i>
  <i type="int" name="NSW">    30</i>
  <i type="int" name="ISIF">     3</i>
  <i name="ENCUT">    500.00000000</i>
  <i type="logical" name="LREAL"> F  </i>
  <i type="int" name="ISMEAR">     1</i>
  <i name="SIGMA">      0.30000000</i>
  <i type="logical" name="LWAVE"> F  </i>
  <i type="logical" name="LCHARG"> F  </i>
  <i type="int" name="NELM">   100</i>
 </incar>
 <kpoints>
  <generation param="Auto">
   <i name="subdivisionlength">     70.00000000 </i>
   <v type="int" name="divisions">      24       14       10 </v>
   <v name="usershift">      0.00000000       0.00000000       0.00000000 </v>
   <v name="genvec1">      0.04166667       0.00000000       0.00000000 </v>
   <v name="genvec2">      0.00000000       0.07142857       0.00000000 </v>
   <v name="genvec3">      0.00000000       0.00000000       0.10000000 </v>
   <v name="shift">      0.00000000       0.00000000       0.00000000 </v>
  </generation>
  <varray name="kpointlist" >
   <v>       0.00000000       0.00000000       0.00000000 </v>
   <v>       0.04166667       0.00000000       0.00000000 </v>
   <v>       0.08333333       0.00000000       0.00000000 </v>
   <v>       0.12500000       0.00000000       0.00000000 </v>
   <v>       0.16666667       0.00000000       0.00000000 </v>
   <v>       0.20833333       0.00000000       0.00000000 </v>
   <v>       0.25000000       0.00000000       0.00000000 </v>
   <v>       0.29166667       0.00000000       0.00000000 </v>
   <v>       0.33333333       0.00000000       0.00000000 </v>
   <v>       0.37500000       0.00000000       0.00000000 </v>
   <v>       0.41666667       0.00000000       0.00000000 </v>
   <v>       0.45833333       0.00000000       0.00000000 </v>
   <v>       0.50000000       0.00000000       0.00000000 </v>
   <v>       0.00000000       0.07142857       0.00000000 </v>
   <v>       0.04166667       0.07142857       0.00000000 </v>
   <v>       0.08333333       0.07142857       0.00000000 </v>
   <v>       0.12500000       0.07142857       0.00000000 </v>
   <v>       0.16666667       0.07142857       0.00000000 </v>
   <v>       0.20833333       0.07142857       0.00000000 </v>
   <v>       0.25000000       0.07142857       0.00000000 </v>
   <v>       0.29166667       0.07142857       0.00000000 </v>
   <v>       0.33333333       0.07142857       0.00000000 </v>
   <v>       0.37500000       0.07142857       0.00000000 </v>
   <v>       0.41666667       0.07142857       0.00000000 </v>
   <v>       0.45833333       0.07142857       0.00000000 </v>
   <v>       0.50000000       0.07142857       0.00000000 </v>
   <v>       0.00000000       0.14285714       0.00000000 </v>
   <v>       0.04166667       0.14285714       0.00000000 </v>
   <v>       0.08333333       0.14285714       0.00000000 </v>
   <v>       0.12500000       0.14285714       0.00000000 </v>
   <v>       0.16666667       0.14285714       0.00000000 </v>
   <v>       0.20833333       0.14285714       0.00000000 </v>
   <v>       0.25000000       0.14285714       0.00000000 </v>
   <v>       0.29166667       0.14285714       0.00000000 </v>
   <v>       0.33333333       0.14285714       0.00000000 </v>
   <v>       0.37500000       0.14285714       0.00000000 </v>
   <v>       0.41666667       0.14285714       0.00000000 </v>
   <v>       0.45833333       0.14285714       0.00000000 </v>
   <v>       0.50000000       0.14285714       0.00000000 </v>
   <v>       0.00000000       0.21428571       0.00000000 </v>
   <v>       0.04166667       0.21428571       0.00000000 </v>
   <v>       0.08333333       0.21428571       0.00000000 </v>
   <v>       0.12500000       0.21428571       0.00000000 </v>
   <v>       0.16666667       0.21428571       0.00000000 </v>
   <v>       0.20833333       0.21428571       0.00000000 </v>
   <v>       0.25000000       0.21428571       0.00000000 </v>
   <v>       0.29166667       0.21428571       0.00000000 </v>
   <v>       0.33333333       0.21428571       0.00000000 </v>
   <v>       0.37500000       0.21428571       0.00000000 </v>
   <v>       0.41666667       0.21428571       0.00000000 </v>
   <v>       0.45833333       0.21428571       0.00000000 </v>
   <v>       0.50000000       0.21428571       0.00000000 </v>
   <v>       0.00000000       0.28571429       0.00000000 </v>
   <v>       0.04166667       0.28571429       0.00000000 </v>
   <v>       0.08333333       0.28571429       0.00000000 </v>
   <v>       0.12500000       0.28571429       0.00000000 </v>
   <v>       0.16666667       0.28571429       0.00000000 </v>
   <v>       0.20833333       0.28571429       0.00000000 </v>
   <v>       0.25000000       0.28571429       0.00000000 </v>
   <v>       0.29166667       0.28571429       0.00000000 </v>
   <v>       0.33333333       0.28571429       0.00000000 </v>
   <v>       0.37500000       0.28571429       0.00000000 </v>
   <v>       0.41666667       0.28571429       0.00000000 </v>
   <v>       0.45833333       0.28571429       0.00000000 </v>
   <v>       0.50000000       0.28571429       0.00000000 </v>
   <v>       0.00000000       0.35714286       0.00000000 </v>
   <v>       0.04166667       0.35714286       0.00000000 </v>
   <v>       0.08333333       0.35714286       0.00000000 </v>
   <v>       0.12500000       0.35714286       0.00000000 </v>
   <v>       0.16666667       0.35714286       0.00000000 </v>
   <v>       0.20833333       0.35714286       0.00000000 </v>
   <v>       0.25000000       0.35714286       0.00000000 </v>
   <v>       0.29166667       0.35714286       0.00000000 </v>
   <v>       0.33333333       0.35714286       0.00000000 </v>
   <v>       0.37500000       0.35714286       0.00000000 </v>
   <v>       0.41666667       0.35714286       0.00000000 </v>
   <v>       0.45833333       0.35714286       0.00000000 </v>
   <v>       0.50000000       0.35714286       0.00000000 </v>
   <v>       0.00000000       0.42857143       0.00000000 </v>
   <v>       0.04166667       0.42857143       0.00000000 </v>
   <v>       0.08333333       0.42857143       0.00000000 </v>
   <v>       0.12500000       0.42857143       0.00000000 </v>
   <v>       0.16666667       0.42857143       0.00000000 </v>
   <v>       0.20833333       0.42857143       0.00000000 </v>
   <v>       0.25000000       0.42857143       0.00000000 </v>
   <v>       0.29166667       0.42857143       0.00000000 </v>
   <v>       0.33333333       0.42857143       0.00000000 </v>
   <v>       0.37500000       0.42857143       0.00000000 </v>
   <v>       0.41666667       0.42857143       0.00000000 </v>
   <v>       0.45833333       0.42857143       0.00000000 </v>
   <v>       0.50000000       0.42857143       0.00000000 </v>
   <v>       0.00000000       0.50000000       0.00000000 </v>
   <v>       0.04166667       0.50000000       0.00000000 </v>
   <v>       0.08333333       0.50000000       0.00000000 </v>
   <v>       0.12500000       0.50000000       0.00000000 </v>
   <v>       0.16666667       0.50000000       0.00000000 </v>
   <v>       0.20833333       0.50000000       0.00000000 </v>
   <v>       0.25000000       0.50000000       0.00000000 </v>
   <v>       0.29166667       0.50000000       0.00000000 </v>
   <v>       0.33333333       0.50000000       0.00000000 </v>
   <v>       0.37500000       0.50000000       0.00000000 </v>
   <v>       0.41666667       0.50000000       0.00000000 </v>
   <v>       0.45833333       0.50000000       0.00000000 </v>
   <v>       0.50000000       0.50000000       0.00000000 </v>
   <v>       0.00000000       0.00000000       0.10000000 </v>
   <v>       0.04166667       0.00000000       0.10000000 </v>
   <v>       0.08333333       0.00000000       0.10000000 </v>
   <v>       0.12500000       0.00000000       0.10000000 </v>
   <v>       0.16666667       0.00000000       0.10000000 </v>
   <v>       0.20833333       0.00000000       0.10000000 </v>
   <v>       0.25000000       0.00000000       0.10000000 </v>
   <v>       0.29166667       0.00000000       0.10000000 </v>
   <v>       0.33333333       0.00000000       0.10000000 </v>
   <v>       0.37500000       0.00000000       0.10000000 </v>
   <v>       0.41666667       0.00000000       0.10000000 </v>
   <v>       0.45833333       0.00000000       0.10000000 </v>
   <v>       0.50000000       0.00000000       0.10000000 </v>
   <v>       0.00000000       0.07142857       0.10000000 </v>
   <v>       0.04166667       0.07142857       0.10000000 </v>
   <v>       0.08333333       0.07142857       0.10000000 </v>
   <v>       0.12500000       0.07142857       0.10000000 </v>
   <v>       0.16666667       0.07142857       0.10000000 </v>
   <v>       0.20833333       0.07142857       0.10000000 </v>
   <v>       0.25000000       0.07142857       0.10000000 </v>
   <v>       0.29166667       0.07142857       0.10000000 </v>
   <v>       0.33333333       0.07142857       0.10000000 </v>
   <v>       0.37500000       0.07142857       0.10000000 </v>
   <v>       0.41666667       0.07142857       0.10000000 </v>
   <v>       0.45833333       0.07142857       0.10000000 </v>
   <v>       0.50000000       0.07142857       0.10000000 </v>
   <v>       0.00000000       0.14285714       0.10000000 </v>
   <v>       0.04166667       0.14285714       0.10000000 </v>
   <v>       0.08333333       0.14285714       0.10000000 </v>
   <v>       0.12500000       0.14285714       0.10000000 </v>
   <v>       0.16666667       0.14285714       0.10000000 </v>
   <v>       0.20833333       0.14285714       0.10000000 </v>
   <v>       0.25000000       0.14285714       0.10000000 </v>
   <v>       0.29166667       0.14285714       0.10000000 </v>
   <v>       0.33333333       0.14285714       0.10000000 </v>
   <v>       0.37500000       0.14285714       0.10000000 </v>
   <v>       0.41666667       0.14285714       0.10000000 </v>
   <v>       0.45833333       0.14285714       0.10000000 </v>
   <v>       0.50000000       0.14285714       0.10000000 </v>
   <v>       0.00000000       0.21428571       0.10000000 </v>
   <v>       0.04166667       0.21428571       0.10000000 </v>
   <v>       0.08333333       0.21428571       0.10000000 </v>
   <v>       0.12500000       0.21428571       0.10000000 </v>
   <v>       0.16666667       0.21428571       0.10000000 </v>
   <v>       0.20833333       0.21428571       0.10000000 </v>
   <v>       0.25000000       0.21428571       0.10000000 </v>
   <v>       0.29166667       0.21428571       0.10000000 </v>
   <v>       0.33333333       0.21428571       0.10000000 </v>
   <v>       0.37500000       0.21428571       0.10000000 </v>
   <v>       0.41666667       0.21428571       0.10000000 </v>
   <v>       0.45833333       0.21428571       0.10000000 </v>
   <v>       0.50000000       0.21428571       0.10000000 </v>
   <v>       0.00000000       0.28571429       0.10000000 </v>
   <v>       0.04166667       0.28571429       0.10000000 </v>
   <v>       0.08333333       0.28571429       0.10000000 </v>
   <v>       0.12500000       0.28571429       0.10000000 </v>
   <v>       0.16666667       0.28571429       0.10000000 </v>
   <v>       0.20833333       0.28571429       0.10000000 </v>
   <v>       0.25000000       0.28571429       0.10000000 </v>
   <v>       0.29166667       0.28571429       0.10000000 </v>
   <v>       0.33333333       0.28571429       0.10000000 </v>
   <v>       0.37500000       0.28571429       0.10000000 </v>
   <v>       0.41666667       0.28571429       0.10000000 </v>
   <v>       0.45833333       0.28571429       0.10000000 </v>
   <v>       0.50000000       0.28571429       0.10000000 </v>
   <v>       0.00000000       0.35714286       0.10000000 </v>
   <v>       0.04166667       0.35714286       0.10000000 </v>
   <v>       0.08333333       0.35714286       0.10000000 </v>
   <v>       0.12500000       0.35714286       0.10000000 </v>
   <v>       0.16666667       0.35714286       0.10000000 </v>
   <v>       0.20833333       0.35714286       0.10000000 </v>
   <v>       0.25000000       0.35714286       0.10000000 </v>
   <v>       0.29166667       0.35714286       0.10000000 </v>
   <v>       0.33333333       0.35714286       0.10000000 </v>
   <v>       0.37500000       0.35714286       0.10000000 </v>
   <v>       0.41666667       0.35714286       0.10000000 </v>
   <v>       0.45833333       0.35714286       0.10000000 </v>
   <v>       0.50000000       0.35714286       0.10000000 </v>
   <v>       0.00000000       0.42857143       0.10000000 </v>
   <v>       0.04166667       0.42857143       0.10000000 </v>
   <v>       0.08333333       0.42857143       0.10000000 </v>
   <v>       0.12500000       0.42857143       0.10000000 </v>
   <v>       0.16666667       0.42857143       0.10000000 </v>
   <v>       0.20833333       0.42857143       0.10000000 </v>
   <v>       0.25000000       0.42857143       0.10000000 </v>
   <v>       0.29166667       0.42857143       0.10000000 </v>
   <v>       0.33333333       0.42857143       0.10000000 </v>
   <v>       0.37500000       0.42857143       0.10000000 </v>
   <v>       0.41666667       0.42857143       0.10000000 </v>
   <v>       0.45833333       0.42857143       0.10000000 </v>
   <v>       0.50000000       0.42857143       0.10000000 </v>
   <v>       0.00000000       0.50000000       0.10000000 </v>
   <v>       0.04166667       0.50000000       0.10000000 </v>
   <v>       0.08333333       0.50000000       0.10000000 </v>
   <v>       0.12500000       0.50000000       0.10000000 </v>
   <v>       0.16666667       0.50000000       0.10000000 </v>
   <v>       0.20833333       0.50000000       0.10000000 </v>
   <v>       0.25000000       0.50000000       0.10000000 </v>
   <v>       0.29166667       0.50000000       0.10000000 </v>
   <v>       0.33333333       0.50000000       0.10000000 </v>
   <v>       0.37500000       0.50000000       0.10000000 </v>
   <v>       0.41666667       0.50000000       0.10000000 </v>
   <v>       0.45833333       0.50000000       0.10000000 </v>
   <v>       0.50000000       0.50000000       0.10000000 </v>
   <v>       0.00000000      -0.42857143       0.10000000 </v>
   <v>       0.04166667      -0.42857143       0.10000000 </v>
   <v>       0.08333333      -0.42857143       0.10000000 </v>
   <v>       0.12500000      -0.42857143       0.10000000 </v>
   <v>       0.16666667      -0.42857143       0.10000000 </v>
   <v>       0.20833333      -0.42857143       0.10000000 </v>
   <v>       0.25000000      -0.42857143       0.10000000 </v>
   <v>       0.29166667      -0.42857143       0.10000000 </v>
   <v>       0.33333333      -0.42857143       0.10000000 </v>
   <v>       0.37500000      -0.42857143       0.10000000 </v>
   <v>       0.41666667      -0.42857143       0.10000000 </v>
   <v>       0.45833333      -0.42857143       0.10000000 </v>
   <v>       0.50000000      -0.42857143       0.10000000 </v>
   <v>       0.00000000      -0.35714286       0.10000000 </v>
   <v>       0.04166667      -0.35714286       0.10000000 </v>
   <v>       0.08333333      -0.35714286       0.10000000 </v>
   <v>       0.12500000      -0.35714286       0.10000000 </v>
   <v>       0.16666667      -0.35714286       0.10000000 </v>
   <v>       0.20833333      -0.35714286       0.10000000 </v>
   <v>       0.25000000      -0.35714286       0.10000000 </v>
   <v>       0.29166667      -0.35714286       0.10000000 </v>
   <v>       0.33333333      -0.35714286       0.10000000 </v>
   <v>       0.37500000      -0.35714286       0.10000000 </v>
   <v>       0.41666667      -0.35714286       0.10000000 </v>
   <v>       0.45833333      -0.35714286       0.10000000 </v>
   <v>       0.50000000      -0.35714286       0.10000000 </v>
   <v>       0.00000000      -0.28571429       0.10000000 </v>
   <v>       0.04166667      -0.28571429       0.10000000 </v>
   <v>       0.08333333      -0.28571429       0.10000000 </v>
   <v>       0.12500000      -0.28571429       0.10000000 </v>
   <v>       0.16666667      -0.28571429       0.10000000 </v>
   <v>       0.20833333      -0.28571429       0.10000000 </v>
   <v>       0.25000000      -0.28571429       0.10000000 </v>
   <v>       0.29166667      -0.28571429       0.10000000 </v>
   <v>       0.33333333      -0.28571429       0.10000000 </v>
   <v>       0.37500000      -0.28571429       0.10000000 </v>
   <v>       0.41666667      -0.28571429       0.10000000 </v>
   <v>       0.45833333      -0.28571429       0.10000000 </v>
   <v>       0.50000000      -0.28571429       0.10000000 </v>
   <v>       0.00000000      -0.21428571       0.10000000 </v>
   <v>       0.04166667      -0.21428571       0.10000000 </v>
   <v>       0.08333333      -0.21428571       0.10000000 </v>
   <v>       0.12500000      -0.21428571       0.10000000 </v>
   <v>       0.16666667      -0.21428571       0.10000000 </v>
   <v>       0.20833333      -0.21428571       0.10000000 </v>
   <v>       0.25000000      -0.21428571       0.10000000 </v>
   <v>       0.29166667      -0.21428571       0.10000000 </v>
   <v>       0.33333333      -0.21428571       0.10000000 </v>
   <v>       0.37500000      -0.21428571       0.10000000 </v>
   <v>       0.41666667      -0.21428571       0.10000000 </v>
   <v>       0.45833333      -0.21428571       0.10000000 </v>
   <v>       0.50000000      -0.21428571       0.10000000 </v>
   <v>       0.00000000      -0.14285714       0.10000000 </v>
   <v>       0.04166667      -0.14285714       0.10000000 </v>
   <v>       0.08333333      -0.14285714       0.10000000 </v>
   <v>       0.12500000      -0.14285714       0.10000000 </v>
   <v>       0.16666667      -0.14285714       0.10000000 </v>
   <v>       0.20833333      -0.14285714       0.10000000 </v>
   <v>       0.25000000      -0.14285714       0.10000000 </v>
   <v>       0.29166667      -0.14285714       0.10000000 </v>
   <v>       0.33333333      -0.14285714       0.10000000 </v>
   <v>       0.37500000      -0.14285714       0.10000000 </v>
   <v>       0.41666667      -0.14285714       0.10000000 </v>
   <v>       0.45833333      -0.14285714       0.10000000 </v>
   <v>       0.50000000      -0.14285714       0.10000000 </v>
   <v>       0.00000000      -0.07142857       0.10000000 </v>
   <v>       0.04166667      -0.07142857       0.10000000 </v>
   <v>       0.08333333      -0.07142857       0.10000000 </v>
   <v>       0.12500000      -0.07142857       0.10000000 </v>
   <v>       0.16666667      -0.07142857       0.10000000 </v>
   <v>       0.20833333      -0.07142857       0.10000000 </v>
   <v>       0.25000000      -0.07142857       0.10000000 </v>
   <v>       0.29166667      -0.07142857       0.10000000 </v>
   <v>       0.33333333      -0.07142857       0.10000000 </v>
   <v>       0.37500000      -0.07142857       0.10000000 </v>
   <v>       0.41666667      -0.07142857       0.10000000 </v>
   <v>       0.45833333      -0.07142857       0.10000000 </v>
   <v>       0.50000000      -0.07142857       0.10000000 </v>
   <v>       0.00000000       0.00000000       0.20000000 </v>
   <v>       0.04166667       0.00000000       0.20000000 </v>
   <v>       0.08333333       0.00000000       0.20000000 </v>
   <v>       0.12500000       0.00000000       0.20000000 </v>
   <v>       0.16666667       0.00000000       0.20000000 </v>
   <v>       0.20833333       0.00000000       0.20000000 </v>
   <v>       0.25000000       0.00000000       0.20000000 </v>
   <v>       0.29166667       0.00000000       0.20000000 </v>
   <v>       0.33333333       0.00000000       0.20000000 </v>
   <v>       0.37500000       0.00000000       0.20000000 </v>
   <v>       0.41666667       0.00000000       0.20000000 </v>
   <v>       0.45833333       0.00000000       0.20000000 </v>
   <v>       0.50000000       0.00000000       0.20000000 </v>
   <v>       0.00000000       0.07142857       0.20000000 </v>
   <v>       0.04166667       0.07142857       0.20000000 </v>
   <v>       0.08333333       0.07142857       0.20000000 </v>
   <v>       0.12500000       0.07142857       0.20000000 </v>
   <v>       0.16666667       0.07142857       0.20000000 </v>
   <v>       0.20833333       0.07142857       0.20000000 </v>
   <v>       0.25000000       0.07142857       0.20000000 </v>
   <v>       0.29166667       0.07142857       0.20000000 </v>
   <v>       0.33333333       0.07142857       0.20000000 </v>
   <v>       0.37500000       0.07142857       0.20000000 </v>
   <v>       0.41666667       0.07142857       0.20000000 </v>
   <v>       0.45833333       0.07142857       0.20000000 </v>
   <v>       0.50000000       0.07142857       0.20000000 </v>
   <v>       0.00000000       0.14285714       0.20000000 </v>
   <v>       0.04166667       0.14285714       0.20000000 </v>
   <v>       0.08333333       0.14285714       0.20000000 </v>
   <v>       0.12500000       0.14285714       0.20000000 </v>
   <v>       0.16666667       0.14285714       0.20000000 </v>
   <v>       0.20833333       0.14285714       0.20000000 </v>
   <v>       0.25000000       0.14285714       0.20000000 </v>
   <v>       0.29166667       0.14285714       0.20000000 </v>
   <v>       0.33333333       0.14285714       0.20000000 </v>
   <v>       0.37500000       0.14285714       0.20000000 </v>
   <v>       0.41666667       0.14285714       0.20000000 </v>
   <v>       0.45833333       0.14285714       0.20000000 </v>
   <v>       0.50000000       0.14285714       0.20000000 </v>
   <v>       0.00000000       0.21428571       0.20000000 </v>
   <v>       0.04166667       0.21428571       0.20000000 </v>
   <v>       0.08333333       0.21428571       0.20000000 </v>
   <v>       0.12500000       0.21428571       0.20000000 </v>
   <v>       0.16666667       0.21428571       0.20000000 </v>
   <v>       0.20833333       0.21428571       0.20000000 </v>
   <v>       0.25000000       0.21428571       0.20000000 </v>
   <v>       0.29166667       0.21428571       0.20000000 </v>
   <v>       0.33333333       0.21428571       0.20000000 </v>
   <v>       0.37500000       0.21428571       0.20000000 </v>
   <v>       0.41666667       0.21428571       0.20000000 </v>
   <v>       0.45833333       0.21428571       0.20000000 </v>
   <v>       0.50000000       0.21428571       0.20000000 </v>
   <v>       0.00000000       0.28571429       0.20000000 </v>
   <v>       0.04166667       0.28571429       0.20000000 </v>
   <v>       0.08333333       0.28571429       0.20000000 </v>
   <v>       0.12500000       0.28571429       0.20000000 </v>
   <v>       0.16666667       0.28571429       0.20000000 </v>
   <v>       0.20833333       0.28571429       0.20000000 </v>
   <v>       0.25000000       0.28571429       0.20000000 </v>
   <v>       0.29166667       0.28571429       0.20000000 </v>
   <v>       0.33333333       0.28571429       0.20000000 </v>
   <v>       0.37500000       0.28571429       0.20000000 </v>
   <v>       0.41666667       0.28571429       0.20000000 </v>
   <v>       0.45833333       0.28571429       0.20000000 </v>
   <v>       0.50000000       0.28571429       0.20000000 </v>
   <v>       0.00000000       0.35714286       0.20000000 </v>
   <v>       0.04166667       0.35714286       0.20000000 </v>
   <v>       0.08333333       0.35714286       0.20000000 </v>
   <v>       0.12500000       0.35714286       0.20000000 </v>
   <v>       0.16666667       0.35714286       0.20000000 </v>
   <v>       0.20833333       0.35714286       0.20000000 </v>
   <v>       0.25000000       0.35714286       0.20000000 </v>
   <v>       0.29166667       0.35714286       0.20000000 </v>
   <v>       0.33333333       0.35714286       0.20000000 </v>
   <v>       0.37500000       0.35714286       0.20000000 </v>
   <v>       0.41666667       0.35714286       0.20000000 </v>
   <v>       0.45833333       0.35714286       0.20000000 </v>
   <v>       0.50000000       0.35714286       0.20000000 </v>
   <v>       0.00000000       0.42857143       0.20000000 </v>
   <v>       0.04166667       0.42857143       0.20000000 </v>
   <v>       0.08333333       0.42857143       0.20000000 </v>
   <v>       0.12500000       0.42857143       0.20000000 </v>
   <v>       0.16666667       0.42857143       0.20000000 </v>
   <v>       0.20833333       0.42857143       0.20000000 </v>
   <v>       0.25000000       0.42857143       0.20000000 </v>
   <v>       0.29166667       0.42857143       0.20000000 </v>
   <v>       0.33333333       0.42857143       0.20000000 </v>
   <v>       0.37500000       0.42857143       0.20000000 </v>
   <v>       0.41666667       0.42857143       0.20000000 </v>
   <v>       0.45833333       0.42857143       0.20000000 </v>
   <v>       0.50000000       0.42857143       0.20000000 </v>
   <v>       0.00000000       0.50000000       0.20000000 </v>
   <v>       0.04166667       0.50000000       0.20000000 </v>
   <v>       0.08333333       0.50000000       0.20000000 </v>
   <v>       0.12500000       0.50000000       0.20000000 </v>
   <v>       0.16666667       0.50000000       0.20000000 </v>
   <v>       0.20833333       0.50000000       0.20000000 </v>
   <v>       0.25000000       0.50000000       0.20000000 </v>
   <v>       0.29166667       0.50000000       0.20000000 </v>
   <v>       0.33333333       0.50000000       0.20000000 </v>
   <v>       0.37500000       0.50000000       0.20000000 </v>
   <v>       0.41666667       0.50000000       0.20000000 </v>
   <v>       0.45833333       0.50000000       0.20000000 </v>
   <v>       0.50000000       0.50000000       0.20000000 </v>
   <v>       0.00000000      -0.42857143       0.20000000 </v>
   <v>       0.04166667      -0.42857143       0.20000000 </v>
   <v>       0.08333333      -0.42857143       0.20000000 </v>
   <v>       0.12500000      -0.42857143       0.20000000 </v>
   <v>       0.16666667      -0.42857143       0.20000000 </v>
   <v>       0.20833333      -0.42857143       0.20000000 </v>
   <v>       0.25000000      -0.42857143       0.20000000 </v>
   <v>       0.29166667      -0.42857143       0.20000000 </v>
   <v>       0.33333333      -0.42857143       0.20000000 </v>
   <v>       0.37500000      -0.42857143       0.20000000 </v>
   <v>       0.41666667      -0.42857143       0.20000000 </v>
   <v>       0.45833333      -0.42857143       0.20000000 </v>
   <v>       0.50000000      -0.42857143       0.20000000 </v>
   <v>       0.00000000      -0.35714286       0.20000000 </v>
   <v>       0.04166667      -0.35714286       0.20000000 </v>
   <v>       0.08333333      -0.35714286       0.20000000 </v>
   <v>       0.12500000      -0.35714286       0.20000000 </v>
   <v>       0.16666667      -0.35714286       0.20000000 </v>
   <v>       0.20833333      -0.35714286       0.20000000 </v>
   <v>       0.25000000      -0.35714286       0.20000000 </v>
   <v>       0.29166667      -0.35714286       0.20000000 </v>
   <v>       0.33333333      -0.35714286       0.20000000 </v>
   <v>       0.37500000      -0.35714286       0.20000000 </v>
   <v>       0.41666667      -0.35714286       0.20000000 </v>
   <v>       0.45833333      -0.35714286       0.20000000 </v>
   <v>       0.50000000      -0.35714286       0.20000000 </v>
   <v>       0.00000000      -0.28571429       0.20000000 </v>
   <v>       0.04166667      -0.28571429       0.20000000 </v>
   <v>       0.08333333      -0.28571429       0.20000000 </v>
   <v>       0.12500000      -0.28571429       0.20000000 </v>
   <v>       0.16666667      -0.28571429       0.20000000 </v>
   <v>       0.20833333      -0.28571429       0.20000000 </v>
   <v>       0.25000000      -0.28571429       0.20000000 </v>
   <v>       0.29166667      -0.28571429       0.20000000 </v>
   <v>       0.33333333      -0.28571429       0.20000000 </v>
   <v>       0.37500000      -0.28571429       0.20000000 </v>
   <v>       0.41666667      -0.28571429       0.20000000 </v>
   <v>       0.45833333      -0.28571429       0.20000000 </v>
   <v>       0.50000000      -0.28571429       0.20000000 </v>
   <v>       0.00000000      -0.21428571       0.20000000 </v>
   <v>       0.04166667      -0.21428571       0.20000000 </v>
   <v>       0.08333333      -0.21428571       0.20000000 </v>
   <v>       0.12500000      -0.21428571       0.20000000 </v>
   <v>       0.16666667      -0.21428571       0.20000000 </v>
   <v>       0.20833333      -0.21428571       0.20000000 </v>
   <v>       0.25000000      -0.21428571       0.20000000 </v>
   <v>       0.29166667      -0.21428571       0.20000000 </v>
   <v>       0.33333333      -0.21428571       0.20000000 </v>
   <v>       0.37500000      -0.21428571       0.20000000 </v>
   <v>       0.41666667      -0.21428571       0.20000000 </v>
   <v>       0.45833333      -0.21428571       0.20000000 </v>
   <v>       0.50000000      -0.21428571       0.20000000 </v>
   <v>       0.00000000      -0.14285714       0.20000000 </v>
   <v>       0.04166667      -0.14285714       0.20000000 </v>
   <v>       0.08333333      -0.14285714       0.20000000 </v>
   <v>       0.12500000      -0.14285714       0.20000000 </v>
   <v>       0.16666667      -0.14285714       0.20000000 </v>
   <v>       0.20833333      -0.14285714       0.20000000 </v>
   <v>       0.25000000      -0.14285714       0.20000000 </v>
   <v>       0.29166667      -0.14285714       0.20000000 </v>
   <v>       0.33333333      -0.14285714       0.20000000 </v>
   <v>       0.37500000      -0.14285714       0.20000000 </v>
   <v>       0.41666667      -0.14285714       0.20000000 </v>
   <v>       0.45833333      -0.14285714       0.20000000 </v>
   <v>       0.50000000      -0.14285714       0.20000000 </v>
   <v>       0.00000000      -0.07142857       0.20000000 </v>
   <v>       0.04166667      -0.07142857       0.20000000 </v>
   <v>       0.08333333      -0.07142857       0.20000000 </v>
   <v>       0.12500000      -0.07142857       0.20000000 </v>
   <v>       0.16666667      -0.07142857       0.20000000 </v>
   <v>       0.20833333      -0.07142857       0.20000000 </v>
   <v>       0.25000000      -0.07142857       0.20000000 </v>
   <v>       0.29166667      -0.07142857       0.20000000 </v>
   <v>       0.33333333      -0.07142857       0.20000000 </v>
   <v>       0.37500000      -0.07142857       0.20000000 </v>
   <v>       0.41666667      -0.07142857       0.20000000 </v>
   <v>       0.45833333      -0.07142857       0.20000000 </v>
   <v>       0.50000000      -0.07142857       0.20000000 </v>
   <v>       0.00000000       0.00000000       0.30000000 </v>
   <v>       0.04166667       0.00000000       0.30000000 </v>
   <v>       0.08333333       0.00000000       0.30000000 </v>
   <v>       0.12500000       0.00000000       0.30000000 </v>
   <v>       0.16666667       0.00000000       0.30000000 </v>
   <v>       0.20833333       0.00000000       0.30000000 </v>
   <v>       0.25000000       0.00000000       0.30000000 </v>
   <v>       0.29166667       0.00000000       0.30000000 </v>
   <v>       0.33333333       0.00000000       0.30000000 </v>
   <v>       0.37500000       0.00000000       0.30000000 </v>
   <v>       0.41666667       0.00000000       0.30000000 </v>
   <v>       0.45833333       0.00000000       0.30000000 </v>
   <v>       0.50000000       0.00000000       0.30000000 </v>
   <v>       0.00000000       0.07142857       0.30000000 </v>
   <v>       0.04166667       0.07142857       0.30000000 </v>
   <v>       0.08333333       0.07142857       0.30000000 </v>
   <v>       0.12500000       0.07142857       0.30000000 </v>
   <v>       0.16666667       0.07142857       0.30000000 </v>
   <v>       0.20833333       0.07142857       0.30000000 </v>
   <v>       0.25000000       0.07142857       0.30000000 </v>
   <v>       0.29166667       0.07142857       0.30000000 </v>
   <v>       0.33333333       0.07142857       0.30000000 </v>
   <v>       0.37500000       0.07142857       0.30000000 </v>
   <v>       0.41666667       0.07142857       0.30000000 </v>
   <v>       0.45833333       0.07142857       0.30000000 </v>
   <v>       0.50000000       0.07142857       0.30000000 </v>
   <v>       0.00000000       0.14285714       0.30000000 </v>
   <v>       0.04166667       0.14285714       0.30000000 </v>
   <v>       0.08333333       0.14285714       0.30000000 </v>
   <v>       0.12500000       0.14285714       0.30000000 </v>
   <v>       0.16666667       0.14285714       0.30000000 </v>
   <v>       0.20833333       0.14285714       0.30000000 </v>
   <v>       0.25000000       0.14285714       0.30000000 </v>
   <v>       0.29166667       0.14285714       0.30000000 </v>
   <v>       0.33333333       0.14285714       0.30000000 </v>
   <v>       0.37500000       0.14285714       0.30000000 </v>
   <v>       0.41666667       0.14285714       0.30000000 </v>
   <v>       0.45833333       0.14285714       0.30000000 </v>
   <v>       0.50000000       0.14285714       0.30000000 </v>
   <v>       0.00000000       0.21428571       0.30000000 </v>
   <v>       0.04166667       0.21428571       0.30000000 </v>
   <v>       0.08333333       0.21428571       0.30000000 </v>
   <v>       0.12500000       0.21428571       0.30000000 </v>
   <v>       0.16666667       0.21428571       0.30000000 </v>
   <v>       0.20833333       0.21428571       0.30000000 </v>
   <v>       0.25000000       0.21428571       0.30000000 </v>
   <v>       0.29166667       0.21428571       0.30000000 </v>
   <v>       0.33333333       0.21428571       0.30000000 </v>
   <v>       0.37500000       0.21428571       0.30000000 </v>
   <v>       0.41666667       0.21428571       0.30000000 </v>
   <v>       0.45833333       0.21428571       0.30000000 </v>
   <v>       0.50000000       0.21428571       0.30000000 </v>
   <v>       0.00000000       0.28571429       0.30000000 </v>
   <v>       0.04166667       0.28571429       0.30000000 </v>
   <v>       0.08333333       0.28571429       0.30000000 </v>
   <v>       0.12500000       0.28571429       0.30000000 </v>
   <v>       0.16666667       0.28571429       0.30000000 </v>
   <v>       0.20833333       0.28571429       0.30000000 </v>
   <v>       0.25000000       0.28571429       0.30000000 </v>
   <v>       0.29166667       0.28571429       0.30000000 </v>
   <v>       0.33333333       0.28571429       0.30000000 </v>
   <v>       0.37500000       0.28571429       0.30000000 </v>
   <v>       0.41666667       0.28571429       0.30000000 </v>
   <v>       0.45833333       0.28571429       0.30000000 </v>
   <v>       0.50000000       0.28571429       0.30000000 </v>
   <v>       0.00000000       0.35714286       0.30000000 </v>
   <v>       0.04166667       0.35714286       0.30000000 </v>
   <v>       0.08333333       0.35714286       0.30000000 </v>
   <v>       0.12500000       0.35714286       0.30000000 </v>
   <v>       0.16666667       0.35714286       0.30000000 </v>
   <v>       0.20833333       0.35714286       0.30000000 </v>
   <v>       0.25000000       0.35714286       0.30000000 </v>
   <v>       0.29166667       0.35714286       0.30000000 </v>
   <v>       0.33333333       0.35714286       0.30000000 </v>
   <v>       0.37500000       0.35714286       0.30000000 </v>
   <v>       0.41666667       0.35714286       0.30000000 </v>
   <v>       0.45833333       0.35714286       0.30000000 </v>
   <v>       0.50000000       0.35714286       0.30000000 </v>
   <v>       0.00000000       0.42857143       0.30000000 </v>
   <v>       0.04166667       0.42857143       0.30000000 </v>
   <v>       0.08333333       0.42857143       0.30000000 </v>
   <v>       0.12500000       0.42857143       0.30000000 </v>
   <v>       0.16666667       0.42857143       0.30000000 </v>
   <v>       0.20833333       0.42857143       0.30000000 </v>
   <v>       0.25000000       0.42857143       0.30000000 </v>
   <v>       0.29166667       0.42857143       0.30000000 </v>
   <v>       0.33333333       0.42857143       0.30000000 </v>
   <v>       0.37500000       0.42857143       0.30000000 </v>
   <v>       0.41666667       0.42857143       0.30000000 </v>
   <v>       0.45833333       0.42857143       0.30000000 </v>
   <v>       0.50000000       0.42857143       0.30000000 </v>
   <v>       0.00000000       0.50000000       0.30000000 </v>
   <v>       0.04166667       0.50000000       0.30000000 </v>
   <v>       0.08333333       0.50000000       0.30000000 </v>
   <v>       0.12500000       0.50000000       0.30000000 </v>
   <v>       0.16666667       0.50000000       0.30000000 </v>
   <v>       0.20833333       0.50000000       0.30000000 </v>
   <v>       0.25000000       0.50000000       0.30000000 </v>
   <v>       0.29166667       0.50000000       0.30000000 </v>
   <v>       0.33333333       0.50000000       0.30000000 </v>
   <v>       0.37500000       0.50000000       0.30000000 </v>
   <v>       0.41666667       0.50000000       0.30000000 </v>
   <v>       0.45833333       0.50000000       0.30000000 </v>
   <v>       0.50000000       0.50000000       0.30000000 </v>
   <v>       0.00000000      -0.42857143       0.30000000 </v>
   <v>       0.04166667      -0.42857143       0.30000000 </v>
   <v>       0.08333333      -0.42857143       0.30000000 </v>
   <v>       0.12500000      -0.42857143       0.30000000 </v>
   <v>       0.16666667      -0.42857143       0.30000000 </v>
   <v>       0.20833333      -0.42857143       0.30000000 </v>
   <v>       0.25000000      -0.42857143       0.30000000 </v>
   <v>       0.29166667      -0.42857143       0.30000000 </v>
   <v>       0.33333333      -0.42857143       0.30000000 </v>
   <v>       0.37500000      -0.42857143       0.30000000 </v>
   <v>       0.41666667      -0.42857143       0.30000000 </v>
   <v>       0.45833333      -0.42857143       0.30000000 </v>
   <v>       0.50000000      -0.42857143       0.30000000 </v>
   <v>       0.00000000      -0.35714286       0.30000000 </v>
   <v>       0.04166667      -0.35714286       0.30000000 </v>
   <v>       0.08333333      -0.35714286       0.30000000 </v>
   <v>       0.12500000      -0.35714286       0.30000000 </v>
   <v>       0.16666667      -0.35714286       0.30000000 </v>
   <v>       0.20833333      -0.35714286       0.30000000 </v>
   <v>       0.25000000      -0.35714286       0.30000000 </v>
   <v>       0.29166667      -0.35714286       0.30000000 </v>
   <v>       0.33333333      -0.35714286       0.30000000 </v>
   <v>       0.37500000      -0.35714286       0.30000000 </v>
   <v>       0.41666667      -0.35714286       0.30000000 </v>
   <v>       0.45833333      -0.35714286       0.30000000 </v>
   <v>       0.50000000      -0.35714286       0.30000000 </v>
   <v>       0.00000000      -0.28571429       0.30000000 </v>
   <v>       0.04166667      -0.28571429       0.30000000 </v>
   <v>       0.08333333      -0.28571429       0.30000000 </v>
   <v>       0.12500000      -0.28571429       0.30000000 </v>
   <v>       0.16666667      -0.28571429       0.30000000 </v>
   <v>       0.20833333      -0.28571429       0.30000000 </v>
   <v>       0.25000000      -0.28571429       0.30000000 </v>
   <v>       0.29166667      -0.28571429       0.30000000 </v>
   <v>       0.33333333      -0.28571429       0.30000000 </v>
   <v>       0.37500000      -0.28571429       0.30000000 </v>
   <v>       0.41666667      -0.28571429       0.30000000 </v>
   <v>       0.45833333      -0.28571429       0.30000000 </v>
   <v>       0.50000000      -0.28571429       0.30000000 </v>
   <v>       0.00000000      -0.21428571       0.30000000 </v>
   <v>       0.04166667      -0.21428571       0.30000000 </v>
   <v>       0.08333333      -0.21428571       0.30000000 </v>
   <v>       0.12500000      -0.21428571       0.30000000 </v>
   <v>       0.16666667      -0.21428571       0.30000000 </v>
   <v>       0.20833333      -0.21428571       0.30000000 </v>
   <v>       0.25000000      -0.21428571       0.30000000 </v>
   <v>       0.29166667      -0.21428571       0.30000000 </v>
   <v>       0.33333333      -0.21428571       0.30000000 </v>
   <v>       0.37500000      -0.21428571       0.30000000 </v>
   <v>       0.41666667      -0.21428571       0.30000000 </v>
   <v>       0.45833333      -0.21428571       0.30000000 </v>
   <v>       0.50000000      -0.21428571       0.30000000 </v>
   <v>       0.00000000      -0.14285714       0.30000000 </v>
   <v>       0.04166667      -0.14285714       0.30000000 </v>
   <v>       0.08333333      -0.14285714       0.30000000 </v>
   <v>       0.12500000      -0.14285714       0.30000000 </v>
   <v>       0.16666667      -0.14285714       0.30000000 </v>
   <v>       0.20833333      -0.14285714       0.30000000 </v>
   <v>       0.25000000      -0.14285714       0.30000000 </v>
   <v>       0.29166667      -0.14285714       0.30000000 </v>
   <v>       0.33333333      -0.14285714       0.30000000 </v>
   <v>       0.37500000      -0.14285714       0.30000000 </v>
   <v>       0.41666667      -0.14285714       0.30000000 </v>
   <v>       0.45833333      -0.14285714       0.30000000 </v>
   <v>       0.50000000      -0.14285714       0.30000000 </v>
   <v>       0.00000000      -0.07142857       0.30000000 </v>
   <v>       0.04166667      -0.07142857       0.30000000 </v>
   <v>       0.08333333      -0.07142857       0.30000000 </v>
   <v>       0.12500000      -0.07142857       0.30000000 </v>
   <v>       0.16666667      -0.07142857       0.30000000 </v>
   <v>       0.20833333      -0.07142857       0.30000000 </v>
   <v>       0.25000000      -0.07142857       0.30000000 </v>
   <v>       0.29166667      -0.07142857       0.30000000 </v>
   <v>       0.33333333      -0.07142857       0.30000000 </v>
   <v>       0.37500000      -0.07142857       0.30000000 </v>
   <v>       0.41666667      -0.07142857       0.30000000 </v>
   <v>       0.45833333      -0.07142857       0.30000000 </v>
   <v>       0.50000000      -0.07142857       0.30000000 </v>
   <v>       0.00000000       0.00000000       0.40000000 </v>
   <v>       0.04166667       0.00000000       0.40000000 </v>
   <v>       0.08333333       0.00000000       0.40000000 </v>
   <v>       0.12500000       0.00000000       0.40000000 </v>
   <v>       0.16666667       0.00000000       0.40000000 </v>
   <v>       0.20833333       0.00000000       0.40000000 </v>
   <v>       0.25000000       0.00000000       0.40000000 </v>
   <v>       0.29166667       0.00000000       0.40000000 </v>
   <v>       0.33333333       0.00000000       0.40000000 </v>
   <v>       0.37500000       0.00000000       0.40000000 </v>
   <v>       0.41666667       0.00000000       0.40000000 </v>
   <v>       0.45833333       0.00000000       0.40000000 </v>
   <v>       0.50000000       0.00000000       0.40000000 </v>
   <v>       0.00000000       0.07142857       0.40000000 </v>
   <v>       0.04166667       0.07142857       0.40000000 </v>
   <v>       0.08333333       0.07142857       0.40000000 </v>
   <v>       0.12500000       0.07142857       0.40000000 </v>
   <v>       0.16666667       0.07142857       0.40000000 </v>
   <v>       0.20833333       0.07142857       0.40000000 </v>
   <v>       0.25000000       0.07142857       0.40000000 </v>
   <v>       0.29166667       0.07142857       0.40000000 </v>
   <v>       0.33333333       0.07142857       0.40000000 </v>
   <v>       0.37500000       0.07142857       0.40000000 </v>
   <v>       0.41666667       0.07142857       0.40000000 </v>
   <v>       0.45833333       0.07142857       0.40000000 </v>
   <v>       0.50000000       0.07142857       0.40000000 </v>
   <v>       0.00000000       0.14285714       0.40000000 </v>
   <v>       0.04166667       0.14285714       0.40000000 </v>
   <v>       0.08333333       0.14285714       0.40000000 </v>
   <v>       0.12500000       0.14285714       0.40000000 </v>
   <v>       0.16666667       0.14285714       0.40000000 </v>
   <v>       0.20833333       0.14285714       0.40000000 </v>
   <v>       0.25000000       0.14285714       0.40000000 </v>
   <v>       0.29166667       0.14285714       0.40000000 </v>
   <v>       0.33333333       0.14285714       0.40000000 </v>
   <v>       0.37500000       0.14285714       0.40000000 </v>
   <v>       0.41666667       0.14285714       0.40000000 </v>
   <v>       0.45833333       0.14285714       0.40000000 </v>
   <v>       0.50000000       0.14285714       0.40000000 </v>
   <v>       0.00000000       0.21428571       0.40000000 </v>
   <v>       0.04166667       0.21428571       0.40000000 </v>
   <v>       0.08333333       0.21428571       0.40000000 </v>
   <v>       0.12500000       0.21428571       0.40000000 </v>
   <v>       0.16666667       0.21428571       0.40000000 </v>
   <v>       0.20833333       0.21428571       0.40000000 </v>
   <v>       0.25000000       0.21428571       0.40000000 </v>
   <v>       0.29166667       0.21428571       0.40000000 </v>
   <v>       0.33333333       0.21428571       0.40000000 </v>
   <v>       0.37500000       0.21428571       0.40000000 </v>
   <v>       0.41666667       0.21428571       0.40000000 </v>
   <v>       0.45833333       0.21428571       0.40000000 </v>
   <v>       0.50000000       0.21428571       0.40000000 </v>
   <v>       0.00000000       0.28571429       0.40000000 </v>
   <v>       0.04166667       0.28571429       0.40000000 </v>
   <v>       0.08333333       0.28571429       0.40000000 </v>
   <v>       0.12500000       0.28571429       0.40000000 </v>
   <v>       0.16666667       0.28571429       0.40000000 </v>
   <v>       0.20833333       0.28571429       0.40000000 </v>
   <v>       0.25000000       0.28571429       0.40000000 </v>
   <v>       0.29166667       0.28571429       0.40000000 </v>
   <v>       0.33333333       0.28571429       0.40000000 </v>
   <v>       0.37500000       0.28571429       0.40000000 </v>
   <v>       0.41666667       0.28571429       0.40000000 </v>
   <v>       0.45833333       0.28571429       0.40000000 </v>
   <v>       0.50000000       0.28571429       0.40000000 </v>
   <v>       0.00000000       0.35714286       0.40000000 </v>
   <v>       0.04166667       0.35714286       0.40000000 </v>
   <v>       0.08333333       0.35714286       0.40000000 </v>
   <v>       0.12500000       0.35714286       0.40000000 </v>
   <v>       0.16666667       0.35714286       0.40000000 </v>
   <v>       0.20833333       0.35714286       0.40000000 </v>
   <v>       0.25000000       0.35714286       0.40000000 </v>
   <v>       0.29166667       0.35714286       0.40000000 </v>
   <v>       0.33333333       0.35714286       0.40000000 </v>
   <v>       0.37500000       0.35714286       0.40000000 </v>
   <v>       0.41666667       0.35714286       0.40000000 </v>
   <v>       0.45833333       0.35714286       0.40000000 </v>
   <v>       0.50000000       0.35714286       0.40000000 </v>
   <v>       0.00000000       0.42857143       0.40000000 </v>
   <v>       0.04166667       0.42857143       0.40000000 </v>
   <v>       0.08333333       0.42857143       0.40000000 </v>
   <v>       0.12500000       0.42857143       0.40000000 </v>
   <v>       0.16666667       0.42857143       0.40000000 </v>
   <v>       0.20833333       0.42857143       0.40000000 </v>
   <v>       0.25000000       0.42857143       0.40000000 </v>
   <v>       0.29166667       0.42857143       0.40000000 </v>
   <v>       0.33333333       0.42857143       0.40000000 </v>
   <v>       0.37500000       0.42857143       0.40000000 </v>
   <v>       0.41666667       0.42857143       0.40000000 </v>
   <v>       0.45833333       0.42857143       0.40000000 </v>
   <v>       0.50000000       0.42857143       0.40000000 </v>
   <v>       0.00000000       0.50000000       0.40000000 </v>
   <v>       0.04166667       0.50000000       0.40000000 </v>
   <v>       0.08333333       0.50000000       0.40000000 </v>
   <v>       0.12500000       0.50000000       0.40000000 </v>
   <v>       0.16666667       0.50000000       0.40000000 </v>
   <v>       0.20833333       0.50000000       0.40000000 </v>
   <v>       0.25000000       0.50000000       0.40000000 </v>
   <v>       0.29166667       0.50000000       0.40000000 </v>
   <v>       0.33333333       0.50000000       0.40000000 </v>
   <v>       0.37500000       0.50000000       0.40000000 </v>
   <v>       0.41666667       0.50000000       0.40000000 </v>
   <v>       0.45833333       0.50000000       0.40000000 </v>
   <v>       0.50000000       0.50000000       0.40000000 </v>
   <v>       0.00000000      -0.42857143       0.40000000 </v>
   <v>       0.04166667      -0.42857143       0.40000000 </v>
   <v>       0.08333333      -0.42857143       0.40000000 </v>
   <v>       0.12500000      -0.42857143       0.40000000 </v>
   <v>       0.16666667      -0.42857143       0.40000000 </v>
   <v>       0.20833333      -0.42857143       0.40000000 </v>
   <v>       0.25000000      -0.42857143       0.40000000 </v>
   <v>       0.29166667      -0.42857143       0.40000000 </v>
   <v>       0.33333333      -0.42857143       0.40000000 </v>
   <v>       0.37500000      -0.42857143       0.40000000 </v>
   <v>       0.41666667      -0.42857143       0.40000000 </v>
   <v>       0.45833333      -0.42857143       0.40000000 </v>
   <v>       0.50000000      -0.42857143       0.40000000 </v>
   <v>       0.00000000      -0.35714286       0.40000000 </v>
   <v>       0.04166667      -0.35714286       0.40000000 </v>
   <v>       0.08333333      -0.35714286       0.40000000 </v>
   <v>       0.12500000      -0.35714286       0.40000000 </v>
   <v>       0.16666667      -0.35714286       0.40000000 </v>
   <v>       0.20833333      -0.35714286       0.40000000 </v>
   <v>       0.25000000      -0.35714286       0.40000000 </v>
   <v>       0.29166667      -0.35714286       0.40000000 </v>
   <v>       0.33333333      -0.35714286       0.40000000 </v>
   <v>       0.37500000      -0.35714286       0.40000000 </v>
   <v>       0.41666667      -0.35714286       0.40000000 </v>
   <v>       0.45833333      -0.35714286       0.40000000 </v>
   <v>       0.50000000      -0.35714286       0.40000000 </v>
   <v>       0.00000000      -0.28571429       0.40000000 </v>
   <v>       0.04166667      -0.28571429       0.40000000 </v>
   <v>       0.08333333      -0.28571429       0.40000000 </v>
   <v>       0.12500000      -0.28571429       0.40000000 </v>
   <v>       0.16666667      -0.28571429       0.40000000 </v>
   <v>       0.20833333      -0.28571429       0.40000000 </v>
   <v>       0.25000000      -0.28571429       0.40000000 </v>
   <v>       0.29166667      -0.28571429       0.40000000 </v>
   <v>       0.33333333      -0.28571429       0.40000000 </v>
   <v>       0.37500000      -0.28571429       0.40000000 </v>
   <v>       0.41666667      -0.28571429       0.40000000 </v>
   <v>       0.45833333      -0.28571429       0.40000000 </v>
   <v>       0.50000000      -0.28571429       0.40000000 </v>
   <v>       0.00000000      -0.21428571       0.40000000 </v>
   <v>       0.04166667      -0.21428571       0.40000000 </v>
   <v>       0.08333333      -0.21428571       0.40000000 </v>
   <v>       0.12500000      -0.21428571       0.40000000 </v>
   <v>       0.16666667      -0.21428571       0.40000000 </v>
   <v>       0.20833333      -0.21428571       0.40000000 </v>
   <v>       0.25000000      -0.21428571       0.40000000 </v>
   <v>       0.29166667      -0.21428571       0.40000000 </v>
   <v>       0.33333333      -0.21428571       0.40000000 </v>
   <v>       0.37500000      -0.21428571       0.40000000 </v>
   <v>       0.41666667      -0.21428571       0.40000000 </v>
   <v>       0.45833333      -0.21428571       0.40000000 </v>
   <v>       0.50000000      -0.21428571       0.40000000 </v>
   <v>       0.00000000      -0.14285714       0.40000000 </v>
   <v>       0.04166667      -0.14285714       0.40000000 </v>
   <v>       0.08333333      -0.14285714       0.40000000 </v>
   <v>       0.12500000      -0.14285714       0.40000000 </v>
   <v>       0.16666667      -0.14285714       0.40000000 </v>
   <v>       0.20833333      -0.14285714       0.40000000 </v>
   <v>       0.25000000      -0.14285714       0.40000000 </v>
   <v>       0.29166667      -0.14285714       0.40000000 </v>
   <v>       0.33333333      -0.14285714       0.40000000 </v>
   <v>       0.37500000      -0.14285714       0.40000000 </v>
   <v>       0.41666667      -0.14285714       0.40000000 </v>
   <v>       0.45833333      -0.14285714       0.40000000 </v>
   <v>       0.50000000      -0.14285714       0.40000000 </v>
   <v>       0.00000000      -0.07142857       0.40000000 </v>
   <v>       0.04166667      -0.07142857       0.40000000 </v>
   <v>       0.08333333      -0.07142857       0.40000000 </v>
   <v>       0.12500000      -0.07142857       0.40000000 </v>
   <v>       0.16666667      -0.07142857       0.40000000 </v>
   <v>       0.20833333      -0.07142857       0.40000000 </v>
   <v>       0.25000000      -0.07142857       0.40000000 </v>
   <v>       0.29166667      -0.07142857       0.40000000 </v>
   <v>       0.33333333      -0.07142857       0.40000000 </v>
   <v>       0.37500000      -0.07142857       0.40000000 </v>
   <v>       0.41666667      -0.07142857       0.40000000 </v>
   <v>       0.45833333      -0.07142857       0.40000000 </v>
   <v>       0.50000000      -0.07142857       0.40000000 </v>
   <v>       0.00000000       0.00000000       0.50000000 </v>
   <v>       0.04166667       0.00000000       0.50000000 </v>
   <v>       0.08333333       0.00000000       0.50000000 </v>
   <v>       0.12500000       0.00000000       0.50000000 </v>
   <v>       0.16666667       0.00000000       0.50000000 </v>
   <v>       0.20833333       0.00000000       0.50000000 </v>
   <v>       0.25000000       0.00000000       0.50000000 </v>
   <v>       0.29166667       0.00000000       0.50000000 </v>
   <v>       0.33333333       0.00000000       0.50000000 </v>
   <v>       0.37500000       0.00000000       0.50000000 </v>
   <v>       0.41666667       0.00000000       0.50000000 </v>
   <v>       0.45833333       0.00000000       0.50000000 </v>
   <v>       0.50000000       0.00000000       0.50000000 </v>
   <v>       0.00000000       0.07142857       0.50000000 </v>
   <v>       0.04166667       0.07142857       0.50000000 </v>
   <v>       0.08333333       0.07142857       0.50000000 </v>
   <v>       0.12500000       0.07142857       0.50000000 </v>
   <v>       0.16666667       0.07142857       0.50000000 </v>
   <v>       0.20833333       0.07142857       0.50000000 </v>
   <v>       0.25000000       0.07142857       0.50000000 </v>
   <v>       0.29166667       0.07142857       0.50000000 </v>
   <v>       0.33333333       0.07142857       0.50000000 </v>
   <v>       0.37500000       0.07142857       0.50000000 </v>
   <v>       0.41666667       0.07142857       0.50000000 </v>
   <v>       0.45833333       0.07142857       0.50000000 </v>
   <v>       0.50000000       0.07142857       0.50000000 </v>
   <v>       0.00000000       0.14285714       0.50000000 </v>
   <v>       0.04166667       0.14285714       0.50000000 </v>
   <v>       0.08333333       0.14285714       0.50000000 </v>
   <v>       0.12500000       0.14285714       0.50000000 </v>
   <v>       0.16666667       0.14285714       0.50000000 </v>
   <v>       0.20833333       0.14285714       0.50000000 </v>
   <v>       0.25000000       0.14285714       0.50000000 </v>
   <v>       0.29166667       0.14285714       0.50000000 </v>
   <v>       0.33333333       0.14285714       0.50000000 </v>
   <v>       0.37500000       0.14285714       0.50000000 </v>
   <v>       0.41666667       0.14285714       0.50000000 </v>
   <v>       0.45833333       0.14285714       0.50000000 </v>
   <v>       0.50000000       0.14285714       0.50000000 </v>
   <v>       0.00000000       0.21428571       0.50000000 </v>
   <v>       0.04166667       0.21428571       0.50000000 </v>
   <v>       0.08333333       0.21428571       0.50000000 </v>
   <v>       0.12500000       0.21428571       0.50000000 </v>
   <v>       0.16666667       0.21428571       0.50000000 </v>
   <v>       0.20833333       0.21428571       0.50000000 </v>
   <v>       0.25000000       0.21428571       0.50000000 </v>
   <v>       0.29166667       0.21428571       0.50000000 </v>
   <v>       0.33333333       0.21428571       0.50000000 </v>
   <v>       0.37500000       0.21428571       0.50000000 </v>
   <v>       0.41666667       0.21428571       0.50000000 </v>
   <v>       0.45833333       0.21428571       0.50000000 </v>
   <v>       0.50000000       0.21428571       0.50000000 </v>
   <v>       0.00000000       0.28571429       0.50000000 </v>
   <v>       0.04166667       0.28571429       0.50000000 </v>
   <v>       0.08333333       0.28571429       0.50000000 </v>
   <v>       0.12500000       0.28571429       0.50000000 </v>
   <v>       0.16666667       0.28571429       0.50000000 </v>
   <v>       0.20833333       0.28571429       0.50000000 </v>
   <v>       0.25000000       0.28571429       0.50000000 </v>
   <v>       0.29166667       0.28571429       0.50000000 </v>
   <v>       0.33333333       0.28571429       0.50000000 </v>
   <v>       0.37500000       0.28571429       0.50000000 </v>
   <v>       0.41666667       0.28571429       0.50000000 </v>
   <v>       0.45833333       0.28571429       0.50000000 </v>
   <v>       0.50000000       0.28571429       0.50000000 </v>
   <v>       0.00000000       0.35714286       0.50000000 </v>
   <v>       0.04166667       0.35714286       0.50000000 </v>
   <v>       0.08333333       0.35714286       0.50000000 </v>
   <v>       0.12500000       0.35714286       0.50000000 </v>
   <v>       0.16666667       0.35714286       0.50000000 </v>
   <v>       0.20833333       0.35714286       0.50000000 </v>
   <v>       0.25000000       0.35714286       0.50000000 </v>
   <v>       0.29166667       0.35714286       0.50000000 </v>
   <v>       0.33333333       0.35714286       0.50000000 </v>
   <v>       0.37500000       0.35714286       0.50000000 </v>
   <v>       0.41666667       0.35714286       0.50000000 </v>
   <v>       0.45833333       0.35714286       0.50000000 </v>
   <v>       0.50000000       0.35714286       0.50000000 </v>
   <v>       0.00000000       0.42857143       0.50000000 </v>
   <v>       0.04166667       0.42857143       0.50000000 </v>
   <v>       0.08333333       0.42857143       0.50000000 </v>
   <v>       0.12500000       0.42857143       0.50000000 </v>
   <v>       0.16666667       0.42857143       0.50000000 </v>
   <v>       0.20833333       0.42857143       0.50000000 </v>
   <v>       0.25000000       0.42857143       0.50000000 </v>
   <v>       0.29166667       0.42857143       0.50000000 </v>
   <v>       0.33333333       0.42857143       0.50000000 </v>
   <v>       0.37500000       0.42857143       0.50000000 </v>
   <v>       0.41666667       0.42857143       0.50000000 </v>
   <v>       0.45833333       0.42857143       0.50000000 </v>
   <v>       0.50000000       0.42857143       0.50000000 </v>
   <v>       0.00000000       0.50000000       0.50000000 </v>
   <v>       0.04166667       0.50000000       0.50000000 </v>
   <v>       0.08333333       0.50000000       0.50000000 </v>
   <v>       0.12500000       0.50000000       0.50000000 </v>
   <v>       0.16666667       0.50000000       0.50000000 </v>
   <v>       0.20833333       0.50000000       0.50000000 </v>
   <v>       0.25000000       0.50000000       0.50000000 </v>
   <v>       0.29166667       0.50000000       0.50000000 </v>
   <v>       0.33333333       0.50000000       0.50000000 </v>
   <v>       0.37500000       0.50000000       0.50000000 </v>
   <v>       0.41666667       0.50000000       0.50000000 </v>
   <v>       0.45833333       0.50000000       0.50000000 </v>
   <v>       0.50000000       0.50000000       0.50000000 </v>
  </varray>
  <varray name="weights" >
   <v>       0.00029762 </v>
   <v>       0.00059524 </v>
   <v>       0.00059524 </v>
   <v>       0.00059524 </v>
   <v>       0.00059524 </v>
   <v>       0.00059524 </v>
   <v>       0.00059524 </v>
   <v>       0.00059524 </v>
   <v>       0.00059524 </v>
   <v>       0.00059524 </v>
   <v>       0.00059524 </v>
   <v>       0.00059524 </v>
   <v>       0.00029762 </v>
   <v>       0.00059524 </v>
   <v>       0.00119048 </v>
   <v>       0.00119048 </v>
   <v>       0.00119048 </v>
   <v>       0.00119048 </v>
   <v>       0.00119048 </v>
   <v>       0.00119048 </v>
   <v>       0.00119048 </v>
   <v>       0.00119048 </v>
   <v>       0.00119048 </v>
   <v>       0.00119048 </v>
   <v>       0.00119048 </v>
   <v>       0.00059524 </v>
   <v>       0.00059524 </v>
   <v>       0.00119048 </v>
   <v>       0.00119048 </v>
   <v>       0.00119048 </v>
   <v>       0.00119048 </v>
   <v>       0.00119048 </v>
   <v>       0.00119048 </v>
   <v>       0.00119048 </v>
   <v>       0.00119048 </v>
   <v>       0.00119048 </v>
   <v>       0.00119048 </v>
   <v>       0.00119048 </v>
   <v>       0.00059524 </v>
   <v>       0.00059524 </v>
   <v>       0.00119048 </v>
   <v>       0.00119048 </v>
   <v>       0.00119048 </v>
   <v>       0.00119048 </v>
   <v>       0.00119048 </v>
   <v>       0.00119048 </v>
   <v>       0.00119048 </v>
   <v>       0.00119048 </v>
   <v>       0.00119048 </v>
   <v>       0.00119048 </v>
   <v>       0.00119048 </v>
   <v>       0.00059524 </v>
   <v>       0.00059524 </v>
   <v>       0.00119048 </v>
   <v>       0.00119048 </v>
   <v>       0.00119048 </v>
   <v>       0.00119048 </v>
   <v>       0.00119048 </v>
   <v>       0.00119048 </v>
   <v>       0.00119048 </v>
   <v>       0.00119048 </v>
   <v>       0.00119048 </v>
   <v>       0.00119048 </v>
   <v>       0.00119048 </v>
   <v>       0.00059524 </v>
   <v>       0.00059524 </v>
   <v>       0.00119048 </v>
   <v>       0.00119048 </v>
   <v>       0.00119048 </v>
   <v>       0.00119048 </v>
   <v>       0.00119048 </v>
   <v>       0.00119048 </v>
   <v>       0.00119048 </v>
   <v>       0.00119048 </v>
   <v>       0.00119048 </v>
   <v>       0.00119048 </v>
   <v>       0.00119048 </v>
   <v>       0.00059524 </v>
   <v>       0.00059524 </v>
   <v>       0.00119048 </v>
   <v>       0.00119048 </v>
   <v>       0.00119048 </v>
   <v>       0.00119048 </v>
   <v>       0.00119048 </v>
   <v>       0.00119048 </v>
   <v>       0.00119048 </v>
   <v>       0.00119048 </v>
   <v>       0.00119048 </v>
   <v>       0.00119048 </v>
   <v>       0.00119048 </v>
   <v>       0.00059524 </v>
   <v>       0.00029762 </v>
   <v>       0.00059524 </v>
   <v>       0.00059524 </v>
   <v>       0.00059524 </v>
   <v>       0.00059524 </v>
   <v>       0.00059524 </v>
   <v>       0.00059524 </v>
   <v>       0.00059524 </v>
   <v>       0.00059524 </v>
   <v>       0.00059524 </v>
   <v>       0.00059524 </v>
   <v>       0.00059524 </v>
   <v>       0.00029762 </v>
   <v>       0.00059524 </v>
   <v>       0.00119048 </v>
   <v>       0.00119048 </v>
   <v>       0.00119048 </v>
   <v>       0.00119048 </v>
   <v>       0.00119048 </v>
   <v>       0.00119048 </v>
   <v>       0.00119048 </v>
   <v>       0.00119048 </v>
   <v>       0.00119048 </v>
   <v>       0.00119048 </v>
   <v>       0.00119048 </v>
   <v>       0.00059524 </v>
   <v>       0.00059524 </v>
   <v>       0.00119048 </v>
   <v>       0.00119048 </v>
   <v>       0.00119048 </v>
   <v>       0.00119048 </v>
   <v>       0.00119048 </v>
   <v>       0.00119048 </v>
   <v>       0.00119048 </v>
   <v>       0.00119048 </v>
   <v>       0.00119048 </v>
   <v>       0.00119048 </v>
   <v>       0.00119048 </v>
   <v>       0.00059524 </v>
   <v>       0.00059524 </v>
   <v>       0.00119048 </v>
   <v>       0.00119048 </v>
   <v>       0.00119048 </v>
   <v>       0.00119048 </v>
   <v>       0.00119048 </v>
   <v>       0.00119048 </v>
   <v>       0.00119048 </v>
   <v>       0.00119048 </v>
   <v>       0.00119048 </v>
   <v>       0.00119048 </v>
   <v>       0.00119048 </v>
   <v>       0.00059524 </v>
   <v>       0.00059524 </v>
   <v>       0.00119048 </v>
   <v>       0.00119048 </v>
   <v>       0.00119048 </v>
   <v>       0.00119048 </v>
   <v>       0.00119048 </v>
   <v>       0.00119048 </v>
   <v>       0.00119048 </v>
   <v>       0.00119048 </v>
   <v>       0.00119048 </v>
   <v>       0.00119048 </v>
   <v>       0.00119048 </v>
   <v>       0.00059524 </v>
   <v>       0.00059524 </v>
   <v>       0.00119048 </v>
   <v>       0.00119048 </v>
   <v>       0.00119048 </v>
   <v>       0.00119048 </v>
   <v>       0.00119048 </v>
   <v>       0.00119048 </v>
   <v>       0.00119048 </v>
   <v>       0.00119048 </v>
   <v>       0.00119048 </v>
   <v>       0.00119048 </v>
   <v>       0.00119048 </v>
   <v>       0.00059524 </v>
   <v>       0.00059524 </v>
   <v>       0.00119048 </v>
   <v>       0.00119048 </v>
   <v>       0.00119048 </v>
   <v>       0.00119048 </v>
   <v>       0.00119048 </v>
   <v>       0.00119048 </v>
   <v>       0.00119048 </v>
   <v>       0.00119048 </v>
   <v>       0.00119048 </v>
   <v>       0.00119048 </v>
   <v>       0.00119048 </v>
   <v>       0.00059524 </v>
   <v>       0.00059524 </v>
   <v>       0.00119048 </v>
   <v>       0.00119048 </v>
   <v>       0.00119048 </v>
   <v>       0.00119048 </v>
   <v>       0.00119048 </v>
   <v>       0.00119048 </v>
   <v>       0.00119048 </v>
   <v>       0.00119048 </v>
   <v>       0.00119048 </v>
   <v>       0.00119048 </v>
   <v>       0.00119048 </v>
   <v>       0.00059524 </v>
   <v>       0.00059524 </v>
   <v>       0.00119048 </v>
   <v>       0.00119048 </v>
   <v>       0.00119048 </v>
   <v>       0.00119048 </v>
   <v>       0.00119048 </v>
   <v>       0.00119048 </v>
   <v>       0.00119048 </v>
   <v>       0.00119048 </v>
   <v>       0.00119048 </v>
   <v>       0.00119048 </v>
   <v>       0.00119048 </v>
   <v>       0.00059524 </v>
   <v>       0.00059524 </v>
   <v>       0.00119048 </v>
   <v>       0.00119048 </v>
   <v>       0.00119048 </v>
   <v>       0.00119048 </v>
   <v>       0.00119048 </v>
   <v>       0.00119048 </v>
   <v>       0.00119048 </v>
   <v>       0.00119048 </v>
   <v>       0.00119048 </v>
   <v>       0.00119048 </v>
   <v>       0.00119048 </v>
   <v>       0.00059524 </v>
   <v>       0.00059524 </v>
   <v>       0.00119048 </v>
   <v>       0.00119048 </v>
   <v>       0.00119048 </v>
   <v>       0.00119048 </v>
   <v>       0.00119048 </v>
   <v>       0.00119048 </v>
   <v>       0.00119048 </v>
   <v>       0.00119048 </v>
   <v>       0.00119048 </v>
   <v>       0.00119048 </v>
   <v>       0.00119048 </v>
   <v>       0.00059524 </v>
   <v>       0.00059524 </v>
   <v>       0.00119048 </v>
   <v>       0.00119048 </v>
   <v>       0.00119048 </v>
   <v>       0.00119048 </v>
   <v>       0.00119048 </v>
   <v>       0.00119048 </v>
   <v>       0.00119048 </v>
   <v>       0.00119048 </v>
   <v>       0.00119048 </v>
   <v>       0.00119048 </v>
   <v>       0.00119048 </v>
   <v>       0.00059524 </v>
   <v>       0.00059524 </v>
   <v>       0.00119048 </v>
   <v>       0.00119048 </v>
   <v>       0.00119048 </v>
   <v>       0.00119048 </v>
   <v>       0.00119048 </v>
   <v>       0.00119048 </v>
   <v>       0.00119048 </v>
   <v>       0.00119048 </v>
   <v>       0.00119048 </v>
   <v>       0.00119048 </v>
   <v>       0.00119048 </v>
   <v>       0.00059524 </v>
   <v>       0.00059524 </v>
   <v>       0.00119048 </v>
   <v>       0.00119048 </v>
   <v>       0.00119048 </v>
   <v>       0.00119048 </v>
   <v>       0.00119048 </v>
   <v>       0.00119048 </v>
   <v>       0.00119048 </v>
   <v>       0.00119048 </v>
   <v>       0.00119048 </v>
   <v>       0.00119048 </v>
   <v>       0.00119048 </v>
   <v>       0.00059524 </v>
   <v>       0.00059524 </v>
   <v>       0.00119048 </v>
   <v>       0.00119048 </v>
   <v>       0.00119048 </v>
   <v>       0.00119048 </v>
   <v>       0.00119048 </v>
   <v>       0.00119048 </v>
   <v>       0.00119048 </v>
   <v>       0.00119048 </v>
   <v>       0.00119048 </v>
   <v>       0.00119048 </v>
   <v>       0.00119048 </v>
   <v>       0.00059524 </v>
   <v>       0.00059524 </v>
   <v>       0.00119048 </v>
   <v>       0.00119048 </v>
   <v>       0.00119048 </v>
   <v>       0.00119048 </v>
   <v>       0.00119048 </v>
   <v>       0.00119048 </v>
   <v>       0.00119048 </v>
   <v>       0.00119048 </v>
   <v>       0.00119048 </v>
   <v>       0.00119048 </v>
   <v>       0.00119048 </v>
   <v>       0.00059524 </v>
   <v>       0.00059524 </v>
   <v>       0.00119048 </v>
   <v>       0.00119048 </v>
   <v>       0.00119048 </v>
   <v>       0.00119048 </v>
   <v>       0.00119048 </v>
   <v>       0.00119048 </v>
   <v>       0.00119048 </v>
   <v>       0.00119048 </v>
   <v>       0.00119048 </v>
   <v>       0.00119048 </v>
   <v>       0.00119048 </v>
   <v>       0.00059524 </v>
   <v>       0.00059524 </v>
   <v>       0.00119048 </v>
   <v>       0.00119048 </v>
   <v>       0.00119048 </v>
   <v>       0.00119048 </v>
   <v>       0.00119048 </v>
   <v>       0.00119048 </v>
   <v>       0.00119048 </v>
   <v>       0.00119048 </v>
   <v>       0.00119048 </v>
   <v>       0.00119048 </v>
   <v>       0.00119048 </v>
   <v>       0.00059524 </v>
   <v>       0.00059524 </v>
   <v>       0.00119048 </v>
   <v>       0.00119048 </v>
   <v>       0.00119048 </v>
   <v>       0.00119048 </v>
   <v>       0.00119048 </v>
   <v>       0.00119048 </v>
   <v>       0.00119048 </v>
   <v>       0.00119048 </v>
   <v>       0.00119048 </v>
   <v>       0.00119048 </v>
   <v>       0.00119048 </v>
   <v>       0.00059524 </v>
   <v>       0.00059524 </v>
   <v>       0.00119048 </v>
   <v>       0.00119048 </v>
   <v>       0.00119048 </v>
   <v>       0.00119048 </v>
   <v>       0.00119048 </v>
   <v>       0.00119048 </v>
   <v>       0.00119048 </v>
   <v>       0.00119048 </v>
   <v>       0.00119048 </v>
   <v>       0.00119048 </v>
   <v>       0.00119048 </v>
   <v>       0.00059524 </v>
   <v>       0.00059524 </v>
   <v>       0.00119048 </v>
   <v>       0.00119048 </v>
   <v>       0.00119048 </v>
   <v>       0.00119048 </v>
   <v>       0.00119048 </v>
   <v>       0.00119048 </v>
   <v>       0.00119048 </v>
   <v>       0.00119048 </v>
   <v>       0.00119048 </v>
   <v>       0.00119048 </v>
   <v>       0.00119048 </v>
   <v>       0.00059524 </v>
   <v>       0.00059524 </v>
   <v>       0.00119048 </v>
   <v>       0.00119048 </v>
   <v>       0.00119048 </v>
   <v>       0.00119048 </v>
   <v>       0.00119048 </v>
   <v>       0.00119048 </v>
   <v>       0.00119048 </v>
   <v>       0.00119048 </v>
   <v>       0.00119048 </v>
   <v>       0.00119048 </v>
   <v>       0.00119048 </v>
   <v>       0.00059524 </v>
   <v>       0.00059524 </v>
   <v>       0.00119048 </v>
   <v>       0.00119048 </v>
   <v>       0.00119048 </v>
   <v>       0.00119048 </v>
   <v>       0.00119048 </v>
   <v>       0.00119048 </v>
   <v>       0.00119048 </v>
   <v>       0.00119048 </v>
   <v>       0.00119048 </v>
   <v>       0.00119048 </v>
   <v>       0.00119048 </v>
   <v>       0.00059524 </v>
   <v>       0.00059524 </v>
   <v>       0.00119048 </v>
   <v>       0.00119048 </v>
   <v>       0.00119048 </v>
   <v>       0.00119048 </v>
   <v>       0.00119048 </v>
   <v>       0.00119048 </v>
   <v>       0.00119048 </v>
   <v>       0.00119048 </v>
   <v>       0.00119048 </v>
   <v>       0.00119048 </v>
   <v>       0.00119048 </v>
   <v>       0.00059524 </v>
   <v>       0.00059524 </v>
   <v>       0.00119048 </v>
   <v>       0.00119048 </v>
   <v>       0.00119048 </v>
   <v>       0.00119048 </v>
   <v>       0.00119048 </v>
   <v>       0.00119048 </v>
   <v>       0.00119048 </v>
   <v>       0.00119048 </v>
   <v>       0.00119048 </v>
   <v>       0.00119048 </v>
   <v>       0.00119048 </v>
   <v>       0.00059524 </v>
   <v>       0.00059524 </v>
   <v>       0.00119048 </v>
   <v>       0.00119048 </v>
   <v>       0.00119048 </v>
   <v>       0.00119048 </v>
   <v>       0.00119048 </v>
   <v>       0.00119048 </v>
   <v>       0.00119048 </v>
   <v>       0.00119048 </v>
   <v>       0.00119048 </v>
   <v>       0.00119048 </v>
   <v>       0.00119048 </v>
   <v>       0.00059524 </v>
   <v>       0.00059524 </v>
   <v>       0.00119048 </v>
   <v>       0.00119048 </v>
   <v>       0.00119048 </v>
   <v>       0.00119048 </v>
   <v>       0.00119048 </v>
   <v>       0.00119048 </v>
   <v>       0.00119048 </v>
   <v>       0.00119048 </v>
   <v>       0.00119048 </v>
   <v>       0.00119048 </v>
   <v>       0.00119048 </v>
   <v>       0.00059524 </v>
   <v>       0.00059524 </v>
   <v>       0.00119048 </v>
   <v>       0.00119048 </v>
   <v>       0.00119048 </v>
   <v>       0.00119048 </v>
   <v>       0.00119048 </v>
   <v>       0.00119048 </v>
   <v>       0.00119048 </v>
   <v>       0.00119048 </v>
   <v>       0.00119048 </v>
   <v>       0.00119048 </v>
   <v>       0.00119048 </v>
   <v>       0.00059524 </v>
   <v>       0.00059524 </v>
   <v>       0.00119048 </v>
   <v>       0.00119048 </v>
   <v>       0.00119048 </v>
   <v>       0.00119048 </v>
   <v>       0.00119048 </v>
   <v>       0.00119048 </v>
   <v>       0.00119048 </v>
   <v>       0.00119048 </v>
   <v>       0.00119048 </v>
   <v>       0.00119048 </v>
   <v>       0.00119048 </v>
   <v>       0.00059524 </v>
   <v>       0.00059524 </v>
   <v>       0.00119048 </v>
   <v>       0.00119048 </v>
   <v>       0.00119048 </v>
   <v>       0.00119048 </v>
   <v>       0.00119048 </v>
   <v>       0.00119048 </v>
   <v>       0.00119048 </v>
   <v>       0.00119048 </v>
   <v>       0.00119048 </v>
   <v>       0.00119048 </v>
   <v>       0.00119048 </v>
   <v>       0.00059524 </v>
   <v>       0.00059524 </v>
   <v>       0.00119048 </v>
   <v>       0.00119048 </v>
   <v>       0.00119048 </v>
   <v>       0.00119048 </v>
   <v>       0.00119048 </v>
   <v>       0.00119048 </v>
   <v>       0.00119048 </v>
   <v>       0.00119048 </v>
   <v>       0.00119048 </v>
   <v>       0.00119048 </v>
   <v>       0.00119048 </v>
   <v>       0.00059524 </v>
   <v>       0.00059524 </v>
   <v>       0.00119048 </v>
   <v>       0.00119048 </v>
   <v>       0.00119048 </v>
   <v>       0.00119048 </v>
   <v>       0.00119048 </v>
   <v>       0.00119048 </v>
   <v>       0.00119048 </v>
   <v>       0.00119048 </v>
   <v>       0.00119048 </v>
   <v>       0.00119048 </v>
   <v>       0.00119048 </v>
   <v>       0.00059524 </v>
   <v>       0.00059524 </v>
   <v>       0.00119048 </v>
   <v>       0.00119048 </v>
   <v>       0.00119048 </v>
   <v>       0.00119048 </v>
   <v>       0.00119048 </v>
   <v>       0.00119048 </v>
   <v>       0.00119048 </v>
   <v>       0.00119048 </v>
   <v>       0.00119048 </v>
   <v>       0.00119048 </v>
   <v>       0.00119048 </v>
   <v>       0.00059524 </v>
   <v>       0.00059524 </v>
   <v>       0.00119048 </v>
   <v>       0.00119048 </v>
   <v>       0.00119048 </v>
   <v>       0.00119048 </v>
   <v>       0.00119048 </v>
   <v>       0.00119048 </v>
   <v>       0.00119048 </v>
   <v>       0.00119048 </v>
   <v>       0.00119048 </v>
   <v>       0.00119048 </v>
   <v>       0.00119048 </v>
   <v>       0.00059524 </v>
   <v>       0.00059524 </v>
   <v>       0.00119048 </v>
   <v>       0.00119048 </v>
   <v>       0.00119048 </v>
   <v>       0.00119048 </v>
   <v>       0.00119048 </v>
   <v>       0.00119048 </v>
   <v>       0.00119048 </v>
   <v>       0.00119048 </v>
   <v>       0.00119048 </v>
   <v>       0.00119048 </v>
   <v>       0.00119048 </v>
   <v>       0.00059524 </v>
   <v>       0.00059524 </v>
   <v>       0.00119048 </v>
   <v>       0.00119048 </v>
   <v>       0.00119048 </v>
   <v>       0.00119048 </v>
   <v>       0.00119048 </v>
   <v>       0.00119048 </v>
   <v>       0.00119048 </v>
   <v>       0.00119048 </v>
   <v>       0.00119048 </v>
   <v>       0.00119048 </v>
   <v>       0.00119048 </v>
   <v>       0.00059524 </v>
   <v>       0.00059524 </v>
   <v>       0.00119048 </v>
   <v>       0.00119048 </v>
   <v>       0.00119048 </v>
   <v>       0.00119048 </v>
   <v>       0.00119048 </v>
   <v>       0.00119048 </v>
   <v>       0.00119048 </v>
   <v>       0.00119048 </v>
   <v>       0.00119048 </v>
   <v>       0.00119048 </v>
   <v>       0.00119048 </v>
   <v>       0.00059524 </v>
   <v>       0.00059524 </v>
   <v>       0.00119048 </v>
   <v>       0.00119048 </v>
   <v>       0.00119048 </v>
   <v>       0.00119048 </v>
   <v>       0.00119048 </v>
   <v>       0.00119048 </v>
   <v>       0.00119048 </v>
   <v>       0.00119048 </v>
   <v>       0.00119048 </v>
   <v>       0.00119048 </v>
   <v>       0.00119048 </v>
   <v>       0.00059524 </v>
   <v>       0.00059524 </v>
   <v>       0.00119048 </v>
   <v>       0.00119048 </v>
   <v>       0.00119048 </v>
   <v>       0.00119048 </v>
   <v>       0.00119048 </v>
   <v>       0.00119048 </v>
   <v>       0.00119048 </v>
   <v>       0.00119048 </v>
   <v>       0.00119048 </v>
   <v>       0.00119048 </v>
   <v>       0.00119048 </v>
   <v>       0.00059524 </v>
   <v>       0.00059524 </v>
   <v>       0.00119048 </v>
   <v>       0.00119048 </v>
   <v>       0.00119048 </v>
   <v>       0.00119048 </v>
   <v>       0.00119048 </v>
   <v>       0.00119048 </v>
   <v>       0.00119048 </v>
   <v>       0.00119048 </v>
   <v>       0.00119048 </v>
   <v>       0.00119048 </v>
   <v>       0.00119048 </v>
   <v>       0.00059524 </v>
   <v>       0.00059524 </v>
   <v>       0.00119048 </v>
   <v>       0.00119048 </v>
   <v>       0.00119048 </v>
   <v>       0.00119048 </v>
   <v>       0.00119048 </v>
   <v>       0.00119048 </v>
   <v>       0.00119048 </v>
   <v>       0.00119048 </v>
   <v>       0.00119048 </v>
   <v>       0.00119048 </v>
   <v>       0.00119048 </v>
   <v>       0.00059524 </v>
   <v>       0.00059524 </v>
   <v>       0.00119048 </v>
   <v>       0.00119048 </v>
   <v>       0.00119048 </v>
   <v>       0.00119048 </v>
   <v>       0.00119048 </v>
   <v>       0.00119048 </v>
   <v>       0.00119048 </v>
   <v>       0.00119048 </v>
   <v>       0.00119048 </v>
   <v>       0.00119048 </v>
   <v>       0.00119048 </v>
   <v>       0.00059524 </v>
   <v>       0.00059524 </v>
   <v>       0.00119048 </v>
   <v>       0.00119048 </v>
   <v>       0.00119048 </v>
   <v>       0.00119048 </v>
   <v>       0.00119048 </v>
   <v>       0.00119048 </v>
   <v>       0.00119048 </v>
   <v>       0.00119048 </v>
   <v>       0.00119048 </v>
   <v>       0.00119048 </v>
   <v>       0.00119048 </v>
   <v>       0.00059524 </v>
   <v>       0.00059524 </v>
   <v>       0.00119048 </v>
   <v>       0.00119048 </v>
   <v>       0.00119048 </v>
   <v>       0.00119048 </v>
   <v>       0.00119048 </v>
   <v>       0.00119048 </v>
   <v>       0.00119048 </v>
   <v>       0.00119048 </v>
   <v>       0.00119048 </v>
   <v>       0.00119048 </v>
   <v>       0.00119048 </v>
   <v>       0.00059524 </v>
   <v>       0.00059524 </v>
[...]
       <r>    5.6173    1.0000 </r>
       <r>    5.6347    1.0000 </r>
       <r>    5.7574    1.0000 </r>
       <r>    6.0211    1.0000 </r>
       <r>    6.0678    1.0000 </r>
       <r>    6.1328    1.0000 </r>
       <r>    6.1530    1.0000 </r>
       <r>    6.3524    1.0000 </r>
       <r>    6.4407    1.0000 </r>
       <r>    7.3297    1.0000 </r>
       <r>    7.3347    1.0000 </r>
       <r>    7.8411    1.0123 </r>
       <r>    8.2894    0.7864 </r>
       <r>   11.2495    0.0000 </r>
       <r>   11.4450    0.0000 </r>
       <r>   12.1562    0.0000 </r>
       <r>   12.3097    0.0000 </r>
       <r>   13.3841    0.0000 </r>
       <r>   14.3597    0.0000 </r>
      </set>
      <set comment="kpoint 935">
       <r>    1.7679    1.0000 </r>
       <r>    1.7798    1.0000 </r>
       <r>    2.2490    1.0000 </r>
       <r>    2.2763    1.0000 </r>
       <r>    2.3758    1.0000 </r>
       <r>    2.3806    1.0000 </r>
       <r>    2.6064    1.0000 </r>
       <r>    2.6286    1.0000 </r>
       <r>    2.6940    1.0000 </r>
       <r>    2.7170    1.0000 </r>
       <r>    3.8365    1.0000 </r>
       <r>    3.8379    1.0000 </r>
       <r>    3.8719    1.0000 </r>
       <r>    3.8731    1.0000 </r>
       <r>    4.8454    1.0000 </r>
       <r>    4.9007    1.0000 </r>
       <r>    5.0210    1.0000 </r>
       <r>    5.1002    1.0000 </r>
       <r>    5.2933    1.0000 </r>
       <r>    5.3431    1.0000 </r>
       <r>    5.5762    1.0000 </r>
       <r>    5.6158    1.0000 </r>
       <r>    5.7154    1.0000 </r>
       <r>    5.7776    1.0000 </r>
       <r>    6.1458    1.0000 </r>
       <r>    6.1473    1.0000 </r>
       <r>    6.2100    1.0000 </r>
       <r>    6.2393    1.0000 </r>
       <r>    6.5174    1.0000 </r>
       <r>    6.5242    1.0000 </r>
       <r>    7.6709    1.0016 </r>
       <r>    7.6854    1.0020 </r>
       <r>    8.5620    0.1062 </r>
       <r>    8.9354   -0.0148 </r>
       <r>   10.3244    0.0000 </r>
       <r>   10.5480    0.0000 </r>
       <r>   11.6189    0.0000 </r>
       <r>   11.6755    0.0000 </r>
       <r>   14.0015    0.0000 </r>
       <r>   14.9102    0.0000 </r>
      </set>
      <set comment="kpoint 936">
       <r>    1.7628    1.0000 </r>
       <r>    1.7628    1.0000 </r>
       <r>    2.2492    1.0000 </r>
       <r>    2.2492    1.0000 </r>
       <r>    2.3627    1.0000 </r>
       <r>    2.3627    1.0000 </r>
       <r>    2.6277    1.0000 </r>
       <r>    2.6277    1.0000 </r>
       <r>    2.6703    1.0000 </r>
       <r>    2.6703    1.0000 </r>
       <r>    3.8338    1.0000 </r>
       <r>    3.8338    1.0000 </r>
       <r>    3.8646    1.0000 </r>
       <r>    3.8646    1.0000 </r>
       <r>    4.9058    1.0000 </r>
       <r>    4.9058    1.0000 </r>
       <r>    5.1153    1.0000 </r>
       <r>    5.1153    1.0000 </r>
       <r>    5.3021    1.0000 </r>
       <r>    5.3021    1.0000 </r>
       <r>    5.5971    1.0000 </r>
       <r>    5.5971    1.0000 </r>
       <r>    5.7681    1.0000 </r>
       <r>    5.7681    1.0000 </r>
       <r>    6.1551    1.0000 </r>
       <r>    6.1551    1.0000 </r>
       <r>    6.2761    1.0000 </r>
       <r>    6.2761    1.0000 </r>
       <r>    6.5650    1.0000 </r>
       <r>    6.5650    1.0000 </r>
       <r>    7.8371    1.0118 </r>
       <r>    7.8371    1.0118 </r>
       <r>    9.3886    0.0000 </r>
       <r>    9.3886    0.0000 </r>
       <r>    9.7172    0.0000 </r>
       <r>    9.7172    0.0000 </r>
       <r>   11.4107    0.0000 </r>
       <r>   11.4107    0.0000 </r>
       <r>   14.7645    0.0000 </r>
       <r>   14.7645    0.0000 </r>
      </set>
     </set>
    </set>
   </array>
  </eigenvalues>
  <separator name="orbital magnetization" >
   <v name="MAGDIPOLOUT">      0.00000000      0.00000000      0.00000000</v>
  </separator>
  <dos>
   <i name="efermi">      8.39852070 </i>
   <total>
    <array>
     <dimension dim="1">gridpoints</dimension>
     <dimension dim="2">spin</dimension>
     <field>energy</field>
     <field>total</field>
     <field>integrated</field>
     <set>
      <set comment="spin 1">
       <r>    -3.4499     0.0000     0.0000 </r>
       <r>    -3.3673     0.0000     0.0000 </r>
       <r>    -3.2847     0.0000     0.0000 </r>
       <r>    -3.2022     0.0000     0.0000 </r>
       <r>    -3.1196     0.0000     0.0000 </r>
       <r>    -3.0370     0.0000     0.0000 </r>
       <r>    -2.9544     0.0000     0.0000 </r>
       <r>    -2.8719     0.0000     0.0000 </r>
       <r>    -2.7893     0.0000     0.0000 </r>
       <r>    -2.7067     0.0000     0.0000 </r>
       <r>    -2.6242     0.0000     0.0000 </r>
       <r>    -2.5416     0.0000     0.0000 </r>
       <r>    -2.4590     0.0000     0.0000 </r>
       <r>    -2.3764     0.0000     0.0000 </r>
       <r>    -2.2939     0.0000     0.0000 </r>
       <r>    -2.2113     0.0000     0.0000 </r>
       <r>    -2.1287     0.0000     0.0000 </r>
       <r>    -2.0461     0.0000     0.0000 </r>
       <r>    -1.9636     0.0000     0.0000 </r>
       <r>    -1.8810     0.0000     0.0000 </r>
       <r>    -1.7984     0.0000     0.0000 </r>
       <r>    -1.7159     0.0000     0.0000 </r>
       <r>    -1.6333     0.0000     0.0000 </r>
       <r>    -1.5507     0.0000     0.0000 </r>
       <r>    -1.4681     0.0000     0.0000 </r>
       <r>    -1.3856     0.0000     0.0000 </r>
       <r>    -1.3030     0.0000     0.0000 </r>
       <r>    -1.2204    -0.0001     0.0000 </r>
       <r>    -1.1379    -0.0002     0.0000 </r>
       <r>    -1.0553    -0.0007    -0.0001 </r>
       <r>    -0.9727    -0.0017    -0.0002 </r>
       <r>    -0.8901    -0.0038    -0.0005 </r>
       <r>    -0.8076    -0.0067    -0.0011 </r>
       <r>    -0.7250    -0.0086    -0.0018 </r>
       <r>    -0.6424    -0.0055    -0.0022 </r>
       <r>    -0.5598     0.0087    -0.0015 </r>
       <r>    -0.4773     0.0393     0.0017 </r>
       <r>    -0.3947     0.0876     0.0089 </r>
       <r>    -0.3121     0.1492     0.0213 </r>
       <r>    -0.2296     0.2162     0.0391 </r>
       <r>    -0.1470     0.2815     0.0623 </r>
       <r>    -0.0644     0.3414     0.0905 </r>
       <r>     0.0182     0.3958     0.1232 </r>
       <r>     0.1007     0.4447     0.1599 </r>
       <r>     0.1833     0.4870     0.2002 </r>
       <r>     0.2659     0.5213     0.2432 </r>
       <r>     0.3485     0.5488     0.2885 </r>
       <r>     0.4310     0.5745     0.3360 </r>
       <r>     0.5136     0.6054     0.3859 </r>
       <r>     0.5962     0.6469     0.4394 </r>
       <r>     0.6787     0.7001     0.4972 </r>
       <r>     0.7613     0.7606     0.5600 </r>
       <r>     0.8439     0.8208     0.6278 </r>
       <r>     0.9265     0.8733     0.6999 </r>
       <r>     1.0090     0.9156     0.7755 </r>
       <r>     1.0916     0.9517     0.8540 </r>
       <r>     1.1742     0.9891     0.9357 </r>
       <r>     1.2567     1.0344     1.0211 </r>
       <r>     1.3393     1.0930     1.1114 </r>
       <r>     1.4219     1.1765     1.2085 </r>
       <r>     1.5045     1.3144     1.3171 </r>
       <r>     1.5870     1.5575     1.4457 </r>
       <r>     1.6696     1.9631     1.6078 </r>
       <r>     1.7522     2.5642     1.8195 </r>
       <r>     1.8348     3.3467     2.0959 </r>
       <r>     1.9173     4.2580     2.4474 </r>
       <r>     1.9999     5.2481     2.8808 </r>
       <r>     2.0825     6.3055     3.4015 </r>
       <r>     2.1650     7.4511     4.0167 </r>
       <r>     2.2476     8.6947     4.7346 </r>
       <r>     2.3302     9.9942     5.5599 </r>
       <r>     2.4128    11.2519     6.4890 </r>
       <r>     2.4953    12.3404     7.5080 </r>
       <r>     2.5779    13.1367     8.5927 </r>
       <r>     2.6605    13.5489     9.7115 </r>
       <r>     2.7430    13.5345    10.8290 </r>
       <r>     2.8256    13.1153    11.9120 </r>
       <r>     2.9082    12.3979    12.9357 </r>
       <r>     2.9908    11.5916    13.8929 </r>
       <r>     3.0733    10.9831    14.7998 </r>
       <r>     3.1559    10.8325    15.6942 </r>
       <r>     3.2385    11.2315    16.6216 </r>
       <r>     3.3211    12.0325    17.6152 </r>
       <r>     3.4036    12.9284    18.6827 </r>
       <r>     3.4862    13.6340    19.8085 </r>
       <r>     3.5688    14.0487    20.9685 </r>
       <r>     3.6513    14.3031    22.1496 </r>
       <r>     3.7339    14.6843    23.3621 </r>
       <r>     3.8165    15.4819    24.6405 </r>
       <r>     3.8991    16.8077    26.0283 </r>
       <r>     3.9816    18.4540    27.5521 </r>
       <r>     4.0642    19.8914    29.1946 </r>
       <r>     4.1468    20.4861    30.8862 </r>
       <r>     4.2294    19.8710    32.5270 </r>
       <r>     4.3119    18.2120    34.0308 </r>
       <r>     4.3945    16.1313    35.3628 </r>
       <r>     4.4771    14.3314    36.5462 </r>
       <r>     4.5596    13.2303    37.6386 </r>
       <r>     4.6422    12.8713    38.7014 </r>
       <r>     4.7248    13.0696    39.7806 </r>
       <r>     4.8074    13.5774    40.9017 </r>
       <r>     4.8899    14.1448    42.0697 </r>
       <r>     4.9725    14.5338    43.2698 </r>
       <r>     5.0551    14.5722    44.4731 </r>
       <r>     5.1376    14.2332    45.6483 </r>
       <r>     5.2202    13.6564    46.7760 </r>
       <r>     5.3028    13.0726    47.8554 </r>
       <r>     5.3854    12.6817    48.9026 </r>
       <r>     5.4679    12.5705    49.9405 </r>
       <r>     5.5505    12.7113    50.9901 </r>
       <r>     5.6331    13.0216    52.0654 </r>
       <r>     5.7157    13.4257    53.1740 </r>
       <r>     5.7982    13.8670    54.3190 </r>
       <r>     5.8808    14.2645    55.4968 </r>
       <r>     5.9634    14.4728    56.6919 </r>
       <r>     6.0459    14.3122    57.8737 </r>
       <r>     6.1285    13.6622    59.0018 </r>
       <r>     6.2111    12.5250    60.0360 </r>
       <r>     6.2937    10.9968    60.9441 </r>
       <r>     6.3762     9.1959    61.7034 </r>
       <r>     6.4588     7.2443    62.3016 </r>
       <r>     6.5414     5.3124    62.7402 </r>
       <r>     6.6240     3.6338    63.0403 </r>
       <r>     6.7065     2.4216    63.2402 </r>
       <r>     6.7891     1.7487    63.3846 </r>
       <r>     6.8717     1.5086    63.5092 </r>
       <r>     6.9542     1.4971    63.6328 </r>
       <r>     7.0368     1.5379    63.7598 </r>
       <r>     7.1194     1.5539    63.8881 </r>
       <r>     7.2020     1.5515    64.0162 </r>
       <r>     7.2845     1.5618    64.1452 </r>
       <r>     7.3671     1.5969    64.2770 </r>
       <r>     7.4497     1.6420    64.4126 </r>
       <r>     7.5322     1.6720    64.5507 </r>
       <r>     7.6148     1.6721    64.6888 </r>
       <r>     7.6974     1.6483    64.8249 </r>
       <r>     7.7800     1.6237    64.9589 </r>
       <r>     7.8625     1.6223    65.0929 </r>
       <r>     7.9451     1.6509    65.2292 </r>
       <r>     8.0277     1.6937    65.3691 </r>
       <r>     8.1103     1.7242    65.5114 </r>
       <r>     8.1928     1.7254    65.6539 </r>
       <r>     8.2754     1.7021    65.7944 </r>
       <r>     8.3580     1.6742    65.9327 </r>
       <r>     8.4405     1.6574    66.0695 </r>
       <r>     8.5231     1.6525    66.2060 </r>
       <r>     8.6057     1.6532    66.3425 </r>
       <r>     8.6883     1.6584    66.4794 </r>
       <r>     8.7708     1.6725    66.6175 </r>
       <r>     8.8534     1.6939    66.7574 </r>
       <r>     8.9360     1.7088    66.8985 </r>
       <r>     9.0185     1.7028    67.0391 </r>
       <r>     9.1011     1.6748    67.1774 </r>
       <r>     9.1837     1.6390    67.3127 </r>
       <r>     9.2663     1.6130    67.4459 </r>
       <r>     9.3488     1.6078    67.5787 </r>
       <r>     9.4314     1.6258    67.7129 </r>
       <r>     9.5140     1.6606    67.8501 </r>
       <r>     9.5966     1.6956    67.9901 </r>
       <r>     9.6791     1.7091    68.1312 </r>
       <r>     9.7617     1.6889    68.2706 </r>
       <r>     9.8443     1.6431    68.4063 </r>
       <r>     9.9268     1.5956    68.5381 </r>
       <r>    10.0094     1.5690    68.6676 </r>
       <r>    10.0920     1.5704    68.7973 </r>
       <r>    10.1746     1.5891    68.9285 </r>
       <r>    10.2571     1.6065    69.0612 </r>
       <r>    10.3397     1.6081    69.1939 </r>
       <r>    10.4223     1.5908    69.3253 </r>
       <r>    10.5049     1.5594    69.4541 </r>
       <r>    10.5874     1.5210    69.5797 </r>
       <r>    10.6700     1.4796    69.7018 </r>
       <r>    10.7526     1.4377    69.8205 </r>
       <r>    10.8351     1.4007    69.9362 </r>
       <r>    10.9177     1.3807    70.0502 </r>
       <r>    11.0003     1.3946    70.1654 </r>
       <r>    11.0829     1.4563    70.2856 </r>
       <r>    11.1654     1.5670    70.4150 </r>
       <r>    11.2480     1.7114    70.5563 </r>
       <r>    11.3306     1.8625    70.7101 </r>
       <r>    11.4131     1.9917    70.8746 </r>
       <r>    11.4957     2.0783    71.0462 </r>
       <r>    11.5783     2.1166    71.2210 </r>
       <r>    11.6609     2.1151    71.3956 </r>
       <r>    11.7434     2.0919    71.5683 </r>
       <r>    11.8260     2.0641    71.7388 </r>
       <r>    11.9086     2.0383    71.9071 </r>
       <r>    11.9912     2.0078    72.0729 </r>
       <r>    12.0737     1.9617    72.2348 </r>
       <r>    12.1563     1.9005    72.3918 </r>
       <r>    12.2389     1.8411    72.5438 </r>
       <r>    12.3214     1.8039    72.6928 </r>
       <r>    12.4040     1.7965    72.8411 </r>
       <r>    12.4866     1.8097    72.9905 </r>
       <r>    12.5692     1.8282    73.1415 </r>
       <r>    12.6517     1.8407    73.2935 </r>
       <r>    12.7343     1.8408    73.4455 </r>
       <r>    12.8169     1.8264    73.5963 </r>
       <r>    12.8994     1.8044    73.7453 </r>
       <r>    12.9820     1.7900    73.8931 </r>
       <r>    13.0646     1.7963    74.0414 </r>
       <r>    13.1472     1.8205    74.1917 </r>
       <r>    13.2297     1.8445    74.3440 </r>
       <r>    13.3123     1.8507    74.4969 </r>
       <r>    13.3949     1.8404    74.6488 </r>
       <r>    13.4775     1.8361    74.8004 </r>
       <r>    13.5600     1.8638    74.9543 </r>
       <r>    13.6426     1.9304    75.1137 </r>
       <r>    13.7252     2.0154    75.2802 </r>
       <r>    13.8077     2.0856    75.4524 </r>
       <r>    13.8903     2.1204    75.6275 </r>
       <r>    13.9729     2.1256    75.8030 </r>
       <r>    14.0555     2.1240    75.9784 </r>
       <r>    14.1380     2.1292    76.1542 </r>
       <r>    14.2206     2.1284    76.3299 </r>
       <r>    14.3032     2.0924    76.5027 </r>
       <r>    14.3858     2.0055    76.6683 </r>
       <r>    14.4683     1.8848    76.8239 </r>
       <r>    14.5509     1.7703    76.9701 </r>
       <r>    14.6335     1.6947    77.1100 </r>
       <r>    14.7160     1.6625    77.2473 </r>
       <r>    14.7986     1.6522    77.3837 </r>
       <r>    14.8812     1.6355    77.5188 </r>
       <r>    14.9638     1.5985    77.6508 </r>
       <r>    15.0463     1.5481    77.7786 </r>
       <r>    15.1289     1.5024    77.9027 </r>
       <r>    15.2115     1.4721    78.0242 </r>
       <r>    15.2940     1.4493    78.1439 </r>
       <r>    15.3766     1.4128    78.2606 </r>
       <r>    15.4592     1.3468    78.3718 </r>
       <r>    15.5418     1.2545    78.4753 </r>
       <r>    15.6243     1.1549    78.5707 </r>
       <r>    15.7069     1.0680    78.6589 </r>
       <r>    15.7895     1.0026    78.7417 </r>
       <r>    15.8721     0.9581    78.8208 </r>
       <r>    15.9546     0.9320    78.8978 </r>
       <r>    16.0372     0.9244    78.9741 </r>
       <r>    16.1198     0.9336    79.0512 </r>
       <r>    16.2023     0.9477    79.1294 </r>
       <r>    16.2849     0.9451    79.2075 </r>
       <r>    16.3675     0.9058    79.2823 </r>
       <r>    16.4501     0.8275    79.3506 </r>
       <r>    16.5326     0.7300    79.4109 </r>
       <r>    16.6152     0.6420    79.4639 </r>
       <r>    16.6978     0.5833    79.5120 </r>
       <r>    16.7804     0.5545    79.5578 </r>
       <r>    16.8629     0.5431    79.6027 </r>
       <r>    16.9455     0.5330    79.6467 </r>
       <r>    17.0281     0.5119    79.6889 </r>
       <r>    17.1106     0.4738    79.7281 </r>
       <r>    17.1932     0.4214    79.7629 </r>
       <r>    17.2758     0.3650    79.7930 </r>
       <r>    17.3584     0.3175    79.8192 </r>
       <r>    17.4409     0.2864    79.8429 </r>
       <r>    17.5235     0.2697    79.8651 </r>
       <r>    17.6061     0.2596    79.8866 </r>
       <r>    17.6886     0.2484    79.9071 </r>
       <r>    17.7712     0.2318    79.9262 </r>
       <r>    17.8538     0.2083    79.9434 </r>
       <r>    17.9364     0.1784    79.9582 </r>
       <r>    18.0189     0.1452    79.9701 </r>
       <r>    18.1015     0.1137    79.9795 </r>
       <r>    18.1841     0.0878    79.9868 </r>
       <r>    18.2667     0.0673    79.9923 </r>
       <r>    18.3492     0.0493    79.9964 </r>
       <r>    18.4318     0.0319    79.9991 </r>
       <r>    18.5144     0.0162    80.0004 </r>
       <r>    18.5969     0.0047    80.0008 </r>
       <r>    18.6795    -0.0014    80.0007 </r>
       <r>    18.7621    -0.0031    80.0004 </r>
       <r>    18.8447    -0.0025    80.0002 </r>
       <r>    18.9272    -0.0015    80.0001 </r>
       <r>    19.0098    -0.0007    80.0000 </r>
       <r>    19.0924    -0.0002    80.0000 </r>
       <r>    19.1749    -0.0001    80.0000 </r>
       <r>    19.2575     0.0000    80.0000 </r>
       <r>    19.3401     0.0000    80.0000 </r>
       <r>    19.4227     0.0000    80.0000 </r>
       <r>    19.5052     0.0000    80.0000 </r>
       <r>    19.5878     0.0000    80.0000 </r>
       <r>    19.6704     0.0000    80.0000 </r>
       <r>    19.7530     0.0000    80.0000 </r>
       <r>    19.8355     0.0000    80.0000 </r>
       <r>    19.9181     0.0000    80.0000 </r>
       <r>    20.0007     0.0000    80.0000 </r>
       <r>    20.0832     0.0000    80.0000 </r>
       <r>    20.1658     0.0000    80.0000 </r>
       <r>    20.2484     0.0000    80.0000 </r>
       <r>    20.3310     0.0000    80.0000 </r>
       <r>    20.4135     0.0000    80.0000 </r>
       <r>    20.4961     0.0000    80.0000 </r>
       <r>    20.5787     0.0000    80.0000 </r>
       <r>    20.6613     0.0000    80.0000 </r>
       <r>    20.7438     0.0000    80.0000 </r>
       <r>    20.8264     0.0000    80.0000 </r>
       <r>    20.9090     0.0000    80.0000 </r>
       <r>    20.9915     0.0000    80.0000 </r>
       <r>    21.0741     0.0000    80.0000 </r>
       <r>    21.1567     0.0000    80.0000 </r>
       <r>    21.2393     0.0000    80.0000 </r>
       <r>    21.3218     0.0000    80.0000 </r>
      </set>
     </set>
    </array>
   </total>
  </dos>
 </calculation>
 <structure name="finalpos" >
  <crystal>
   <varray name="basis" >
    <v>       0.00000000      -2.06411527      -2.06411527 </v>
    <v>      -4.16072873       2.07186362      -2.07186362 </v>
    <v>       4.17849010       4.16145035      -4.16145035 </v>
   </varray>
   <i name="volume">    107.21810491 </i>
   <varray name="rec_basis" >
    <v>       0.00000000      -0.24223453      -0.24223453 </v>
    <v>      -0.16022878       0.08044243      -0.08044243 </v>
    <v>       0.07977319       0.08010050      -0.08010050 </v>
   </varray>
  </crystal>
  <varray name="positions" >
   <v>       0.00000000       0.33363141       0.33238221 </v>
   <v>       0.50000000       0.16636859       0.66761779 </v>
   <v>       0.00000000       0.99974157       0.00299727 </v>
   <v>       0.50000000       0.83417876       0.33655094 </v>
   <v>       0.00000000       0.66582124       0.66344906 </v>
   <v>       0.50000000       0.50025843       0.99700273 </v>
  </varray>
 </structure>
</modeling>
