<?xml version="1.0" encoding="ISO-8859-1"?>
<modeling>
 <generator>
  <i name="program" type="string">vasp </i>
  <i name="version" type="string">5.3.5  </i>
  <i name="subversion" type="string">31Mar14 (build Jun 20 2014 13:15:13) complex                          parallel </i>
  <i name="platform" type="string">LinuxIFC </i>
  <i name="date" type="string">2025 12 16 </i>
  <i name="time" type="string">17:01:48 </i>
 </generator>
 <incar>
  <i type="string" name="PREC">accurate</i>
  <i type="int" name="IALGO">    68</i>
  <i type="logical" name="ADDGRID"> T  </i>
  <i type="int" name="NELM">   100</i>
  <i type="int" name="NELMIN">     4</i>
  <i type="int" name="IBRION">     2</i>
  <i name="EDIFF">      0.00000100</i>
  <i name="EDIFFG">     -0.02000000</i>
  <i type="int" name="NSW">    30</i>
  <i type="int" name="ISIF">     3</i>
  <i name="ENCUT">    600.00000000</i>
  <i type="logical" name="LREAL"> F  </i>
  <i type="int" name="ISMEAR">     0</i>
  <i name="SIGMA">      0.10000000</i>
  <i type="logical" name="LWAVE"> F  </i>
  <i type="logical" name="LCHARG"> F  </i>
  <i type="int" name="NELM">   100</i>
 </incar>
 <kpoints>
  <generation param="Auto">
   <i name="subdivisionlength">     20.00000000 </i>
   <v type="int" name="divisions">       4        4        4 </v>
   <v name="usershift">      0.00000000       0.00000000       0.00000000 </v>
   <v name="genvec1">      0.25000000       0.00000000       0.00000000 </v>
   <v name="genvec2">      0.00000000       0.25000000       0.00000000 </v>
   <v name="genvec3">      0.00000000       0.00000000       0.25000000 </v>
   <v name="shift">      0.00000000       0.00000000       0.00000000 </v>
  </generation>
  <varray name="kpointlist" >
   <v>       0.00000000       0.00000000       0.00000000 </v>
   <v>       0.25000000       0.00000000       0.00000000 </v>
   <v>       0.50000000       0.00000000       0.00000000 </v>
   <v>       0.00000000       0.25000000       0.00000000 </v>
   <v>       0.25000000       0.25000000       0.00000000 </v>
   <v>       0.50000000       0.25000000       0.00000000 </v>
   <v>      -0.25000000       0.25000000       0.00000000 </v>
   <v>       0.00000000       0.50000000       0.00000000 </v>
   <v>       0.25000000       0.50000000       0.00000000 </v>
   <v>       0.50000000       0.50000000       0.00000000 </v>
   <v>       0.00000000       0.00000000       0.25000000 </v>
   <v>       0.25000000       0.00000000       0.25000000 </v>
   <v>       0.50000000       0.00000000       0.25000000 </v>
   <v>      -0.25000000       0.00000000       0.25000000 </v>
   <v>       0.00000000       0.25000000       0.25000000 </v>
   <v>       0.25000000       0.25000000       0.25000000 </v>
   <v>       0.50000000       0.25000000       0.25000000 </v>
   <v>      -0.25000000       0.25000000       0.25000000 </v>
   <v>       0.00000000       0.50000000       0.25000000 </v>
   <v>       0.25000000       0.50000000       0.25000000 </v>
   <v>       0.50000000       0.50000000       0.25000000 </v>
   <v>      -0.25000000       0.50000000       0.25000000 </v>
   <v>       0.00000000      -0.25000000       0.25000000 </v>
   <v>       0.25000000      -0.25000000       0.25000000 </v>
   <v>       0.50000000      -0.25000000       0.25000000 </v>
   <v>      -0.25000000      -0.25000000       0.25000000 </v>
   <v>       0.00000000       0.00000000       0.50000000 </v>
   <v>       0.25000000       0.00000000       0.50000000 </v>
   <v>       0.50000000       0.00000000       0.50000000 </v>
   <v>       0.00000000       0.25000000       0.50000000 </v>
   <v>       0.25000000       0.25000000       0.50000000 </v>
   <v>       0.50000000       0.25000000       0.50000000 </v>
   <v>      -0.25000000       0.25000000       0.50000000 </v>
   <v>       0.00000000       0.50000000       0.50000000 </v>
   <v>       0.25000000       0.50000000       0.50000000 </v>
   <v>       0.50000000       0.50000000       0.50000000 </v>
  </varray>
  <varray name="weights" >
   <v>       0.01562500 </v>
   <v>       0.03125000 </v>
   <v>       0.01562500 </v>
   <v>       0.03125000 </v>
   <v>       0.03125000 </v>
   <v>       0.03125000 </v>
   <v>       0.03125000 </v>
   <v>       0.01562500 </v>
   <v>       0.03125000 </v>
   <v>       0.01562500 </v>
   <v>       0.03125000 </v>
   <v>       0.03125000 </v>
   <v>       0.03125000 </v>
   <v>       0.03125000 </v>
   <v>       0.03125000 </v>
   <v>       0.03125000 </v>
   <v>       0.03125000 </v>
   <v>       0.03125000 </v>
   <v>       0.03125000 </v>
   <v>       0.03125000 </v>
   <v>       0.03125000 </v>
   <v>       0.03125000 </v>
   <v>       0.03125000 </v>
   <v>       0.03125000 </v>
   <v>       0.03125000 </v>
   <v>       0.03125000 </v>
   <v>       0.01562500 </v>
   <v>       0.03125000 </v>
   <v>       0.01562500 </v>
   <v>       0.03125000 </v>
   <v>       0.03125000 </v>
   <v>       0.03125000 </v>
   <v>       0.03125000 </v>
   <v>       0.01562500 </v>
   <v>       0.03125000 </v>
   <v>       0.01562500 </v>
  </varray>
 </kpoints>
 <parameters>
  <separator name="general" >
   <i type="string" name="SYSTEM">unknown system</i>
   <i type="logical" name="LCOMPAT"> F  </i>
  </separator>
  <separator name="electronic" >
   <i type="string" name="PREC">accura</i>
   <i name="ENMAX">    600.00000000</i>
   <i name="ENAUG">    644.87300000</i>
   <i name="EDIFF">      0.00000100</i>
   <i type="int" name="IALGO">    68</i>
   <i type="int" name="IWAVPR">    11</i>
   <i type="int" name="NBANDS">    44</i>
   <i name="NELECT">     64.00000000</i>
   <i type="int" name="TURBO">     0</i>
   <i type="int" name="IRESTART">     0</i>
   <i type="int" name="NREBOOT">     0</i>
   <i type="int" name="NMIN">     0</i>
   <i name="EREF">      0.00000000</i>
   <separator name="electronic smearing" >
    <i type="int" name="ISMEAR">     0</i>
    <i name="SIGMA">      0.10000000</i>
    <i name="KSPACING">      0.50000000</i>
    <i type="logical" name="KGAMMA"> T  </i>
   </separator>
   <separator name="electronic projectors" >
    <i type="logical" name="LREAL"> F  </i>
    <v name="ROPT">      0.00000000      0.00000000      0.00000000      0.00000000</v>
    <i type="int" name="LMAXPAW">  -100</i>
    <i type="int" name="LMAXMIX">     2</i>
    <i type="logical" name="NLSPLINE"> F  </i>
   </separator>
   <separator name="electronic startup" >
    <i type="int" name="ISTART">     0</i>
    <i type="int" name="ICHARG">     2</i>
    <i type="int" name="INIWAV">     1</i>
   </separator>
   <separator name="electronic spin" >
    <i type="int" name="ISPIN">     1</i>
    <i type="logical" name="LNONCOLLINEAR"> F  </i>
    <v name="MAGMOM">      1.00000000      1.00000000      1.00000000      1.00000000      1.00000000      1.00000000      1.00000000      1.00000000      1.00000000      1.00000000      1.00000000      1.00000000      1.00000000      1.00000000      1.00000000      1.00000000</v>
    <i name="NUPDOWN">     -1.00000000</i>
    <i type="logical" name="LSORBIT"> F  </i>
    <v name="SAXIS">      0.00000000      0.00000000      1.00000000</v>
    <i type="logical" name="LSPIRAL"> F  </i>
    <v name="QSPIRAL">      0.00000000      0.00000000      0.00000000</v>
    <i type="logical" name="LZEROZ"> F  </i>
   </separator>
   <separator name="electronic exchange-correlation" >
    <i type="logical" name="LASPH"> F  </i>
    <i type="logical" name="LMETAGGA"> F  </i>
   </separator>
   <separator name="electronic convergence" >
    <i type="int" name="NELM">   100</i>
    <i type="int" name="NELMDL">     0</i>
    <i type="int" name="NELMIN">     4</i>
    <i name="ENINI">    600.00000000</i>
    <separator name="electronic convergence detail" >
     <i type="logical" name="LDIAG"> T  </i>
     <i type="logical" name="LSUBROT"> F  </i>
     <i name="WEIMIN">      0.00100000</i>
     <i name="EBREAK">      0.00000001</i>
     <i name="DEPER">      0.30000000</i>
     <i type="int" name="NRMM">     4</i>
     <i name="TIME">      0.40000000</i>
    </separator>
   </separator>
   <separator name="electronic mixer" >
    <i name="AMIX">      0.40000000</i>
    <i name="BMIX">      1.00000000</i>
    <i name="AMIN">      0.10000000</i>
    <i name="AMIX_MAG">      1.60000000</i>
    <i name="BMIX_MAG">      1.00000000</i>
    <separator name="electronic mixer details" >
     <i type="int" name="IMIX">     4</i>
     <i type="int" name="MAXMIX">   -45</i>
     <i name="WC">    100.00000000</i>
     <i type="int" name="INIMIX">     1</i>
     <i type="int" name="MIXPRE">     1</i>
     <i type="int" name="MREMOVE">     5</i>
    </separator>
   </separator>
   <separator name="electronic dipolcorrection" >
    <i type="logical" name="LDIPOL"> F  </i>
    <i type="logical" name="LMONO"> F  </i>
    <i type="int" name="IDIPOL">     0</i>
    <i name="EPSILON">      1.00000000</i>
    <v name="DIPOL">   -100.00000000   -100.00000000   -100.00000000</v>
    <i name="EFIELD">      0.00000000</i>
   </separator>
  </separator>
  <separator name="grids" >
   <i type="int" name="NGX">    40</i>
   <i type="int" name="NGY">    50</i>
   <i type="int" name="NGZ">    50</i>
   <i type="int" name="NGXF">    80</i>
   <i type="int" name="NGYF">   100</i>
   <i type="int" name="NGZF">   100</i>
   <i type="logical" name="ADDGRID"> T  </i>
  </separator>
  <separator name="ionic" >
   <i type="int" name="NSW">    30</i>
   <i type="int" name="IBRION">     2</i>
   <i type="int" name="ISIF">     3</i>
   <i name="PSTRESS">      0.00000000</i>
   <i name="EDIFFG">     -0.02000000</i>
   <i type="int" name="NFREE">     1</i>
   <i name="POTIM">      0.50000000</i>
   <i name="SMASS">     -3.00000000</i>
   <i name="SCALEE">      1.00000000</i>
  </separator>
  <separator name="ionic md" >
   <i name="TEBEG">      0.00010000</i>
   <i name="TEEND">      0.00010000</i>
   <i type="int" name="NBLOCK">     1</i>
   <i type="int" name="KBLOCK">    30</i>
   <i type="int" name="NPACO">   256</i>
   <i name="APACO">     16.00000000</i>
  </separator>
  <separator name="symmetry" >
   <i type="int" name="ISYM">     2</i>
   <i name="SYMPREC">      0.00001000</i>
  </separator>
  <separator name="dos" >
   <i type="logical" name="LORBIT"> F  </i>
   <v name="RWIGS">     -1.00000000     -1.00000000     -1.00000000     -1.00000000</v>
   <i type="int" name="NEDOS">   301</i>
   <i name="EMIN">     10.00000000</i>
   <i name="EMAX">    -10.00000000</i>
   <i name="EFERMI">      0.00000000</i>
  </separator>
  <separator name="writing" >
   <i type="int" name="NWRITE">     2</i>
   <i type="logical" name="LWAVE"> F  </i>
   <i type="logical" name="LCHARG"> F  </i>
   <i type="logical" name="LPARD"> F  </i>
   <i type="logical" name="LVTOT"> F  </i>
   <i type="logical" name="LVHAR"> F  </i>
   <i type="logical" name="LELF"> F  </i>
   <i type="logical" name="LOPTICS"> F  </i>
   <v name="STM">      0.00000000      0.00000000      0.00000000      0.00000000      0.00000000      0.00000000      0.00000000</v>
  </separator>
  <separator name="performance" >
   <i type="int" name="NPAR">     4</i>
   <i type="int" name="NSIM">     4</i>
   <i type="int" name="NBLK">    -1</i>
   <i type="logical" name="LPLANE"> T  </i>
   <i type="logical" name="LSCALAPACK"> T  </i>
   <i type="logical" name="LSCAAWARE"> F  </i>
   <i type="logical" name="LSCALU"> F  </i>
   <i type="logical" name="LASYNC"> F  </i>
   <i type="logical" name="LORBITALREAL"> F  </i>
  </separator>
  <separator name="miscellaneous" >
   <i type="int" name="IDIOT">     3</i>
   <i type="logical" name="LMUSIC"> F  </i>
   <v name="POMASS">     28.08500000     26.98100000     12.01100000     14.00100000</v>
   <v name="DARWINR">      0.00000000      0.00000000      0.00000000      0.00000000</v>
   <v name="DARWINV">      1.00000000      1.00000000      1.00000000      1.00000000</v>
   <i type="logical" name="LCORR"> T  </i>
  </separator>
  <i type="logical" name="GGA_COMPAT"> T  </i>
  <i type="logical" name="LBERRY"> F  </i>
  <i type="int" name="ICORELEVEL">     0</i>
  <i type="logical" name="LDAU"> F  </i>
  <i type="int" name="I_CONSTRAINED_M">     0</i>
  <separator name="electronic exchange-correlation" >
   <i type="string" name="GGA">--</i>
   <i type="int" name="VOSKOWN">     0</i>
   <i type="logical" name="LHFCALC"> F  </i>
   <i type="string" name="PRECFOCK"></i>
   <i type="logical" name="LSYMGRAD"> F  </i>
   <i type="logical" name="LHFONE"> F  </i>
   <i type="logical" name="LRHFCALC"> F  </i>
   <i type="logical" name="LTHOMAS"> F  </i>
   <i type="logical" name="LMODELHF"> F  </i>
   <i name="ENCUT4O">     -1.00000000</i>
   <i type="int" name="EXXOEP">     0</i>
   <i type="int" name="FOURORBIT">     0</i>
   <i name="AEXX">      0.00000000</i>
   <i name="HFALPHA">      0.00000000</i>
   <i name="MCALPHA">      0.00000000</i>
   <i name="ALDAX">      1.00000000</i>
   <i name="AGGAX">      1.00000000</i>
   <i name="ALDAC">      1.00000000</i>
   <i name="AGGAC">      1.00000000</i>
   <i type="int" name="NKREDX">     1</i>
   <i type="int" name="NKREDY">     1</i>
   <i type="int" name="NKREDZ">     1</i>
   <i type="logical" name="SHIFTRED"> F  </i>
   <i type="logical" name="ODDONLY"> F  </i>
   <i type="logical" name="EVENONLY"> F  </i>
   <i type="int" name="LMAXFOCK">     0</i>
   <i type="int" name="NMAXFOCKAE">     0</i>
   <i type="logical" name="LFOCKAEDFT"> F  </i>
   <i name="HFSCREEN">      0.00000000</i>
   <i name="HFSCREENC">      0.00000000</i>
   <i type="int" name="NBANDSGWLOW">     0</i>
  </separator>
  <separator name="vdW DFT" >
   <i type="logical" name="LUSE_VDW"> F  </i>
   <i name="Zab_VDW">     -0.84910000</i>
   <i name="PARAM1">      0.12340000</i>
   <i name="PARAM2">      1.00000000</i>
   <i name="PARAM3">      0.00000000</i>
  </separator>
  <separator name="model GW" >
   <i type="int" name="MODEL_GW">     0</i>
   <i name="MODEL_EPS0">      6.40377345</i>
   <i name="MODEL_ALPHA">      1.00000000</i>
  </separator>
  <separator name="linear response parameters" >
   <i type="logical" name="LEPSILON"> F  </i>
   <i type="logical" name="LRPA"> F  </i>
   <i type="logical" name="LNABLA"> F  </i>
   <i type="logical" name="LVEL"> F  </i>
   <i type="int" name="KINTER">     0</i>
   <i name="CSHIFT">      0.10000000</i>
   <i name="OMEGAMAX">     -1.00000000</i>
   <i name="DEG_THRESHOLD">      0.00200000</i>
  </separator>
  <separator name="orbital magnetization" >
   <i type="logical" name="NUCIND"> F  </i>
   <v name="MAGPOS">      0.00000000      0.00000000      0.00000000</v>
   <i type="logical" name="LNICSALL"> T  </i>
   <i type="logical" name="ORBITALMAG"> F  </i>
   <i type="logical" name="LMAGBLOCH"> F  </i>
   <i type="logical" name="LCHIMAG"> F  </i>
   <i type="logical" name="LGAUGE"> T  </i>
   <i type="int" name="MAGATOM">     0</i>
   <v name="MAGDIPOL">      0.00000000      0.00000000      0.00000000</v>
   <v name="AVECCONST">      0.00000000      0.00000000      0.00000000</v>
  </separator>
  <separator name="response functions" >
   <i type="logical" name="LADDER"> F  </i>
   <i type="logical" name="LFXC"> F  </i>
   <i type="logical" name="LHARTREE"> T  </i>
   <i type="int" name="IBSE">     0</i>
   <i type="logical" name="LTCTE"> F  </i>
   <i type="logical" name="LTETE"> F  </i>
   <i type="logical" name="LTRIPLET"> F  </i>
   <i type="logical" name="LFXCEPS"> F  </i>
   <i type="logical" name="LFXHEG"> F  </i>
   <i type="logical" name="L2ORDER"> F  </i>
   <i type="logical" name="LUSEW"> F  </i>
   <i name="ENCUTGW">     -2.00000000</i>
   <i name="ENCUTGWSOFT">     -2.00000000</i>
   <i name="ENCUTLF">     -1.00000000</i>
   <i type="int" name="LMAXMP2">    -1</i>
   <i name="SCISSOR">      0.00000000</i>
   <i type="int" name="NOMEGA">     0</i>
   <i type="int" name="NOMEGAR">     0</i>
   <i type="int" name="NBANDSGW">    -1</i>
   <i type="int" name="NBANDSO">    -1</i>
   <i type="int" name="NBANDSV">    -1</i>
   <i type="int" name="NELM">   100</i>
   <i type="int" name="DIM">     3</i>
   <i type="int" name="ANTIRES">     0</i>
   <i name="OMEGAMAX">    -30.00000000</i>
   <i name="OMEGAMIN">    -30.00000000</i>
   <i name="OMEGATL">   -200.00000000</i>
   <i type="int" name="OMEGAGRID">     0</i>
   <i name="CSHIFT">     -0.10000000</i>
   <i type="logical" name="SELFENERGY"> F  </i>
   <i type="logical" name="LSPECTRAL"> F  </i>
   <i type="logical" name="ODDONLYGW"> F  </i>
   <i type="logical" name="EVENONLYGW"> F  </i>
   <i type="int" name="NKREDLFX">     1</i>
   <i type="int" name="NKREDLFY">     1</i>
   <i type="int" name="NKREDLFZ">     1</i>
   <i type="int" name="MAXMEM">  1800</i>
   <i type="int" name="TELESCOPE">     0</i>
   <i type="int" name="TAUPAR">     1</i>
  </separator>
  <separator name="External order field" >
   <i name="OFIELD_KAPPA">      0.00000000</i>
   <v name="OFIELD_K">      0.00000000      0.00000000      0.00000000</v>
   <i name="OFIELD_Q6_NEAR">      0.00000000</i>
   <i name="OFIELD_Q6_FAR">      0.00000000</i>
   <i name="OFIELD_A">      0.00000000</i>
  </separator>
 </parameters>
 <atominfo>
  <atoms>      16 </atoms>
  <types>       4 </types>
  <array name="atoms" >
   <dimension dim="1">ion</dimension>
   <field type="string">element</field>
   <field type="int">atomtype</field>
   <set>
    <rc><c>Si</c><c>   1</c></rc>
    <rc><c>Si</c><c>   1</c></rc>
    <rc><c>Si</c><c>   1</c></rc>
    <rc><c>Si</c><c>   1</c></rc>
    <rc><c>Al</c><c>   2</c></rc>
    <rc><c>Al</c><c>   2</c></rc>
    <rc><c>Al</c><c>   2</c></rc>
    <rc><c>Al</c><c>   2</c></rc>
    <rc><c>C </c><c>   3</c></rc>
    <rc><c>C </c><c>   3</c></rc>
    <rc><c>C </c><c>   3</c></rc>
    <rc><c>C </c><c>   3</c></rc>
    <rc><c>N </c><c>   4</c></rc>
    <rc><c>N </c><c>   4</c></rc>
    <rc><c>N </c><c>   4</c></rc>
    <rc><c>N </c><c>   4</c></rc>
   </set>
  </array>
  <array name="atomtypes" >
   <dimension dim="1">type</dimension>
   <field type="int">atomspertype</field>
   <field type="string">element</field>
   <field>mass</field>
   <field>valence</field>
   <field type="string">pseudopotential</field>
   <set>
    <rc><c>   4</c><c>Si</c><c>     28.08500000</c><c>      4.00000000</c><c>  PAW_PBE Si 05Jan2001                  </c></rc>
    <rc><c>   4</c><c>Al</c><c>     26.98100000</c><c>      3.00000000</c><c>  PAW_PBE Al 04Jan2001                  </c></rc>
    <rc><c>   4</c><c>C </c><c>     12.01100000</c><c>      4.00000000</c><c>  PAW_PBE C 08Apr2002                   </c></rc>
    <rc><c>   4</c><c>N </c><c>     14.00100000</c><c>      5.00000000</c><c>  PAW_PBE N_s 07Sep2000                 </c></rc>
   </set>
  </array>
 </atominfo>
 <structure name="initialpos" >
  <crystal>
   <varray name="basis" >
    <v>       5.04515622      -0.00404606      -0.00666018 </v>
    <v>      -0.00498563       6.27193693       0.00035530 </v>
    <v>      -0.00462946      -3.13562437       5.39653663 </v>
   </varray>
   <i name="volume">    170.76729202 </i>
   <varray name="rec_basis" >
    <v>       0.19821039       0.00015754       0.00026158 </v>
    <v>       0.00025016       0.15943533       0.09263913 </v>
    <v>       0.00024461      -0.00001030       0.18529826 </v>
   </varray>
  </crystal>
  <varray name="positions" >
   <v>       0.98383324       0.66705352       0.82797117 </v>
   <v>       0.50284419       0.83251061       0.16853492 </v>
   <v>       0.50156615       0.32802189       0.66930171 </v>
   <v>       0.50291458       0.84066026       0.66665093 </v>
   <v>       0.99752576       0.17014722       0.33330146 </v>
   <v>       0.99870784       0.66337023       0.33528340 </v>
   <v>       0.99395207       0.16686576       0.83804055 </v>
   <v>       0.50776009       0.33333455       0.16309212 </v>
   <v>       0.38560390       0.15968643       0.81459112 </v>
   <v>       0.36579285       0.66369237       0.83296901 </v>
   <v>       0.88824306       0.33561431       0.17199172 </v>
   <v>       0.86432224       0.82512999       0.67198303 </v>
   <v>       0.39235281       0.15264183       0.34127241 </v>
   <v>       0.38954732       0.68684053       0.33692888 </v>
   <v>       0.86265587       0.82607797       0.15497679 </v>
   <v>       0.86237803       0.34835253       0.67311078 </v>
  </varray>
 </structure>
 <calculation>
  <scstep>
   <time name="dav">    0.76    0.76</time>
   <time name="total">    0.80    0.81</time>
   <energy>
    <i name="alphaZ">     63.69250040 </i>
    <i name="ewald">  -2267.43621153 </i>
    <i name="hartreedc">   -360.83595911 </i>
    <i name="XCdc">     -5.59463479 </i>
    <i name="pawpsdc">   1871.13760811 </i>
    <i name="pawaedc">  -1679.96522576 </i>
    <i name="eentropy">     -0.01094216 </i>
    <i name="bandstr">    443.82142672 </i>
    <i name="atom">   2273.20978491 </i>
    <i name="e_fr_energy">    338.01834679 </i>
    <i name="e_wo_entrp">    338.02928895 </i>
    <i name="e_0_energy">    338.02381787 </i>
   </energy>
  </scstep>
  <scstep>
   <time name="dav">    0.87    0.87</time>
   <time name="total">    0.87    0.88</time>
   <energy>
    <i name="e_fr_energy">   -100.54778790 </i>
    <i name="e_wo_entrp">   -100.54778790 </i>
    <i name="e_0_energy">   -100.54778790 </i>
   </energy>
  </scstep>
  <scstep>
   <time name="dav">    0.91    0.91</time>
   <time name="total">    0.91    0.92</time>
   <energy>
    <i name="e_fr_energy">   -134.17911170 </i>
    <i name="e_wo_entrp">   -134.17911170 </i>
    <i name="e_0_energy">   -134.17911170 </i>
   </energy>
  </scstep>
  <scstep>
   <time name="dav">    0.89    0.89</time>
   <time name="total">    0.89    0.91</time>
   <energy>
    <i name="e_fr_energy">   -135.03069489 </i>
    <i name="e_wo_entrp">   -135.03069489 </i>
    <i name="e_0_energy">   -135.03069489 </i>
   </energy>
  </scstep>
  <scstep>
   <time name="dav">    0.89    0.89</time>
   <time name="total">    0.97    0.98</time>
   <energy>
    <i name="e_fr_energy">   -135.05810056 </i>
    <i name="e_wo_entrp">   -135.05810056 </i>
    <i name="e_0_energy">   -135.05810056 </i>
   </energy>
  </scstep>
  <scstep>
   <time name="diag">    0.18    0.18</time>
   <time name="diis">    0.45    0.45</time>
   <time name="orth">    0.03    0.03</time>
   <time name="total">    0.78    0.79</time>
   <energy>
    <i name="e_fr_energy">   -116.65681442 </i>
    <i name="e_wo_entrp">   -116.65681442 </i>
    <i name="e_0_energy">   -116.65681442 </i>
   </energy>
  </scstep>
  <scstep>
   <time name="diag">    0.19    0.19</time>
   <time name="diis">    0.49    0.49</time>
   <time name="orth">    0.03    0.03</time>
   <time name="total">    0.82    0.83</time>
   <energy>
    <i name="e_fr_energy">   -116.52574902 </i>
    <i name="e_wo_entrp">   -116.52574902 </i>
    <i name="e_0_energy">   -116.52574902 </i>
   </energy>
  </scstep>
  <scstep>
   <time name="diag">    0.18    0.18</time>
   <time name="diis">    0.45    0.45</time>
   <time name="orth">    0.03    0.03</time>
   <time name="total">    0.77    0.79</time>
   <energy>
    <i name="e_fr_energy">   -116.79789021 </i>
    <i name="e_wo_entrp">   -116.79789021 </i>
    <i name="e_0_energy">   -116.79789021 </i>
   </energy>
  </scstep>
  <scstep>
   <time name="diag">    0.18    0.18</time>
   <time name="diis">    0.45    0.45</time>
   <time name="orth">    0.03    0.03</time>
   <time name="total">    0.77    0.79</time>
   <energy>
    <i name="e_fr_energy">   -116.38191528 </i>
    <i name="e_wo_entrp">   -116.38191528 </i>
    <i name="e_0_energy">   -116.38191528 </i>
   </energy>
  </scstep>
  <scstep>
   <time name="diag">    0.18    0.18</time>
   <time name="diis">    0.48    0.48</time>
   <time name="orth">    0.03    0.03</time>
   <time name="total">    0.80    0.82</time>
   <energy>
    <i name="e_fr_energy">   -116.38986896 </i>
    <i name="e_wo_entrp">   -116.38986896 </i>
    <i name="e_0_energy">   -116.38986896 </i>
   </energy>
  </scstep>
  <scstep>
   <time name="diag">    0.19    0.19</time>
   <time name="diis">    0.46    0.46</time>
   <time name="orth">    0.03    0.03</time>
   <time name="total">    0.79    0.80</time>
   <energy>
    <i name="e_fr_energy">   -116.38809958 </i>
    <i name="e_wo_entrp">   -116.38809958 </i>
    <i name="e_0_energy">   -116.38809958 </i>
   </energy>
  </scstep>
  <scstep>
   <time name="diag">    0.18    0.18</time>
   <time name="diis">    0.45    0.45</time>
   <time name="orth">    0.03    0.03</time>
   <time name="total">    0.78    0.79</time>
   <energy>
    <i name="e_fr_energy">   -116.38793388 </i>
    <i name="e_wo_entrp">   -116.38793388 </i>
    <i name="e_0_energy">   -116.38793388 </i>
   </energy>
  </scstep>
  <scstep>
   <time name="diag">    0.18    0.18</time>
   <time name="diis">    0.45    0.45</time>
   <time name="orth">    0.03    0.03</time>
   <time name="total">    0.78    0.79</time>
   <energy>
    <i name="e_fr_energy">   -116.38795113 </i>
    <i name="e_wo_entrp">   -116.38795113 </i>
    <i name="e_0_energy">   -116.38795113 </i>
   </energy>
  </scstep>
  <scstep>
   <time name="diag">    0.18    0.18</time>
   <time name="diis">    0.50    0.50</time>
   <time name="orth">    0.04    0.04</time>
   <time name="total">    0.84    0.85</time>
   <energy>
    <i name="e_fr_energy">   -116.38794830 </i>
    <i name="e_wo_entrp">   -116.38794830 </i>
    <i name="e_0_energy">   -116.38794830 </i>
   </energy>
  </scstep>
  <scstep>
   <time name="diag">    0.18    0.18</time>
   <time name="diis">    0.35    0.35</time>
   <time name="orth">    0.03    0.03</time>
   <time name="total">    0.60    0.61</time>
   <energy>
    <i name="alphaZ">     63.69250040 </i>
    <i name="ewald">  -2267.43621153 </i>
    <i name="hartreedc">   -467.38420522 </i>
    <i name="XCdc">      3.97569683 </i>
    <i name="pawpsdc">  10208.24546013 </i>
    <i name="pawaedc"> -10021.27742831 </i>
    <i name="eentropy">      0.00000000 </i>
    <i name="bandstr">     90.58645375 </i>
    <i name="atom">   2273.20978491 </i>
    <i name="e_fr_energy">   -116.38794904 </i>
    <i name="e_wo_entrp">   -116.38794904 </i>
    <i name="e_0_energy">   -116.38794904 </i>
   </energy>
  </scstep>
  <structure>
   <crystal>
    <varray name="basis" >
     <v>       5.04515622      -0.00404606      -0.00666018 </v>
     <v>      -0.00498563       6.27193693       0.00035530 </v>
     <v>      -0.00462946      -3.13562437       5.39653663 </v>
    </varray>
    <i name="volume">    170.76729202 </i>
    <varray name="rec_basis" >
     <v>       0.19821039       0.00015754       0.00026158 </v>
     <v>       0.00025016       0.15943533       0.09263913 </v>
     <v>       0.00024461      -0.00001030       0.18529826 </v>
    </varray>
   </crystal>
   <varray name="positions" >
    <v>       0.98383324       0.66705352       0.82797117 </v>
    <v>       0.50284419       0.83251061       0.16853492 </v>
    <v>       0.50156615       0.32802189       0.66930171 </v>
    <v>       0.50291458       0.84066026       0.66665093 </v>
    <v>       0.99752576       0.17014722       0.33330146 </v>
    <v>       0.99870784       0.66337023       0.33528340 </v>
    <v>       0.99395207       0.16686576       0.83804055 </v>
    <v>       0.50776009       0.33333455       0.16309212 </v>
    <v>       0.38560390       0.15968643       0.81459112 </v>
    <v>       0.36579285       0.66369237       0.83296901 </v>
    <v>       0.88824306       0.33561431       0.17199172 </v>
    <v>       0.86432224       0.82512999       0.67198303 </v>
    <v>       0.39235281       0.15264183       0.34127241 </v>
    <v>       0.38954732       0.68684053       0.33692888 </v>
    <v>       0.86265587       0.82607797       0.15497679 </v>
    <v>       0.86237803       0.34835253       0.67311078 </v>
   </varray>
  </structure>
  <varray name="forces" >
   <v>      -0.00421873       0.00383271      -0.00475911 </v>
   <v>      -0.00554038      -0.00729760      -0.00531168 </v>
   <v>      -0.00081178      -0.00640788       0.00267832 </v>
   <v>      -0.00290366       0.00212835      -0.00230054 </v>
   <v>      -0.00116550      -0.00278324       0.00216942 </v>
   <v>      -0.00447297      -0.00232814       0.00488857 </v>
   <v>      -0.00205205       0.00143715       0.00721994 </v>
   <v>      -0.00990673      -0.00042476       0.00563495 </v>
   <v>       0.00393895       0.01011220      -0.00939314 </v>
   <v>       0.00324969       0.00326097      -0.00343653 </v>
   <v>      -0.00237045      -0.00104951       0.01243897 </v>
   <v>       0.01000182       0.00256587      -0.00032944 </v>
   <v>       0.00058072       0.00008847      -0.00346451 </v>
   <v>       0.00214005       0.00555374      -0.00779591 </v>
   <v>       0.00671186      -0.00367745      -0.00529778 </v>
   <v>       0.00681916      -0.00501089       0.00705847 </v>
  </varray>
  <varray name="stress" >
   <v>      -0.28081995      -0.05923966       0.01338607 </v>
   <v>      -0.05923950      -0.21776100       0.19643408 </v>
   <v>       0.01338600       0.19643465      -0.18476465 </v>
  </varray>
  <energy>
   <i name="e_fr_energy">   -116.38794904 </i>
   <i name="e_wo_entrp">   -116.38794904 </i>
   <i name="e_0_energy">      0.00000000 </i>
  </energy>
  <time name="totalsc">   13.62   13.85</time>
  <eigenvalues>
   <array>
    <dimension dim="1">band</dimension>
    <dimension dim="2">kpoint</dimension>
    <dimension dim="3">spin</dimension>
    <field>eigene</field>
    <field>occ</field>
    <set>
     <set comment="spin 1">
      <set comment="kpoint 1">
       <r>   -9.3805    1.0000 </r>
       <r>   -7.8451    1.0000 </r>
       <r>   -7.5796    1.0000 </r>
       <r>   -7.3109    1.0000 </r>
       <r>   -4.6699    1.0000 </r>
       <r>   -3.4383    1.0000 </r>
       <r>   -2.9205    1.0000 </r>
       <r>   -1.8832    1.0000 </r>
       <r>   -0.7983    1.0000 </r>
       <r>   -0.5594    1.0000 </r>
       <r>    0.1727    1.0000 </r>
       <r>    0.5318    1.0000 </r>
       <r>    1.5395    1.0000 </r>
       <r>    1.8081    1.0000 </r>
       <r>    1.9002    1.0000 </r>
       <r>    2.5551    1.0000 </r>
       <r>    2.6864    1.0000 </r>
       <r>    2.9519    1.0000 </r>
       <r>    3.3867    1.0000 </r>
       <r>    3.9013    1.0000 </r>
       <r>    4.0627    1.0000 </r>
       <r>    4.4119    1.0000 </r>
       <r>    4.7933    1.0000 </r>
       <r>    5.3138    1.0000 </r>
       <r>    5.5911    1.0000 </r>
       <r>    5.7441    1.0000 </r>
       <r>    6.0532    1.0000 </r>
       <r>    6.5443    1.0000 </r>
       <r>    6.8357    1.0000 </r>
       <r>    7.2208    1.0000 </r>
       <r>    7.4751    1.0000 </r>
       <r>    8.4401    1.0000 </r>
       <r>   10.4847    0.0000 </r>
       <r>   10.5649    0.0000 </r>
       <r>   10.7217    0.0000 </r>
       <r>   11.4865    0.0000 </r>
       <r>   11.6273    0.0000 </r>
       <r>   12.2501    0.0000 </r>
       <r>   12.3809    0.0000 </r>
       <r>   13.1565    0.0000 </r>
       <r>   14.0666    0.0000 </r>
       <r>   14.6973    0.0000 </r>
       <r>   14.9157    0.0000 </r>
       <r>   15.0275    0.0000 </r>
      </set>
      <set comment="kpoint 2">
       <r>   -9.1967    1.0000 </r>
       <r>   -7.9289    1.0000 </r>
       <r>   -7.6536    1.0000 </r>
       <r>   -7.3275    1.0000 </r>
       <r>   -4.6639    1.0000 </r>
       <r>   -3.5785    1.0000 </r>
       <r>   -3.0488    1.0000 </r>
       <r>   -1.7962    1.0000 </r>
       <r>   -0.9821    1.0000 </r>
       <r>   -0.3938    1.0000 </r>
       <r>   -0.3320    1.0000 </r>
       <r>    0.7206    1.0000 </r>
       <r>    1.2622    1.0000 </r>
       <r>    1.3150    1.0000 </r>
       <r>    1.7730    1.0000 </r>
       <r>    2.7021    1.0000 </r>
       <r>    3.3064    1.0000 </r>
       <r>    3.5327    1.0000 </r>
       <r>    3.7529    1.0000 </r>
       <r>    4.1169    1.0000 </r>
       <r>    4.4049    1.0000 </r>
       <r>    4.6480    1.0000 </r>
       <r>    5.0103    1.0000 </r>
       <r>    5.2449    1.0000 </r>
       <r>    5.6880    1.0000 </r>
       <r>    5.9042    1.0000 </r>
       <r>    6.0918    1.0000 </r>
       <r>    6.5177    1.0000 </r>
       <r>    6.5970    1.0000 </r>
       <r>    6.9744    1.0000 </r>
       <r>    7.4336    1.0000 </r>
       <r>    8.3395    1.0000 </r>
       <r>   10.1949    0.0000 </r>
       <r>   10.4573    0.0000 </r>
       <r>   10.7944    0.0000 </r>
       <r>   11.3554    0.0000 </r>
       <r>   11.5158    0.0000 </r>
       <r>   11.9179    0.0000 </r>
       <r>   12.4547    0.0000 </r>
       <r>   13.5958    0.0000 </r>
       <r>   14.1648    0.0000 </r>
       <r>   14.4551    0.0000 </r>
       <r>   14.7176    0.0000 </r>
       <r>   15.3079    0.0000 </r>
      </set>
      <set comment="kpoint 3">
       <r>   -8.8935    1.0000 </r>
       <r>   -8.2593    1.0000 </r>
       <r>   -7.5800    1.0000 </r>
       <r>   -7.3709    1.0000 </r>
       <r>   -4.6588    1.0000 </r>
       <r>   -3.6794    1.0000 </r>
       <r>   -3.0605    1.0000 </r>
       <r>   -1.8398    1.0000 </r>
       <r>   -1.1575    1.0000 </r>
       <r>   -0.7084    1.0000 </r>
       <r>   -0.4589    1.0000 </r>
       <r>    0.7065    1.0000 </r>
       <r>    0.8697    1.0000 </r>
       <r>    1.3957    1.0000 </r>
       <r>    2.4394    1.0000 </r>
       <r>    2.9966    1.0000 </r>
       <r>    3.3040    1.0000 </r>
       <r>    3.6435    1.0000 </r>
       <r>    4.2501    1.0000 </r>
       <r>    4.3045    1.0000 </r>
       <r>    4.6326    1.0000 </r>
       <r>    4.7733    1.0000 </r>
       <r>    5.0283    1.0000 </r>
       <r>    5.2746    1.0000 </r>
       <r>    5.5759    1.0000 </r>
       <r>    6.1024    1.0000 </r>
       <r>    6.1646    1.0000 </r>
       <r>    6.3312    1.0000 </r>
       <r>    6.6062    1.0000 </r>
       <r>    7.0654    1.0000 </r>
       <r>    7.3879    1.0000 </r>
       <r>    8.2363    1.0000 </r>
       <r>   10.1768    0.0000 </r>
       <r>   10.5953    0.0000 </r>
       <r>   10.8098    0.0000 </r>
       <r>   11.0563    0.0000 </r>
       <r>   11.5891    0.0000 </r>
       <r>   11.8025    0.0000 </r>
       <r>   12.3956    0.0000 </r>
       <r>   13.5631    0.0000 </r>
       <r>   13.7025    0.0000 </r>
       <r>   13.7696    0.0000 </r>
       <r>   14.2453    0.0000 </r>
       <r>   14.8811    0.0000 </r>
      </set>
      <set comment="kpoint 4">
       <r>   -9.2310    1.0000 </r>
       <r>   -8.1385    1.0000 </r>
       <r>   -7.5925    1.0000 </r>
       <r>   -7.2100    1.0000 </r>
       <r>   -4.7181    1.0000 </r>
       <r>   -3.7900    1.0000 </r>
       <r>   -2.6415    1.0000 </r>
       <r>   -1.8035    1.0000 </r>
       <r>   -0.7686    1.0000 </r>
       <r>   -0.1978    1.0000 </r>
       <r>    0.3900    1.0000 </r>
       <r>    0.9724    1.0000 </r>
       <r>    1.2757    1.0000 </r>
       <r>    1.9597    1.0000 </r>
       <r>    2.0258    1.0000 </r>
       <r>    2.5581    1.0000 </r>
       <r>    2.6386    1.0000 </r>
       <r>    2.9411    1.0000 </r>
       <r>    3.2487    1.0000 </r>
       <r>    3.7467    1.0000 </r>
       <r>    4.0545    1.0000 </r>
       <r>    4.2287    1.0000 </r>
       <r>    4.7004    1.0000 </r>
       <r>    4.9537    1.0000 </r>
       <r>    5.0265    1.0000 </r>
       <r>    5.8121    1.0000 </r>
       <r>    6.0521    1.0000 </r>
       <r>    6.2191    1.0000 </r>
       <r>    6.4544    1.0000 </r>
       <r>    7.1102    1.0000 </r>
       <r>    7.2661    1.0000 </r>
       <r>    7.8888    1.0000 </r>
       <r>   10.9834    0.0000 </r>
       <r>   11.3947    0.0000 </r>
       <r>   11.5522    0.0000 </r>
       <r>   11.7523    0.0000 </r>
       <r>   12.0306    0.0000 </r>
       <r>   12.5285    0.0000 </r>
       <r>   12.7687    0.0000 </r>
       <r>   13.5536    0.0000 </r>
       <r>   14.1469    0.0000 </r>
       <r>   14.6698    0.0000 </r>
       <r>   15.2111    0.0000 </r>
       <r>   15.3246    0.0000 </r>
      </set>
      <set comment="kpoint 5">
       <r>   -9.0540    1.0000 </r>
       <r>   -8.0831    1.0000 </r>
       <r>   -7.7054    1.0000 </r>
       <r>   -7.3207    1.0000 </r>
       <r>   -4.7133    1.0000 </r>
       <r>   -3.8437    1.0000 </r>
       <r>   -2.9802    1.0000 </r>
       <r>   -1.9155    1.0000 </r>
       <r>   -0.6674    1.0000 </r>
       <r>   -0.3522    1.0000 </r>
       <r>    0.4029    1.0000 </r>
       <r>    0.9406    1.0000 </r>
       <r>    1.4118    1.0000 </r>
       <r>    1.6838    1.0000 </r>
       <r>    1.9229    1.0000 </r>
       <r>    2.6493    1.0000 </r>
       <r>    2.9599    1.0000 </r>
       <r>    3.4700    1.0000 </r>
       <r>    3.5313    1.0000 </r>
       <r>    3.8392    1.0000 </r>
       <r>    4.0993    1.0000 </r>
       <r>    4.4033    1.0000 </r>
       <r>    4.6877    1.0000 </r>
       <r>    4.9739    1.0000 </r>
       <r>    5.4139    1.0000 </r>
       <r>    5.7621    1.0000 </r>
       <r>    5.9790    1.0000 </r>
       <r>    6.1623    1.0000 </r>
       <r>    6.5363    1.0000 </r>
       <r>    6.9660    1.0000 </r>
       <r>    7.2424    1.0000 </r>
       <r>    7.8268    1.0000 </r>
       <r>   10.7145    0.0000 </r>
       <r>   11.1187    0.0000 </r>
       <r>   11.5334    0.0000 </r>
       <r>   11.5989    0.0000 </r>
       <r>   12.3995    0.0000 </r>
       <r>   12.5335    0.0000 </r>
       <r>   12.9552    0.0000 </r>
       <r>   13.6151    0.0000 </r>
       <r>   14.2621    0.0000 </r>
       <r>   14.5244    0.0000 </r>
       <r>   15.0157    0.0000 </r>
       <r>   15.0517    0.0000 </r>
      </set>
      <set comment="kpoint 6">
       <r>   -8.7729    1.0000 </r>
       <r>   -8.2001    1.0000 </r>
       <r>   -7.7289    1.0000 </r>
       <r>   -7.4540    1.0000 </r>
       <r>   -4.7162    1.0000 </r>
       <r>   -3.8548    1.0000 </r>
       <r>   -3.2624    1.0000 </r>
       <r>   -2.0123    1.0000 </r>
       <r>   -0.8425    1.0000 </r>
       <r>   -0.2366    1.0000 </r>
       <r>    0.0493    1.0000 </r>
       <r>    1.1135    1.0000 </r>
       <r>    1.2293    1.0000 </r>
       <r>    1.8702    1.0000 </r>
       <r>    2.3467    1.0000 </r>
       <r>    2.8039    1.0000 </r>
       <r>    3.0631    1.0000 </r>
       <r>    3.3932    1.0000 </r>
       <r>    3.8285    1.0000 </r>
       <r>    3.9346    1.0000 </r>
       <r>    4.3005    1.0000 </r>
       <r>    4.6427    1.0000 </r>
       <r>    4.8141    1.0000 </r>
       <r>    4.9702    1.0000 </r>
       <r>    5.2894    1.0000 </r>
       <r>    5.7269    1.0000 </r>
       <r>    6.0085    1.0000 </r>
       <r>    6.1945    1.0000 </r>
       <r>    6.5834    1.0000 </r>
       <r>    7.0985    1.0000 </r>
       <r>    7.1768    1.0000 </r>
       <r>    7.7118    1.0000 </r>
       <r>   10.7617    0.0000 </r>
       <r>   11.2408    0.0000 </r>
       <r>   11.3430    0.0000 </r>
       <r>   11.6321    0.0000 </r>
       <r>   12.0396    0.0000 </r>
       <r>   12.2401    0.0000 </r>
       <r>   13.1382    0.0000 </r>
       <r>   13.7074    0.0000 </r>
       <r>   14.0801    0.0000 </r>
       <r>   14.1961    0.0000 </r>
       <r>   14.4153    0.0000 </r>
       <r>   14.9157    0.0000 </r>
      </set>
      <set comment="kpoint 7">
       <r>   -9.0576    1.0000 </r>
       <r>   -8.0755    1.0000 </r>
       <r>   -7.7024    1.0000 </r>
       <r>   -7.3265    1.0000 </r>
       <r>   -4.6270    1.0000 </r>
       <r>   -4.0446    1.0000 </r>
       <r>   -2.8777    1.0000 </r>
       <r>   -1.8620    1.0000 </r>
       <r>   -0.6857    1.0000 </r>
       <r>   -0.3571    1.0000 </r>
       <r>    0.4797    1.0000 </r>
       <r>    0.8643    1.0000 </r>
       <r>    1.3587    1.0000 </r>
       <r>    1.7012    1.0000 </r>
       <r>    1.9722    1.0000 </r>
       <r>    2.4905    1.0000 </r>
       <r>    3.0389    1.0000 </r>
       <r>    3.3774    1.0000 </r>
       <r>    3.7203    1.0000 </r>
       <r>    3.7391    1.0000 </r>
       <r>    4.1640    1.0000 </r>
       <r>    4.4094    1.0000 </r>
       <r>    4.7112    1.0000 </r>
       <r>    5.0293    1.0000 </r>
       <r>    5.2423    1.0000 </r>
       <r>    5.8169    1.0000 </r>
       <r>    5.8892    1.0000 </r>
       <r>    6.1725    1.0000 </r>
       <r>    6.6585    1.0000 </r>
       <r>    6.9522    1.0000 </r>
       <r>    7.3178    1.0000 </r>
       <r>    7.7447    1.0000 </r>
       <r>   10.7671    0.0000 </r>
       <r>   11.1592    0.0000 </r>
       <r>   11.4293    0.0000 </r>
       <r>   11.6994    0.0000 </r>
       <r>   12.3046    0.0000 </r>
       <r>   12.6382    0.0000 </r>
       <r>   12.9504    0.0000 </r>
       <r>   13.6527    0.0000 </r>
       <r>   14.1967    0.0000 </r>
       <r>   14.3909    0.0000 </r>
       <r>   14.5860    0.0000 </r>
       <r>   15.0463    0.0000 </r>
      </set>
      <set comment="kpoint 8">
       <r>   -8.9653    1.0000 </r>
       <r>   -8.5165    1.0000 </r>
       <r>   -7.5830    1.0000 </r>
       <r>   -7.1611    1.0000 </r>
       <r>   -4.7794    1.0000 </r>
       <r>   -3.9769    1.0000 </r>
       <r>   -2.5014    1.0000 </r>
       <r>   -1.7935    1.0000 </r>
       <r>   -0.5882    1.0000 </r>
       <r>    0.2029    1.0000 </r>
       <r>    0.6460    1.0000 </r>
       <r>    1.0996    1.0000 </r>
       <r>    1.4916    1.0000 </r>
       <r>    1.8668    1.0000 </r>
       <r>    2.3247    1.0000 </r>
       <r>    2.4063    1.0000 </r>
       <r>    2.6099    1.0000 </r>
       <r>    2.8099    1.0000 </r>
       <r>    3.2569    1.0000 </r>
       <r>    3.5556    1.0000 </r>
       <r>    3.7944    1.0000 </r>
       <r>    4.1412    1.0000 </r>
       <r>    4.3911    1.0000 </r>
       <r>    4.4864    1.0000 </r>
       <r>    5.0920    1.0000 </r>
       <r>    5.7049    1.0000 </r>
       <r>    5.7868    1.0000 </r>
       <r>    6.0750    1.0000 </r>
       <r>    6.4104    1.0000 </r>
       <r>    6.6235    1.0000 </r>
       <r>    7.3180    1.0000 </r>
       <r>    7.5520    1.0000 </r>
       <r>   11.4339    0.0000 </r>
       <r>   11.4483    0.0000 </r>
       <r>   11.5221    0.0000 </r>
       <r>   12.5978    0.0000 </r>
       <r>   13.0125    0.0000 </r>
       <r>   13.5470    0.0000 </r>
       <r>   13.6427    0.0000 </r>
       <r>   13.8637    0.0000 </r>
       <r>   14.2135    0.0000 </r>
       <r>   14.6024    0.0000 </r>
       <r>   15.2292    0.0000 </r>
       <r>   15.4798    0.0000 </r>
      </set>
      <set comment="kpoint 9">
       <r>   -8.8107    1.0000 </r>
       <r>   -8.3874    1.0000 </r>
       <r>   -7.6563    1.0000 </r>
       <r>   -7.3619    1.0000 </r>
       <r>   -4.6744    1.0000 </r>
       <r>   -4.2103    1.0000 </r>
       <r>   -2.8685    1.0000 </r>
       <r>   -2.0276    1.0000 </r>
       <r>   -0.2041    1.0000 </r>
       <r>   -0.0610    1.0000 </r>
       <r>    0.8678    1.0000 </r>
       <r>    1.3756    1.0000 </r>
       <r>    1.5542    1.0000 </r>
       <r>    1.8797    1.0000 </r>
       <r>    2.1977    1.0000 </r>
       <r>    2.3689    1.0000 </r>
       <r>    2.7491    1.0000 </r>
       <r>    3.2162    1.0000 </r>
       <r>    3.2966    1.0000 </r>
       <r>    3.5321    1.0000 </r>
       <r>    3.7907    1.0000 </r>
       <r>    4.1918    1.0000 </r>
       <r>    4.5007    1.0000 </r>
       <r>    4.6435    1.0000 </r>
       <r>    5.0088    1.0000 </r>
       <r>    5.6947    1.0000 </r>
       <r>    5.8480    1.0000 </r>
       <r>    6.0930    1.0000 </r>
       <r>    6.3226    1.0000 </r>
       <r>    6.6669    1.0000 </r>
       <r>    7.3757    1.0000 </r>
       <r>    7.5064    1.0000 </r>
       <r>   11.3877    0.0000 </r>
       <r>   11.8277    0.0000 </r>
       <r>   12.0182    0.0000 </r>
       <r>   12.1845    0.0000 </r>
       <r>   12.6735    0.0000 </r>
       <r>   13.1410    0.0000 </r>
       <r>   13.4299    0.0000 </r>
       <r>   13.8386    0.0000 </r>
       <r>   14.0873    0.0000 </r>
       <r>   14.3805    0.0000 </r>
       <r>   14.6988    0.0000 </r>
       <r>   15.0557    0.0000 </r>
      </set>
      <set comment="kpoint 10">
       <r>   -8.5781    1.0000 </r>
       <r>   -8.2330    1.0000 </r>
       <r>   -7.7830    1.0000 </r>
       <r>   -7.6133    1.0000 </r>
       <r>   -4.7672    1.0000 </r>
       <r>   -4.0423    1.0000 </r>
       <r>   -3.3662    1.0000 </r>
       <r>   -2.1806    1.0000 </r>
       <r>   -0.4380    1.0000 </r>
       <r>    0.3128    1.0000 </r>
       <r>    0.7274    1.0000 </r>
       <r>    1.4843    1.0000 </r>
       <r>    1.8053    1.0000 </r>
       <r>    2.0226    1.0000 </r>
       <r>    2.2750    1.0000 </r>
       <r>    2.4692    1.0000 </r>
       <r>    2.9248    1.0000 </r>
       <r>    3.0052    1.0000 </r>
       <r>    3.4425    1.0000 </r>
       <r>    3.6458    1.0000 </r>
       <r>    3.9412    1.0000 </r>
       <r>    4.2189    1.0000 </r>
       <r>    4.6090    1.0000 </r>
       <r>    4.8189    1.0000 </r>
       <r>    4.9428    1.0000 </r>
       <r>    5.6247    1.0000 </r>
       <r>    5.8631    1.0000 </r>
       <r>    6.2105    1.0000 </r>
       <r>    6.3283    1.0000 </r>
       <r>    6.7079    1.0000 </r>
       <r>    7.2096    1.0000 </r>
       <r>    7.4292    1.0000 </r>
       <r>   11.3920    0.0000 </r>
       <r>   11.8110    0.0000 </r>
       <r>   12.3294    0.0000 </r>
       <r>   12.3511    0.0000 </r>
       <r>   12.5892    0.0000 </r>
       <r>   12.8547    0.0000 </r>
       <r>   13.0723    0.0000 </r>
       <r>   13.2267    0.0000 </r>
       <r>   13.9327    0.0000 </r>
       <r>   14.1686    0.0000 </r>
       <r>   14.7290    0.0000 </r>
       <r>   15.1455    0.0000 </r>
      </set>
      <set comment="kpoint 11">
       <r>   -9.2366    1.0000 </r>
       <r>   -8.1305    1.0000 </r>
       <r>   -7.5495    1.0000 </r>
       <r>   -7.2458    1.0000 </r>
       <r>   -4.8458    1.0000 </r>
       <r>   -3.4465    1.0000 </r>
       <r>   -2.9768    1.0000 </r>
       <r>   -1.7864    1.0000 </r>
       <r>   -0.6665    1.0000 </r>
       <r>   -0.1019    1.0000 </r>
       <r>    0.4216    1.0000 </r>
       <r>    0.9730    1.0000 </r>
       <r>    1.2228    1.0000 </r>
       <r>    1.8683    1.0000 </r>
       <r>    2.0224    1.0000 </r>
       <r>    2.4679    1.0000 </r>
       <r>    2.6831    1.0000 </r>
       <r>    2.9526    1.0000 </r>
       <r>    3.3247    1.0000 </r>
       <r>    3.8426    1.0000 </r>
       <r>    4.0641    1.0000 </r>
       <r>    4.2906    1.0000 </r>
       <r>    4.5194    1.0000 </r>
       <r>    4.7398    1.0000 </r>
       <r>    5.3841    1.0000 </r>
       <r>    5.5045    1.0000 </r>
       <r>    5.9127    1.0000 </r>
       <r>    6.1246    1.0000 </r>
       <r>    6.7629    1.0000 </r>
       <r>    7.1726    1.0000 </r>
       <r>    7.3366    1.0000 </r>
       <r>    7.7947    1.0000 </r>
       <r>   11.1072    0.0000 </r>
       <r>   11.3711    0.0000 </r>
       <r>   11.5983    0.0000 </r>
       <r>   11.9007    0.0000 </r>
       <r>   12.1105    0.0000 </r>
       <r>   12.3155    0.0000 </r>
       <r>   12.5399    0.0000 </r>
       <r>   13.5376    0.0000 </r>
       <r>   14.2698    0.0000 </r>
       <r>   14.8088    0.0000 </r>
       <r>   15.0541    0.0000 </r>
       <r>   15.5580    0.0000 </r>
      </set>
      <set comment="kpoint 12">
       <r>   -9.0663    1.0000 </r>
       <r>   -8.0983    1.0000 </r>
       <r>   -7.6087    1.0000 </r>
       <r>   -7.3508    1.0000 </r>
       <r>   -4.9587    1.0000 </r>
       <r>   -3.5617    1.0000 </r>
       <r>   -3.0802    1.0000 </r>
       <r>   -1.8491    1.0000 </r>
       <r>   -0.6005    1.0000 </r>
       <r>   -0.1738    1.0000 </r>
       <r>    0.1922    1.0000 </r>
       <r>    0.7906    1.0000 </r>
       <r>    1.4830    1.0000 </r>
       <r>    1.6182    1.0000 </r>
       <r>    2.0447    1.0000 </r>
       <r>    2.5745    1.0000 </r>
       <r>    2.7126    1.0000 </r>
       <r>    3.4259    1.0000 </r>
       <r>    3.7414    1.0000 </r>
       <r>    3.9226    1.0000 </r>
       <r>    4.2811    1.0000 </r>
       <r>    4.4440    1.0000 </r>
       <r>    4.5732    1.0000 </r>
       <r>    4.9896    1.0000 </r>
       <r>    5.3994    1.0000 </r>
       <r>    5.5720    1.0000 </r>
       <r>    5.8718    1.0000 </r>
       <r>    6.2178    1.0000 </r>
       <r>    6.6272    1.0000 </r>
       <r>    7.1245    1.0000 </r>
       <r>    7.2583    1.0000 </r>
       <r>    7.6911    1.0000 </r>
       <r>   10.8810    0.0000 </r>
       <r>   11.0295    0.0000 </r>
       <r>   11.5716    0.0000 </r>
       <r>   11.6305    0.0000 </r>
       <r>   12.3153    0.0000 </r>
       <r>   12.6152    0.0000 </r>
       <r>   12.8212    0.0000 </r>
       <r>   13.7768    0.0000 </r>
       <r>   14.1047    0.0000 </r>
       <r>   14.5172    0.0000 </r>
       <r>   14.7576    0.0000 </r>
       <r>   15.1248    0.0000 </r>
      </set>
      <set comment="kpoint 13">
       <r>   -8.7917    1.0000 </r>
       <r>   -8.2269    1.0000 </r>
       <r>   -7.6451    1.0000 </r>
       <r>   -7.4252    1.0000 </r>
       <r>   -5.0513    1.0000 </r>
       <r>   -3.6940    1.0000 </r>
       <r>   -3.0739    1.0000 </r>
       <r>   -1.9962    1.0000 </r>
       <r>   -0.6423    1.0000 </r>
       <r>   -0.4129    1.0000 </r>
       <r>   -0.0912    1.0000 </r>
       <r>    1.1569    1.0000 </r>
       <r>    1.1840    1.0000 </r>
       <r>    1.8439    1.0000 </r>
       <r>    2.3729    1.0000 </r>
       <r>    2.7722    1.0000 </r>
       <r>    2.9035    1.0000 </r>
       <r>    3.4889    1.0000 </r>
       <r>    3.8040    1.0000 </r>
       <r>    4.1296    1.0000 </r>
       <r>    4.3362    1.0000 </r>
       <r>    4.4639    1.0000 </r>
       <r>    4.8201    1.0000 </r>
       <r>    5.1035    1.0000 </r>
       <r>    5.4876    1.0000 </r>
       <r>    5.5780    1.0000 </r>
       <r>    5.8895    1.0000 </r>
       <r>    6.1848    1.0000 </r>
       <r>    6.5554    1.0000 </r>
       <r>    7.1424    1.0000 </r>
       <r>    7.2280    1.0000 </r>
       <r>    7.6483    1.0000 </r>
       <r>   11.0326    0.0000 </r>
       <r>   11.1597    0.0000 </r>
       <r>   11.3645    0.0000 </r>
       <r>   11.5418    0.0000 </r>
       <r>   12.1646    0.0000 </r>
       <r>   12.2242    0.0000 </r>
       <r>   12.8729    0.0000 </r>
       <r>   13.7261    0.0000 </r>
       <r>   13.9749    0.0000 </r>
       <r>   14.2745    0.0000 </r>
       <r>   14.5539    0.0000 </r>
       <r>   14.9239    0.0000 </r>
      </set>
      <set comment="kpoint 14">
       <r>   -9.0633    1.0000 </r>
       <r>   -8.1081    1.0000 </r>
       <r>   -7.6124    1.0000 </r>
       <r>   -7.3437    1.0000 </r>
       <r>   -4.9228    1.0000 </r>
       <r>   -3.4957    1.0000 </r>
       <r>   -3.2362    1.0000 </r>
       <r>   -1.8144    1.0000 </r>
       <r>   -0.7146    1.0000 </r>
       <r>   -0.0921    1.0000 </r>
       <r>    0.2605    1.0000 </r>
       <r>    0.9726    1.0000 </r>
       <r>    1.4476    1.0000 </r>
       <r>    1.6101    1.0000 </r>
       <r>    1.8988    1.0000 </r>
       <r>    2.5100    1.0000 </r>
       <r>    2.8470    1.0000 </r>
       <r>    3.3216    1.0000 </r>
       <r>    3.6379    1.0000 </r>
       <r>    3.8504    1.0000 </r>
       <r>    4.3731    1.0000 </r>
       <r>    4.5064    1.0000 </r>
       <r>    4.7163    1.0000 </r>
       <r>    4.9924    1.0000 </r>
       <r>    5.2394    1.0000 </r>
       <r>    5.6489    1.0000 </r>
       <r>    5.8678    1.0000 </r>
       <r>    6.2777    1.0000 </r>
       <r>    6.5471    1.0000 </r>
       <r>    7.1095    1.0000 </r>
       <r>    7.2185    1.0000 </r>
       <r>    7.7439    1.0000 </r>
       <r>   10.9304    0.0000 </r>
       <r>   11.0438    0.0000 </r>
       <r>   11.4609    0.0000 </r>
       <r>   11.6842    0.0000 </r>
       <r>   12.3810    0.0000 </r>
       <r>   12.5335    0.0000 </r>
       <r>   12.9705    0.0000 </r>
       <r>   13.4942    0.0000 </r>
       <r>   14.2471    0.0000 </r>
       <r>   14.4660    0.0000 </r>
       <r>   14.7925    0.0000 </r>
       <r>   15.0219    0.0000 </r>
      </set>
      <set comment="kpoint 15">
       <r>   -8.9903    1.0000 </r>
       <r>   -8.4715    1.0000 </r>
       <r>   -7.5880    1.0000 </r>
       <r>   -7.1686    1.0000 </r>
       <r>   -4.9138    1.0000 </r>
       <r>   -3.7210    1.0000 </r>
       <r>   -2.7182    1.0000 </r>
       <r>   -1.7761    1.0000 </r>
       <r>   -0.5114    1.0000 </r>
       <r>    0.2443    1.0000 </r>
       <r>    0.7308    1.0000 </r>
       <r>    1.1205    1.0000 </r>
       <r>    1.3276    1.0000 </r>
       <r>    1.9700    1.0000 </r>
       <r>    2.1092    1.0000 </r>
       <r>    2.3729    1.0000 </r>
       <r>    2.5625    1.0000 </r>
       <r>    3.2265    1.0000 </r>
       <r>    3.4034    1.0000 </r>
       <r>    3.5211    1.0000 </r>
       <r>    3.7423    1.0000 </r>
       <r>    3.8747    1.0000 </r>
       <r>    4.3438    1.0000 </r>
       <r>    4.6877    1.0000 </r>
       <r>    4.9622    1.0000 </r>
       <r>    5.3413    1.0000 </r>
       <r>    5.8081    1.0000 </r>
       <r>    6.3022    1.0000 </r>
       <r>    6.4852    1.0000 </r>
       <r>    6.7915    1.0000 </r>
       <r>    7.1333    1.0000 </r>
       <r>    7.4170    1.0000 </r>
       <r>   10.9600    0.0000 </r>
       <r>   12.0792    0.0000 </r>
       <r>   12.3575    0.0000 </r>
       <r>   12.7204    0.0000 </r>
       <r>   12.9477    0.0000 </r>
       <r>   13.2305    0.0000 </r>
       <r>   13.4875    0.0000 </r>
       <r>   13.8263    0.0000 </r>
       <r>   14.1024    0.0000 </r>
       <r>   14.4214    0.0000 </r>
       <r>   15.0100    0.0000 </r>
       <r>   15.1181    0.0000 </r>
      </set>
      <set comment="kpoint 16">
       <r>   -8.8413    1.0000 </r>
       <r>   -8.3545    1.0000 </r>
       <r>   -7.6258    1.0000 </r>
       <r>   -7.3531    1.0000 </r>
       <r>   -5.0533    1.0000 </r>
       <r>   -3.6582    1.0000 </r>
       <r>   -3.1183    1.0000 </r>
       <r>   -1.9927    1.0000 </r>
       <r>   -0.1404    1.0000 </r>
       <r>    0.1114    1.0000 </r>
       <r>    0.6633    1.0000 </r>
       <r>    1.2348    1.0000 </r>
       <r>    1.6828    1.0000 </r>
       <r>    1.8288    1.0000 </r>
       <r>    2.0566    1.0000 </r>
       <r>    2.3794    1.0000 </r>
       <r>    2.7577    1.0000 </r>
       <r>    3.1247    1.0000 </r>
       <r>    3.4018    1.0000 </r>
       <r>    3.6957    1.0000 </r>
       <r>    3.7625    1.0000 </r>
       <r>    4.2608    1.0000 </r>
       <r>    4.5512    1.0000 </r>
       <r>    4.7668    1.0000 </r>
       <r>    5.1314    1.0000 </r>
       <r>    5.3773    1.0000 </r>
       <r>    5.7858    1.0000 </r>
       <r>    6.1039    1.0000 </r>
       <r>    6.3481    1.0000 </r>
       <r>    6.7645    1.0000 </r>
       <r>    7.1065    1.0000 </r>
       <r>    7.4878    1.0000 </r>
       <r>   11.5183    0.0000 </r>
       <r>   11.8414    0.0000 </r>
       <r>   12.1468    0.0000 </r>
       <r>   12.5458    0.0000 </r>
       <r>   12.8684    0.0000 </r>
       <r>   13.0763    0.0000 </r>
       <r>   13.3860    0.0000 </r>
       <r>   13.8813    0.0000 </r>
       <r>   14.0864    0.0000 </r>
       <r>   14.2494    0.0000 </r>
       <r>   14.4130    0.0000 </r>
       <r>   14.9225    0.0000 </r>
      </set>
      <set comment="kpoint 17">
       <r>   -8.6201    1.0000 </r>
       <r>   -8.2310    1.0000 </r>
       <r>   -7.7330    1.0000 </r>
       <r>   -7.5538    1.0000 </r>
       <r>   -5.1337    1.0000 </r>
       <r>   -3.8086    1.0000 </r>
       <r>   -3.2431    1.0000 </r>
       <r>   -2.1494    1.0000 </r>
       <r>   -0.3553    1.0000 </r>
       <r>    0.3470    1.0000 </r>
       <r>    0.6100    1.0000 </r>
       <r>    1.3886    1.0000 </r>
       <r>    1.5734    1.0000 </r>
       <r>    1.9419    1.0000 </r>
       <r>    2.1100    1.0000 </r>
       <r>    2.5818    1.0000 </r>
       <r>    2.8450    1.0000 </r>
       <r>    3.4118    1.0000 </r>
       <r>    3.5236    1.0000 </r>
       <r>    3.6159    1.0000 </r>
       <r>    4.0604    1.0000 </r>
       <r>    4.2455    1.0000 </r>
       <r>    4.7342    1.0000 </r>
       <r>    4.8013    1.0000 </r>
       <r>    5.2187    1.0000 </r>
       <r>    5.3897    1.0000 </r>
       <r>    5.6901    1.0000 </r>
       <r>    6.0205    1.0000 </r>
       <r>    6.3648    1.0000 </r>
       <r>    6.6732    1.0000 </r>
       <r>    7.2276    1.0000 </r>
       <r>    7.3013    1.0000 </r>
       <r>   11.8024    0.0000 </r>
       <r>   12.0049    0.0000 </r>
       <r>   12.0438    0.0000 </r>
       <r>   12.4686    0.0000 </r>
       <r>   12.7517    0.0000 </r>
       <r>   12.8528    0.0000 </r>
       <r>   13.2658    0.0000 </r>
       <r>   13.3512    0.0000 </r>
       <r>   13.7998    0.0000 </r>
       <r>   14.0743    0.0000 </r>
       <r>   14.3685    0.0000 </r>
       <r>   14.9964    0.0000 </r>
      </set>
      <set comment="kpoint 18">
       <r>   -8.8387    1.0000 </r>
       <r>   -8.3567    1.0000 </r>
       <r>   -7.6298    1.0000 </r>
       <r>   -7.3585    1.0000 </r>
       <r>   -4.9330    1.0000 </r>
       <r>   -3.9679    1.0000 </r>
       <r>   -2.9091    1.0000 </r>
       <r>   -1.9866    1.0000 </r>
       <r>   -0.2202    1.0000 </r>
       <r>    0.1028    1.0000 </r>
       <r>    0.8788    1.0000 </r>
       <r>    1.3001    1.0000 </r>
       <r>    1.6089    1.0000 </r>
       <r>    1.7428    1.0000 </r>
       <r>    1.9492    1.0000 </r>
       <r>    2.3791    1.0000 </r>
       <r>    2.8689    1.0000 </r>
       <r>    3.0202    1.0000 </r>
       <r>    3.1915    1.0000 </r>
       <r>    3.7221    1.0000 </r>
       <r>    4.0499    1.0000 </r>
       <r>    4.3140    1.0000 </r>
       <r>    4.5134    1.0000 </r>
       <r>    4.7571    1.0000 </r>
       <r>    5.1222    1.0000 </r>
       <r>    5.3996    1.0000 </r>
       <r>    5.7821    1.0000 </r>
       <r>    5.9330    1.0000 </r>
       <r>    6.4400    1.0000 </r>
       <r>    6.7855    1.0000 </r>
       <r>    7.0516    1.0000 </r>
       <r>    7.5304    1.0000 </r>
       <r>   11.5625    0.0000 </r>
       <r>   11.7922    0.0000 </r>
       <r>   12.1629    0.0000 </r>
       <r>   12.7268    0.0000 </r>
       <r>   12.8869    0.0000 </r>
       <r>   13.0686    0.0000 </r>
       <r>   13.3379    0.0000 </r>
       <r>   13.7435    0.0000 </r>
       <r>   13.8926    0.0000 </r>
       <r>   14.2342    0.0000 </r>
       <r>   14.4216    0.0000 </r>
       <r>   14.6788    0.0000 </r>
      </set>
      <set comment="kpoint 19">
       <r>   -9.0964    1.0000 </r>
       <r>   -8.2587    1.0000 </r>
       <r>   -7.6270    1.0000 </r>
       <r>   -7.2362    1.0000 </r>
       <r>   -4.9022    1.0000 </r>
       <r>   -3.8616    1.0000 </r>
       <r>   -2.4312    1.0000 </r>
       <r>   -1.8692    1.0000 </r>
       <r>   -0.6441    1.0000 </r>
       <r>    0.1433    1.0000 </r>
       <r>    0.7137    1.0000 </r>
       <r>    0.9284    1.0000 </r>
       <r>    1.7896    1.0000 </r>
       <r>    1.8682    1.0000 </r>
       <r>    2.1247    1.0000 </r>
       <r>    2.4751    1.0000 </r>
       <r>    2.6176    1.0000 </r>
       <r>    3.0263    1.0000 </r>
       <r>    3.3945    1.0000 </r>
       <r>    3.6036    1.0000 </r>
       <r>    3.8881    1.0000 </r>
       <r>    4.1028    1.0000 </r>
       <r>    4.3285    1.0000 </r>
       <r>    4.6468    1.0000 </r>
       <r>    5.1410    1.0000 </r>
       <r>    5.3861    1.0000 </r>
       <r>    5.5018    1.0000 </r>
       <r>    5.7736    1.0000 </r>
       <r>    6.2731    1.0000 </r>
       <r>    6.6600    1.0000 </r>
       <r>    7.3684    1.0000 </r>
       <r>    7.8405    1.0000 </r>
       <r>   10.8451    0.0000 </r>
       <r>   12.1009    0.0000 </r>
       <r>   12.2072    0.0000 </r>
       <r>   12.5710    0.0000 </r>
       <r>   12.6130    0.0000 </r>
       <r>   13.2814    0.0000 </r>
       <r>   13.7663    0.0000 </r>
       <r>   14.1277    0.0000 </r>
       <r>   14.3038    0.0000 </r>
       <r>   14.4449    0.0000 </r>
       <r>   14.7768    0.0000 </r>
       <r>   15.3259    0.0000 </r>
      </set>
      <set comment="kpoint 20">
       <r>   -8.9335    1.0000 </r>
       <r>   -8.1638    1.0000 </r>
       <r>   -7.7041    1.0000 </r>
       <r>   -7.3761    1.0000 </r>
       <r>   -4.8992    1.0000 </r>
       <r>   -3.9672    1.0000 </r>
       <r>   -2.9977    1.0000 </r>
       <r>   -1.9939    1.0000 </r>
       <r>   -0.2792    1.0000 </r>
       <r>   -0.0038    1.0000 </r>
       <r>    0.7514    1.0000 </r>
       <r>    1.4090    1.0000 </r>
       <r>    1.5315    1.0000 </r>
       <r>    2.0126    1.0000 </r>
       <r>    2.3518    1.0000 </r>
       <r>    2.5055    1.0000 </r>
       <r>    2.8535    1.0000 </r>
       <r>    3.2027    1.0000 </r>
       <r>    3.3771    1.0000 </r>
       <r>    3.6171    1.0000 </r>
       <r>    3.8626    1.0000 </r>
       <r>    4.1385    1.0000 </r>
       <r>    4.3036    1.0000 </r>
       <r>    4.5532    1.0000 </r>
       <r>    4.9312    1.0000 </r>
       <r>    5.3138    1.0000 </r>
       <r>    5.7161    1.0000 </r>
       <r>    5.9139    1.0000 </r>
       <r>    6.3831    1.0000 </r>
       <r>    6.8013    1.0000 </r>
       <r>    7.4052    1.0000 </r>
       <r>    7.6906    1.0000 </r>
       <r>   11.4809    0.0000 </r>
       <r>   11.9699    0.0000 </r>
       <r>   12.0511    0.0000 </r>
       <r>   12.1955    0.0000 </r>
       <r>   12.7567    0.0000 </r>
       <r>   13.1581    0.0000 </r>
       <r>   13.4435    0.0000 </r>
       <r>   13.8573    0.0000 </r>
       <r>   14.0778    0.0000 </r>
       <r>   14.3535    0.0000 </r>
       <r>   14.5699    0.0000 </r>
       <r>   15.1245    0.0000 </r>
      </set>
      <set comment="kpoint 21">
       <r>   -8.6678    1.0000 </r>
       <r>   -8.1564    1.0000 </r>
       <r>   -7.8029    1.0000 </r>
       <r>   -7.5247    1.0000 </r>
       <r>   -4.7938    1.0000 </r>
       <r>   -4.0755    1.0000 </r>
       <r>   -3.5074    1.0000 </r>
       <r>   -2.0742    1.0000 </r>
       <r>   -0.5737    1.0000 </r>
       <r>    0.3183    1.0000 </r>
       <r>    1.0035    1.0000 </r>
       <r>    1.4923    1.0000 </r>
       <r>    1.6971    1.0000 </r>
       <r>    2.1924    1.0000 </r>
       <r>    2.3966    1.0000 </r>
       <r>    2.4643    1.0000 </r>
       <r>    2.8704    1.0000 </r>
       <r>    3.1968    1.0000 </r>
       <r>    3.3938    1.0000 </r>
       <r>    3.6437    1.0000 </r>
       <r>    3.8530    1.0000 </r>
       <r>    4.3821    1.0000 </r>
       <r>    4.5862    1.0000 </r>
       <r>    4.6155    1.0000 </r>
       <r>    4.8389    1.0000 </r>
       <r>    5.4972    1.0000 </r>
       <r>    5.6530    1.0000 </r>
       <r>    5.8977    1.0000 </r>
       <r>    6.3068    1.0000 </r>
       <r>    6.9343    1.0000 </r>
       <r>    7.2857    1.0000 </r>
       <r>    7.5411    1.0000 </r>
       <r>   11.6884    0.0000 </r>
       <r>   11.7529    0.0000 </r>
       <r>   12.0626    0.0000 </r>
       <r>   12.3810    0.0000 </r>
       <r>   12.4725    0.0000 </r>
       <r>   13.0428    0.0000 </r>
       <r>   13.2464    0.0000 </r>
       <r>   13.5003    0.0000 </r>
       <r>   13.9775    0.0000 </r>
       <r>   14.2345    0.0000 </r>
       <r>   14.6014    0.0000 </r>
       <r>   14.8566    0.0000 </r>
      </set>
      <set comment="kpoint 22">
       <r>   -8.9270    1.0000 </r>
       <r>   -8.1699    1.0000 </r>
       <r>   -7.7190    1.0000 </r>
       <r>   -7.3720    1.0000 </r>
       <r>   -4.7647    1.0000 </r>
       <r>   -4.1619    1.0000 </r>
       <r>   -2.9048    1.0000 </r>
       <r>   -2.0193    1.0000 </r>
       <r>   -0.2999    1.0000 </r>
       <r>   -0.0941    1.0000 </r>
       <r>    0.9736    1.0000 </r>
       <r>    1.4073    1.0000 </r>
       <r>    1.4932    1.0000 </r>
       <r>    1.9533    1.0000 </r>
       <r>    2.3433    1.0000 </r>
       <r>    2.6037    1.0000 </r>
       <r>    2.8116    1.0000 </r>
       <r>    3.1016    1.0000 </r>
       <r>    3.3380    1.0000 </r>
       <r>    3.6968    1.0000 </r>
       <r>    3.8830    1.0000 </r>
       <r>    4.0449    1.0000 </r>
       <r>    4.2916    1.0000 </r>
       <r>    4.7046    1.0000 </r>
       <r>    4.9000    1.0000 </r>
       <r>    5.4415    1.0000 </r>
       <r>    5.6458    1.0000 </r>
       <r>    5.8112    1.0000 </r>
       <r>    6.4065    1.0000 </r>
       <r>    6.7464    1.0000 </r>
       <r>    7.3862    1.0000 </r>
       <r>    7.7441    1.0000 </r>
       <r>   11.4116    0.0000 </r>
       <r>   11.9010    0.0000 </r>
       <r>   12.1470    0.0000 </r>
       <r>   12.3221    0.0000 </r>
       <r>   12.6998    0.0000 </r>
       <r>   13.1006    0.0000 </r>
       <r>   13.4047    0.0000 </r>
       <r>   13.9457    0.0000 </r>
       <r>   14.1338    0.0000 </r>
       <r>   14.1813    0.0000 </r>
       <r>   14.5517    0.0000 </r>
       <r>   14.8945    0.0000 </r>
      </set>
      <set comment="kpoint 23">
       <r>   -9.2865    1.0000 </r>
       <r>   -7.9392    1.0000 </r>
       <r>   -7.5734    1.0000 </r>
       <r>   -7.3616    1.0000 </r>
       <r>   -4.8331    1.0000 </r>
       <r>   -3.7226    1.0000 </r>
       <r>   -2.5471    1.0000 </r>
       <r>   -1.8359    1.0000 </r>
       <r>   -0.7880    1.0000 </r>
       <r>   -0.3202    1.0000 </r>
       <r>    0.3197    1.0000 </r>
       <r>    1.1106    1.0000 </r>
       <r>    1.4356    1.0000 </r>
       <r>    1.8149    1.0000 </r>
       <r>    2.0810    1.0000 </r>
       <r>    2.6070    1.0000 </r>
       <r>    2.6848    1.0000 </r>
       <r>    2.8762    1.0000 </r>
       <r>    3.3689    1.0000 </r>
       <r>    3.7779    1.0000 </r>
       <r>    3.9539    1.0000 </r>
       <r>    4.2703    1.0000 </r>
       <r>    4.7650    1.0000 </r>
       <r>    5.1158    1.0000 </r>
       <r>    5.3041    1.0000 </r>
       <r>    5.5019    1.0000 </r>
       <r>    5.8191    1.0000 </r>
       <r>    6.0557    1.0000 </r>
       <r>    6.2458    1.0000 </r>
       <r>    6.7991    1.0000 </r>
       <r>    7.3166    1.0000 </r>
       <r>    8.4322    1.0000 </r>
       <r>   10.8665    0.0000 </r>
       <r>   11.3923    0.0000 </r>
       <r>   11.4551    0.0000 </r>
       <r>   11.7937    0.0000 </r>
       <r>   12.0333    0.0000 </r>
       <r>   12.5589    0.0000 </r>
       <r>   12.8410    0.0000 </r>
       <r>   13.6257    0.0000 </r>
       <r>   14.4072    0.0000 </r>
       <r>   14.7643    0.0000 </r>
       <r>   15.0555    0.0000 </r>
       <r>   15.5242    0.0000 </r>
      </set>
      <set comment="kpoint 24">
       <r>   -9.1110    1.0000 </r>
       <r>   -7.9280    1.0000 </r>
       <r>   -7.7053    1.0000 </r>
       <r>   -7.3808    1.0000 </r>
       <r>   -4.7782    1.0000 </r>
       <r>   -3.9576    1.0000 </r>
       <r>   -2.8862    1.0000 </r>
       <r>   -1.8477    1.0000 </r>
       <r>   -0.6835    1.0000 </r>
       <r>   -0.4009    1.0000 </r>
       <r>    0.3312    1.0000 </r>
       <r>    0.9325    1.0000 </r>
       <r>    1.5218    1.0000 </r>
       <r>    1.8128    1.0000 </r>
       <r>    2.0898    1.0000 </r>
       <r>    2.4775    1.0000 </r>
       <r>    3.0589    1.0000 </r>
       <r>    3.4114    1.0000 </r>
       <r>    3.6072    1.0000 </r>
       <r>    3.8530    1.0000 </r>
       <r>    3.9995    1.0000 </r>
       <r>    4.4686    1.0000 </r>
       <r>    4.7993    1.0000 </r>
       <r>    4.9865    1.0000 </r>
       <r>    5.2522    1.0000 </r>
       <r>    5.4675    1.0000 </r>
       <r>    5.9780    1.0000 </r>
       <r>    6.0676    1.0000 </r>
       <r>    6.3733    1.0000 </r>
       <r>    6.9315    1.0000 </r>
       <r>    7.2310    1.0000 </r>
       <r>    8.3038    1.0000 </r>
       <r>   10.7861    0.0000 </r>
       <r>   11.0968    0.0000 </r>
       <r>   11.2672    0.0000 </r>
       <r>   11.7042    0.0000 </r>
       <r>   12.1429    0.0000 </r>
       <r>   12.8274    0.0000 </r>
       <r>   13.0862    0.0000 </r>
       <r>   13.7503    0.0000 </r>
       <r>   14.1907    0.0000 </r>
       <r>   14.3621    0.0000 </r>
       <r>   14.8392    0.0000 </r>
       <r>   15.0065    0.0000 </r>
      </set>
      <set comment="kpoint 25">
       <r>   -8.8165    1.0000 </r>
       <r>   -8.2063    1.0000 </r>
       <r>   -7.6578    1.0000 </r>
       <r>   -7.4219    1.0000 </r>
       <r>   -4.6911    1.0000 </r>
       <r>   -3.9759    1.0000 </r>
       <r>   -3.3842    1.0000 </r>
       <r>   -1.9411    1.0000 </r>
       <r>   -0.9130    1.0000 </r>
       <r>   -0.1575    1.0000 </r>
       <r>    0.2099    1.0000 </r>
       <r>    1.0874    1.0000 </r>
       <r>    1.3715    1.0000 </r>
       <r>    1.7507    1.0000 </r>
       <r>    2.4111    1.0000 </r>
       <r>    2.9450    1.0000 </r>
       <r>    3.1066    1.0000 </r>
       <r>    3.5135    1.0000 </r>
       <r>    3.6196    1.0000 </r>
       <r>    4.0133    1.0000 </r>
       <r>    4.3306    1.0000 </r>
       <r>    4.4524    1.0000 </r>
       <r>    4.7979    1.0000 </r>
       <r>    4.9782    1.0000 </r>
       <r>    5.1658    1.0000 </r>
       <r>    5.5750    1.0000 </r>
       <r>    5.8829    1.0000 </r>
       <r>    6.1108    1.0000 </r>
       <r>    6.5250    1.0000 </r>
       <r>    6.9926    1.0000 </r>
       <r>    7.2658    1.0000 </r>
       <r>    8.1610    1.0000 </r>
       <r>   10.6793    0.0000 </r>
       <r>   11.2227    0.0000 </r>
       <r>   11.3204    0.0000 </r>
       <r>   11.4997    0.0000 </r>
       <r>   11.9847    0.0000 </r>
       <r>   12.4530    0.0000 </r>
       <r>   13.1609    0.0000 </r>
       <r>   13.7271    0.0000 </r>
       <r>   13.9304    0.0000 </r>
       <r>   14.3258    0.0000 </r>
       <r>   14.4396    0.0000 </r>
       <r>   14.9430    0.0000 </r>
      </set>
      <set comment="kpoint 26">
       <r>   -9.1052    1.0000 </r>
       <r>   -7.9589    1.0000 </r>
       <r>   -7.6920    1.0000 </r>
       <r>   -7.3735    1.0000 </r>
       <r>   -4.7847    1.0000 </r>
       <r>   -3.8136    1.0000 </r>
       <r>   -3.0583    1.0000 </r>
       <r>   -1.8610    1.0000 </r>
       <r>   -0.7560    1.0000 </r>
       <r>   -0.4014    1.0000 </r>
       <r>    0.5043    1.0000 </r>
       <r>    1.0152    1.0000 </r>
       <r>    1.3893    1.0000 </r>
       <r>    1.8023    1.0000 </r>
       <r>    2.1108    1.0000 </r>
       <r>    2.7435    1.0000 </r>
       <r>    3.0232    1.0000 </r>
       <r>    3.2007    1.0000 </r>
       <r>    3.5284    1.0000 </r>
       <r>    3.8273    1.0000 </r>
       <r>    4.1712    1.0000 </r>
       <r>    4.3927    1.0000 </r>
       <r>    4.5696    1.0000 </r>
       <r>    5.1556    1.0000 </r>
       <r>    5.2406    1.0000 </r>
       <r>    5.5493    1.0000 </r>
       <r>    5.9138    1.0000 </r>
       <r>    6.0452    1.0000 </r>
       <r>    6.4721    1.0000 </r>
       <r>    6.8839    1.0000 </r>
       <r>    7.2175    1.0000 </r>
       <r>    8.3004    1.0000 </r>
       <r>   10.7222    0.0000 </r>
       <r>   11.0243    0.0000 </r>
       <r>   11.3322    0.0000 </r>
       <r>   11.9159    0.0000 </r>
       <r>   12.1347    0.0000 </r>
       <r>   12.6728    0.0000 </r>
       <r>   13.0962    0.0000 </r>
       <r>   13.8011    0.0000 </r>
       <r>   14.1444    0.0000 </r>
       <r>   14.4123    0.0000 </r>
       <r>   14.6408    0.0000 </r>
       <r>   14.8430    0.0000 </r>
      </set>
      <set comment="kpoint 27">
       <r>   -9.0000    1.0000 </r>
       <r>   -8.4607    1.0000 </r>
       <r>   -7.5637    1.0000 </r>
       <r>   -7.1808    1.0000 </r>
       <r>   -4.9942    1.0000 </r>
       <r>   -3.5300    1.0000 </r>
       <r>   -2.9471    1.0000 </r>
       <r>   -1.7252    1.0000 </r>
       <r>   -0.4047    1.0000 </r>
       <r>    0.2682    1.0000 </r>
       <r>    0.9081    1.0000 </r>
       <r>    1.0231    1.0000 </r>
       <r>    1.5144    1.0000 </r>
       <r>    1.7308    1.0000 </r>
       <r>    2.1549    1.0000 </r>
       <r>    2.1667    1.0000 </r>
       <r>    2.4685    1.0000 </r>
       <r>    3.0943    1.0000 </r>
       <r>    3.3657    1.0000 </r>
       <r>    3.6268    1.0000 </r>
       <r>    3.8971    1.0000 </r>
       <r>    4.1817    1.0000 </r>
       <r>    4.4457    1.0000 </r>
       <r>    4.5116    1.0000 </r>
       <r>    4.8925    1.0000 </r>
       <r>    5.0811    1.0000 </r>
       <r>    5.7126    1.0000 </r>
       <r>    6.1999    1.0000 </r>
       <r>    6.5582    1.0000 </r>
       <r>    6.9638    1.0000 </r>
       <r>    7.2439    1.0000 </r>
       <r>    7.5190    1.0000 </r>
       <r>   11.4056    0.0000 </r>
       <r>   11.5710    0.0000 </r>
       <r>   11.8562    0.0000 </r>
       <r>   12.3728    0.0000 </r>
       <r>   13.1078    0.0000 </r>
       <r>   13.4295    0.0000 </r>
       <r>   13.6080    0.0000 </r>
       <r>   13.9548    0.0000 </r>
       <r>   14.1689    0.0000 </r>
       <r>   14.5928    0.0000 </r>
       <r>   14.8626    0.0000 </r>
       <r>   15.3305    0.0000 </r>
      </set>
      <set comment="kpoint 28">
       <r>   -8.8558    1.0000 </r>
       <r>   -8.3516    1.0000 </r>
       <r>   -7.5812    1.0000 </r>
       <r>   -7.3507    1.0000 </r>
       <r>   -5.1687    1.0000 </r>
       <r>   -3.5424    1.0000 </r>
       <r>   -3.2371    1.0000 </r>
       <r>   -1.8713    1.0000 </r>
       <r>   -0.1451    1.0000 </r>
       <r>    0.2202    1.0000 </r>
       <r>    0.7389    1.0000 </r>
       <r>    1.1865    1.0000 </r>
       <r>    1.6391    1.0000 </r>
       <r>    1.8073    1.0000 </r>
       <r>    2.0936    1.0000 </r>
       <r>    2.2854    1.0000 </r>
       <r>    2.5319    1.0000 </r>
       <r>    2.9914    1.0000 </r>
       <r>    3.3578    1.0000 </r>
       <r>    3.7178    1.0000 </r>
       <r>    4.1413    1.0000 </r>
       <r>    4.3582    1.0000 </r>
       <r>    4.5196    1.0000 </r>
       <r>    4.6963    1.0000 </r>
       <r>    4.9845    1.0000 </r>
       <r>    5.4358    1.0000 </r>
       <r>    5.6763    1.0000 </r>
       <r>    5.9630    1.0000 </r>
       <r>    6.6688    1.0000 </r>
       <r>    6.8060    1.0000 </r>
       <r>    7.1112    1.0000 </r>
       <r>    7.5243    1.0000 </r>
       <r>   11.5883    0.0000 </r>
       <r>   11.8824    0.0000 </r>
       <r>   12.0321    0.0000 </r>
       <r>   12.2638    0.0000 </r>
       <r>   12.6855    0.0000 </r>
       <r>   12.9467    0.0000 </r>
       <r>   13.4363    0.0000 </r>
       <r>   13.8567    0.0000 </r>
       <r>   14.0710    0.0000 </r>
       <r>   14.2772    0.0000 </r>
       <r>   14.6292    0.0000 </r>
       <r>   15.0979    0.0000 </r>
      </set>
      <set comment="kpoint 29">
       <r>   -8.6519    1.0000 </r>
       <r>   -8.2344    1.0000 </r>
       <r>   -7.7087    1.0000 </r>
       <r>   -7.4706    1.0000 </r>
       <r>   -5.3684    1.0000 </r>
       <r>   -3.7267    1.0000 </r>
       <r>   -3.1256    1.0000 </r>
       <r>   -2.1464    1.0000 </r>
       <r>   -0.0920    1.0000 </r>
       <r>    0.2033    1.0000 </r>
       <r>    0.4751    1.0000 </r>
       <r>    1.4761    1.0000 </r>
       <r>    1.5085    1.0000 </r>
       <r>    1.9443    1.0000 </r>
       <r>    2.1329    1.0000 </r>
       <r>    2.3438    1.0000 </r>
       <r>    2.9390    1.0000 </r>
       <r>    3.2736    1.0000 </r>
       <r>    3.3937    1.0000 </r>
       <r>    3.9508    1.0000 </r>
       <r>    4.1166    1.0000 </r>
       <r>    4.2836    1.0000 </r>
       <r>    4.3942    1.0000 </r>
       <r>    4.7839    1.0000 </r>
       <r>    5.3462    1.0000 </r>
       <r>    5.4856    1.0000 </r>
       <r>    5.7541    1.0000 </r>
       <r>    5.8718    1.0000 </r>
       <r>    6.3691    1.0000 </r>
       <r>    7.0065    1.0000 </r>
       <r>    7.1729    1.0000 </r>
       <r>    7.2703    1.0000 </r>
       <r>   11.7569    0.0000 </r>
       <r>   11.9397    0.0000 </r>
       <r>   12.2974    0.0000 </r>
       <r>   12.3461    0.0000 </r>
       <r>   12.4894    0.0000 </r>
       <r>   12.8709    0.0000 </r>
       <r>   13.0689    0.0000 </r>
       <r>   13.3026    0.0000 </r>
       <r>   13.7680    0.0000 </r>
       <r>   14.0687    0.0000 </r>
       <r>   14.1621    0.0000 </r>
       <r>   15.1755    0.0000 </r>
      </set>
      <set comment="kpoint 30">
       <r>   -9.1053    1.0000 </r>
       <r>   -8.2418    1.0000 </r>
       <r>   -7.5957    1.0000 </r>
       <r>   -7.2685    1.0000 </r>
       <r>   -4.9770    1.0000 </r>
       <r>   -3.7300    1.0000 </r>
       <r>   -2.6002    1.0000 </r>
       <r>   -1.8261    1.0000 </r>
       <r>   -0.5664    1.0000 </r>
       <r>    0.2556    1.0000 </r>
       <r>    0.7044    1.0000 </r>
       <r>    1.0153    1.0000 </r>
       <r>    1.4884    1.0000 </r>
       <r>    1.8327    1.0000 </r>
       <r>    2.2405    1.0000 </r>
       <r>    2.3898    1.0000 </r>
       <r>    2.7318    1.0000 </r>
       <r>    3.1651    1.0000 </r>
       <r>    3.3934    1.0000 </r>
       <r>    3.5264    1.0000 </r>
       <r>    3.8558    1.0000 </r>
       <r>    4.1262    1.0000 </r>
       <r>    4.2732    1.0000 </r>
       <r>    4.7560    1.0000 </r>
       <r>    4.9390    1.0000 </r>
       <r>    5.1684    1.0000 </r>
       <r>    5.5578    1.0000 </r>
       <r>    6.0171    1.0000 </r>
       <r>    6.2324    1.0000 </r>
       <r>    6.6217    1.0000 </r>
       <r>    7.4531    1.0000 </r>
       <r>    7.8018    1.0000 </r>
       <r>   10.9014    0.0000 </r>
       <r>   12.0671    0.0000 </r>
       <r>   12.2970    0.0000 </r>
       <r>   12.5306    0.0000 </r>
       <r>   12.9658    0.0000 </r>
       <r>   13.1074    0.0000 </r>
       <r>   13.6041    0.0000 </r>
       <r>   13.9366    0.0000 </r>
       <r>   14.2848    0.0000 </r>
       <r>   14.5598    0.0000 </r>
       <r>   14.8760    0.0000 </r>
       <r>   15.4254    0.0000 </r>
      </set>
      <set comment="kpoint 31">
       <r>   -8.9417    1.0000 </r>
       <r>   -8.1837    1.0000 </r>
       <r>   -7.6141    1.0000 </r>
       <r>   -7.4063    1.0000 </r>
       <r>   -5.0796    1.0000 </r>
       <r>   -3.7098    1.0000 </r>
       <r>   -3.1469    1.0000 </r>
       <r>   -1.9570    1.0000 </r>
       <r>   -0.3100    1.0000 </r>
       <r>    0.1037    1.0000 </r>
       <r>    0.8969    1.0000 </r>
       <r>    1.2471    1.0000 </r>
       <r>    1.7092    1.0000 </r>
       <r>    1.9180    1.0000 </r>
       <r>    2.0875    1.0000 </r>
       <r>    2.5269    1.0000 </r>
       <r>    2.8899    1.0000 </r>
       <r>    3.1732    1.0000 </r>
       <r>    3.4039    1.0000 </r>
       <r>    3.4767    1.0000 </r>
       <r>    3.8178    1.0000 </r>
       <r>    4.2236    1.0000 </r>
       <r>    4.4957    1.0000 </r>
       <r>    4.6756    1.0000 </r>
       <r>    4.9792    1.0000 </r>
       <r>    5.1173    1.0000 </r>
       <r>    5.7640    1.0000 </r>
       <r>    5.9709    1.0000 </r>
       <r>    6.3215    1.0000 </r>
       <r>    6.7154    1.0000 </r>
       <r>    7.3814    1.0000 </r>
       <r>    7.7158    1.0000 </r>
       <r>   11.4644    0.0000 </r>
       <r>   11.8545    0.0000 </r>
       <r>   12.0689    0.0000 </r>
       <r>   12.5040    0.0000 </r>
       <r>   12.8425    0.0000 </r>
       <r>   13.0845    0.0000 </r>
       <r>   13.5927    0.0000 </r>
       <r>   13.7816    0.0000 </r>
       <r>   14.0968    0.0000 </r>
[...]
       <r>   -4.0373    1.0000 </r>
       <r>   -3.0651    1.0000 </r>
       <r>   -1.9122    1.0000 </r>
       <r>   -0.3691    1.0000 </r>
       <r>   -0.0084    1.0000 </r>
       <r>    0.7968    1.0000 </r>
       <r>    1.4319    1.0000 </r>
       <r>    1.7181    1.0000 </r>
       <r>    2.1041    1.0000 </r>
       <r>    2.4215    1.0000 </r>
       <r>    2.6917    1.0000 </r>
       <r>    2.8938    1.0000 </r>
       <r>    3.1869    1.0000 </r>
       <r>    3.3965    1.0000 </r>
       <r>    3.4644    1.0000 </r>
       <r>    3.8394    1.0000 </r>
       <r>    3.8948    1.0000 </r>
       <r>    4.1450    1.0000 </r>
       <r>    4.4470    1.0000 </r>
       <r>    5.0851    1.0000 </r>
       <r>    5.2367    1.0000 </r>
       <r>    5.7930    1.0000 </r>
       <r>    5.9324    1.0000 </r>
       <r>    5.9978    1.0000 </r>
       <r>    6.7788    1.0000 </r>
       <r>    7.4076    1.0000 </r>
       <r>    8.2574    1.0000 </r>
       <r>   11.3356    0.0000 </r>
       <r>   11.7079    0.0000 </r>
       <r>   11.8180    0.0000 </r>
       <r>   12.2016    0.0000 </r>
       <r>   12.7913    0.0000 </r>
       <r>   13.0990    0.0000 </r>
       <r>   13.3423    0.0000 </r>
       <r>   13.8864    0.0000 </r>
       <r>   14.2057    0.0000 </r>
       <r>   14.6152    0.0000 </r>
       <r>   14.7671    0.0000 </r>
       <r>   15.0851    0.0000 </r>
      </set>
      <set comment="kpoint 36">
       <r>   -8.7274    1.0000 </r>
       <r>   -8.1268    1.0000 </r>
       <r>   -7.7900    1.0000 </r>
       <r>   -7.4562    1.0000 </r>
       <r>   -4.7150    1.0000 </r>
       <r>   -4.2145    1.0000 </r>
       <r>   -3.6480    1.0000 </r>
       <r>   -2.0499    1.0000 </r>
       <r>   -0.5693    1.0000 </r>
       <r>    0.4303    1.0000 </r>
       <r>    1.0982    1.0000 </r>
       <r>    1.5963    1.0000 </r>
       <r>    1.9691    1.0000 </r>
       <r>    2.1415    1.0000 </r>
       <r>    2.3334    1.0000 </r>
       <r>    2.6110    1.0000 </r>
       <r>    2.8532    1.0000 </r>
       <r>    3.1672    1.0000 </r>
       <r>    3.2103    1.0000 </r>
       <r>    3.5905    1.0000 </r>
       <r>    3.8945    1.0000 </r>
       <r>    4.0455    1.0000 </r>
       <r>    4.3700    1.0000 </r>
       <r>    4.6516    1.0000 </r>
       <r>    4.9966    1.0000 </r>
       <r>    5.4222    1.0000 </r>
       <r>    5.6602    1.0000 </r>
       <r>    5.9296    1.0000 </r>
       <r>    6.0278    1.0000 </r>
       <r>    6.9433    1.0000 </r>
       <r>    7.3398    1.0000 </r>
       <r>    8.0846    1.0000 </r>
       <r>   11.2869    0.0000 </r>
       <r>   11.5790    0.0000 </r>
       <r>   12.1625    0.0000 </r>
       <r>   12.3752    0.0000 </r>
       <r>   12.4110    0.0000 </r>
       <r>   12.8221    0.0000 </r>
       <r>   13.1439    0.0000 </r>
       <r>   13.4932    0.0000 </r>
       <r>   14.3071    0.0000 </r>
       <r>   14.4644    0.0000 </r>
       <r>   14.8067    0.0000 </r>
       <r>   15.4953    0.0000 </r>
      </set>
     </set>
    </set>
   </array>
  </eigenvalues>
  <separator name="orbital magnetization" >
   <v name="MAGDIPOLOUT">      0.00000000      0.00000000      0.00000000</v>
  </separator>
  <dos>
   <i name="efermi">      8.94240032 </i>
   <total>
    <array>
     <dimension dim="1">gridpoints</dimension>
     <dimension dim="2">spin</dimension>
     <field>energy</field>
     <field>total</field>
     <field>integrated</field>
     <set>
      <set comment="spin 1">
       <r>   -10.6274     0.0000     0.0000 </r>
       <r>   -10.5360     0.0000     0.0000 </r>
       <r>   -10.4445     0.0000     0.0000 </r>
       <r>   -10.3531     0.0000     0.0000 </r>
       <r>   -10.2617     0.0000     0.0000 </r>
       <r>   -10.1702     0.0000     0.0000 </r>
       <r>   -10.0788     0.0000     0.0000 </r>
       <r>    -9.9873     0.0000     0.0000 </r>
       <r>    -9.8959     0.0000     0.0000 </r>
       <r>    -9.8044     0.0000     0.0000 </r>
       <r>    -9.7130     0.0000     0.0000 </r>
       <r>    -9.6216     0.0001     0.0000 </r>
       <r>    -9.5301     0.0060     0.0006 </r>
       <r>    -9.4387     0.0776     0.0077 </r>
       <r>    -9.3472     0.3714     0.0416 </r>
       <r>    -9.2558     1.0779     0.1402 </r>
       <r>    -9.1644     2.0120     0.3242 </r>
       <r>    -9.0729     3.1534     0.6125 </r>
       <r>    -8.9815     3.6790     0.9489 </r>
       <r>    -8.8900     3.4130     1.2610 </r>
       <r>    -8.7986     3.1276     1.5470 </r>
       <r>    -8.7072     2.3850     1.7651 </r>
       <r>    -8.6157     1.6565     1.9166 </r>
       <r>    -8.5243     1.1522     2.0219 </r>
       <r>    -8.4328     1.2251     2.1339 </r>
       <r>    -8.3414     1.9214     2.3096 </r>
       <r>    -8.2499     3.2955     2.6110 </r>
       <r>    -8.1585     5.2210     3.0884 </r>
       <r>    -8.0671     4.5725     3.5065 </r>
       <r>    -7.9756     2.6798     3.7516 </r>
       <r>    -7.8842     2.0177     3.9361 </r>
       <r>    -7.7927     2.2745     4.1440 </r>
       <r>    -7.7013     5.1310     4.6132 </r>
       <r>    -7.6099     8.3028     5.3724 </r>
       <r>    -7.5184     7.4370     6.0525 </r>
       <r>    -7.4270     5.7928     6.5822 </r>
       <r>    -7.3355     7.0089     7.2231 </r>
       <r>    -7.2441     5.1714     7.6960 </r>
       <r>    -7.1527     2.4155     7.9168 </r>
       <r>    -7.0612     0.8016     7.9901 </r>
       <r>    -6.9698     0.1042     7.9997 </r>
       <r>    -6.8783     0.0036     8.0000 </r>
       <r>    -6.7869     0.0000     8.0000 </r>
       <r>    -6.6955     0.0000     8.0000 </r>
       <r>    -6.6040     0.0000     8.0000 </r>
       <r>    -6.5126     0.0000     8.0000 </r>
       <r>    -6.4211     0.0000     8.0000 </r>
       <r>    -6.3297     0.0000     8.0000 </r>
       <r>    -6.2382     0.0000     8.0000 </r>
       <r>    -6.1468     0.0000     8.0000 </r>
       <r>    -6.0554     0.0000     8.0000 </r>
       <r>    -5.9639     0.0000     8.0000 </r>
       <r>    -5.8725     0.0000     8.0000 </r>
       <r>    -5.7810     0.0000     8.0000 </r>
       <r>    -5.6896     0.0000     8.0000 </r>
       <r>    -5.5982     0.0002     8.0000 </r>
       <r>    -5.5067     0.0084     8.0008 </r>
       <r>    -5.4153     0.0783     8.0080 </r>
       <r>    -5.3238     0.1781     8.0242 </r>
       <r>    -5.2324     0.3033     8.0520 </r>
       <r>    -5.1410     1.1029     8.1528 </r>
       <r>    -5.0495     2.2421     8.3578 </r>
       <r>    -4.9581     3.2260     8.6528 </r>
       <r>    -4.8666     3.8047     9.0007 </r>
       <r>    -4.7752     3.8154     9.3496 </r>
       <r>    -4.6837     3.9363     9.7096 </r>
       <r>    -4.5923     2.4989     9.9381 </r>
       <r>    -4.5009     0.6273     9.9954 </r>
       <r>    -4.4094     0.0519    10.0002 </r>
       <r>    -4.3180     0.0760    10.0071 </r>
       <r>    -4.2265     0.4924    10.0521 </r>
       <r>    -4.1351     1.0929    10.1521 </r>
       <r>    -4.0437     1.9533    10.3307 </r>
       <r>    -3.9522     3.1214    10.6161 </r>
       <r>    -3.8608     3.0923    10.8989 </r>
       <r>    -3.7693     3.1623    11.1880 </r>
       <r>    -3.6779     3.2249    11.4829 </r>
       <r>    -3.5865     2.5535    11.7164 </r>
       <r>    -3.4950     2.2697    11.9240 </r>
       <r>    -3.4036     1.8899    12.0968 </r>
       <r>    -3.3121     1.6194    12.2448 </r>
       <r>    -3.2207     1.9480    12.4230 </r>
       <r>    -3.1292     2.3066    12.6339 </r>
       <r>    -3.0378     3.1102    12.9183 </r>
       <r>    -2.9464     3.3352    13.2233 </r>
       <r>    -2.8549     2.9586    13.4938 </r>
       <r>    -2.7635     1.4789    13.6290 </r>
       <r>    -2.6720     0.8210    13.7041 </r>
       <r>    -2.5806     1.0498    13.8001 </r>
       <r>    -2.4892     1.0483    13.8960 </r>
       <r>    -2.3977     0.7919    13.9684 </r>
       <r>    -2.3063     0.3355    13.9991 </r>
       <r>    -2.2148     0.3364    14.0298 </r>
       <r>    -2.1234     1.2262    14.1419 </r>
       <r>    -2.0320     3.0254    14.4186 </r>
       <r>    -1.9405     4.8082    14.8583 </r>
       <r>    -1.8491     5.6091    15.3712 </r>
       <r>    -1.7576     4.8190    15.8118 </r>
       <r>    -1.6662     1.8107    15.9774 </r>
       <r>    -1.5748     0.2368    15.9990 </r>
       <r>    -1.4833     0.0103    16.0000 </r>
       <r>    -1.3919     0.0003    16.0000 </r>
       <r>    -1.3004     0.0072    16.0007 </r>
       <r>    -1.2090     0.0728    16.0073 </r>
       <r>    -1.1175     0.1841    16.0242 </r>
       <r>    -1.0261     0.2905    16.0507 </r>
       <r>    -0.9347     0.6578    16.1109 </r>
       <r>    -0.8432     1.1860    16.2193 </r>
       <r>    -0.7518     2.2644    16.4264 </r>
       <r>    -0.6603     3.5387    16.7500 </r>
       <r>    -0.5689     3.5642    17.0759 </r>
       <r>    -0.4775     2.9006    17.3411 </r>
       <r>    -0.3860     3.7467    17.6837 </r>
       <r>    -0.2946     4.4881    18.0941 </r>
       <r>    -0.2031     4.0269    18.4623 </r>
       <r>    -0.1117     4.2023    18.8466 </r>
       <r>    -0.0203     3.5155    19.1681 </r>
       <r>     0.0712     2.8194    19.4259 </r>
       <r>     0.1626     3.1726    19.7160 </r>
       <r>     0.2541     3.6734    20.0519 </r>
       <r>     0.3455     3.7615    20.3958 </r>
       <r>     0.4370     3.1758    20.6862 </r>
       <r>     0.5284     2.2462    20.8916 </r>
       <r>     0.6198     1.9492    21.0699 </r>
       <r>     0.7113     2.9843    21.3427 </r>
       <r>     0.8027     3.9097    21.7002 </r>
       <r>     0.8942     4.0339    22.0691 </r>
       <r>     0.9856     4.4976    22.4804 </r>
       <r>     1.0770     4.0010    22.8462 </r>
       <r>     1.1685     3.7407    23.1883 </r>
       <r>     1.2599     4.3796    23.5888 </r>
       <r>     1.3514     5.0975    24.0549 </r>
       <r>     1.4428     6.1775    24.6198 </r>
       <r>     1.5342     6.0991    25.1775 </r>
       <r>     1.6257     5.0671    25.6408 </r>
       <r>     1.7171     5.3624    26.1312 </r>
       <r>     1.8086     6.3269    26.7097 </r>
       <r>     1.9000     6.8985    27.3405 </r>
       <r>     1.9915     6.6605    27.9495 </r>
       <r>     2.0829     6.7413    28.5660 </r>
       <r>     2.1743     5.9403    29.1092 </r>
       <r>     2.2658     4.0135    29.4762 </r>
       <r>     2.3572     4.8710    29.9216 </r>
       <r>     2.4487     6.4803    30.5141 </r>
       <r>     2.5401     6.7590    31.1322 </r>
       <r>     2.6315     6.6902    31.7439 </r>
       <r>     2.7230     6.0309    32.2954 </r>
       <r>     2.8144     5.5034    32.7987 </r>
       <r>     2.9059     5.7568    33.3251 </r>
       <r>     2.9973     5.7839    33.8540 </r>
       <r>     3.0887     5.4198    34.3495 </r>
       <r>     3.1802     5.4580    34.8486 </r>
       <r>     3.2716     5.9936    35.3967 </r>
       <r>     3.3631     7.6025    36.0919 </r>
       <r>     3.4545     9.1101    36.9249 </r>
       <r>     3.5459     7.8234    37.6403 </r>
       <r>     3.6374     6.7188    38.2547 </r>
       <r>     3.7288     6.7577    38.8726 </r>
       <r>     3.8203     8.0299    39.6069 </r>
       <r>     3.9117     8.2281    40.3593 </r>
       <r>     4.0032     6.0710    40.9144 </r>
       <r>     4.0946     6.1035    41.4725 </r>
       <r>     4.1860     6.9069    42.1041 </r>
       <r>     4.2775     7.2434    42.7664 </r>
       <r>     4.3689     8.1243    43.5093 </r>
       <r>     4.4604     7.8548    44.2276 </r>
       <r>     4.5518     7.1712    44.8833 </r>
       <r>     4.6432     6.8490    45.5096 </r>
       <r>     4.7347     7.8016    46.2230 </r>
       <r>     4.8261     7.3551    46.8955 </r>
       <r>     4.9176     5.8540    47.4308 </r>
       <r>     5.0090     6.9188    48.0635 </r>
       <r>     5.1004     6.5031    48.6581 </r>
       <r>     5.1919     5.7211    49.1813 </r>
       <r>     5.2833     5.6669    49.6995 </r>
       <r>     5.3748     5.8273    50.2323 </r>
       <r>     5.4662     5.8544    50.7677 </r>
       <r>     5.5577     5.6817    51.2872 </r>
       <r>     5.6491     5.8915    51.8259 </r>
       <r>     5.7405     6.7127    52.4397 </r>
       <r>     5.8320     8.0415    53.1751 </r>
       <r>     5.9234     8.4059    53.9437 </r>
       <r>     6.0149     7.3474    54.6156 </r>
       <r>     6.1063     6.2664    55.1886 </r>
       <r>     6.1977     5.5072    55.6922 </r>
       <r>     6.2892     5.5599    56.2006 </r>
       <r>     6.3806     5.6040    56.7130 </r>
       <r>     6.4721     4.6178    57.1352 </r>
       <r>     6.5635     4.4523    57.5424 </r>
       <r>     6.6549     4.8363    57.9846 </r>
       <r>     6.7464     4.8343    58.4267 </r>
       <r>     6.8378     4.5622    58.8438 </r>
       <r>     6.9293     3.7735    59.1889 </r>
       <r>     7.0207     3.7497    59.5318 </r>
       <r>     7.1122     4.2673    59.9220 </r>
       <r>     7.2036     5.7589    60.4486 </r>
       <r>     7.2950     6.7526    61.0660 </r>
       <r>     7.3865     6.5459    61.6646 </r>
       <r>     7.4779     5.5671    62.1737 </r>
       <r>     7.5694     3.8105    62.5221 </r>
       <r>     7.6608     2.6554    62.7649 </r>
       <r>     7.7522     3.3721    63.0732 </r>
       <r>     7.8437     2.9554    63.3435 </r>
       <r>     7.9351     1.3928    63.4709 </r>
       <r>     8.0266     0.3867    63.5062 </r>
       <r>     8.1180     0.3899    63.5419 </r>
       <r>     8.2094     0.8300    63.6178 </r>
       <r>     8.3009     1.4238    63.7480 </r>
       <r>     8.3923     1.4847    63.8837 </r>
       <r>     8.4838     0.9453    63.9702 </r>
       <r>     8.5752     0.2981    63.9974 </r>
       <r>     8.6666     0.0278    63.9999 </r>
       <r>     8.7581     0.0006    64.0000 </r>
       <r>     8.8495     0.0000    64.0000 </r>
       <r>     8.9410     0.0000    64.0000 </r>
       <r>     9.0324     0.0000    64.0000 </r>
       <r>     9.1239     0.0000    64.0000 </r>
       <r>     9.2153     0.0000    64.0000 </r>
       <r>     9.3067     0.0000    64.0000 </r>
       <r>     9.3982     0.0000    64.0000 </r>
       <r>     9.4896     0.0000    64.0000 </r>
       <r>     9.5811     0.0000    64.0000 </r>
       <r>     9.6725     0.0000    64.0000 </r>
       <r>     9.7639     0.0000    64.0000 </r>
       <r>     9.8554     0.0000    64.0000 </r>
       <r>     9.9468     0.0003    64.0000 </r>
       <r>    10.0383     0.0173    64.0016 </r>
       <r>    10.1297     0.1905    64.0190 </r>
       <r>    10.2211     0.4839    64.0633 </r>
       <r>    10.3126     0.3076    64.0914 </r>
       <r>    10.4040     0.2272    64.1122 </r>
       <r>    10.4955     0.5597    64.1634 </r>
       <r>    10.5869     0.7134    64.2286 </r>
       <r>    10.6784     1.2476    64.3427 </r>
       <r>    10.7698     2.4829    64.5697 </r>
       <r>    10.8612     2.9232    64.8370 </r>
       <r>    10.9527     2.7490    65.0884 </r>
       <r>    11.0441     2.9568    65.3588 </r>
       <r>    11.1356     2.9398    65.6276 </r>
       <r>    11.2270     2.5545    65.8612 </r>
       <r>    11.3184     3.5753    66.1881 </r>
       <r>    11.4099     5.8133    66.7197 </r>
       <r>    11.5013     6.6753    67.3301 </r>
       <r>    11.5928     6.4413    67.9191 </r>
       <r>    11.6842     5.3479    68.4081 </r>
       <r>    11.7756     5.1109    68.8754 </r>
       <r>    11.8671     5.4787    69.3764 </r>
       <r>    11.9585     5.2082    69.8526 </r>
       <r>    12.0500     6.1490    70.4149 </r>
       <r>    12.1414     7.1773    71.0712 </r>
       <r>    12.2328     6.6380    71.6782 </r>
       <r>    12.3243     6.0549    72.2319 </r>
       <r>    12.4157     5.4995    72.7347 </r>
       <r>    12.5072     5.1227    73.2032 </r>
       <r>    12.5986     5.1301    73.6723 </r>
       <r>    12.6901     4.5218    74.0857 </r>
       <r>    12.7815     4.7681    74.5218 </r>
       <r>    12.8729     5.3168    75.0079 </r>
       <r>    12.9644     4.9338    75.4591 </r>
       <r>    13.0558     5.0559    75.9214 </r>
       <r>    13.1473     6.1079    76.4799 </r>
       <r>    13.2387     4.7163    76.9112 </r>
       <r>    13.3301     3.3666    77.2190 </r>
       <r>    13.4216     3.5008    77.5391 </r>
       <r>    13.5130     4.1683    77.9203 </r>
       <r>    13.6045     4.6238    78.3431 </r>
       <r>    13.6959     4.6800    78.7710 </r>
       <r>    13.7873     5.2800    79.2539 </r>
       <r>    13.8788     5.9099    79.7943 </r>
       <r>    13.9702     4.9935    80.2509 </r>
       <r>    14.0617     5.0540    80.7130 </r>
       <r>    14.1531     7.7865    81.4250 </r>
       <r>    14.2446     8.5259    82.2047 </r>
       <r>    14.3360     7.2420    82.8669 </r>
       <r>    14.4274     6.5634    83.4670 </r>
       <r>    14.5189     6.1800    84.0321 </r>
       <r>    14.6103     5.3096    84.5177 </r>
       <r>    14.7018     4.6323    84.9412 </r>
       <r>    14.7932     5.0021    85.3986 </r>
       <r>    14.8846     5.6932    85.9192 </r>
       <r>    14.9761     5.3489    86.4083 </r>
       <r>    15.0675     5.4045    86.9025 </r>
       <r>    15.1590     4.2274    87.2891 </r>
       <r>    15.2504     2.1938    87.4897 </r>
       <r>    15.3418     1.6380    87.6395 </r>
       <r>    15.4333     1.3937    87.7669 </r>
       <r>    15.5247     1.3345    87.8889 </r>
       <r>    15.6162     0.9583    87.9766 </r>
       <r>    15.7076     0.2396    87.9985 </r>
       <r>    15.7991     0.0163    88.0000 </r>
       <r>    15.8905     0.0003    88.0000 </r>
       <r>    15.9819     0.0000    88.0000 </r>
       <r>    16.0734     0.0000    88.0000 </r>
       <r>    16.1648     0.0000    88.0000 </r>
       <r>    16.2563     0.0000    88.0000 </r>
       <r>    16.3477     0.0000    88.0000 </r>
       <r>    16.4391     0.0000    88.0000 </r>
       <r>    16.5306     0.0000    88.0000 </r>
       <r>    16.6220     0.0000    88.0000 </r>
       <r>    16.7135     0.0000    88.0000 </r>
       <r>    16.8049     0.0000    88.0000 </r>
      </set>
     </set>
    </array>
   </total>
  </dos>
 </calculation>
 <structure name="finalpos" >
  <crystal>
   <varray name="basis" >
    <v>       5.04515622      -0.00404606      -0.00666018 </v>
    <v>      -0.00498563       6.27193693       0.00035530 </v>
    <v>      -0.00462946      -3.13562437       5.39653663 </v>
   </varray>
   <i name="volume">    170.76729202 </i>
   <varray name="rec_basis" >
    <v>       0.19821039       0.00015754       0.00026158 </v>
    <v>       0.00025016       0.15943533       0.09263913 </v>
    <v>       0.00024461      -0.00001030       0.18529826 </v>
   </varray>
  </crystal>
  <varray name="positions" >
   <v>       0.98383324       0.66705352       0.82797117 </v>
   <v>       0.50284419       0.83251061       0.16853492 </v>
   <v>       0.50156615       0.32802189       0.66930171 </v>
   <v>       0.50291458       0.84066026       0.66665093 </v>
   <v>       0.99752576       0.17014722       0.33330146 </v>
   <v>       0.99870784       0.66337023       0.33528340 </v>
   <v>       0.99395207       0.16686576       0.83804055 </v>
   <v>       0.50776009       0.33333455       0.16309212 </v>
   <v>       0.38560390       0.15968643       0.81459112 </v>
   <v>       0.36579285       0.66369237       0.83296901 </v>
   <v>       0.88824306       0.33561431       0.17199172 </v>
   <v>       0.86432224       0.82512999       0.67198303 </v>
   <v>       0.39235281       0.15264183       0.34127241 </v>
   <v>       0.38954732       0.68684053       0.33692888 </v>
   <v>       0.86265587       0.82607797       0.15497679 </v>
   <v>       0.86237803       0.34835253       0.67311078 </v>
  </varray>
 </structure>
</modeling>
