<?xml version="1.0" encoding="ISO-8859-1"?>
<modeling>
 <generator>
  <i name="program" type="string">vasp </i>
  <i name="version" type="string">5.3.5  </i>
  <i name="subversion" type="string">31Mar14 (build Jun 20 2014 13:15:13) complex                          parallel </i>
  <i name="platform" type="string">LinuxIFC </i>
  <i name="date" type="string">2025 11 28 </i>
  <i name="time" type="string">12:15:41 </i>
 </generator>
 <incar>
  <i type="string" name="PREC">accurate</i>
  <i type="int" name="IALGO">    68</i>
  <i type="logical" name="ADDGRID"> T  </i>
  <i type="int" name="NELM">   200</i>
  <i type="int" name="NELMIN">     4</i>
  <i type="int" name="IBRION">     2</i>
  <i name="EDIFF">      0.00000100</i>
  <i name="EDIFFG">     -0.02000000</i>
  <i type="int" name="NSW">    30</i>
  <i type="int" name="ISIF">     3</i>
  <i name="ENCUT">    500.00000000</i>
  <i type="logical" name="LREAL"> F  </i>
  <i type="int" name="ISMEAR">     1</i>
  <i name="SIGMA">      0.30000000</i>
  <i type="logical" name="LWAVE"> F  </i>
  <i type="logical" name="LCHARG"> F  </i>
  <i type="int" name="NELM">   200</i>
 </incar>
 <kpoints>
  <generation param="Auto">
   <i name="subdivisionlength">     70.00000000 </i>
   <v type="int" name="divisions">      24       24        7 </v>
   <v name="usershift">      0.00000000       0.00000000       0.00000000 </v>
   <v name="genvec1">      0.04166667       0.00000000       0.00000000 </v>
   <v name="genvec2">      0.00000000       0.04166667       0.00000000 </v>
   <v name="genvec3">      0.00000000       0.00000000       0.14285714 </v>
   <v name="shift">      0.00000000       0.00000000       0.00000000 </v>
  </generation>
  <varray name="kpointlist" >
   <v>       0.00000000       0.00000000       0.00000000 </v>
   <v>       0.04166667       0.00000000       0.00000000 </v>
   <v>       0.08333333       0.00000000       0.00000000 </v>
   <v>       0.12500000       0.00000000       0.00000000 </v>
   <v>       0.16666667       0.00000000       0.00000000 </v>
   <v>       0.20833333       0.00000000       0.00000000 </v>
   <v>       0.25000000       0.00000000       0.00000000 </v>
   <v>       0.29166667       0.00000000       0.00000000 </v>
   <v>       0.33333333       0.00000000       0.00000000 </v>
   <v>       0.37500000       0.00000000       0.00000000 </v>
   <v>       0.41666667       0.00000000       0.00000000 </v>
   <v>       0.45833333       0.00000000       0.00000000 </v>
   <v>       0.50000000       0.00000000       0.00000000 </v>
   <v>       0.04166667       0.04166667       0.00000000 </v>
   <v>       0.08333333       0.04166667       0.00000000 </v>
   <v>       0.12500000       0.04166667       0.00000000 </v>
   <v>       0.16666667       0.04166667       0.00000000 </v>
   <v>       0.20833333       0.04166667       0.00000000 </v>
   <v>       0.25000000       0.04166667       0.00000000 </v>
   <v>       0.29166667       0.04166667       0.00000000 </v>
   <v>       0.33333333       0.04166667       0.00000000 </v>
   <v>       0.37500000       0.04166667       0.00000000 </v>
   <v>       0.41666667       0.04166667       0.00000000 </v>
   <v>       0.45833333       0.04166667       0.00000000 </v>
   <v>       0.50000000       0.04166667       0.00000000 </v>
   <v>       0.08333333       0.08333333       0.00000000 </v>
   <v>       0.12500000       0.08333333       0.00000000 </v>
   <v>       0.16666667       0.08333333       0.00000000 </v>
   <v>       0.20833333       0.08333333       0.00000000 </v>
   <v>       0.25000000       0.08333333       0.00000000 </v>
   <v>       0.29166667       0.08333333       0.00000000 </v>
   <v>       0.33333333       0.08333333       0.00000000 </v>
   <v>       0.37500000       0.08333333       0.00000000 </v>
   <v>       0.41666667       0.08333333       0.00000000 </v>
   <v>       0.45833333       0.08333333       0.00000000 </v>
   <v>       0.50000000       0.08333333       0.00000000 </v>
   <v>       0.12500000       0.12500000       0.00000000 </v>
   <v>       0.16666667       0.12500000       0.00000000 </v>
   <v>       0.20833333       0.12500000       0.00000000 </v>
   <v>       0.25000000       0.12500000       0.00000000 </v>
   <v>       0.29166667       0.12500000       0.00000000 </v>
   <v>       0.33333333       0.12500000       0.00000000 </v>
   <v>       0.37500000       0.12500000       0.00000000 </v>
   <v>       0.41666667       0.12500000       0.00000000 </v>
   <v>       0.45833333       0.12500000       0.00000000 </v>
   <v>       0.50000000       0.12500000       0.00000000 </v>
   <v>       0.16666667       0.16666667       0.00000000 </v>
   <v>       0.20833333       0.16666667       0.00000000 </v>
   <v>       0.25000000       0.16666667       0.00000000 </v>
   <v>       0.29166667       0.16666667       0.00000000 </v>
   <v>       0.33333333       0.16666667       0.00000000 </v>
   <v>       0.37500000       0.16666667       0.00000000 </v>
   <v>       0.41666667       0.16666667       0.00000000 </v>
   <v>       0.45833333       0.16666667       0.00000000 </v>
   <v>       0.50000000       0.16666667       0.00000000 </v>
   <v>       0.20833333       0.20833333       0.00000000 </v>
   <v>       0.25000000       0.20833333       0.00000000 </v>
   <v>       0.29166667       0.20833333       0.00000000 </v>
   <v>       0.33333333       0.20833333       0.00000000 </v>
   <v>       0.37500000       0.20833333       0.00000000 </v>
   <v>       0.41666667       0.20833333       0.00000000 </v>
   <v>       0.45833333       0.20833333       0.00000000 </v>
   <v>       0.50000000       0.20833333       0.00000000 </v>
   <v>       0.25000000       0.25000000       0.00000000 </v>
   <v>       0.29166667       0.25000000       0.00000000 </v>
   <v>       0.33333333       0.25000000       0.00000000 </v>
   <v>       0.37500000       0.25000000       0.00000000 </v>
   <v>       0.41666667       0.25000000       0.00000000 </v>
   <v>       0.45833333       0.25000000       0.00000000 </v>
   <v>       0.50000000       0.25000000       0.00000000 </v>
   <v>       0.29166667       0.29166667       0.00000000 </v>
   <v>       0.33333333       0.29166667       0.00000000 </v>
   <v>       0.37500000       0.29166667       0.00000000 </v>
   <v>       0.41666667       0.29166667       0.00000000 </v>
   <v>       0.45833333       0.29166667       0.00000000 </v>
   <v>       0.50000000       0.29166667       0.00000000 </v>
   <v>       0.33333333       0.33333333       0.00000000 </v>
   <v>       0.37500000       0.33333333       0.00000000 </v>
   <v>       0.41666667       0.33333333       0.00000000 </v>
   <v>       0.45833333       0.33333333       0.00000000 </v>
   <v>       0.50000000       0.33333333       0.00000000 </v>
   <v>       0.37500000       0.37500000       0.00000000 </v>
   <v>       0.41666667       0.37500000       0.00000000 </v>
   <v>       0.45833333       0.37500000       0.00000000 </v>
   <v>       0.50000000       0.37500000       0.00000000 </v>
   <v>       0.41666667       0.41666667       0.00000000 </v>
   <v>       0.45833333       0.41666667       0.00000000 </v>
   <v>       0.50000000       0.41666667       0.00000000 </v>
   <v>       0.45833333       0.45833333       0.00000000 </v>
   <v>       0.50000000       0.45833333       0.00000000 </v>
   <v>       0.50000000       0.50000000       0.00000000 </v>
   <v>       0.00000000       0.00000000       0.14285714 </v>
   <v>       0.04166667       0.00000000       0.14285714 </v>
   <v>       0.08333333       0.00000000       0.14285714 </v>
   <v>       0.12500000       0.00000000       0.14285714 </v>
   <v>       0.16666667       0.00000000       0.14285714 </v>
   <v>       0.20833333       0.00000000       0.14285714 </v>
   <v>       0.25000000       0.00000000       0.14285714 </v>
   <v>       0.29166667       0.00000000       0.14285714 </v>
   <v>       0.33333333       0.00000000       0.14285714 </v>
   <v>       0.37500000       0.00000000       0.14285714 </v>
   <v>       0.41666667       0.00000000       0.14285714 </v>
   <v>       0.45833333       0.00000000       0.14285714 </v>
   <v>       0.50000000       0.00000000       0.14285714 </v>
   <v>       0.04166667       0.04166667       0.14285714 </v>
   <v>       0.08333333       0.04166667       0.14285714 </v>
   <v>       0.12500000       0.04166667       0.14285714 </v>
   <v>       0.16666667       0.04166667       0.14285714 </v>
   <v>       0.20833333       0.04166667       0.14285714 </v>
   <v>       0.25000000       0.04166667       0.14285714 </v>
   <v>       0.29166667       0.04166667       0.14285714 </v>
   <v>       0.33333333       0.04166667       0.14285714 </v>
   <v>       0.37500000       0.04166667       0.14285714 </v>
   <v>       0.41666667       0.04166667       0.14285714 </v>
   <v>       0.45833333       0.04166667       0.14285714 </v>
   <v>       0.50000000       0.04166667       0.14285714 </v>
   <v>       0.08333333       0.08333333       0.14285714 </v>
   <v>       0.12500000       0.08333333       0.14285714 </v>
   <v>       0.16666667       0.08333333       0.14285714 </v>
   <v>       0.20833333       0.08333333       0.14285714 </v>
   <v>       0.25000000       0.08333333       0.14285714 </v>
   <v>       0.29166667       0.08333333       0.14285714 </v>
   <v>       0.33333333       0.08333333       0.14285714 </v>
   <v>       0.37500000       0.08333333       0.14285714 </v>
   <v>       0.41666667       0.08333333       0.14285714 </v>
   <v>       0.45833333       0.08333333       0.14285714 </v>
   <v>       0.50000000       0.08333333       0.14285714 </v>
   <v>       0.12500000       0.12500000       0.14285714 </v>
   <v>       0.16666667       0.12500000       0.14285714 </v>
   <v>       0.20833333       0.12500000       0.14285714 </v>
   <v>       0.25000000       0.12500000       0.14285714 </v>
   <v>       0.29166667       0.12500000       0.14285714 </v>
   <v>       0.33333333       0.12500000       0.14285714 </v>
   <v>       0.37500000       0.12500000       0.14285714 </v>
   <v>       0.41666667       0.12500000       0.14285714 </v>
   <v>       0.45833333       0.12500000       0.14285714 </v>
   <v>       0.50000000       0.12500000       0.14285714 </v>
   <v>       0.16666667       0.16666667       0.14285714 </v>
   <v>       0.20833333       0.16666667       0.14285714 </v>
   <v>       0.25000000       0.16666667       0.14285714 </v>
   <v>       0.29166667       0.16666667       0.14285714 </v>
   <v>       0.33333333       0.16666667       0.14285714 </v>
   <v>       0.37500000       0.16666667       0.14285714 </v>
   <v>       0.41666667       0.16666667       0.14285714 </v>
   <v>       0.45833333       0.16666667       0.14285714 </v>
   <v>       0.50000000       0.16666667       0.14285714 </v>
   <v>       0.20833333       0.20833333       0.14285714 </v>
   <v>       0.25000000       0.20833333       0.14285714 </v>
   <v>       0.29166667       0.20833333       0.14285714 </v>
   <v>       0.33333333       0.20833333       0.14285714 </v>
   <v>       0.37500000       0.20833333       0.14285714 </v>
   <v>       0.41666667       0.20833333       0.14285714 </v>
   <v>       0.45833333       0.20833333       0.14285714 </v>
   <v>       0.50000000       0.20833333       0.14285714 </v>
   <v>       0.25000000       0.25000000       0.14285714 </v>
   <v>       0.29166667       0.25000000       0.14285714 </v>
   <v>       0.33333333       0.25000000       0.14285714 </v>
   <v>       0.37500000       0.25000000       0.14285714 </v>
   <v>       0.41666667       0.25000000       0.14285714 </v>
   <v>       0.45833333       0.25000000       0.14285714 </v>
   <v>       0.50000000       0.25000000       0.14285714 </v>
   <v>       0.29166667       0.29166667       0.14285714 </v>
   <v>       0.33333333       0.29166667       0.14285714 </v>
   <v>       0.37500000       0.29166667       0.14285714 </v>
   <v>       0.41666667       0.29166667       0.14285714 </v>
   <v>       0.45833333       0.29166667       0.14285714 </v>
   <v>       0.50000000       0.29166667       0.14285714 </v>
   <v>       0.33333333       0.33333333       0.14285714 </v>
   <v>       0.37500000       0.33333333       0.14285714 </v>
   <v>       0.41666667       0.33333333       0.14285714 </v>
   <v>       0.45833333       0.33333333       0.14285714 </v>
   <v>       0.50000000       0.33333333       0.14285714 </v>
   <v>       0.37500000       0.37500000       0.14285714 </v>
   <v>       0.41666667       0.37500000       0.14285714 </v>
   <v>       0.45833333       0.37500000       0.14285714 </v>
   <v>       0.50000000       0.37500000       0.14285714 </v>
   <v>       0.41666667       0.41666667       0.14285714 </v>
   <v>       0.45833333       0.41666667       0.14285714 </v>
   <v>       0.50000000       0.41666667       0.14285714 </v>
   <v>       0.45833333       0.45833333       0.14285714 </v>
   <v>       0.50000000       0.45833333       0.14285714 </v>
   <v>       0.50000000       0.50000000       0.14285714 </v>
   <v>       0.00000000       0.00000000       0.28571429 </v>
   <v>       0.04166667       0.00000000       0.28571429 </v>
   <v>       0.08333333       0.00000000       0.28571429 </v>
   <v>       0.12500000       0.00000000       0.28571429 </v>
   <v>       0.16666667       0.00000000       0.28571429 </v>
   <v>       0.20833333       0.00000000       0.28571429 </v>
   <v>       0.25000000       0.00000000       0.28571429 </v>
   <v>       0.29166667       0.00000000       0.28571429 </v>
   <v>       0.33333333       0.00000000       0.28571429 </v>
   <v>       0.37500000       0.00000000       0.28571429 </v>
   <v>       0.41666667       0.00000000       0.28571429 </v>
   <v>       0.45833333       0.00000000       0.28571429 </v>
   <v>       0.50000000       0.00000000       0.28571429 </v>
   <v>       0.04166667       0.04166667       0.28571429 </v>
   <v>       0.08333333       0.04166667       0.28571429 </v>
   <v>       0.12500000       0.04166667       0.28571429 </v>
   <v>       0.16666667       0.04166667       0.28571429 </v>
   <v>       0.20833333       0.04166667       0.28571429 </v>
   <v>       0.25000000       0.04166667       0.28571429 </v>
   <v>       0.29166667       0.04166667       0.28571429 </v>
   <v>       0.33333333       0.04166667       0.28571429 </v>
   <v>       0.37500000       0.04166667       0.28571429 </v>
   <v>       0.41666667       0.04166667       0.28571429 </v>
   <v>       0.45833333       0.04166667       0.28571429 </v>
   <v>       0.50000000       0.04166667       0.28571429 </v>
   <v>       0.08333333       0.08333333       0.28571429 </v>
   <v>       0.12500000       0.08333333       0.28571429 </v>
   <v>       0.16666667       0.08333333       0.28571429 </v>
   <v>       0.20833333       0.08333333       0.28571429 </v>
   <v>       0.25000000       0.08333333       0.28571429 </v>
   <v>       0.29166667       0.08333333       0.28571429 </v>
   <v>       0.33333333       0.08333333       0.28571429 </v>
   <v>       0.37500000       0.08333333       0.28571429 </v>
   <v>       0.41666667       0.08333333       0.28571429 </v>
   <v>       0.45833333       0.08333333       0.28571429 </v>
   <v>       0.50000000       0.08333333       0.28571429 </v>
   <v>       0.12500000       0.12500000       0.28571429 </v>
   <v>       0.16666667       0.12500000       0.28571429 </v>
   <v>       0.20833333       0.12500000       0.28571429 </v>
   <v>       0.25000000       0.12500000       0.28571429 </v>
   <v>       0.29166667       0.12500000       0.28571429 </v>
   <v>       0.33333333       0.12500000       0.28571429 </v>
   <v>       0.37500000       0.12500000       0.28571429 </v>
   <v>       0.41666667       0.12500000       0.28571429 </v>
   <v>       0.45833333       0.12500000       0.28571429 </v>
   <v>       0.50000000       0.12500000       0.28571429 </v>
   <v>       0.16666667       0.16666667       0.28571429 </v>
   <v>       0.20833333       0.16666667       0.28571429 </v>
   <v>       0.25000000       0.16666667       0.28571429 </v>
   <v>       0.29166667       0.16666667       0.28571429 </v>
   <v>       0.33333333       0.16666667       0.28571429 </v>
   <v>       0.37500000       0.16666667       0.28571429 </v>
   <v>       0.41666667       0.16666667       0.28571429 </v>
   <v>       0.45833333       0.16666667       0.28571429 </v>
   <v>       0.50000000       0.16666667       0.28571429 </v>
   <v>       0.20833333       0.20833333       0.28571429 </v>
   <v>       0.25000000       0.20833333       0.28571429 </v>
   <v>       0.29166667       0.20833333       0.28571429 </v>
   <v>       0.33333333       0.20833333       0.28571429 </v>
   <v>       0.37500000       0.20833333       0.28571429 </v>
   <v>       0.41666667       0.20833333       0.28571429 </v>
   <v>       0.45833333       0.20833333       0.28571429 </v>
   <v>       0.50000000       0.20833333       0.28571429 </v>
   <v>       0.25000000       0.25000000       0.28571429 </v>
   <v>       0.29166667       0.25000000       0.28571429 </v>
   <v>       0.33333333       0.25000000       0.28571429 </v>
   <v>       0.37500000       0.25000000       0.28571429 </v>
   <v>       0.41666667       0.25000000       0.28571429 </v>
   <v>       0.45833333       0.25000000       0.28571429 </v>
   <v>       0.50000000       0.25000000       0.28571429 </v>
   <v>       0.29166667       0.29166667       0.28571429 </v>
   <v>       0.33333333       0.29166667       0.28571429 </v>
   <v>       0.37500000       0.29166667       0.28571429 </v>
   <v>       0.41666667       0.29166667       0.28571429 </v>
   <v>       0.45833333       0.29166667       0.28571429 </v>
   <v>       0.50000000       0.29166667       0.28571429 </v>
   <v>       0.33333333       0.33333333       0.28571429 </v>
   <v>       0.37500000       0.33333333       0.28571429 </v>
   <v>       0.41666667       0.33333333       0.28571429 </v>
   <v>       0.45833333       0.33333333       0.28571429 </v>
   <v>       0.50000000       0.33333333       0.28571429 </v>
   <v>       0.37500000       0.37500000       0.28571429 </v>
   <v>       0.41666667       0.37500000       0.28571429 </v>
   <v>       0.45833333       0.37500000       0.28571429 </v>
   <v>       0.50000000       0.37500000       0.28571429 </v>
   <v>       0.41666667       0.41666667       0.28571429 </v>
   <v>       0.45833333       0.41666667       0.28571429 </v>
   <v>       0.50000000       0.41666667       0.28571429 </v>
   <v>       0.45833333       0.45833333       0.28571429 </v>
   <v>       0.50000000       0.45833333       0.28571429 </v>
   <v>       0.50000000       0.50000000       0.28571429 </v>
   <v>       0.00000000       0.00000000       0.42857143 </v>
   <v>       0.04166667       0.00000000       0.42857143 </v>
   <v>       0.08333333       0.00000000       0.42857143 </v>
   <v>       0.12500000       0.00000000       0.42857143 </v>
   <v>       0.16666667       0.00000000       0.42857143 </v>
   <v>       0.20833333       0.00000000       0.42857143 </v>
   <v>       0.25000000       0.00000000       0.42857143 </v>
   <v>       0.29166667       0.00000000       0.42857143 </v>
   <v>       0.33333333       0.00000000       0.42857143 </v>
   <v>       0.37500000       0.00000000       0.42857143 </v>
   <v>       0.41666667       0.00000000       0.42857143 </v>
   <v>       0.45833333       0.00000000       0.42857143 </v>
   <v>       0.50000000       0.00000000       0.42857143 </v>
   <v>       0.04166667       0.04166667       0.42857143 </v>
   <v>       0.08333333       0.04166667       0.42857143 </v>
   <v>       0.12500000       0.04166667       0.42857143 </v>
   <v>       0.16666667       0.04166667       0.42857143 </v>
   <v>       0.20833333       0.04166667       0.42857143 </v>
   <v>       0.25000000       0.04166667       0.42857143 </v>
   <v>       0.29166667       0.04166667       0.42857143 </v>
   <v>       0.33333333       0.04166667       0.42857143 </v>
   <v>       0.37500000       0.04166667       0.42857143 </v>
   <v>       0.41666667       0.04166667       0.42857143 </v>
   <v>       0.45833333       0.04166667       0.42857143 </v>
   <v>       0.50000000       0.04166667       0.42857143 </v>
   <v>       0.08333333       0.08333333       0.42857143 </v>
   <v>       0.12500000       0.08333333       0.42857143 </v>
   <v>       0.16666667       0.08333333       0.42857143 </v>
   <v>       0.20833333       0.08333333       0.42857143 </v>
   <v>       0.25000000       0.08333333       0.42857143 </v>
   <v>       0.29166667       0.08333333       0.42857143 </v>
   <v>       0.33333333       0.08333333       0.42857143 </v>
   <v>       0.37500000       0.08333333       0.42857143 </v>
   <v>       0.41666667       0.08333333       0.42857143 </v>
   <v>       0.45833333       0.08333333       0.42857143 </v>
   <v>       0.50000000       0.08333333       0.42857143 </v>
   <v>       0.12500000       0.12500000       0.42857143 </v>
   <v>       0.16666667       0.12500000       0.42857143 </v>
   <v>       0.20833333       0.12500000       0.42857143 </v>
   <v>       0.25000000       0.12500000       0.42857143 </v>
   <v>       0.29166667       0.12500000       0.42857143 </v>
   <v>       0.33333333       0.12500000       0.42857143 </v>
   <v>       0.37500000       0.12500000       0.42857143 </v>
   <v>       0.41666667       0.12500000       0.42857143 </v>
   <v>       0.45833333       0.12500000       0.42857143 </v>
   <v>       0.50000000       0.12500000       0.42857143 </v>
   <v>       0.16666667       0.16666667       0.42857143 </v>
   <v>       0.20833333       0.16666667       0.42857143 </v>
   <v>       0.25000000       0.16666667       0.42857143 </v>
   <v>       0.29166667       0.16666667       0.42857143 </v>
   <v>       0.33333333       0.16666667       0.42857143 </v>
   <v>       0.37500000       0.16666667       0.42857143 </v>
   <v>       0.41666667       0.16666667       0.42857143 </v>
   <v>       0.45833333       0.16666667       0.42857143 </v>
   <v>       0.50000000       0.16666667       0.42857143 </v>
   <v>       0.20833333       0.20833333       0.42857143 </v>
   <v>       0.25000000       0.20833333       0.42857143 </v>
   <v>       0.29166667       0.20833333       0.42857143 </v>
   <v>       0.33333333       0.20833333       0.42857143 </v>
   <v>       0.37500000       0.20833333       0.42857143 </v>
   <v>       0.41666667       0.20833333       0.42857143 </v>
   <v>       0.45833333       0.20833333       0.42857143 </v>
   <v>       0.50000000       0.20833333       0.42857143 </v>
   <v>       0.25000000       0.25000000       0.42857143 </v>
   <v>       0.29166667       0.25000000       0.42857143 </v>
   <v>       0.33333333       0.25000000       0.42857143 </v>
   <v>       0.37500000       0.25000000       0.42857143 </v>
   <v>       0.41666667       0.25000000       0.42857143 </v>
   <v>       0.45833333       0.25000000       0.42857143 </v>
   <v>       0.50000000       0.25000000       0.42857143 </v>
   <v>       0.29166667       0.29166667       0.42857143 </v>
   <v>       0.33333333       0.29166667       0.42857143 </v>
   <v>       0.37500000       0.29166667       0.42857143 </v>
   <v>       0.41666667       0.29166667       0.42857143 </v>
   <v>       0.45833333       0.29166667       0.42857143 </v>
   <v>       0.50000000       0.29166667       0.42857143 </v>
   <v>       0.33333333       0.33333333       0.42857143 </v>
   <v>       0.37500000       0.33333333       0.42857143 </v>
   <v>       0.41666667       0.33333333       0.42857143 </v>
   <v>       0.45833333       0.33333333       0.42857143 </v>
   <v>       0.50000000       0.33333333       0.42857143 </v>
   <v>       0.37500000       0.37500000       0.42857143 </v>
   <v>       0.41666667       0.37500000       0.42857143 </v>
   <v>       0.45833333       0.37500000       0.42857143 </v>
   <v>       0.50000000       0.37500000       0.42857143 </v>
   <v>       0.41666667       0.41666667       0.42857143 </v>
   <v>       0.45833333       0.41666667       0.42857143 </v>
   <v>       0.50000000       0.41666667       0.42857143 </v>
   <v>       0.45833333       0.45833333       0.42857143 </v>
   <v>       0.50000000       0.45833333       0.42857143 </v>
   <v>       0.50000000       0.50000000       0.42857143 </v>
  </varray>
  <varray name="weights" >
   <v>       0.00024802 </v>
   <v>       0.00099206 </v>
   <v>       0.00099206 </v>
   <v>       0.00099206 </v>
   <v>       0.00099206 </v>
   <v>       0.00099206 </v>
   <v>       0.00099206 </v>
   <v>       0.00099206 </v>
   <v>       0.00099206 </v>
   <v>       0.00099206 </v>
   <v>       0.00099206 </v>
   <v>       0.00099206 </v>
   <v>       0.00049603 </v>
   <v>       0.00099206 </v>
   <v>       0.00198413 </v>
   <v>       0.00198413 </v>
   <v>       0.00198413 </v>
   <v>       0.00198413 </v>
   <v>       0.00198413 </v>
   <v>       0.00198413 </v>
   <v>       0.00198413 </v>
   <v>       0.00198413 </v>
   <v>       0.00198413 </v>
   <v>       0.00198413 </v>
   <v>       0.00099206 </v>
   <v>       0.00099206 </v>
   <v>       0.00198413 </v>
   <v>       0.00198413 </v>
   <v>       0.00198413 </v>
   <v>       0.00198413 </v>
   <v>       0.00198413 </v>
   <v>       0.00198413 </v>
   <v>       0.00198413 </v>
   <v>       0.00198413 </v>
   <v>       0.00198413 </v>
   <v>       0.00099206 </v>
   <v>       0.00099206 </v>
   <v>       0.00198413 </v>
   <v>       0.00198413 </v>
   <v>       0.00198413 </v>
   <v>       0.00198413 </v>
   <v>       0.00198413 </v>
   <v>       0.00198413 </v>
   <v>       0.00198413 </v>
   <v>       0.00198413 </v>
   <v>       0.00099206 </v>
   <v>       0.00099206 </v>
   <v>       0.00198413 </v>
   <v>       0.00198413 </v>
   <v>       0.00198413 </v>
   <v>       0.00198413 </v>
   <v>       0.00198413 </v>
   <v>       0.00198413 </v>
   <v>       0.00198413 </v>
   <v>       0.00099206 </v>
   <v>       0.00099206 </v>
   <v>       0.00198413 </v>
   <v>       0.00198413 </v>
   <v>       0.00198413 </v>
   <v>       0.00198413 </v>
   <v>       0.00198413 </v>
   <v>       0.00198413 </v>
   <v>       0.00099206 </v>
   <v>       0.00099206 </v>
   <v>       0.00198413 </v>
   <v>       0.00198413 </v>
   <v>       0.00198413 </v>
   <v>       0.00198413 </v>
   <v>       0.00198413 </v>
   <v>       0.00099206 </v>
   <v>       0.00099206 </v>
   <v>       0.00198413 </v>
   <v>       0.00198413 </v>
   <v>       0.00198413 </v>
   <v>       0.00198413 </v>
   <v>       0.00099206 </v>
   <v>       0.00099206 </v>
   <v>       0.00198413 </v>
   <v>       0.00198413 </v>
   <v>       0.00198413 </v>
   <v>       0.00099206 </v>
   <v>       0.00099206 </v>
   <v>       0.00198413 </v>
   <v>       0.00198413 </v>
   <v>       0.00099206 </v>
   <v>       0.00099206 </v>
   <v>       0.00198413 </v>
   <v>       0.00099206 </v>
   <v>       0.00099206 </v>
   <v>       0.00099206 </v>
   <v>       0.00024802 </v>
   <v>       0.00049603 </v>
   <v>       0.00198413 </v>
   <v>       0.00198413 </v>
   <v>       0.00198413 </v>
   <v>       0.00198413 </v>
   <v>       0.00198413 </v>
   <v>       0.00198413 </v>
   <v>       0.00198413 </v>
   <v>       0.00198413 </v>
   <v>       0.00198413 </v>
   <v>       0.00198413 </v>
   <v>       0.00198413 </v>
   <v>       0.00099206 </v>
   <v>       0.00198413 </v>
   <v>       0.00396825 </v>
   <v>       0.00396825 </v>
   <v>       0.00396825 </v>
   <v>       0.00396825 </v>
   <v>       0.00396825 </v>
   <v>       0.00396825 </v>
   <v>       0.00396825 </v>
   <v>       0.00396825 </v>
   <v>       0.00396825 </v>
   <v>       0.00396825 </v>
   <v>       0.00198413 </v>
   <v>       0.00198413 </v>
   <v>       0.00396825 </v>
   <v>       0.00396825 </v>
   <v>       0.00396825 </v>
   <v>       0.00396825 </v>
   <v>       0.00396825 </v>
   <v>       0.00396825 </v>
   <v>       0.00396825 </v>
   <v>       0.00396825 </v>
   <v>       0.00396825 </v>
   <v>       0.00198413 </v>
   <v>       0.00198413 </v>
   <v>       0.00396825 </v>
   <v>       0.00396825 </v>
   <v>       0.00396825 </v>
   <v>       0.00396825 </v>
   <v>       0.00396825 </v>
   <v>       0.00396825 </v>
   <v>       0.00396825 </v>
   <v>       0.00396825 </v>
   <v>       0.00198413 </v>
   <v>       0.00198413 </v>
   <v>       0.00396825 </v>
   <v>       0.00396825 </v>
   <v>       0.00396825 </v>
   <v>       0.00396825 </v>
   <v>       0.00396825 </v>
   <v>       0.00396825 </v>
   <v>       0.00396825 </v>
   <v>       0.00198413 </v>
   <v>       0.00198413 </v>
   <v>       0.00396825 </v>
   <v>       0.00396825 </v>
   <v>       0.00396825 </v>
   <v>       0.00396825 </v>
   <v>       0.00396825 </v>
   <v>       0.00396825 </v>
   <v>       0.00198413 </v>
   <v>       0.00198413 </v>
   <v>       0.00396825 </v>
   <v>       0.00396825 </v>
   <v>       0.00396825 </v>
   <v>       0.00396825 </v>
   <v>       0.00396825 </v>
   <v>       0.00198413 </v>
   <v>       0.00198413 </v>
   <v>       0.00396825 </v>
   <v>       0.00396825 </v>
   <v>       0.00396825 </v>
   <v>       0.00396825 </v>
   <v>       0.00198413 </v>
   <v>       0.00198413 </v>
   <v>       0.00396825 </v>
   <v>       0.00396825 </v>
   <v>       0.00396825 </v>
   <v>       0.00198413 </v>
   <v>       0.00198413 </v>
   <v>       0.00396825 </v>
   <v>       0.00396825 </v>
   <v>       0.00198413 </v>
   <v>       0.00198413 </v>
   <v>       0.00396825 </v>
   <v>       0.00198413 </v>
   <v>       0.00198413 </v>
   <v>       0.00198413 </v>
   <v>       0.00049603 </v>
   <v>       0.00049603 </v>
   <v>       0.00198413 </v>
   <v>       0.00198413 </v>
   <v>       0.00198413 </v>
   <v>       0.00198413 </v>
   <v>       0.00198413 </v>
   <v>       0.00198413 </v>
   <v>       0.00198413 </v>
   <v>       0.00198413 </v>
   <v>       0.00198413 </v>
   <v>       0.00198413 </v>
   <v>       0.00198413 </v>
   <v>       0.00099206 </v>
   <v>       0.00198413 </v>
   <v>       0.00396825 </v>
   <v>       0.00396825 </v>
   <v>       0.00396825 </v>
   <v>       0.00396825 </v>
   <v>       0.00396825 </v>
   <v>       0.00396825 </v>
   <v>       0.00396825 </v>
   <v>       0.00396825 </v>
   <v>       0.00396825 </v>
   <v>       0.00396825 </v>
   <v>       0.00198413 </v>
   <v>       0.00198413 </v>
   <v>       0.00396825 </v>
   <v>       0.00396825 </v>
   <v>       0.00396825 </v>
   <v>       0.00396825 </v>
   <v>       0.00396825 </v>
   <v>       0.00396825 </v>
   <v>       0.00396825 </v>
   <v>       0.00396825 </v>
   <v>       0.00396825 </v>
   <v>       0.00198413 </v>
   <v>       0.00198413 </v>
   <v>       0.00396825 </v>
   <v>       0.00396825 </v>
   <v>       0.00396825 </v>
   <v>       0.00396825 </v>
   <v>       0.00396825 </v>
   <v>       0.00396825 </v>
   <v>       0.00396825 </v>
   <v>       0.00396825 </v>
   <v>       0.00198413 </v>
   <v>       0.00198413 </v>
   <v>       0.00396825 </v>
   <v>       0.00396825 </v>
   <v>       0.00396825 </v>
   <v>       0.00396825 </v>
   <v>       0.00396825 </v>
   <v>       0.00396825 </v>
   <v>       0.00396825 </v>
   <v>       0.00198413 </v>
   <v>       0.00198413 </v>
   <v>       0.00396825 </v>
   <v>       0.00396825 </v>
   <v>       0.00396825 </v>
   <v>       0.00396825 </v>
   <v>       0.00396825 </v>
   <v>       0.00396825 </v>
   <v>       0.00198413 </v>
   <v>       0.00198413 </v>
   <v>       0.00396825 </v>
   <v>       0.00396825 </v>
   <v>       0.00396825 </v>
   <v>       0.00396825 </v>
   <v>       0.00396825 </v>
   <v>       0.00198413 </v>
   <v>       0.00198413 </v>
   <v>       0.00396825 </v>
   <v>       0.00396825 </v>
   <v>       0.00396825 </v>
   <v>       0.00396825 </v>
   <v>       0.00198413 </v>
   <v>       0.00198413 </v>
   <v>       0.00396825 </v>
   <v>       0.00396825 </v>
   <v>       0.00396825 </v>
   <v>       0.00198413 </v>
   <v>       0.00198413 </v>
   <v>       0.00396825 </v>
   <v>       0.00396825 </v>
   <v>       0.00198413 </v>
   <v>       0.00198413 </v>
   <v>       0.00396825 </v>
   <v>       0.00198413 </v>
   <v>       0.00198413 </v>
   <v>       0.00198413 </v>
   <v>       0.00049603 </v>
   <v>       0.00049603 </v>
   <v>       0.00198413 </v>
   <v>       0.00198413 </v>
   <v>       0.00198413 </v>
   <v>       0.00198413 </v>
   <v>       0.00198413 </v>
   <v>       0.00198413 </v>
   <v>       0.00198413 </v>
   <v>       0.00198413 </v>
   <v>       0.00198413 </v>
   <v>       0.00198413 </v>
   <v>       0.00198413 </v>
   <v>       0.00099206 </v>
   <v>       0.00198413 </v>
   <v>       0.00396825 </v>
   <v>       0.00396825 </v>
   <v>       0.00396825 </v>
   <v>       0.00396825 </v>
   <v>       0.00396825 </v>
   <v>       0.00396825 </v>
   <v>       0.00396825 </v>
   <v>       0.00396825 </v>
   <v>       0.00396825 </v>
   <v>       0.00396825 </v>
   <v>       0.00198413 </v>
   <v>       0.00198413 </v>
   <v>       0.00396825 </v>
   <v>       0.00396825 </v>
   <v>       0.00396825 </v>
   <v>       0.00396825 </v>
   <v>       0.00396825 </v>
   <v>       0.00396825 </v>
   <v>       0.00396825 </v>
   <v>       0.00396825 </v>
   <v>       0.00396825 </v>
   <v>       0.00198413 </v>
   <v>       0.00198413 </v>
   <v>       0.00396825 </v>
   <v>       0.00396825 </v>
   <v>       0.00396825 </v>
   <v>       0.00396825 </v>
   <v>       0.00396825 </v>
   <v>       0.00396825 </v>
   <v>       0.00396825 </v>
   <v>       0.00396825 </v>
   <v>       0.00198413 </v>
   <v>       0.00198413 </v>
   <v>       0.00396825 </v>
   <v>       0.00396825 </v>
   <v>       0.00396825 </v>
   <v>       0.00396825 </v>
   <v>       0.00396825 </v>
   <v>       0.00396825 </v>
   <v>       0.00396825 </v>
   <v>       0.00198413 </v>
   <v>       0.00198413 </v>
   <v>       0.00396825 </v>
   <v>       0.00396825 </v>
   <v>       0.00396825 </v>
   <v>       0.00396825 </v>
   <v>       0.00396825 </v>
   <v>       0.00396825 </v>
   <v>       0.00198413 </v>
   <v>       0.00198413 </v>
   <v>       0.00396825 </v>
   <v>       0.00396825 </v>
   <v>       0.00396825 </v>
   <v>       0.00396825 </v>
   <v>       0.00396825 </v>
   <v>       0.00198413 </v>
   <v>       0.00198413 </v>
   <v>       0.00396825 </v>
   <v>       0.00396825 </v>
   <v>       0.00396825 </v>
   <v>       0.00396825 </v>
   <v>       0.00198413 </v>
   <v>       0.00198413 </v>
   <v>       0.00396825 </v>
   <v>       0.00396825 </v>
   <v>       0.00396825 </v>
   <v>       0.00198413 </v>
   <v>       0.00198413 </v>
   <v>       0.00396825 </v>
   <v>       0.00396825 </v>
   <v>       0.00198413 </v>
   <v>       0.00198413 </v>
   <v>       0.00396825 </v>
   <v>       0.00198413 </v>
   <v>       0.00198413 </v>
   <v>       0.00198413 </v>
   <v>       0.00049603 </v>
  </varray>
 </kpoints>
 <parameters>
  <separator name="general" >
   <i type="string" name="SYSTEM">unknown system</i>
   <i type="logical" name="LCOMPAT"> F  </i>
  </separator>
  <separator name="electronic" >
   <i type="string" name="PREC">accura</i>
   <i name="ENMAX">    500.00000000</i>
   <i name="ENAUG">    586.98000000</i>
   <i name="EDIFF">      0.00000100</i>
   <i type="int" name="IALGO">    68</i>
   <i type="int" name="IWAVPR">    11</i>
   <i type="int" name="NBANDS">    40</i>
   <i name="NELECT">     66.00000000</i>
   <i type="int" name="TURBO">     0</i>
   <i type="int" name="IRESTART">     0</i>
   <i type="int" name="NREBOOT">     0</i>
   <i type="int" name="NMIN">     0</i>
   <i name="EREF">      0.00000000</i>
   <separator name="electronic smearing" >
    <i type="int" name="ISMEAR">     1</i>
    <i name="SIGMA">      0.30000000</i>
    <i name="KSPACING">      0.50000000</i>
    <i type="logical" name="KGAMMA"> T  </i>
   </separator>
   <separator name="electronic projectors" >
    <i type="logical" name="LREAL"> F  </i>
    <v name="ROPT">      0.00000000      0.00000000      0.00000000</v>
    <i type="int" name="LMAXPAW">  -100</i>
    <i type="int" name="LMAXMIX">     2</i>
    <i type="logical" name="NLSPLINE"> F  </i>
   </separator>
   <separator name="electronic startup" >
    <i type="int" name="ISTART">     0</i>
    <i type="int" name="ICHARG">     2</i>
    <i type="int" name="INIWAV">     1</i>
   </separator>
   <separator name="electronic spin" >
    <i type="int" name="ISPIN">     1</i>
    <i type="logical" name="LNONCOLLINEAR"> F  </i>
    <v name="MAGMOM">      1.00000000      1.00000000      1.00000000      1.00000000      1.00000000      1.00000000</v>
    <i name="NUPDOWN">     -1.00000000</i>
    <i type="logical" name="LSORBIT"> F  </i>
    <v name="SAXIS">      0.00000000      0.00000000      1.00000000</v>
    <i type="logical" name="LSPIRAL"> F  </i>
    <v name="QSPIRAL">      0.00000000      0.00000000      0.00000000</v>
    <i type="logical" name="LZEROZ"> F  </i>
   </separator>
   <separator name="electronic exchange-correlation" >
    <i type="logical" name="LASPH"> F  </i>
    <i type="logical" name="LMETAGGA"> F  </i>
   </separator>
   <separator name="electronic convergence" >
    <i type="int" name="NELM">   200</i>
    <i type="int" name="NELMDL">     0</i>
    <i type="int" name="NELMIN">     4</i>
    <i name="ENINI">    500.00000000</i>
    <separator name="electronic convergence detail" >
     <i type="logical" name="LDIAG"> T  </i>
     <i type="logical" name="LSUBROT"> F  </i>
     <i name="WEIMIN">      0.00100000</i>
     <i name="EBREAK">      0.00000001</i>
     <i name="DEPER">      0.30000000</i>
     <i type="int" name="NRMM">     4</i>
     <i name="TIME">      0.40000000</i>
    </separator>
   </separator>
   <separator name="electronic mixer" >
    <i name="AMIX">      0.40000000</i>
    <i name="BMIX">      1.00000000</i>
    <i name="AMIN">      0.10000000</i>
    <i name="AMIX_MAG">      1.60000000</i>
    <i name="BMIX_MAG">      1.00000000</i>
    <separator name="electronic mixer details" >
     <i type="int" name="IMIX">     4</i>
     <i type="int" name="MAXMIX">   -45</i>
     <i name="WC">    100.00000000</i>
     <i type="int" name="INIMIX">     1</i>
     <i type="int" name="MIXPRE">     1</i>
     <i type="int" name="MREMOVE">     5</i>
    </separator>
   </separator>
   <separator name="electronic dipolcorrection" >
    <i type="logical" name="LDIPOL"> F  </i>
    <i type="logical" name="LMONO"> F  </i>
    <i type="int" name="IDIPOL">     0</i>
    <i name="EPSILON">      1.00000000</i>
    <v name="DIPOL">   -100.00000000   -100.00000000   -100.00000000</v>
    <i name="EFIELD">      0.00000000</i>
   </separator>
  </separator>
  <separator name="grids" >
   <i type="int" name="NGX">    24</i>
   <i type="int" name="NGY">    24</i>
   <i type="int" name="NGZ">    80</i>
   <i type="int" name="NGXF">    48</i>
   <i type="int" name="NGYF">    48</i>
   <i type="int" name="NGZF">   160</i>
   <i type="logical" name="ADDGRID"> T  </i>
  </separator>
  <separator name="ionic" >
   <i type="int" name="NSW">    30</i>
   <i type="int" name="IBRION">     2</i>
   <i type="int" name="ISIF">     3</i>
   <i name="PSTRESS">      0.00000000</i>
   <i name="EDIFFG">     -0.02000000</i>
   <i type="int" name="NFREE">     1</i>
   <i name="POTIM">      0.50000000</i>
   <i name="SMASS">     -3.00000000</i>
   <i name="SCALEE">      1.00000000</i>
  </separator>
  <separator name="ionic md" >
   <i name="TEBEG">      0.00010000</i>
   <i name="TEEND">      0.00010000</i>
   <i type="int" name="NBLOCK">     1</i>
   <i type="int" name="KBLOCK">    30</i>
   <i type="int" name="NPACO">   256</i>
   <i name="APACO">     16.00000000</i>
  </separator>
  <separator name="symmetry" >
   <i type="int" name="ISYM">     2</i>
   <i name="SYMPREC">      0.00001000</i>
  </separator>
  <separator name="dos" >
   <i type="logical" name="LORBIT"> F  </i>
   <v name="RWIGS">     -1.00000000     -1.00000000     -1.00000000</v>
   <i type="int" name="NEDOS">   301</i>
   <i name="EMIN">     10.00000000</i>
   <i name="EMAX">    -10.00000000</i>
   <i name="EFERMI">      0.00000000</i>
  </separator>
  <separator name="writing" >
   <i type="int" name="NWRITE">     2</i>
   <i type="logical" name="LWAVE"> F  </i>
   <i type="logical" name="LCHARG"> F  </i>
   <i type="logical" name="LPARD"> F  </i>
   <i type="logical" name="LVTOT"> F  </i>
   <i type="logical" name="LVHAR"> F  </i>
   <i type="logical" name="LELF"> F  </i>
   <i type="logical" name="LOPTICS"> F  </i>
   <v name="STM">      0.00000000      0.00000000      0.00000000      0.00000000      0.00000000      0.00000000      0.00000000</v>
  </separator>
  <separator name="performance" >
   <i type="int" name="NPAR">     4</i>
   <i type="int" name="NSIM">     4</i>
   <i type="int" name="NBLK">    -1</i>
   <i type="logical" name="LPLANE"> T  </i>
   <i type="logical" name="LSCALAPACK"> T  </i>
   <i type="logical" name="LSCAAWARE"> F  </i>
   <i type="logical" name="LSCALU"> F  </i>
   <i type="logical" name="LASYNC"> F  </i>
   <i type="logical" name="LORBITALREAL"> F  </i>
  </separator>
  <separator name="miscellaneous" >
   <i type="int" name="IDIOT">     3</i>
   <i type="logical" name="LMUSIC"> F  </i>
   <v name="POMASS">     63.54600000    107.86800000    196.96600000</v>
   <v name="DARWINR">      0.00000000      0.00000000      0.00000000</v>
   <v name="DARWINV">      1.00000000      1.00000000      1.00000000</v>
   <i type="logical" name="LCORR"> T  </i>
  </separator>
  <i type="logical" name="GGA_COMPAT"> T  </i>
  <i type="logical" name="LBERRY"> F  </i>
  <i type="int" name="ICORELEVEL">     0</i>
  <i type="logical" name="LDAU"> F  </i>
  <i type="int" name="I_CONSTRAINED_M">     0</i>
  <separator name="electronic exchange-correlation" >
   <i type="string" name="GGA">--</i>
   <i type="int" name="VOSKOWN">     0</i>
   <i type="logical" name="LHFCALC"> F  </i>
   <i type="string" name="PRECFOCK"></i>
   <i type="logical" name="LSYMGRAD"> F  </i>
   <i type="logical" name="LHFONE"> F  </i>
   <i type="logical" name="LRHFCALC"> F  </i>
   <i type="logical" name="LTHOMAS"> F  </i>
   <i type="logical" name="LMODELHF"> F  </i>
   <i name="ENCUT4O">     -1.00000000</i>
   <i type="int" name="EXXOEP">     0</i>
   <i type="int" name="FOURORBIT">     0</i>
   <i name="AEXX">      0.00000000</i>
   <i name="HFALPHA">      0.00000000</i>
   <i name="MCALPHA">      0.00000000</i>
   <i name="ALDAX">      1.00000000</i>
   <i name="AGGAX">      1.00000000</i>
   <i name="ALDAC">      1.00000000</i>
   <i name="AGGAC">      1.00000000</i>
   <i type="int" name="NKREDX">     1</i>
   <i type="int" name="NKREDY">     1</i>
   <i type="int" name="NKREDZ">     1</i>
   <i type="logical" name="SHIFTRED"> F  </i>
   <i type="logical" name="ODDONLY"> F  </i>
   <i type="logical" name="EVENONLY"> F  </i>
   <i type="int" name="LMAXFOCK">     0</i>
   <i type="int" name="NMAXFOCKAE">     0</i>
   <i type="logical" name="LFOCKAEDFT"> F  </i>
   <i name="HFSCREEN">      0.00000000</i>
   <i name="HFSCREENC">      0.00000000</i>
   <i type="int" name="NBANDSGWLOW">     0</i>
  </separator>
  <separator name="vdW DFT" >
   <i type="logical" name="LUSE_VDW"> F  </i>
   <i name="Zab_VDW">     -0.84910000</i>
   <i name="PARAM1">      0.12340000</i>
   <i name="PARAM2">      1.00000000</i>
   <i name="PARAM3">      0.00000000</i>
  </separator>
  <separator name="model GW" >
   <i type="int" name="MODEL_GW">     0</i>
   <i name="MODEL_EPS0">      8.97483124</i>
   <i name="MODEL_ALPHA">      1.00000000</i>
  </separator>
  <separator name="linear response parameters" >
   <i type="logical" name="LEPSILON"> F  </i>
   <i type="logical" name="LRPA"> F  </i>
   <i type="logical" name="LNABLA"> F  </i>
   <i type="logical" name="LVEL"> F  </i>
   <i type="int" name="KINTER">     0</i>
   <i name="CSHIFT">      0.10000000</i>
   <i name="OMEGAMAX">     -1.00000000</i>
   <i name="DEG_THRESHOLD">      0.00200000</i>
  </separator>
  <separator name="orbital magnetization" >
   <i type="logical" name="NUCIND"> F  </i>
   <v name="MAGPOS">      0.00000000      0.00000000      0.00000000</v>
   <i type="logical" name="LNICSALL"> T  </i>
   <i type="logical" name="ORBITALMAG"> F  </i>
   <i type="logical" name="LMAGBLOCH"> F  </i>
   <i type="logical" name="LCHIMAG"> F  </i>
   <i type="logical" name="LGAUGE"> T  </i>
   <i type="int" name="MAGATOM">     0</i>
   <v name="MAGDIPOL">      0.00000000      0.00000000      0.00000000</v>
   <v name="AVECCONST">      0.00000000      0.00000000      0.00000000</v>
  </separator>
  <separator name="response functions" >
   <i type="logical" name="LADDER"> F  </i>
   <i type="logical" name="LFXC"> F  </i>
   <i type="logical" name="LHARTREE"> T  </i>
   <i type="int" name="IBSE">     0</i>
   <i type="logical" name="LTCTE"> F  </i>
   <i type="logical" name="LTETE"> F  </i>
   <i type="logical" name="LTRIPLET"> F  </i>
   <i type="logical" name="LFXCEPS"> F  </i>
   <i type="logical" name="LFXHEG"> F  </i>
   <i type="logical" name="L2ORDER"> F  </i>
   <i type="logical" name="LUSEW"> F  </i>
   <i name="ENCUTGW">     -2.00000000</i>
   <i name="ENCUTGWSOFT">     -2.00000000</i>
   <i name="ENCUTLF">     -1.00000000</i>
   <i type="int" name="LMAXMP2">    -1</i>
   <i name="SCISSOR">      0.00000000</i>
   <i type="int" name="NOMEGA">     0</i>
   <i type="int" name="NOMEGAR">     0</i>
   <i type="int" name="NBANDSGW">    -1</i>
   <i type="int" name="NBANDSO">    -1</i>
   <i type="int" name="NBANDSV">    -1</i>
   <i type="int" name="NELM">   200</i>
   <i type="int" name="DIM">     3</i>
   <i type="int" name="ANTIRES">     0</i>
   <i name="OMEGAMAX">    -30.00000000</i>
   <i name="OMEGAMIN">    -30.00000000</i>
   <i name="OMEGATL">   -200.00000000</i>
   <i type="int" name="OMEGAGRID">     0</i>
   <i name="CSHIFT">     -0.10000000</i>
   <i type="logical" name="SELFENERGY"> F  </i>
   <i type="logical" name="LSPECTRAL"> F  </i>
   <i type="logical" name="ODDONLYGW"> F  </i>
   <i type="logical" name="EVENONLYGW"> F  </i>
   <i type="int" name="NKREDLFX">     1</i>
   <i type="int" name="NKREDLFY">     1</i>
   <i type="int" name="NKREDLFZ">     1</i>
   <i type="int" name="MAXMEM">  1800</i>
   <i type="int" name="TELESCOPE">     0</i>
   <i type="int" name="TAUPAR">     1</i>
  </separator>
  <separator name="External order field" >
   <i name="OFIELD_KAPPA">      0.00000000</i>
   <v name="OFIELD_K">      0.00000000      0.00000000      0.00000000</v>
   <i name="OFIELD_Q6_NEAR">      0.00000000</i>
   <i name="OFIELD_Q6_FAR">      0.00000000</i>
   <i name="OFIELD_A">      0.00000000</i>
  </separator>
 </parameters>
 <atominfo>
  <atoms>       6 </atoms>
  <types>       3 </types>
  <array name="atoms" >
   <dimension dim="1">ion</dimension>
   <field type="string">element</field>
   <field type="int">atomtype</field>
   <set>
    <rc><c>Cu</c><c>   1</c></rc>
    <rc><c>Cu</c><c>   1</c></rc>
    <rc><c>Cu</c><c>   1</c></rc>
    <rc><c>Ag</c><c>   2</c></rc>
    <rc><c>Au</c><c>   3</c></rc>
    <rc><c>Au</c><c>   3</c></rc>
   </set>
  </array>
  <array name="atomtypes" >
   <dimension dim="1">type</dimension>
   <field type="int">atomspertype</field>
   <field type="string">element</field>
   <field>mass</field>
   <field>valence</field>
   <field type="string">pseudopotential</field>
   <set>
    <rc><c>   3</c><c>Cu</c><c>     63.54600000</c><c>     11.00000000</c><c>  PAW_PBE Cu 22Jun2005                  </c></rc>
    <rc><c>   1</c><c>Ag</c><c>    107.86800000</c><c>     11.00000000</c><c>  PAW_PBE Ag 02Apr2005                  </c></rc>
    <rc><c>   2</c><c>Au</c><c>    196.96600000</c><c>     11.00000000</c><c>  PAW_PBE Au 04Oct2007                  </c></rc>
   </set>
  </array>
 </atominfo>
 <structure name="initialpos" >
  <crystal>
   <varray name="basis" >
    <v>       0.00000000       2.05318502      -2.05318502 </v>
    <v>       0.00000000      -2.05318502      -2.05318502 </v>
    <v>     -10.64486411       0.00000000       0.00000000 </v>
   </varray>
   <i name="volume">     89.74831237 </i>
   <varray name="rec_basis" >
    <v>       0.00000000       0.24352408      -0.24352408 </v>
    <v>       0.00000000      -0.24352408      -0.24352408 </v>
    <v>      -0.09394202       0.00000000       0.00000000 </v>
   </varray>
  </crystal>
  <varray name="positions" >
   <v>       0.50000000       0.50000000       0.46823025 </v>
   <v>       0.00000000       0.00000000       0.33333333 </v>
   <v>       0.50000000       0.50000000       0.19843642 </v>
   <v>       0.50000000       0.50000000       0.83333333 </v>
   <v>       0.00000000       0.00000000       0.03253753 </v>
   <v>       0.00000000       0.00000000       0.63412914 </v>
  </varray>
 </structure>
 <calculation>
  <scstep>
   <time name="dav">    5.02    5.03</time>
   <time name="total">    5.08    5.09</time>
   <energy>
    <i name="alphaZ">    359.28169374 </i>
    <i name="ewald">  -5820.25413464 </i>
    <i name="hartreedc">  -1929.08986622 </i>
    <i name="XCdc">    157.61758575 </i>
    <i name="pawpsdc">   6436.27713567 </i>
    <i name="pawaedc">  -6661.51494526 </i>
    <i name="eentropy">      0.00075327 </i>
    <i name="bandstr">   1019.44776536 </i>
    <i name="atom">   7062.35687099 </i>
    <i name="e_fr_energy">    624.12285864 </i>
    <i name="e_wo_entrp">    624.12210537 </i>
    <i name="e_0_energy">    624.12260755 </i>
   </energy>
  </scstep>
  <scstep>
   <time name="dav">    5.13    5.13</time>
   <time name="total">    5.15    5.17</time>
   <energy>
    <i name="e_fr_energy">     48.42142724 </i>
    <i name="e_wo_entrp">     48.41841108 </i>
    <i name="e_0_energy">     48.42042185 </i>
   </energy>
  </scstep>
  <scstep>
   <time name="dav">    5.71    5.72</time>
   <time name="total">    5.73    5.75</time>
   <energy>
    <i name="e_fr_energy">    -21.48704974 </i>
    <i name="e_wo_entrp">    -21.48844767 </i>
    <i name="e_0_energy">    -21.48751572 </i>
   </energy>
  </scstep>
  <scstep>
   <time name="dav">    6.80    6.80</time>
   <time name="total">    6.82    6.83</time>
   <energy>
    <i name="e_fr_energy">    -23.69454364 </i>
    <i name="e_wo_entrp">    -23.69636072 </i>
    <i name="e_0_energy">    -23.69514933 </i>
   </energy>
  </scstep>
  <scstep>
   <time name="dav">    7.07    7.07</time>
   <time name="total">    7.38    7.40</time>
   <energy>
    <i name="e_fr_energy">    -23.72112674 </i>
    <i name="e_wo_entrp">    -23.72294577 </i>
    <i name="e_0_energy">    -23.72173308 </i>
   </energy>
  </scstep>
  <scstep>
   <time name="diag">    1.32    1.32</time>
   <time name="diis">    2.20    2.20</time>
   <time name="orth">    0.22    0.22</time>
   <time name="total">    4.09    4.11</time>
   <energy>
    <i name="e_fr_energy">    -22.09728071 </i>
    <i name="e_wo_entrp">    -22.09761811 </i>
    <i name="e_0_energy">    -22.09739318 </i>
   </energy>
  </scstep>
  <scstep>
   <time name="diag">    1.31    1.31</time>
   <time name="diis">    2.32    2.32</time>
   <time name="orth">    0.21    0.21</time>
   <time name="total">    4.19    4.21</time>
   <energy>
    <i name="e_fr_energy">    -20.66261897 </i>
    <i name="e_wo_entrp">    -20.66317687 </i>
    <i name="e_0_energy">    -20.66280494 </i>
   </energy>
  </scstep>
  <scstep>
   <time name="diag">    1.31    1.31</time>
   <time name="diis">    2.37    2.37</time>
   <time name="orth">    0.23    0.23</time>
   <time name="total">    4.25    4.27</time>
   <energy>
    <i name="e_fr_energy">    -20.50043373 </i>
    <i name="e_wo_entrp">    -20.50195492 </i>
    <i name="e_0_energy">    -20.50094079 </i>
   </energy>
  </scstep>
  <scstep>
   <time name="diag">    1.31    1.31</time>
   <time name="diis">    2.25    2.26</time>
   <time name="orth">    0.21    0.21</time>
   <time name="total">    4.12    4.14</time>
   <energy>
    <i name="e_fr_energy">    -20.48787108 </i>
    <i name="e_wo_entrp">    -20.48922169 </i>
    <i name="e_0_energy">    -20.48832128 </i>
   </energy>
  </scstep>
  <scstep>
   <time name="diag">    1.31    1.31</time>
   <time name="diis">    2.24    2.24</time>
   <time name="orth">    0.22    0.22</time>
   <time name="total">    4.12    4.13</time>
   <energy>
    <i name="e_fr_energy">    -20.48209568 </i>
    <i name="e_wo_entrp">    -20.48338289 </i>
    <i name="e_0_energy">    -20.48252475 </i>
   </energy>
  </scstep>
  <scstep>
   <time name="diag">    1.31    1.31</time>
   <time name="diis">    2.33    2.33</time>
   <time name="orth">    0.21    0.21</time>
   <time name="total">    4.20    4.22</time>
   <energy>
    <i name="e_fr_energy">    -20.48025561 </i>
    <i name="e_wo_entrp">    -20.48153270 </i>
    <i name="e_0_energy">    -20.48068130 </i>
   </energy>
  </scstep>
  <scstep>
   <time name="diag">    1.31    1.31</time>
   <time name="diis">    2.65    2.65</time>
   <time name="orth">    0.22    0.22</time>
   <time name="total">    4.55    4.57</time>
   <energy>
    <i name="e_fr_energy">    -20.48028254 </i>
    <i name="e_wo_entrp">    -20.48155871 </i>
    <i name="e_0_energy">    -20.48070793 </i>
   </energy>
  </scstep>
  <scstep>
   <time name="diag">    1.37    1.37</time>
   <time name="diis">    2.24    2.24</time>
   <time name="orth">    0.22    0.22</time>
   <time name="total">    4.19    4.21</time>
   <energy>
    <i name="e_fr_energy">    -20.48026733 </i>
    <i name="e_wo_entrp">    -20.48154042 </i>
    <i name="e_0_energy">    -20.48069170 </i>
   </energy>
  </scstep>
  <scstep>
   <time name="diag">    1.31    1.31</time>
   <time name="diis">    2.23    2.23</time>
   <time name="orth">    0.22    0.22</time>
   <time name="total">    4.13    4.14</time>
   <energy>
    <i name="e_fr_energy">    -20.48025695 </i>
    <i name="e_wo_entrp">    -20.48153881 </i>
    <i name="e_0_energy">    -20.48068424 </i>
   </energy>
  </scstep>
  <scstep>
   <time name="diag">    1.32    1.32</time>
   <time name="diis">    1.64    1.64</time>
   <time name="orth">    0.22    0.22</time>
   <time name="total">    3.24    3.25</time>
   <energy>
    <i name="alphaZ">    359.28169374 </i>
    <i name="ewald">  -5820.25413464 </i>
    <i name="hartreedc">  -1832.24546076 </i>
    <i name="XCdc">    153.07043251 </i>
    <i name="pawpsdc">   7065.94268396 </i>
    <i name="pawaedc">  -7304.71189220 </i>
    <i name="eentropy">      0.00128111 </i>
    <i name="bandstr">    296.07826740 </i>
    <i name="atom">   7062.35687099 </i>
    <i name="e_fr_energy">    -20.48025788 </i>
    <i name="e_wo_entrp">    -20.48153900 </i>
    <i name="e_0_energy">    -20.48068492 </i>
   </energy>
  </scstep>
  <structure>
   <crystal>
    <varray name="basis" >
     <v>       0.00000000       2.05318502      -2.05318502 </v>
     <v>       0.00000000      -2.05318502      -2.05318502 </v>
     <v>     -10.64486411       0.00000000       0.00000000 </v>
    </varray>
    <i name="volume">     89.74831237 </i>
    <varray name="rec_basis" >
     <v>       0.00000000       0.24352408      -0.24352408 </v>
     <v>       0.00000000      -0.24352408      -0.24352408 </v>
     <v>      -0.09394202       0.00000000       0.00000000 </v>
    </varray>
   </crystal>
   <varray name="positions" >
    <v>       0.50000000       0.50000000       0.46823025 </v>
    <v>       0.00000000       0.00000000       0.33333333 </v>
    <v>       0.50000000       0.50000000       0.19843642 </v>
    <v>       0.50000000       0.50000000       0.83333333 </v>
    <v>       0.00000000       0.00000000       0.03253753 </v>
    <v>       0.00000000       0.00000000       0.63412914 </v>
   </varray>
  </structure>
  <varray name="forces" >
   <v>      -0.00661773       0.00000000       0.00000000 </v>
   <v>       0.00000000       0.00000000       0.00000000 </v>
   <v>       0.00661773       0.00000000       0.00000000 </v>
   <v>       0.00000000       0.00000000       0.00000000 </v>
   <v>       0.00375098       0.00000000       0.00000000 </v>
   <v>      -0.00375098       0.00000000       0.00000000 </v>
  </varray>
  <varray name="stress" >
   <v>      -0.28083350       0.00000000       0.00000000 </v>
   <v>       0.00000000       0.98914119       0.00000000 </v>
   <v>       0.00000000       0.00000000       0.98914119 </v>
  </varray>
  <energy>
   <i name="e_fr_energy">    -20.48025788 </i>
   <i name="e_wo_entrp">    -20.48068492 </i>
   <i name="e_0_energy">      0.00128111 </i>
  </energy>
  <time name="totalsc">   74.76   75.04</time>
  <eigenvalues>
   <array>
    <dimension dim="1">band</dimension>
    <dimension dim="2">kpoint</dimension>
    <dimension dim="3">spin</dimension>
    <field>eigene</field>
    <field>occ</field>
    <set>
     <set comment="spin 1">
      <set comment="kpoint 1">
       <r>   -1.0431    1.0000 </r>
       <r>    0.0102    1.0000 </r>
       <r>    0.7971    1.0000 </r>
       <r>    1.7644    1.0000 </r>
       <r>    1.8615    1.0000 </r>
       <r>    2.1870    1.0000 </r>
       <r>    2.4409    1.0000 </r>
       <r>    2.9387    1.0000 </r>
       <r>    3.5524    1.0000 </r>
       <r>    3.6744    1.0000 </r>
       <r>    3.6744    1.0000 </r>
       <r>    4.0785    1.0000 </r>
       <r>    4.3735    1.0000 </r>
       <r>    4.3735    1.0000 </r>
       <r>    4.3870    1.0000 </r>
       <r>    4.6349    1.0000 </r>
       <r>    4.9535    1.0000 </r>
       <r>    4.9535    1.0000 </r>
       <r>    5.0417    1.0000 </r>
       <r>    5.1498    1.0000 </r>
       <r>    5.2058    1.0000 </r>
       <r>    5.2971    1.0000 </r>
       <r>    5.2971    1.0000 </r>
       <r>    5.3480    1.0000 </r>
       <r>    5.5534    1.0000 </r>
       <r>    5.7781    1.0000 </r>
       <r>    5.7781    1.0000 </r>
       <r>    5.7932    1.0000 </r>
       <r>    6.0389    1.0000 </r>
       <r>    6.0455    1.0000 </r>
       <r>    6.4379    1.0000 </r>
       <r>    6.4379    1.0000 </r>
       <r>    6.4497    1.0000 </r>
       <r>    6.8268    1.0000 </r>
       <r>    7.1095    1.0001 </r>
       <r>   12.3794    0.0000 </r>
       <r>   15.9562    0.0000 </r>
       <r>   15.6579    0.0000 </r>
       <r>   15.5828    0.0000 </r>
       <r>   16.0521    0.0000 </r>
      </set>
      <set comment="kpoint 2">
       <r>   -1.0071    1.0000 </r>
       <r>    0.0446    1.0000 </r>
       <r>    0.8262    1.0000 </r>
       <r>    1.7863    1.0000 </r>
       <r>    1.8814    1.0000 </r>
       <r>    2.2038    1.0000 </r>
       <r>    2.4571    1.0000 </r>
       <r>    2.9496    1.0000 </r>
       <r>    3.5635    1.0000 </r>
       <r>    3.6648    1.0000 </r>
       <r>    3.6797    1.0000 </r>
       <r>    4.0817    1.0000 </r>
       <r>    4.2482    1.0000 </r>
       <r>    4.3498    1.0000 </r>
       <r>    4.5006    1.0000 </r>
       <r>    4.6450    1.0000 </r>
       <r>    4.8699    1.0000 </r>
       <r>    4.9229    1.0000 </r>
       <r>    5.0125    1.0000 </r>
       <r>    5.1484    1.0000 </r>
       <r>    5.2098    1.0000 </r>
       <r>    5.2190    1.0000 </r>
       <r>    5.2918    1.0000 </r>
       <r>    5.4879    1.0000 </r>
       <r>    5.4956    1.0000 </r>
       <r>    5.7215    1.0000 </r>
       <r>    5.8033    1.0000 </r>
       <r>    5.8219    1.0000 </r>
       <r>    6.0533    1.0000 </r>
       <r>    6.0580    1.0000 </r>
       <r>    6.3978    1.0000 </r>
       <r>    6.4390    1.0000 </r>
       <r>    6.4456    1.0000 </r>
       <r>    6.9121    1.0000 </r>
       <r>    7.1743    1.0002 </r>
       <r>   12.4459    0.0000 </r>
       <r>   16.0053    0.0000 </r>
       <r>   15.4315    0.0000 </r>
       <r>   15.3658    0.0000 </r>
       <r>   15.4166    0.0000 </r>
      </set>
      <set comment="kpoint 3">
       <r>   -0.8999    1.0000 </r>
       <r>    0.1451    1.0000 </r>
       <r>    0.9109    1.0000 </r>
       <r>    1.8394    1.0000 </r>
       <r>    1.9510    1.0000 </r>
       <r>    2.2510    1.0000 </r>
       <r>    2.5080    1.0000 </r>
       <r>    2.9823    1.0000 </r>
       <r>    3.5971    1.0000 </r>
       <r>    3.6393    1.0000 </r>
       <r>    3.6950    1.0000 </r>
       <r>    4.0507    1.0000 </r>
       <r>    4.1491    1.0000 </r>
       <r>    4.2897    1.0000 </r>
       <r>    4.6097    1.0000 </r>
       <r>    4.6317    1.0000 </r>
       <r>    4.6646    1.0000 </r>
       <r>    4.8492    1.0000 </r>
       <r>    4.9654    1.0000 </r>
       <r>    5.1327    1.0000 </r>
       <r>    5.1757    1.0000 </r>
       <r>    5.2609    1.0000 </r>
       <r>    5.3101    1.0000 </r>
       <r>    5.3732    1.0000 </r>
       <r>    5.6116    1.0000 </r>
       <r>    5.6181    1.0000 </r>
       <r>    5.8229    1.0000 </r>
       <r>    5.8800    1.0000 </r>
       <r>    6.0723    1.0000 </r>
       <r>    6.0805    1.0000 </r>
       <r>    6.3128    1.0000 </r>
       <r>    6.4394    1.0000 </r>
       <r>    6.4428    1.0000 </r>
       <r>    7.1264    1.0001 </r>
       <r>    7.3507    1.0032 </r>
       <r>   12.6411    0.0000 </r>
       <r>   15.6984    0.0000 </r>
       <r>   15.8536    0.0000 </r>
       <r>   14.6700    0.0000 </r>
       <r>   14.0713    0.0000 </r>
      </set>
      <set comment="kpoint 4">
       <r>   -0.7243    1.0000 </r>
       <r>    0.3032    1.0000 </r>
       <r>    1.0432    1.0000 </r>
       <r>    1.9033    1.0000 </r>
       <r>    2.0833    1.0000 </r>
       <r>    2.3189    1.0000 </r>
       <r>    2.6004    1.0000 </r>
       <r>    3.0375    1.0000 </r>
       <r>    3.6076    1.0000 </r>
       <r>    3.6541    1.0000 </r>
       <r>    3.7179    1.0000 </r>
       <r>    3.9102    1.0000 </r>
       <r>    4.1660    1.0000 </r>
       <r>    4.2098    1.0000 </r>
       <r>    4.3453    1.0000 </r>
       <r>    4.6800    1.0000 </r>
       <r>    4.7137    1.0000 </r>
       <r>    4.7544    1.0000 </r>
       <r>    4.9329    1.0000 </r>
       <r>    5.0574    1.0000 </r>
       <r>    5.0989    1.0000 </r>
       <r>    5.3008    1.0000 </r>
       <r>    5.3451    1.0000 </r>
       <r>    5.3495    1.0000 </r>
       <r>    5.4990    1.0000 </r>
       <r>    5.6790    1.0000 </r>
       <r>    5.8489    1.0000 </r>
       <r>    5.9019    1.0000 </r>
       <r>    6.0860    1.0000 </r>
       <r>    6.0933    1.0000 </r>
       <r>    6.2162    1.0000 </r>
       <r>    6.4440    1.0000 </r>
       <r>    6.4502    1.0000 </r>
       <r>    7.4213    1.0074 </r>
       <r>    7.6011    1.0309 </r>
       <r>   12.9539    0.0000 </r>
       <r>   14.8100    0.0000 </r>
       <r>   15.9878    0.0000 </r>
       <r>   13.9927    0.0000 </r>
       <r>   13.8823    0.0000 </r>
      </set>
      <set comment="kpoint 5">
       <r>   -0.4847    1.0000 </r>
       <r>    0.5037    1.0000 </r>
       <r>    1.2085    1.0000 </r>
       <r>    1.9738    1.0000 </r>
       <r>    2.2691    1.0000 </r>
       <r>    2.3938    1.0000 </r>
       <r>    2.7422    1.0000 </r>
       <r>    3.1171    1.0000 </r>
       <r>    3.5836    1.0000 </r>
       <r>    3.7373    1.0000 </r>
       <r>    3.7444    1.0000 </r>
       <r>    3.7557    1.0000 </r>
       <r>    4.0640    1.0000 </r>
       <r>    4.1200    1.0000 </r>
       <r>    4.2174    1.0000 </r>
       <r>    4.6508    1.0000 </r>
       <r>    4.6861    1.0000 </r>
       <r>    4.8189    1.0000 </r>
       <r>    4.9096    1.0000 </r>
       <r>    4.9133    1.0000 </r>
       <r>    5.0088    1.0000 </r>
       <r>    5.2886    1.0000 </r>
       <r>    5.3866    1.0000 </r>
       <r>    5.4039    1.0000 </r>
       <r>    5.4404    1.0000 </r>
       <r>    5.6883    1.0000 </r>
       <r>    5.8723    1.0000 </r>
       <r>    5.8848    1.0000 </r>
       <r>    6.0827    1.0000 </r>
       <r>    6.1083    1.0000 </r>
       <r>    6.1266    1.0000 </r>
       <r>    6.4624    1.0000 </r>
       <r>    6.4648    1.0000 </r>
       <r>    7.7651    1.0073 </r>
       <r>    7.8920    0.8441 </r>
       <r>   13.3695    0.0000 </r>
       <r>   13.7914    0.0000 </r>
       <r>   15.7528    0.0000 </r>
       <r>   15.9299    0.0000 </r>
       <r>   13.8074    0.0000 </r>
      </set>
      <set comment="kpoint 6">
       <r>   -0.1875    1.0000 </r>
       <r>    0.7245    1.0000 </r>
       <r>    1.3850    1.0000 </r>
       <r>    2.0464    1.0000 </r>
       <r>    2.4604    1.0000 </r>
       <r>    2.4912    1.0000 </r>
       <r>    2.9361    1.0000 </r>
       <r>    3.2222    1.0000 </r>
       <r>    3.5805    1.0000 </r>
       <r>    3.6182    1.0000 </r>
       <r>    3.7679    1.0000 </r>
       <r>    3.8197    1.0000 </r>
       <r>    3.8544    1.0000 </r>
       <r>    4.0270    1.0000 </r>
       <r>    4.2906    1.0000 </r>
       <r>    4.5481    1.0000 </r>
       <r>    4.6788    1.0000 </r>
       <r>    4.7524    1.0000 </r>
       <r>    4.8925    1.0000 </r>
       <r>    4.9219    1.0000 </r>
       <r>    4.9294    1.0000 </r>
       <r>    5.2869    1.0000 </r>
       <r>    5.3331    1.0000 </r>
       <r>    5.4133    1.0000 </r>
       <r>    5.5266    1.0000 </r>
       <r>    5.6694    1.0000 </r>
       <r>    5.8510    1.0000 </r>
       <r>    5.8796    1.0000 </r>
       <r>    6.0586    1.0000 </r>
       <r>    6.0862    1.0000 </r>
       <r>    6.1139    1.0000 </r>
       <r>    6.4794    1.0000 </r>
       <r>    6.4943    1.0000 </r>
       <r>    8.1361    0.2168 </r>
       <r>    8.1970    0.0978 </r>
       <r>   12.7711    0.0000 </r>
       <r>   13.8710    0.0000 </r>
       <r>   14.8871    0.0000 </r>
       <r>   14.9823    0.0000 </r>
       <r>   13.8992    0.0000 </r>
      </set>
      <set comment="kpoint 7">
       <r>    0.1585    1.0000 </r>
       <r>    0.9393    1.0000 </r>
       <r>    1.5466    1.0000 </r>
       <r>    2.1139    1.0000 </r>
       <r>    2.5014    1.0000 </r>
       <r>    2.7285    1.0000 </r>
       <r>    3.1602    1.0000 </r>
       <r>    3.3399    1.0000 </r>
       <r>    3.5194    1.0000 </r>
       <r>    3.5577    1.0000 </r>
       <r>    3.7142    1.0000 </r>
       <r>    3.7791    1.0000 </r>
       <r>    3.9358    1.0000 </r>
       <r>    4.0231    1.0000 </r>
       <r>    4.3898    1.0000 </r>
       <r>    4.4574    1.0000 </r>
       <r>    4.5658    1.0000 </r>
       <r>    4.6940    1.0000 </r>
       <r>    4.8492    1.0000 </r>
       <r>    4.8774    1.0000 </r>
       <r>    5.0443    1.0000 </r>
       <r>    5.2652    1.0000 </r>
       <r>    5.2913    1.0000 </r>
       <r>    5.4259    1.0000 </r>
       <r>    5.5466    1.0000 </r>
       <r>    5.6945    1.0000 </r>
       <r>    5.8291    1.0000 </r>
       <r>    5.8629    1.0000 </r>
       <r>    6.0157    1.0000 </r>
       <r>    6.1075    1.0000 </r>
       <r>    6.1114    1.0000 </r>
       <r>    6.4997    1.0000 </r>
       <r>    6.5219    1.0000 </r>
       <r>    8.4873   -0.0263 </r>
       <r>    8.5169   -0.0218 </r>
       <r>   11.8013    0.0000 </r>
       <r>   13.7934    0.0000 </r>
       <r>   14.0326    0.0000 </r>
       <r>   14.4610    0.0000 </r>
       <r>   13.8429    0.0000 </r>
      </set>
      <set comment="kpoint 8">
       <r>    0.5410    1.0000 </r>
       <r>    1.1244    1.0000 </r>
       <r>    1.6686    1.0000 </r>
       <r>    2.1773    1.0000 </r>
       <r>    2.5000    1.0000 </r>
       <r>    2.9518    1.0000 </r>
       <r>    3.2701    1.0000 </r>
       <r>    3.3855    1.0000 </r>
       <r>    3.5256    1.0000 </r>
       <r>    3.5661    1.0000 </r>
       <r>    3.7696    1.0000 </r>
       <r>    3.8511    1.0000 </r>
       <r>    3.8627    1.0000 </r>
       <r>    4.2639    1.0000 </r>
       <r>    4.3884    1.0000 </r>
       <r>    4.4097    1.0000 </r>
       <r>    4.5287    1.0000 </r>
       <r>    4.6911    1.0000 </r>
       <r>    4.7991    1.0000 </r>
       <r>    4.8607    1.0000 </r>
       <r>    5.1492    1.0000 </r>
       <r>    5.2133    1.0000 </r>
       <r>    5.2936    1.0000 </r>
       <r>    5.4216    1.0000 </r>
       <r>    5.5187    1.0000 </r>
       <r>    5.7687    1.0000 </r>
       <r>    5.8298    1.0000 </r>
       <r>    5.8350    1.0000 </r>
       <r>    5.9950    1.0000 </r>
       <r>    6.1048    1.0000 </r>
       <r>    6.1460    1.0000 </r>
       <r>    6.5207    1.0000 </r>
       <r>    6.5415    1.0000 </r>
       <r>    8.7082   -0.0031 </r>
       <r>    8.8841   -0.0002 </r>
       <r>   10.9346    0.0000 </r>
       <r>   12.7900    0.0000 </r>
       <r>   13.0918    0.0000 </r>
       <r>   15.0950    0.0000 </r>
       <r>   13.6083    0.0000 </r>
      </set>
      <set comment="kpoint 9">
       <r>    0.9411    1.0000 </r>
       <r>    1.2673    1.0000 </r>
       <r>    1.7366    1.0000 </r>
       <r>    2.2519    1.0000 </r>
       <r>    2.4533    1.0000 </r>
       <r>    3.1270    1.0000 </r>
       <r>    3.2189    1.0000 </r>
       <r>    3.3587    1.0000 </r>
       <r>    3.6060    1.0000 </r>
       <r>    3.7144    1.0000 </r>
       <r>    3.7382    1.0000 </r>
       <r>    3.7768    1.0000 </r>
       <r>    4.1712    1.0000 </r>
       <r>    4.2689    1.0000 </r>
       <r>    4.3430    1.0000 </r>
       <r>    4.5283    1.0000 </r>
       <r>    4.6961    1.0000 </r>
       <r>    4.7561    1.0000 </r>
       <r>    4.7774    1.0000 </r>
       <r>    4.8564    1.0000 </r>
       <r>    5.1385    1.0000 </r>
       <r>    5.2292    1.0000 </r>
       <r>    5.3679    1.0000 </r>
       <r>    5.4000    1.0000 </r>
       <r>    5.5168    1.0000 </r>
       <r>    5.7965    1.0000 </r>
       <r>    5.8308    1.0000 </r>
       <r>    5.8649    1.0000 </r>
       <r>    6.0054    1.0000 </r>
       <r>    6.0982    1.0000 </r>
       <r>    6.2023    1.0000 </r>
       <r>    6.5400    1.0000 </r>
       <r>    6.5512    1.0000 </r>
       <r>    8.7295   -0.0023 </r>
       <r>    9.1783    0.0000 </r>
       <r>   10.2522    0.0000 </r>
       <r>   11.9230    0.0000 </r>
       <r>   12.2820    0.0000 </r>
       <r>   15.7547    0.0000 </r>
       <r>   16.0227    0.0000 </r>
      </set>
      <set comment="kpoint 10">
       <r>    1.3270    1.0000 </r>
       <r>    1.3683    1.0000 </r>
       <r>    1.7584    1.0000 </r>
       <r>    2.3555    1.0000 </r>
       <r>    2.3791    1.0000 </r>
       <r>    3.1745    1.0000 </r>
       <r>    3.2205    1.0000 </r>
       <r>    3.3524    1.0000 </r>
       <r>    3.6556    1.0000 </r>
       <r>    3.6947    1.0000 </r>
       <r>    3.7163    1.0000 </r>
       <r>    3.8647    1.0000 </r>
       <r>    4.1517    1.0000 </r>
       <r>    4.3142    1.0000 </r>
       <r>    4.4350    1.0000 </r>
       <r>    4.7103    1.0000 </r>
       <r>    4.7239    1.0000 </r>
       <r>    4.7843    1.0000 </r>
       <r>    4.9711    1.0000 </r>
       <r>    5.0043    1.0000 </r>
       <r>    5.0546    1.0000 </r>
       <r>    5.3579    1.0000 </r>
       <r>    5.3635    1.0000 </r>
       <r>    5.5576    1.0000 </r>
       <r>    5.5592    1.0000 </r>
       <r>    5.7820    1.0000 </r>
       <r>    5.8590    1.0000 </r>
       <r>    5.9059    1.0000 </r>
       <r>    6.0787    1.0000 </r>
       <r>    6.0940    1.0000 </r>
       <r>    6.2898    1.0000 </r>
       <r>    6.5519    1.0000 </r>
       <r>    6.5559    1.0000 </r>
       <r>    8.4134   -0.0350 </r>
       <r>    9.2284    0.0000 </r>
       <r>    9.7377    0.0000 </r>
       <r>   11.3722    0.0000 </r>
       <r>   11.8047    0.0000 </r>
       <r>   15.3024    0.0000 </r>
       <r>   15.3718    0.0000 </r>
      </set>
      <set comment="kpoint 11">
       <r>    1.4342    1.0000 </r>
       <r>    1.6315    1.0000 </r>
       <r>    1.7722    1.0000 </r>
       <r>    2.3041    1.0000 </r>
       <r>    2.5054    1.0000 </r>
       <r>    3.1533    1.0000 </r>
       <r>    3.2158    1.0000 </r>
       <r>    3.3719    1.0000 </r>
       <r>    3.6528    1.0000 </r>
       <r>    3.6660    1.0000 </r>
       <r>    3.6720    1.0000 </r>
       <r>    4.0062    1.0000 </r>
       <r>    4.0634    1.0000 </r>
       <r>    4.2950    1.0000 </r>
       <r>    4.4615    1.0000 </r>
       <r>    4.7352    1.0000 </r>
       <r>    4.8115    1.0000 </r>
       <r>    4.8799    1.0000 </r>
       <r>    4.9724    1.0000 </r>
       <r>    5.0875    1.0000 </r>
       <r>    5.2612    1.0000 </r>
       <r>    5.3194    1.0000 </r>
       <r>    5.4118    1.0000 </r>
       <r>    5.6240    1.0000 </r>
       <r>    5.7937    1.0000 </r>
       <r>    5.8757    1.0000 </r>
       <r>    5.9457    1.0000 </r>
       <r>    6.0670    1.0000 </r>
       <r>    6.0923    1.0000 </r>
       <r>    6.2834    1.0000 </r>
       <r>    6.4396    1.0000 </r>
       <r>    6.5470    1.0000 </r>
       <r>    6.5676    1.0000 </r>
       <r>    7.9052    0.8170 </r>
       <r>    8.8374   -0.0005 </r>
       <r>    9.1211    0.0000 </r>
       <r>   11.3317    0.0000 </r>
       <r>   11.8235    0.0000 </r>
       <r>   14.4690    0.0000 </r>
       <r>   14.4853    0.0000 </r>
      </set>
      <set comment="kpoint 12">
       <r>    1.4716    1.0000 </r>
       <r>    1.7090    1.0000 </r>
       <r>    1.8853    1.0000 </r>
       <r>    2.2502    1.0000 </r>
       <r>    2.7136    1.0000 </r>
       <r>    3.1280    1.0000 </r>
       <r>    3.1455    1.0000 </r>
       <r>    3.3829    1.0000 </r>
       <r>    3.6235    1.0000 </r>
       <r>    3.6452    1.0000 </r>
       <r>    3.6556    1.0000 </r>
       <r>    4.0084    1.0000 </r>
       <r>    4.1342    1.0000 </r>
       <r>    4.2832    1.0000 </r>
       <r>    4.3898    1.0000 </r>
       <r>    4.7708    1.0000 </r>
       <r>    4.8424    1.0000 </r>
       <r>    4.8998    1.0000 </r>
       <r>    4.9944    1.0000 </r>
       <r>    5.1134    1.0000 </r>
       <r>    5.2805    1.0000 </r>
       <r>    5.4035    1.0000 </r>
       <r>    5.4747    1.0000 </r>
       <r>    5.6419    1.0000 </r>
       <r>    5.8118    1.0000 </r>
       <r>    5.9010    1.0000 </r>
       <r>    5.9744    1.0000 </r>
       <r>    6.0922    1.0000 </r>
       <r>    6.5409    1.0000 </r>
       <r>    6.5746    1.0000 </r>
       <r>    6.6113    1.0000 </r>
       <r>    6.7274    1.0000 </r>
       <r>    6.7915    1.0000 </r>
       <r>    7.4101    1.0065 </r>
       <r>    8.1781    0.1304 </r>
       <r>    8.3714   -0.0343 </r>
       <r>   11.5941    0.0000 </r>
       <r>   12.1950    0.0000 </r>
       <r>   13.6588    0.0000 </r>
       <r>   13.8255    0.0000 </r>
      </set>
      <set comment="kpoint 13">
       <r>    1.4838    1.0000 </r>
       <r>    1.7097    1.0000 </r>
       <r>    1.9436    1.0000 </r>
       <r>    2.2307    1.0000 </r>
       <r>    2.9077    1.0000 </r>
       <r>    2.9867    1.0000 </r>
       <r>    3.1436    1.0000 </r>
       <r>    3.3847    1.0000 </r>
       <r>    3.6131    1.0000 </r>
       <r>    3.6362    1.0000 </r>
       <r>    3.6491    1.0000 </r>
       <r>    3.9898    1.0000 </r>
       <r>    4.2138    1.0000 </r>
       <r>    4.2791    1.0000 </r>
       <r>    4.3251    1.0000 </r>
       <r>    4.8009    1.0000 </r>
       <r>    4.8563    1.0000 </r>
       <r>    4.8569    1.0000 </r>
       <r>    5.0392    1.0000 </r>
       <r>    5.1208    1.0000 </r>
       <r>    5.2643    1.0000 </r>
       <r>    5.3922    1.0000 </r>
       <r>    5.5751    1.0000 </r>
       <r>    5.6032    1.0000 </r>
       <r>    5.8187    1.0000 </r>
       <r>    5.9130    1.0000 </r>
       <r>    5.9848    1.0000 </r>
       <r>    6.0923    1.0000 </r>
       <r>    6.5383    1.0000 </r>
       <r>    6.5770    1.0000 </r>
       <r>    6.9279    1.0000 </r>
       <r>    6.9724    1.0000 </r>
       <r>    7.1975    1.0003 </r>
       <r>    7.4288    1.0080 </r>
       <r>    7.6372    1.0346 </r>
       <r>    7.7262    1.0259 </r>
       <r>   11.7678    0.0000 </r>
       <r>   12.5731    0.0000 </r>
       <r>   13.1476    0.0000 </r>
       <r>   13.5350    0.0000 </r>
      </set>
      <set comment="kpoint 14">
       <r>   -0.9711    1.0000 </r>
       <r>    0.0792    1.0000 </r>
       <r>    0.8554    1.0000 </r>
       <r>    1.8099    1.0000 </r>
       <r>    1.8994    1.0000 </r>
       <r>    2.2211    1.0000 </r>
       <r>    2.4728    1.0000 </r>
       <r>    2.9602    1.0000 </r>
       <r>    3.5744    1.0000 </r>
       <r>    3.6418    1.0000 </r>
       <r>    3.6979    1.0000 </r>
       <r>    4.0871    1.0000 </r>
       <r>    4.1853    1.0000 </r>
       <r>    4.3544    1.0000 </r>
       <r>    4.4962    1.0000 </r>
       <r>    4.6788    1.0000 </r>
       <r>    4.7673    1.0000 </r>
       <r>    4.9453    1.0000 </r>
       <r>    5.0031    1.0000 </r>
       <r>    5.0735    1.0000 </r>
       <r>    5.1456    1.0000 </r>
       <r>    5.2851    1.0000 </r>
       <r>    5.3477    1.0000 </r>
       <r>    5.4233    1.0000 </r>
       <r>    5.5298    1.0000 </r>
       <r>    5.7675    1.0000 </r>
       <r>    5.7692    1.0000 </r>
       <r>    5.8198    1.0000 </r>
       <r>    6.0450    1.0000 </r>
       <r>    6.0697    1.0000 </r>
       <r>    6.3765    1.0000 </r>
       <r>    6.4375    1.0000 </r>
       <r>    6.4404    1.0000 </r>
       <r>    6.9900    1.0000 </r>
       <r>    7.2399    1.0006 </r>
       <r>   12.5114    0.0000 </r>
       <r>   16.0290    0.0000 </r>
       <r>   15.4698    0.0000 </r>
       <r>   15.2679    0.0000 </r>
       <r>   15.5295    0.0000 </r>
      </set>
      <set comment="kpoint 15">
       <r>   -0.8642    1.0000 </r>
       <r>    0.1802    1.0000 </r>
       <r>    0.9407    1.0000 </r>
       <r>    1.8672    1.0000 </r>
       <r>    1.9645    1.0000 </r>
       <r>    2.2694    1.0000 </r>
       <r>    2.5222    1.0000 </r>
       <r>    2.9921    1.0000 </r>
       <r>    3.6054    1.0000 </r>
       <r>    3.6071    1.0000 </r>
       <r>    3.7223    1.0000 </r>
       <r>    4.0457    1.0000 </r>
       <r>    4.1221    1.0000 </r>
       <r>    4.3030    1.0000 </r>
       <r>    4.5250    1.0000 </r>
       <r>    4.5555    1.0000 </r>
       <r>    4.7409    1.0000 </r>
       <r>    4.8797    1.0000 </r>
       <r>    4.9486    1.0000 </r>
       <r>    5.0603    1.0000 </r>
       <r>    5.1229    1.0000 </r>
       <r>    5.3168    1.0000 </r>
       <r>    5.3283    1.0000 </r>
       <r>    5.3660    1.0000 </r>
       <r>    5.6170    1.0000 </r>
       <r>    5.6694    1.0000 </r>
       <r>    5.8202    1.0000 </r>
       <r>    5.8580    1.0000 </r>
       <r>    6.0269    1.0000 </r>
       <r>    6.0815    1.0000 </r>
       <r>    6.3269    1.0000 </r>
       <r>    6.4222    1.0000 </r>
       <r>    6.4434    1.0000 </r>
       <r>    7.1965    1.0003 </r>
       <r>    7.4162    1.0070 </r>
       <r>   12.7039    0.0000 </r>
       <r>   15.7356    0.0000 </r>
       <r>   15.9020    0.0000 </r>
       <r>   14.9673    0.0000 </r>
       <r>   14.2682    0.0000 </r>
      </set>
      <set comment="kpoint 16">
       <r>   -0.6888    1.0000 </r>
       <r>    0.3391    1.0000 </r>
       <r>    1.0739    1.0000 </r>
       <r>    1.9330    1.0000 </r>
       <r>    2.0945    1.0000 </r>
       <r>    2.3392    1.0000 </r>
       <r>    2.6121    1.0000 </r>
       <r>    3.0458    1.0000 </r>
       <r>    3.5657    1.0000 </r>
       <r>    3.6626    1.0000 </r>
       <r>    3.7495    1.0000 </r>
       <r>    3.9020    1.0000 </r>
       <r>    4.1493    1.0000 </r>
       <r>    4.2237    1.0000 </r>
[...]
       <r>    6.0470    1.0000 </r>
       <r>    6.0641    1.0000 </r>
       <r>    6.0686    1.0000 </r>
       <r>    6.1134    1.0000 </r>
       <r>    6.1708    1.0000 </r>
       <r>    6.1827    1.0000 </r>
       <r>    6.2121    1.0000 </r>
       <r>    6.2154    1.0000 </r>
       <r>    6.3695    1.0000 </r>
       <r>    8.7188   -0.0027 </r>
       <r>    9.3230    0.0000 </r>
       <r>    9.5655    0.0000 </r>
       <r>   10.3312    0.0000 </r>
       <r>   12.0711    0.0000 </r>
       <r>   12.8238    0.0000 </r>
       <r>   13.0311    0.0000 </r>
       <r>   13.1716    0.0000 </r>
       <r>   13.4134    0.0000 </r>
       <r>   13.7454    0.0000 </r>
      </set>
      <set comment="kpoint 363">
       <r>    1.6013    1.0000 </r>
       <r>    1.9026    1.0000 </r>
       <r>    1.9524    1.0000 </r>
       <r>    2.0558    1.0000 </r>
       <r>    2.0591    1.0000 </r>
       <r>    2.7811    1.0000 </r>
       <r>    2.8171    1.0000 </r>
       <r>    3.1706    1.0000 </r>
       <r>    3.8254    1.0000 </r>
       <r>    3.9299    1.0000 </r>
       <r>    4.0213    1.0000 </r>
       <r>    4.0585    1.0000 </r>
       <r>    4.4118    1.0000 </r>
       <r>    4.4269    1.0000 </r>
       <r>    4.7544    1.0000 </r>
       <r>    5.1439    1.0000 </r>
       <r>    5.1552    1.0000 </r>
       <r>    5.3135    1.0000 </r>
       <r>    5.4184    1.0000 </r>
       <r>    5.8161    1.0000 </r>
       <r>    5.9985    1.0000 </r>
       <r>    6.0547    1.0000 </r>
       <r>    6.0707    1.0000 </r>
       <r>    6.0970    1.0000 </r>
       <r>    6.1177    1.0000 </r>
       <r>    6.1852    1.0000 </r>
       <r>    6.2033    1.0000 </r>
       <r>    6.2371    1.0000 </r>
       <r>    6.2409    1.0000 </r>
       <r>    6.3345    1.0000 </r>
       <r>    9.0746    0.0000 </r>
       <r>    9.0862    0.0000 </r>
       <r>    9.9811    0.0000 </r>
       <r>   10.0663    0.0000 </r>
       <r>   12.4551    0.0000 </r>
       <r>   12.6538    0.0000 </r>
       <r>   12.9392    0.0000 </r>
       <r>   13.1472    0.0000 </r>
       <r>   13.4594    0.0000 </r>
       <r>   13.9153    0.0000 </r>
      </set>
      <set comment="kpoint 364">
       <r>    1.5799    1.0000 </r>
       <r>    1.8879    1.0000 </r>
       <r>    1.9375    1.0000 </r>
       <r>    2.0425    1.0000 </r>
       <r>    2.0425    1.0000 </r>
       <r>    2.7964    1.0000 </r>
       <r>    2.7964    1.0000 </r>
       <r>    3.1707    1.0000 </r>
       <r>    3.8306    1.0000 </r>
       <r>    3.9267    1.0000 </r>
       <r>    4.0405    1.0000 </r>
       <r>    4.0405    1.0000 </r>
       <r>    4.4174    1.0000 </r>
       <r>    4.4174    1.0000 </r>
       <r>    4.7598    1.0000 </r>
       <r>    5.1777    1.0000 </r>
       <r>    5.1777    1.0000 </r>
       <r>    5.3547    1.0000 </r>
       <r>    5.4212    1.0000 </r>
       <r>    5.8305    1.0000 </r>
       <r>    6.0620    1.0000 </r>
       <r>    6.0755    1.0000 </r>
       <r>    6.1170    1.0000 </r>
       <r>    6.1303    1.0000 </r>
       <r>    6.1303    1.0000 </r>
       <r>    6.1868    1.0000 </r>
       <r>    6.2102    1.0000 </r>
       <r>    6.2216    1.0000 </r>
       <r>    6.2910    1.0000 </r>
       <r>    6.2917    1.0000 </r>
       <r>    9.1689    0.0000 </r>
       <r>    9.1689    0.0000 </r>
       <r>   10.1461    0.0000 </r>
       <r>   10.1461    0.0000 </r>
       <r>   12.4209    0.0000 </r>
       <r>   12.5624    0.0000 </r>
       <r>   12.7549    0.0000 </r>
       <r>   13.6109    0.0000 </r>
       <r>   13.6126    0.0000 </r>
       <r>   13.7342    0.0000 </r>
      </set>
     </set>
    </set>
   </array>
  </eigenvalues>
  <separator name="orbital magnetization" >
   <v name="MAGDIPOLOUT">      0.00000000      0.00000000      0.00000000</v>
  </separator>
  <dos>
   <i name="efermi">      8.02837902 </i>
   <total>
    <array>
     <dimension dim="1">gridpoints</dimension>
     <dimension dim="2">spin</dimension>
     <field>energy</field>
     <field>total</field>
     <field>integrated</field>
     <set>
      <set comment="spin 1">
       <r>    -4.0431     0.0000     0.0000 </r>
       <r>    -3.9655     0.0000     0.0000 </r>
       <r>    -3.8878     0.0000     0.0000 </r>
       <r>    -3.8102     0.0000     0.0000 </r>
       <r>    -3.7326     0.0000     0.0000 </r>
       <r>    -3.6549     0.0000     0.0000 </r>
       <r>    -3.5773     0.0000     0.0000 </r>
       <r>    -3.4997     0.0000     0.0000 </r>
       <r>    -3.4220     0.0000     0.0000 </r>
       <r>    -3.3444     0.0000     0.0000 </r>
       <r>    -3.2668     0.0000     0.0000 </r>
       <r>    -3.1891     0.0000     0.0000 </r>
       <r>    -3.1115     0.0000     0.0000 </r>
       <r>    -3.0339     0.0000     0.0000 </r>
       <r>    -2.9562     0.0000     0.0000 </r>
       <r>    -2.8786     0.0000     0.0000 </r>
       <r>    -2.8010     0.0000     0.0000 </r>
       <r>    -2.7234     0.0000     0.0000 </r>
       <r>    -2.6457     0.0000     0.0000 </r>
       <r>    -2.5681     0.0000     0.0000 </r>
       <r>    -2.4905     0.0000     0.0000 </r>
       <r>    -2.4128     0.0000     0.0000 </r>
       <r>    -2.3352     0.0000     0.0000 </r>
       <r>    -2.2576     0.0000     0.0000 </r>
       <r>    -2.1799     0.0000     0.0000 </r>
       <r>    -2.1023     0.0000     0.0000 </r>
       <r>    -2.0247     0.0000     0.0000 </r>
       <r>    -1.9470     0.0000     0.0000 </r>
       <r>    -1.8694     0.0000     0.0000 </r>
       <r>    -1.7918    -0.0001     0.0000 </r>
       <r>    -1.7141    -0.0003     0.0000 </r>
       <r>    -1.6365    -0.0008    -0.0001 </r>
       <r>    -1.5589    -0.0018    -0.0002 </r>
       <r>    -1.4812    -0.0038    -0.0005 </r>
       <r>    -1.4036    -0.0064    -0.0010 </r>
       <r>    -1.3260    -0.0083    -0.0017 </r>
       <r>    -1.2483    -0.0061    -0.0021 </r>
       <r>    -1.1707     0.0052    -0.0017 </r>
       <r>    -1.0931     0.0305     0.0006 </r>
       <r>    -1.0154     0.0716     0.0062 </r>
       <r>    -0.9378     0.1253     0.0159 </r>
       <r>    -0.8602     0.1839     0.0302 </r>
       <r>    -0.7826     0.2388     0.0487 </r>
       <r>    -0.7049     0.2844     0.0708 </r>
       <r>    -0.6273     0.3206     0.0957 </r>
       <r>    -0.5497     0.3510     0.1230 </r>
       <r>    -0.4720     0.3806     0.1525 </r>
       <r>    -0.3944     0.4124     0.1845 </r>
       <r>    -0.3168     0.4477     0.2193 </r>
       <r>    -0.2391     0.4866     0.2570 </r>
       <r>    -0.1615     0.5278     0.2980 </r>
       <r>    -0.0839     0.5692     0.3422 </r>
       <r>    -0.0062     0.6083     0.3894 </r>
       <r>     0.0714     0.6432     0.4394 </r>
       <r>     0.1490     0.6723     0.4916 </r>
       <r>     0.2267     0.6944     0.5455 </r>
       <r>     0.3043     0.7093     0.6005 </r>
       <r>     0.3819     0.7196     0.6564 </r>
       <r>     0.4596     0.7300     0.7131 </r>
       <r>     0.5372     0.7446     0.7709 </r>
       <r>     0.6148     0.7647     0.8302 </r>
       <r>     0.6925     0.7904     0.8916 </r>
       <r>     0.7701     0.8247     0.9556 </r>
       <r>     0.8477     0.8730     1.0234 </r>
       <r>     0.9253     0.9383     1.0962 </r>
       <r>     1.0030     1.0195     1.1754 </r>
       <r>     1.0806     1.1158     1.2620 </r>
       <r>     1.1582     1.2314     1.3576 </r>
       <r>     1.2359     1.3729     1.4642 </r>
       <r>     1.3135     1.5439     1.5840 </r>
       <r>     1.3911     1.7458     1.7196 </r>
       <r>     1.4688     1.9901     1.8741 </r>
       <r>     1.5464     2.3108     2.0534 </r>
       <r>     1.6240     2.7631     2.2679 </r>
       <r>     1.7017     3.4040     2.5322 </r>
       <r>     1.7793     4.2674     2.8635 </r>
       <r>     1.8569     5.3444     3.2784 </r>
       <r>     1.9346     6.5701     3.7884 </r>
       <r>     2.0122     7.8114     4.3949 </r>
       <r>     2.0898     8.8728     5.0837 </r>
       <r>     2.1675     9.5490     5.8250 </r>
       <r>     2.2451     9.7234     6.5798 </r>
       <r>     2.3227     9.4455     7.3131 </r>
       <r>     2.4004     8.9105     8.0048 </r>
       <r>     2.4780     8.3355     8.6519 </r>
       <r>     2.5556     7.8320     9.2599 </r>
       <r>     2.6332     7.3872     9.8334 </r>
       <r>     2.7109     6.9690    10.3744 </r>
       <r>     2.7885     6.6497    10.8907 </r>
       <r>     2.8661     6.6236    11.4049 </r>
       <r>     2.9438     7.0809    11.9546 </r>
       <r>     3.0214     8.0347    12.5783 </r>
       <r>     3.0990     9.2537    13.2967 </r>
       <r>     3.1767    10.3724    14.1019 </r>
       <r>     3.2543    11.1029    14.9639 </r>
       <r>     3.3319    11.3812    15.8474 </r>
       <r>     3.4096    11.3507    16.7286 </r>
       <r>     3.4872    11.2359    17.6009 </r>
       <r>     3.5648    11.2314    18.4728 </r>
       <r>     3.6425    11.4570    19.3622 </r>
       <r>     3.7201    11.9345    20.2887 </r>
       <r>     3.7977    12.5546    21.2633 </r>
       <r>     3.8754    13.0875    22.2794 </r>
       <r>     3.9530    13.3000    23.3119 </r>
       <r>     4.0306    13.1311    24.3312 </r>
       <r>     4.1083    12.7853    25.3238 </r>
       <r>     4.1859    12.6386    26.3050 </r>
       <r>     4.2635    13.0044    27.3145 </r>
       <r>     4.3412    13.9294    28.3959 </r>
       <r>     4.4188    15.1713    29.5737 </r>
       <r>     4.4964    16.3588    30.8436 </r>
       <r>     4.5740    17.1956    32.1785 </r>
       <r>     4.6517    17.5575    33.5416 </r>
       <r>     4.7293    17.4478    34.8961 </r>
       <r>     4.8069    16.8994    36.2080 </r>
       <r>     4.8846    15.9336    37.4449 </r>
       <r>     4.9622    14.6081    38.5790 </r>
       <r>     5.0398    13.0899    39.5952 </r>
       <r>     5.1175    11.6553    40.5000 </r>
       <r>     5.1951    10.5833    41.3216 </r>
       <r>     5.2727    10.0218    42.0996 </r>
       <r>     5.3504     9.9494    42.8720 </r>
       <r>     5.4280    10.2690    43.6692 </r>
       <r>     5.5056    10.9483    44.5192 </r>
       <r>     5.5833    12.0764    45.4567 </r>
       <r>     5.6609    13.7835    46.5267 </r>
       <r>     5.7385    16.0830    47.7753 </r>
       <r>     5.8162    18.7566    49.2314 </r>
       <r>     5.8938    21.3566    50.8893 </r>
       <r>     5.9714    23.3125    52.6991 </r>
       <r>     6.0491    24.0969    54.5698 </r>
       <r>     6.1267    23.4245    56.3883 </r>
       <r>     6.2043    21.4137    58.0507 </r>
       <r>     6.2819    18.5657    59.4920 </r>
       <r>     6.3596    15.4905    60.6945 </r>
       <r>     6.4372    12.5724    61.6706 </r>
       <r>     6.5148     9.8814    62.4377 </r>
       <r>     6.5925     7.3811    63.0107 </r>
       <r>     6.6701     5.1601    63.4113 </r>
       <r>     6.7477     3.4274    63.6773 </r>
       <r>     6.8254     2.3274    63.8580 </r>
       <r>     6.9030     1.8087    63.9984 </r>
       <r>     6.9806     1.6688    64.1280 </r>
       <r>     7.0583     1.6909    64.2593 </r>
       <r>     7.1359     1.7386    64.3942 </r>
       <r>     7.2135     1.7652    64.5313 </r>
       <r>     7.2912     1.7751    64.6691 </r>
       <r>     7.3688     1.7843    64.8076 </r>
       <r>     7.4464     1.7998    64.9473 </r>
       <r>     7.5241     1.8166    65.0883 </r>
       <r>     7.6017     1.8271    65.2302 </r>
       <r>     7.6793     1.8296    65.3722 </r>
       <r>     7.7570     1.8269    65.5140 </r>
       <r>     7.8346     1.8187    65.6552 </r>
       <r>     7.9122     1.7999    65.7950 </r>
       <r>     7.9899     1.7717    65.9325 </r>
       <r>     8.0675     1.7482    66.0682 </r>
       <r>     8.1451     1.7479    66.2039 </r>
       <r>     8.2227     1.7744    66.3417 </r>
       <r>     8.3004     1.8101    66.4822 </r>
       <r>     8.3780     1.8296    66.6242 </r>
       <r>     8.4556     1.8190    66.7654 </r>
       <r>     8.5333     1.7811    66.9037 </r>
       <r>     8.6109     1.7297    67.0380 </r>
       <r>     8.6885     1.6818    67.1685 </r>
       <r>     8.7662     1.6530    67.2969 </r>
       <r>     8.8438     1.6485    67.4248 </r>
       <r>     8.9214     1.6586    67.5536 </r>
       <r>     8.9991     1.6647    67.6828 </r>
       <r>     9.0767     1.6566    67.8114 </r>
       <r>     9.1543     1.6391    67.9387 </r>
       <r>     9.2320     1.6228    68.0647 </r>
       <r>     9.3096     1.6092    68.1896 </r>
       <r>     9.3872     1.5886    68.3129 </r>
       <r>     9.4649     1.5515    68.4334 </r>
       <r>     9.5425     1.4999    68.5498 </r>
       <r>     9.6201     1.4464    68.6621 </r>
       <r>     9.6978     1.4040    68.7711 </r>
       <r>     9.7754     1.3771    68.8780 </r>
       <r>     9.8530     1.3612    68.9837 </r>
       <r>     9.9306     1.3497    69.0884 </r>
       <r>    10.0083     1.3400    69.1925 </r>
       <r>    10.0859     1.3344    69.2961 </r>
       <r>    10.1635     1.3337    69.3996 </r>
       <r>    10.2412     1.3306    69.5029 </r>
       <r>    10.3188     1.3098    69.6046 </r>
       <r>    10.3964     1.2586    69.7023 </r>
       <r>    10.4741     1.1803    69.7939 </r>
       <r>    10.5517     1.0996    69.8793 </r>
       <r>    10.6293     1.0521    69.9609 </r>
       <r>    10.7070     1.0624    70.0434 </r>
       <r>    10.7846     1.1274    70.1309 </r>
       <r>    10.8622     1.2170    70.2254 </r>
       <r>    10.9399     1.2920    70.3257 </r>
       <r>    11.0175     1.3278    70.4288 </r>
       <r>    11.0951     1.3283    70.5319 </r>
       <r>    11.1728     1.3193    70.6343 </r>
       <r>    11.2504     1.3295    70.7375 </r>
       <r>    11.3280     1.3707    70.8440 </r>
       <r>    11.4057     1.4319    70.9551 </r>
       <r>    11.4833     1.4906    71.0708 </r>
       <r>    11.5609     1.5307    71.1897 </r>
       <r>    11.6385     1.5541    71.3103 </r>
       <r>    11.7162     1.5764    71.4327 </r>
       <r>    11.7938     1.6117    71.5578 </r>
       <r>    11.8714     1.6569    71.6864 </r>
       <r>    11.9491     1.6932    71.8179 </r>
       <r>    12.0267     1.7041    71.9502 </r>
       <r>    12.1043     1.6950    72.0818 </r>
       <r>    12.1820     1.6941    72.2133 </r>
       <r>    12.2596     1.7304    72.3476 </r>
       <r>    12.3372     1.8090    72.4880 </r>
       <r>    12.4149     1.9045    72.6359 </r>
       <r>    12.4925     1.9800    72.7896 </r>
       <r>    12.5701     2.0126    72.9458 </r>
       <r>    12.6478     2.0073    73.1017 </r>
       <r>    12.7254     1.9896    73.2561 </r>
       <r>    12.8030     1.9859    73.4103 </r>
       <r>    12.8807     2.0050    73.5660 </r>
       <r>    12.9583     2.0321    73.7237 </r>
       <r>    13.0359     2.0408    73.8821 </r>
       <r>    13.1136     2.0163    74.0387 </r>
       <r>    13.1912     1.9707    74.1917 </r>
       <r>    13.2688     1.9391    74.3422 </r>
       <r>    13.3465     1.9569    74.4941 </r>
       <r>    13.4241     2.0376    74.6523 </r>
       <r>    13.5017     2.1647    74.8204 </r>
       <r>    13.5793     2.3032    74.9992 </r>
       <r>    13.6570     2.4200    75.1870 </r>
       <r>    13.7346     2.4968    75.3809 </r>
       <r>    13.8122     2.5292    75.5772 </r>
       <r>    13.8899     2.5177    75.7727 </r>
       <r>    13.9675     2.4658    75.9641 </r>
       <r>    14.0451     2.3864    76.1493 </r>
       <r>    14.1228     2.3044    76.3282 </r>
       <r>    14.2004     2.2448    76.5025 </r>
       <r>    14.2780     2.2157    76.6745 </r>
       <r>    14.3557     2.2013    76.8454 </r>
       <r>    14.4333     2.1762    77.0143 </r>
       <r>    14.5109     2.1260    77.1794 </r>
       <r>    14.5886     2.0560    77.3390 </r>
       <r>    14.6662     1.9842    77.4930 </r>
       <r>    14.7438     1.9265    77.6426 </r>
       <r>    14.8215     1.8874    77.7891 </r>
       <r>    14.8991     1.8603    77.9335 </r>
       <r>    14.9767     1.8324    78.0758 </r>
       <r>    15.0544     1.7939    78.2151 </r>
       <r>    15.1320     1.7439    78.3504 </r>
       <r>    15.2096     1.6908    78.4817 </r>
       <r>    15.2872     1.6446    78.6094 </r>
       <r>    15.3649     1.6105    78.7344 </r>
       <r>    15.4425     1.5879    78.8577 </r>
       <r>    15.5201     1.5756    78.9800 </r>
       <r>    15.5978     1.5769    79.1024 </r>
       <r>    15.6754     1.5999    79.2266 </r>
       <r>    15.7530     1.6481    79.3546 </r>
       <r>    15.8307     1.7045    79.4869 </r>
       <r>    15.9083     1.7206    79.6205 </r>
       <r>    15.9859     1.6318    79.7471 </r>
       <r>    16.0636     1.3982    79.8557 </r>
       <r>    16.1412     1.0418    79.9366 </r>
       <r>    16.2188     0.6441    79.9866 </r>
       <r>    16.2965     0.3013    80.0100 </r>
       <r>    16.3741     0.0736    80.0157 </r>
       <r>    16.4517    -0.0356    80.0129 </r>
       <r>    16.5294    -0.0624    80.0081 </r>
       <r>    16.6070    -0.0503    80.0042 </r>
       <r>    16.6846    -0.0300    80.0018 </r>
       <r>    16.7623    -0.0146    80.0007 </r>
       <r>    16.8399    -0.0060    80.0002 </r>
       <r>    16.9175    -0.0021    80.0001 </r>
       <r>    16.9952    -0.0006    80.0000 </r>
       <r>    17.0728    -0.0002    80.0000 </r>
       <r>    17.1504     0.0000    80.0000 </r>
       <r>    17.2280     0.0000    80.0000 </r>
       <r>    17.3057     0.0000    80.0000 </r>
       <r>    17.3833     0.0000    80.0000 </r>
       <r>    17.4609     0.0000    80.0000 </r>
       <r>    17.5386     0.0000    80.0000 </r>
       <r>    17.6162     0.0000    80.0000 </r>
       <r>    17.6938     0.0000    80.0000 </r>
       <r>    17.7715     0.0000    80.0000 </r>
       <r>    17.8491     0.0000    80.0000 </r>
       <r>    17.9267     0.0000    80.0000 </r>
       <r>    18.0044     0.0000    80.0000 </r>
       <r>    18.0820     0.0000    80.0000 </r>
       <r>    18.1596     0.0000    80.0000 </r>
       <r>    18.2373     0.0000    80.0000 </r>
       <r>    18.3149     0.0000    80.0000 </r>
       <r>    18.3925     0.0000    80.0000 </r>
       <r>    18.4702     0.0000    80.0000 </r>
       <r>    18.5478     0.0000    80.0000 </r>
       <r>    18.6254     0.0000    80.0000 </r>
       <r>    18.7031     0.0000    80.0000 </r>
       <r>    18.7807     0.0000    80.0000 </r>
       <r>    18.8583     0.0000    80.0000 </r>
       <r>    18.9359     0.0000    80.0000 </r>
       <r>    19.0136     0.0000    80.0000 </r>
       <r>    19.0912     0.0000    80.0000 </r>
       <r>    19.1688     0.0000    80.0000 </r>
       <r>    19.2465     0.0000    80.0000 </r>
      </set>
     </set>
    </array>
   </total>
  </dos>
 </calculation>
 <structure name="finalpos" >
  <crystal>
   <varray name="basis" >
    <v>       0.00000000       2.05318502      -2.05318502 </v>
    <v>       0.00000000      -2.05318502      -2.05318502 </v>
    <v>     -10.64486411       0.00000000       0.00000000 </v>
   </varray>
   <i name="volume">     89.74831237 </i>
   <varray name="rec_basis" >
    <v>       0.00000000       0.24352408      -0.24352408 </v>
    <v>       0.00000000      -0.24352408      -0.24352408 </v>
    <v>      -0.09394202       0.00000000       0.00000000 </v>
   </varray>
  </crystal>
  <varray name="positions" >
   <v>       0.50000000       0.50000000       0.46823025 </v>
   <v>       0.00000000       0.00000000       0.33333333 </v>
   <v>       0.50000000       0.50000000       0.19843642 </v>
   <v>       0.50000000       0.50000000       0.83333333 </v>
   <v>       0.00000000       0.00000000       0.03253753 </v>
   <v>       0.00000000       0.00000000       0.63412914 </v>
  </varray>
 </structure>
</modeling>
