<?xml version="1.0" encoding="ISO-8859-1"?>
<modeling>
 <generator>
  <i name="program" type="string">vasp </i>
  <i name="version" type="string">5.3.5  </i>
  <i name="subversion" type="string">31Mar14 (build Jun 20 2014 13:15:13) complex                          parallel </i>
  <i name="platform" type="string">LinuxIFC </i>
  <i name="date" type="string">2025 11 21 </i>
  <i name="time" type="string">11:42:54 </i>
 </generator>
 <incar>
  <i type="string" name="PREC">accurate</i>
  <i type="int" name="IALGO">    68</i>
  <i type="logical" name="ADDGRID"> T  </i>
  <i type="int" name="NELM">   100</i>
  <i type="int" name="NELMIN">     4</i>
  <i type="int" name="IBRION">     2</i>
  <i name="EDIFF">      0.00000100</i>
  <i name="EDIFFG">     -0.02000000</i>
  <i type="int" name="NSW">    30</i>
  <i type="int" name="ISIF">     3</i>
  <i name="ENCUT">    500.00000000</i>
  <i type="logical" name="LREAL"> F  </i>
  <i type="int" name="ISMEAR">     1</i>
  <i name="SIGMA">      0.30000000</i>
  <i type="logical" name="LWAVE"> F  </i>
  <i type="logical" name="LCHARG"> F  </i>
  <i type="int" name="NELM">   100</i>
 </incar>
 <kpoints>
  <generation param="Auto">
   <i name="subdivisionlength">     70.00000000 </i>
   <v type="int" name="divisions">      24       17        8 </v>
   <v name="usershift">      0.00000000       0.00000000       0.00000000 </v>
   <v name="genvec1">      0.04166667       0.00000000       0.00000000 </v>
   <v name="genvec2">      0.00000000       0.05882353       0.00000000 </v>
   <v name="genvec3">      0.00000000       0.00000000       0.12500000 </v>
   <v name="shift">      0.00000000       0.00000000       0.00000000 </v>
  </generation>
  <varray name="kpointlist" >
   <v>       0.00000000       0.00000000       0.00000000 </v>
   <v>       0.04166667       0.00000000       0.00000000 </v>
   <v>       0.08333333       0.00000000       0.00000000 </v>
   <v>       0.12500000       0.00000000       0.00000000 </v>
   <v>       0.16666667       0.00000000       0.00000000 </v>
   <v>       0.20833333       0.00000000       0.00000000 </v>
   <v>       0.25000000       0.00000000       0.00000000 </v>
   <v>       0.29166667       0.00000000       0.00000000 </v>
   <v>       0.33333333       0.00000000       0.00000000 </v>
   <v>       0.37500000       0.00000000       0.00000000 </v>
   <v>       0.41666667       0.00000000       0.00000000 </v>
   <v>       0.45833333       0.00000000       0.00000000 </v>
   <v>       0.50000000       0.00000000       0.00000000 </v>
   <v>       0.00000000       0.05882353       0.00000000 </v>
   <v>       0.04166667       0.05882353       0.00000000 </v>
   <v>       0.08333333       0.05882353       0.00000000 </v>
   <v>       0.12500000       0.05882353       0.00000000 </v>
   <v>       0.16666667       0.05882353       0.00000000 </v>
   <v>       0.20833333       0.05882353       0.00000000 </v>
   <v>       0.25000000       0.05882353       0.00000000 </v>
   <v>       0.29166667       0.05882353       0.00000000 </v>
   <v>       0.33333333       0.05882353       0.00000000 </v>
   <v>       0.37500000       0.05882353       0.00000000 </v>
   <v>       0.41666667       0.05882353       0.00000000 </v>
   <v>       0.45833333       0.05882353       0.00000000 </v>
   <v>       0.50000000       0.05882353       0.00000000 </v>
   <v>       0.00000000       0.11764706       0.00000000 </v>
   <v>       0.04166667       0.11764706       0.00000000 </v>
   <v>       0.08333333       0.11764706       0.00000000 </v>
   <v>       0.12500000       0.11764706       0.00000000 </v>
   <v>       0.16666667       0.11764706       0.00000000 </v>
   <v>       0.20833333       0.11764706       0.00000000 </v>
   <v>       0.25000000       0.11764706       0.00000000 </v>
   <v>       0.29166667       0.11764706       0.00000000 </v>
   <v>       0.33333333       0.11764706       0.00000000 </v>
   <v>       0.37500000       0.11764706       0.00000000 </v>
   <v>       0.41666667       0.11764706       0.00000000 </v>
   <v>       0.45833333       0.11764706       0.00000000 </v>
   <v>       0.50000000       0.11764706       0.00000000 </v>
   <v>       0.00000000       0.17647059       0.00000000 </v>
   <v>       0.04166667       0.17647059       0.00000000 </v>
   <v>       0.08333333       0.17647059       0.00000000 </v>
   <v>       0.12500000       0.17647059       0.00000000 </v>
   <v>       0.16666667       0.17647059       0.00000000 </v>
   <v>       0.20833333       0.17647059       0.00000000 </v>
   <v>       0.25000000       0.17647059       0.00000000 </v>
   <v>       0.29166667       0.17647059       0.00000000 </v>
   <v>       0.33333333       0.17647059       0.00000000 </v>
   <v>       0.37500000       0.17647059       0.00000000 </v>
   <v>       0.41666667       0.17647059       0.00000000 </v>
   <v>       0.45833333       0.17647059       0.00000000 </v>
   <v>       0.50000000       0.17647059       0.00000000 </v>
   <v>       0.00000000       0.23529412       0.00000000 </v>
   <v>       0.04166667       0.23529412       0.00000000 </v>
   <v>       0.08333333       0.23529412       0.00000000 </v>
   <v>       0.12500000       0.23529412       0.00000000 </v>
   <v>       0.16666667       0.23529412       0.00000000 </v>
   <v>       0.20833333       0.23529412       0.00000000 </v>
   <v>       0.25000000       0.23529412       0.00000000 </v>
   <v>       0.29166667       0.23529412       0.00000000 </v>
   <v>       0.33333333       0.23529412       0.00000000 </v>
   <v>       0.37500000       0.23529412       0.00000000 </v>
   <v>       0.41666667       0.23529412       0.00000000 </v>
   <v>       0.45833333       0.23529412       0.00000000 </v>
   <v>       0.50000000       0.23529412       0.00000000 </v>
   <v>       0.00000000       0.29411765       0.00000000 </v>
   <v>       0.04166667       0.29411765       0.00000000 </v>
   <v>       0.08333333       0.29411765       0.00000000 </v>
   <v>       0.12500000       0.29411765       0.00000000 </v>
   <v>       0.16666667       0.29411765       0.00000000 </v>
   <v>       0.20833333       0.29411765       0.00000000 </v>
   <v>       0.25000000       0.29411765       0.00000000 </v>
   <v>       0.29166667       0.29411765       0.00000000 </v>
   <v>       0.33333333       0.29411765       0.00000000 </v>
   <v>       0.37500000       0.29411765       0.00000000 </v>
   <v>       0.41666667       0.29411765       0.00000000 </v>
   <v>       0.45833333       0.29411765       0.00000000 </v>
   <v>       0.50000000       0.29411765       0.00000000 </v>
   <v>       0.00000000       0.35294118       0.00000000 </v>
   <v>       0.04166667       0.35294118       0.00000000 </v>
   <v>       0.08333333       0.35294118       0.00000000 </v>
   <v>       0.12500000       0.35294118       0.00000000 </v>
   <v>       0.16666667       0.35294118       0.00000000 </v>
   <v>       0.20833333       0.35294118       0.00000000 </v>
   <v>       0.25000000       0.35294118       0.00000000 </v>
   <v>       0.29166667       0.35294118       0.00000000 </v>
   <v>       0.33333333       0.35294118       0.00000000 </v>
   <v>       0.37500000       0.35294118       0.00000000 </v>
   <v>       0.41666667       0.35294118       0.00000000 </v>
   <v>       0.45833333       0.35294118       0.00000000 </v>
   <v>       0.50000000       0.35294118       0.00000000 </v>
   <v>       0.00000000       0.41176471       0.00000000 </v>
   <v>       0.04166667       0.41176471       0.00000000 </v>
   <v>       0.08333333       0.41176471       0.00000000 </v>
   <v>       0.12500000       0.41176471       0.00000000 </v>
   <v>       0.16666667       0.41176471       0.00000000 </v>
   <v>       0.20833333       0.41176471       0.00000000 </v>
   <v>       0.25000000       0.41176471       0.00000000 </v>
   <v>       0.29166667       0.41176471       0.00000000 </v>
   <v>       0.33333333       0.41176471       0.00000000 </v>
   <v>       0.37500000       0.41176471       0.00000000 </v>
   <v>       0.41666667       0.41176471       0.00000000 </v>
   <v>       0.45833333       0.41176471       0.00000000 </v>
   <v>       0.50000000       0.41176471       0.00000000 </v>
   <v>       0.00000000       0.47058824       0.00000000 </v>
   <v>       0.04166667       0.47058824       0.00000000 </v>
   <v>       0.08333333       0.47058824       0.00000000 </v>
   <v>       0.12500000       0.47058824       0.00000000 </v>
   <v>       0.16666667       0.47058824       0.00000000 </v>
   <v>       0.20833333       0.47058824       0.00000000 </v>
   <v>       0.25000000       0.47058824       0.00000000 </v>
   <v>       0.29166667       0.47058824       0.00000000 </v>
   <v>       0.33333333       0.47058824       0.00000000 </v>
   <v>       0.37500000       0.47058824       0.00000000 </v>
   <v>       0.41666667       0.47058824       0.00000000 </v>
   <v>       0.45833333       0.47058824       0.00000000 </v>
   <v>       0.50000000       0.47058824       0.00000000 </v>
   <v>       0.00000000       0.00000000       0.12500000 </v>
   <v>       0.04166667       0.00000000       0.12500000 </v>
   <v>       0.08333333       0.00000000       0.12500000 </v>
   <v>       0.12500000       0.00000000       0.12500000 </v>
   <v>       0.16666667       0.00000000       0.12500000 </v>
   <v>       0.20833333       0.00000000       0.12500000 </v>
   <v>       0.25000000       0.00000000       0.12500000 </v>
   <v>       0.29166667       0.00000000       0.12500000 </v>
   <v>       0.33333333       0.00000000       0.12500000 </v>
   <v>       0.37500000       0.00000000       0.12500000 </v>
   <v>       0.41666667       0.00000000       0.12500000 </v>
   <v>       0.45833333       0.00000000       0.12500000 </v>
   <v>       0.50000000       0.00000000       0.12500000 </v>
   <v>       0.00000000       0.05882353       0.12500000 </v>
   <v>       0.04166667       0.05882353       0.12500000 </v>
   <v>       0.08333333       0.05882353       0.12500000 </v>
   <v>       0.12500000       0.05882353       0.12500000 </v>
   <v>       0.16666667       0.05882353       0.12500000 </v>
   <v>       0.20833333       0.05882353       0.12500000 </v>
   <v>       0.25000000       0.05882353       0.12500000 </v>
   <v>       0.29166667       0.05882353       0.12500000 </v>
   <v>       0.33333333       0.05882353       0.12500000 </v>
   <v>       0.37500000       0.05882353       0.12500000 </v>
   <v>       0.41666667       0.05882353       0.12500000 </v>
   <v>       0.45833333       0.05882353       0.12500000 </v>
   <v>       0.50000000       0.05882353       0.12500000 </v>
   <v>       0.00000000       0.11764706       0.12500000 </v>
   <v>       0.04166667       0.11764706       0.12500000 </v>
   <v>       0.08333333       0.11764706       0.12500000 </v>
   <v>       0.12500000       0.11764706       0.12500000 </v>
   <v>       0.16666667       0.11764706       0.12500000 </v>
   <v>       0.20833333       0.11764706       0.12500000 </v>
   <v>       0.25000000       0.11764706       0.12500000 </v>
   <v>       0.29166667       0.11764706       0.12500000 </v>
   <v>       0.33333333       0.11764706       0.12500000 </v>
   <v>       0.37500000       0.11764706       0.12500000 </v>
   <v>       0.41666667       0.11764706       0.12500000 </v>
   <v>       0.45833333       0.11764706       0.12500000 </v>
   <v>       0.50000000       0.11764706       0.12500000 </v>
   <v>       0.00000000       0.17647059       0.12500000 </v>
   <v>       0.04166667       0.17647059       0.12500000 </v>
   <v>       0.08333333       0.17647059       0.12500000 </v>
   <v>       0.12500000       0.17647059       0.12500000 </v>
   <v>       0.16666667       0.17647059       0.12500000 </v>
   <v>       0.20833333       0.17647059       0.12500000 </v>
   <v>       0.25000000       0.17647059       0.12500000 </v>
   <v>       0.29166667       0.17647059       0.12500000 </v>
   <v>       0.33333333       0.17647059       0.12500000 </v>
   <v>       0.37500000       0.17647059       0.12500000 </v>
   <v>       0.41666667       0.17647059       0.12500000 </v>
   <v>       0.45833333       0.17647059       0.12500000 </v>
   <v>       0.50000000       0.17647059       0.12500000 </v>
   <v>       0.00000000       0.23529412       0.12500000 </v>
   <v>       0.04166667       0.23529412       0.12500000 </v>
   <v>       0.08333333       0.23529412       0.12500000 </v>
   <v>       0.12500000       0.23529412       0.12500000 </v>
   <v>       0.16666667       0.23529412       0.12500000 </v>
   <v>       0.20833333       0.23529412       0.12500000 </v>
   <v>       0.25000000       0.23529412       0.12500000 </v>
   <v>       0.29166667       0.23529412       0.12500000 </v>
   <v>       0.33333333       0.23529412       0.12500000 </v>
   <v>       0.37500000       0.23529412       0.12500000 </v>
   <v>       0.41666667       0.23529412       0.12500000 </v>
   <v>       0.45833333       0.23529412       0.12500000 </v>
   <v>       0.50000000       0.23529412       0.12500000 </v>
   <v>       0.00000000       0.29411765       0.12500000 </v>
   <v>       0.04166667       0.29411765       0.12500000 </v>
   <v>       0.08333333       0.29411765       0.12500000 </v>
   <v>       0.12500000       0.29411765       0.12500000 </v>
   <v>       0.16666667       0.29411765       0.12500000 </v>
   <v>       0.20833333       0.29411765       0.12500000 </v>
   <v>       0.25000000       0.29411765       0.12500000 </v>
   <v>       0.29166667       0.29411765       0.12500000 </v>
   <v>       0.33333333       0.29411765       0.12500000 </v>
   <v>       0.37500000       0.29411765       0.12500000 </v>
   <v>       0.41666667       0.29411765       0.12500000 </v>
   <v>       0.45833333       0.29411765       0.12500000 </v>
   <v>       0.50000000       0.29411765       0.12500000 </v>
   <v>       0.00000000       0.35294118       0.12500000 </v>
   <v>       0.04166667       0.35294118       0.12500000 </v>
   <v>       0.08333333       0.35294118       0.12500000 </v>
   <v>       0.12500000       0.35294118       0.12500000 </v>
   <v>       0.16666667       0.35294118       0.12500000 </v>
   <v>       0.20833333       0.35294118       0.12500000 </v>
   <v>       0.25000000       0.35294118       0.12500000 </v>
   <v>       0.29166667       0.35294118       0.12500000 </v>
   <v>       0.33333333       0.35294118       0.12500000 </v>
   <v>       0.37500000       0.35294118       0.12500000 </v>
   <v>       0.41666667       0.35294118       0.12500000 </v>
   <v>       0.45833333       0.35294118       0.12500000 </v>
   <v>       0.50000000       0.35294118       0.12500000 </v>
   <v>       0.00000000       0.41176471       0.12500000 </v>
   <v>       0.04166667       0.41176471       0.12500000 </v>
   <v>       0.08333333       0.41176471       0.12500000 </v>
   <v>       0.12500000       0.41176471       0.12500000 </v>
   <v>       0.16666667       0.41176471       0.12500000 </v>
   <v>       0.20833333       0.41176471       0.12500000 </v>
   <v>       0.25000000       0.41176471       0.12500000 </v>
   <v>       0.29166667       0.41176471       0.12500000 </v>
   <v>       0.33333333       0.41176471       0.12500000 </v>
   <v>       0.37500000       0.41176471       0.12500000 </v>
   <v>       0.41666667       0.41176471       0.12500000 </v>
   <v>       0.45833333       0.41176471       0.12500000 </v>
   <v>       0.50000000       0.41176471       0.12500000 </v>
   <v>       0.00000000       0.47058824       0.12500000 </v>
   <v>       0.04166667       0.47058824       0.12500000 </v>
   <v>       0.08333333       0.47058824       0.12500000 </v>
   <v>       0.12500000       0.47058824       0.12500000 </v>
   <v>       0.16666667       0.47058824       0.12500000 </v>
   <v>       0.20833333       0.47058824       0.12500000 </v>
   <v>       0.25000000       0.47058824       0.12500000 </v>
   <v>       0.29166667       0.47058824       0.12500000 </v>
   <v>       0.33333333       0.47058824       0.12500000 </v>
   <v>       0.37500000       0.47058824       0.12500000 </v>
   <v>       0.41666667       0.47058824       0.12500000 </v>
   <v>       0.45833333       0.47058824       0.12500000 </v>
   <v>       0.50000000       0.47058824       0.12500000 </v>
   <v>       0.00000000       0.00000000       0.25000000 </v>
   <v>       0.04166667       0.00000000       0.25000000 </v>
   <v>       0.08333333       0.00000000       0.25000000 </v>
   <v>       0.12500000       0.00000000       0.25000000 </v>
   <v>       0.16666667       0.00000000       0.25000000 </v>
   <v>       0.20833333       0.00000000       0.25000000 </v>
   <v>       0.25000000       0.00000000       0.25000000 </v>
   <v>       0.29166667       0.00000000       0.25000000 </v>
   <v>       0.33333333       0.00000000       0.25000000 </v>
   <v>       0.37500000       0.00000000       0.25000000 </v>
   <v>       0.41666667       0.00000000       0.25000000 </v>
   <v>       0.45833333       0.00000000       0.25000000 </v>
   <v>       0.50000000       0.00000000       0.25000000 </v>
   <v>       0.00000000       0.05882353       0.25000000 </v>
   <v>       0.04166667       0.05882353       0.25000000 </v>
   <v>       0.08333333       0.05882353       0.25000000 </v>
   <v>       0.12500000       0.05882353       0.25000000 </v>
   <v>       0.16666667       0.05882353       0.25000000 </v>
   <v>       0.20833333       0.05882353       0.25000000 </v>
   <v>       0.25000000       0.05882353       0.25000000 </v>
   <v>       0.29166667       0.05882353       0.25000000 </v>
   <v>       0.33333333       0.05882353       0.25000000 </v>
   <v>       0.37500000       0.05882353       0.25000000 </v>
   <v>       0.41666667       0.05882353       0.25000000 </v>
   <v>       0.45833333       0.05882353       0.25000000 </v>
   <v>       0.50000000       0.05882353       0.25000000 </v>
   <v>       0.00000000       0.11764706       0.25000000 </v>
   <v>       0.04166667       0.11764706       0.25000000 </v>
   <v>       0.08333333       0.11764706       0.25000000 </v>
   <v>       0.12500000       0.11764706       0.25000000 </v>
   <v>       0.16666667       0.11764706       0.25000000 </v>
   <v>       0.20833333       0.11764706       0.25000000 </v>
   <v>       0.25000000       0.11764706       0.25000000 </v>
   <v>       0.29166667       0.11764706       0.25000000 </v>
   <v>       0.33333333       0.11764706       0.25000000 </v>
   <v>       0.37500000       0.11764706       0.25000000 </v>
   <v>       0.41666667       0.11764706       0.25000000 </v>
   <v>       0.45833333       0.11764706       0.25000000 </v>
   <v>       0.50000000       0.11764706       0.25000000 </v>
   <v>       0.00000000       0.17647059       0.25000000 </v>
   <v>       0.04166667       0.17647059       0.25000000 </v>
   <v>       0.08333333       0.17647059       0.25000000 </v>
   <v>       0.12500000       0.17647059       0.25000000 </v>
   <v>       0.16666667       0.17647059       0.25000000 </v>
   <v>       0.20833333       0.17647059       0.25000000 </v>
   <v>       0.25000000       0.17647059       0.25000000 </v>
   <v>       0.29166667       0.17647059       0.25000000 </v>
   <v>       0.33333333       0.17647059       0.25000000 </v>
   <v>       0.37500000       0.17647059       0.25000000 </v>
   <v>       0.41666667       0.17647059       0.25000000 </v>
   <v>       0.45833333       0.17647059       0.25000000 </v>
   <v>       0.50000000       0.17647059       0.25000000 </v>
   <v>       0.00000000       0.23529412       0.25000000 </v>
   <v>       0.04166667       0.23529412       0.25000000 </v>
   <v>       0.08333333       0.23529412       0.25000000 </v>
   <v>       0.12500000       0.23529412       0.25000000 </v>
   <v>       0.16666667       0.23529412       0.25000000 </v>
   <v>       0.20833333       0.23529412       0.25000000 </v>
   <v>       0.25000000       0.23529412       0.25000000 </v>
   <v>       0.29166667       0.23529412       0.25000000 </v>
   <v>       0.33333333       0.23529412       0.25000000 </v>
   <v>       0.37500000       0.23529412       0.25000000 </v>
   <v>       0.41666667       0.23529412       0.25000000 </v>
   <v>       0.45833333       0.23529412       0.25000000 </v>
   <v>       0.50000000       0.23529412       0.25000000 </v>
   <v>       0.00000000       0.29411765       0.25000000 </v>
   <v>       0.04166667       0.29411765       0.25000000 </v>
   <v>       0.08333333       0.29411765       0.25000000 </v>
   <v>       0.12500000       0.29411765       0.25000000 </v>
   <v>       0.16666667       0.29411765       0.25000000 </v>
   <v>       0.20833333       0.29411765       0.25000000 </v>
   <v>       0.25000000       0.29411765       0.25000000 </v>
   <v>       0.29166667       0.29411765       0.25000000 </v>
   <v>       0.33333333       0.29411765       0.25000000 </v>
   <v>       0.37500000       0.29411765       0.25000000 </v>
   <v>       0.41666667       0.29411765       0.25000000 </v>
   <v>       0.45833333       0.29411765       0.25000000 </v>
   <v>       0.50000000       0.29411765       0.25000000 </v>
   <v>       0.00000000       0.35294118       0.25000000 </v>
   <v>       0.04166667       0.35294118       0.25000000 </v>
   <v>       0.08333333       0.35294118       0.25000000 </v>
   <v>       0.12500000       0.35294118       0.25000000 </v>
   <v>       0.16666667       0.35294118       0.25000000 </v>
   <v>       0.20833333       0.35294118       0.25000000 </v>
   <v>       0.25000000       0.35294118       0.25000000 </v>
   <v>       0.29166667       0.35294118       0.25000000 </v>
   <v>       0.33333333       0.35294118       0.25000000 </v>
   <v>       0.37500000       0.35294118       0.25000000 </v>
   <v>       0.41666667       0.35294118       0.25000000 </v>
   <v>       0.45833333       0.35294118       0.25000000 </v>
   <v>       0.50000000       0.35294118       0.25000000 </v>
   <v>       0.00000000       0.41176471       0.25000000 </v>
   <v>       0.04166667       0.41176471       0.25000000 </v>
   <v>       0.08333333       0.41176471       0.25000000 </v>
   <v>       0.12500000       0.41176471       0.25000000 </v>
   <v>       0.16666667       0.41176471       0.25000000 </v>
   <v>       0.20833333       0.41176471       0.25000000 </v>
   <v>       0.25000000       0.41176471       0.25000000 </v>
   <v>       0.29166667       0.41176471       0.25000000 </v>
   <v>       0.33333333       0.41176471       0.25000000 </v>
   <v>       0.37500000       0.41176471       0.25000000 </v>
   <v>       0.41666667       0.41176471       0.25000000 </v>
   <v>       0.45833333       0.41176471       0.25000000 </v>
   <v>       0.50000000       0.41176471       0.25000000 </v>
   <v>       0.00000000       0.47058824       0.25000000 </v>
   <v>       0.04166667       0.47058824       0.25000000 </v>
   <v>       0.08333333       0.47058824       0.25000000 </v>
   <v>       0.12500000       0.47058824       0.25000000 </v>
   <v>       0.16666667       0.47058824       0.25000000 </v>
   <v>       0.20833333       0.47058824       0.25000000 </v>
   <v>       0.25000000       0.47058824       0.25000000 </v>
   <v>       0.29166667       0.47058824       0.25000000 </v>
   <v>       0.33333333       0.47058824       0.25000000 </v>
   <v>       0.37500000       0.47058824       0.25000000 </v>
   <v>       0.41666667       0.47058824       0.25000000 </v>
   <v>       0.45833333       0.47058824       0.25000000 </v>
   <v>       0.50000000       0.47058824       0.25000000 </v>
   <v>       0.00000000       0.00000000       0.37500000 </v>
   <v>       0.04166667       0.00000000       0.37500000 </v>
   <v>       0.08333333       0.00000000       0.37500000 </v>
   <v>       0.12500000       0.00000000       0.37500000 </v>
   <v>       0.16666667       0.00000000       0.37500000 </v>
   <v>       0.20833333       0.00000000       0.37500000 </v>
   <v>       0.25000000       0.00000000       0.37500000 </v>
   <v>       0.29166667       0.00000000       0.37500000 </v>
   <v>       0.33333333       0.00000000       0.37500000 </v>
   <v>       0.37500000       0.00000000       0.37500000 </v>
   <v>       0.41666667       0.00000000       0.37500000 </v>
   <v>       0.45833333       0.00000000       0.37500000 </v>
   <v>       0.50000000       0.00000000       0.37500000 </v>
   <v>       0.00000000       0.05882353       0.37500000 </v>
   <v>       0.04166667       0.05882353       0.37500000 </v>
   <v>       0.08333333       0.05882353       0.37500000 </v>
   <v>       0.12500000       0.05882353       0.37500000 </v>
   <v>       0.16666667       0.05882353       0.37500000 </v>
   <v>       0.20833333       0.05882353       0.37500000 </v>
   <v>       0.25000000       0.05882353       0.37500000 </v>
   <v>       0.29166667       0.05882353       0.37500000 </v>
   <v>       0.33333333       0.05882353       0.37500000 </v>
   <v>       0.37500000       0.05882353       0.37500000 </v>
   <v>       0.41666667       0.05882353       0.37500000 </v>
   <v>       0.45833333       0.05882353       0.37500000 </v>
   <v>       0.50000000       0.05882353       0.37500000 </v>
   <v>       0.00000000       0.11764706       0.37500000 </v>
   <v>       0.04166667       0.11764706       0.37500000 </v>
   <v>       0.08333333       0.11764706       0.37500000 </v>
   <v>       0.12500000       0.11764706       0.37500000 </v>
   <v>       0.16666667       0.11764706       0.37500000 </v>
   <v>       0.20833333       0.11764706       0.37500000 </v>
   <v>       0.25000000       0.11764706       0.37500000 </v>
   <v>       0.29166667       0.11764706       0.37500000 </v>
   <v>       0.33333333       0.11764706       0.37500000 </v>
   <v>       0.37500000       0.11764706       0.37500000 </v>
   <v>       0.41666667       0.11764706       0.37500000 </v>
   <v>       0.45833333       0.11764706       0.37500000 </v>
   <v>       0.50000000       0.11764706       0.37500000 </v>
   <v>       0.00000000       0.17647059       0.37500000 </v>
   <v>       0.04166667       0.17647059       0.37500000 </v>
   <v>       0.08333333       0.17647059       0.37500000 </v>
   <v>       0.12500000       0.17647059       0.37500000 </v>
   <v>       0.16666667       0.17647059       0.37500000 </v>
   <v>       0.20833333       0.17647059       0.37500000 </v>
   <v>       0.25000000       0.17647059       0.37500000 </v>
   <v>       0.29166667       0.17647059       0.37500000 </v>
   <v>       0.33333333       0.17647059       0.37500000 </v>
   <v>       0.37500000       0.17647059       0.37500000 </v>
   <v>       0.41666667       0.17647059       0.37500000 </v>
   <v>       0.45833333       0.17647059       0.37500000 </v>
   <v>       0.50000000       0.17647059       0.37500000 </v>
   <v>       0.00000000       0.23529412       0.37500000 </v>
   <v>       0.04166667       0.23529412       0.37500000 </v>
   <v>       0.08333333       0.23529412       0.37500000 </v>
   <v>       0.12500000       0.23529412       0.37500000 </v>
   <v>       0.16666667       0.23529412       0.37500000 </v>
   <v>       0.20833333       0.23529412       0.37500000 </v>
   <v>       0.25000000       0.23529412       0.37500000 </v>
   <v>       0.29166667       0.23529412       0.37500000 </v>
   <v>       0.33333333       0.23529412       0.37500000 </v>
   <v>       0.37500000       0.23529412       0.37500000 </v>
   <v>       0.41666667       0.23529412       0.37500000 </v>
   <v>       0.45833333       0.23529412       0.37500000 </v>
   <v>       0.50000000       0.23529412       0.37500000 </v>
   <v>       0.00000000       0.29411765       0.37500000 </v>
   <v>       0.04166667       0.29411765       0.37500000 </v>
   <v>       0.08333333       0.29411765       0.37500000 </v>
   <v>       0.12500000       0.29411765       0.37500000 </v>
   <v>       0.16666667       0.29411765       0.37500000 </v>
   <v>       0.20833333       0.29411765       0.37500000 </v>
   <v>       0.25000000       0.29411765       0.37500000 </v>
   <v>       0.29166667       0.29411765       0.37500000 </v>
   <v>       0.33333333       0.29411765       0.37500000 </v>
   <v>       0.37500000       0.29411765       0.37500000 </v>
   <v>       0.41666667       0.29411765       0.37500000 </v>
   <v>       0.45833333       0.29411765       0.37500000 </v>
   <v>       0.50000000       0.29411765       0.37500000 </v>
   <v>       0.00000000       0.35294118       0.37500000 </v>
   <v>       0.04166667       0.35294118       0.37500000 </v>
   <v>       0.08333333       0.35294118       0.37500000 </v>
   <v>       0.12500000       0.35294118       0.37500000 </v>
   <v>       0.16666667       0.35294118       0.37500000 </v>
   <v>       0.20833333       0.35294118       0.37500000 </v>
   <v>       0.25000000       0.35294118       0.37500000 </v>
   <v>       0.29166667       0.35294118       0.37500000 </v>
   <v>       0.33333333       0.35294118       0.37500000 </v>
   <v>       0.37500000       0.35294118       0.37500000 </v>
   <v>       0.41666667       0.35294118       0.37500000 </v>
   <v>       0.45833333       0.35294118       0.37500000 </v>
   <v>       0.50000000       0.35294118       0.37500000 </v>
   <v>       0.00000000       0.41176471       0.37500000 </v>
   <v>       0.04166667       0.41176471       0.37500000 </v>
   <v>       0.08333333       0.41176471       0.37500000 </v>
   <v>       0.12500000       0.41176471       0.37500000 </v>
   <v>       0.16666667       0.41176471       0.37500000 </v>
   <v>       0.20833333       0.41176471       0.37500000 </v>
   <v>       0.25000000       0.41176471       0.37500000 </v>
   <v>       0.29166667       0.41176471       0.37500000 </v>
   <v>       0.33333333       0.41176471       0.37500000 </v>
   <v>       0.37500000       0.41176471       0.37500000 </v>
   <v>       0.41666667       0.41176471       0.37500000 </v>
   <v>       0.45833333       0.41176471       0.37500000 </v>
   <v>       0.50000000       0.41176471       0.37500000 </v>
   <v>       0.00000000       0.47058824       0.37500000 </v>
   <v>       0.04166667       0.47058824       0.37500000 </v>
   <v>       0.08333333       0.47058824       0.37500000 </v>
   <v>       0.12500000       0.47058824       0.37500000 </v>
   <v>       0.16666667       0.47058824       0.37500000 </v>
   <v>       0.20833333       0.47058824       0.37500000 </v>
   <v>       0.25000000       0.47058824       0.37500000 </v>
   <v>       0.29166667       0.47058824       0.37500000 </v>
   <v>       0.33333333       0.47058824       0.37500000 </v>
   <v>       0.37500000       0.47058824       0.37500000 </v>
   <v>       0.41666667       0.47058824       0.37500000 </v>
   <v>       0.45833333       0.47058824       0.37500000 </v>
   <v>       0.50000000       0.47058824       0.37500000 </v>
   <v>       0.00000000       0.00000000       0.50000000 </v>
   <v>       0.04166667       0.00000000       0.50000000 </v>
   <v>       0.08333333       0.00000000       0.50000000 </v>
   <v>       0.12500000       0.00000000       0.50000000 </v>
   <v>       0.16666667       0.00000000       0.50000000 </v>
   <v>       0.20833333       0.00000000       0.50000000 </v>
   <v>       0.25000000       0.00000000       0.50000000 </v>
   <v>       0.29166667       0.00000000       0.50000000 </v>
   <v>       0.33333333       0.00000000       0.50000000 </v>
   <v>       0.37500000       0.00000000       0.50000000 </v>
   <v>       0.41666667       0.00000000       0.50000000 </v>
   <v>       0.45833333       0.00000000       0.50000000 </v>
   <v>       0.50000000       0.00000000       0.50000000 </v>
   <v>       0.00000000       0.05882353       0.50000000 </v>
   <v>       0.04166667       0.05882353       0.50000000 </v>
   <v>       0.08333333       0.05882353       0.50000000 </v>
   <v>       0.12500000       0.05882353       0.50000000 </v>
   <v>       0.16666667       0.05882353       0.50000000 </v>
   <v>       0.20833333       0.05882353       0.50000000 </v>
   <v>       0.25000000       0.05882353       0.50000000 </v>
   <v>       0.29166667       0.05882353       0.50000000 </v>
   <v>       0.33333333       0.05882353       0.50000000 </v>
   <v>       0.37500000       0.05882353       0.50000000 </v>
   <v>       0.41666667       0.05882353       0.50000000 </v>
   <v>       0.45833333       0.05882353       0.50000000 </v>
   <v>       0.50000000       0.05882353       0.50000000 </v>
   <v>       0.00000000       0.11764706       0.50000000 </v>
   <v>       0.04166667       0.11764706       0.50000000 </v>
   <v>       0.08333333       0.11764706       0.50000000 </v>
   <v>       0.12500000       0.11764706       0.50000000 </v>
   <v>       0.16666667       0.11764706       0.50000000 </v>
   <v>       0.20833333       0.11764706       0.50000000 </v>
   <v>       0.25000000       0.11764706       0.50000000 </v>
   <v>       0.29166667       0.11764706       0.50000000 </v>
   <v>       0.33333333       0.11764706       0.50000000 </v>
   <v>       0.37500000       0.11764706       0.50000000 </v>
   <v>       0.41666667       0.11764706       0.50000000 </v>
   <v>       0.45833333       0.11764706       0.50000000 </v>
   <v>       0.50000000       0.11764706       0.50000000 </v>
   <v>       0.00000000       0.17647059       0.50000000 </v>
   <v>       0.04166667       0.17647059       0.50000000 </v>
   <v>       0.08333333       0.17647059       0.50000000 </v>
   <v>       0.12500000       0.17647059       0.50000000 </v>
   <v>       0.16666667       0.17647059       0.50000000 </v>
   <v>       0.20833333       0.17647059       0.50000000 </v>
   <v>       0.25000000       0.17647059       0.50000000 </v>
   <v>       0.29166667       0.17647059       0.50000000 </v>
   <v>       0.33333333       0.17647059       0.50000000 </v>
   <v>       0.37500000       0.17647059       0.50000000 </v>
   <v>       0.41666667       0.17647059       0.50000000 </v>
   <v>       0.45833333       0.17647059       0.50000000 </v>
   <v>       0.50000000       0.17647059       0.50000000 </v>
   <v>       0.00000000       0.23529412       0.50000000 </v>
   <v>       0.04166667       0.23529412       0.50000000 </v>
   <v>       0.08333333       0.23529412       0.50000000 </v>
   <v>       0.12500000       0.23529412       0.50000000 </v>
   <v>       0.16666667       0.23529412       0.50000000 </v>
   <v>       0.20833333       0.23529412       0.50000000 </v>
   <v>       0.25000000       0.23529412       0.50000000 </v>
   <v>       0.29166667       0.23529412       0.50000000 </v>
   <v>       0.33333333       0.23529412       0.50000000 </v>
   <v>       0.37500000       0.23529412       0.50000000 </v>
   <v>       0.41666667       0.23529412       0.50000000 </v>
   <v>       0.45833333       0.23529412       0.50000000 </v>
   <v>       0.50000000       0.23529412       0.50000000 </v>
   <v>       0.00000000       0.29411765       0.50000000 </v>
   <v>       0.04166667       0.29411765       0.50000000 </v>
   <v>       0.08333333       0.29411765       0.50000000 </v>
   <v>       0.12500000       0.29411765       0.50000000 </v>
   <v>       0.16666667       0.29411765       0.50000000 </v>
   <v>       0.20833333       0.29411765       0.50000000 </v>
   <v>       0.25000000       0.29411765       0.50000000 </v>
   <v>       0.29166667       0.29411765       0.50000000 </v>
   <v>       0.33333333       0.29411765       0.50000000 </v>
   <v>       0.37500000       0.29411765       0.50000000 </v>
   <v>       0.41666667       0.29411765       0.50000000 </v>
   <v>       0.45833333       0.29411765       0.50000000 </v>
   <v>       0.50000000       0.29411765       0.50000000 </v>
   <v>       0.00000000       0.35294118       0.50000000 </v>
   <v>       0.04166667       0.35294118       0.50000000 </v>
   <v>       0.08333333       0.35294118       0.50000000 </v>
   <v>       0.12500000       0.35294118       0.50000000 </v>
   <v>       0.16666667       0.35294118       0.50000000 </v>
   <v>       0.20833333       0.35294118       0.50000000 </v>
   <v>       0.25000000       0.35294118       0.50000000 </v>
   <v>       0.29166667       0.35294118       0.50000000 </v>
   <v>       0.33333333       0.35294118       0.50000000 </v>
   <v>       0.37500000       0.35294118       0.50000000 </v>
   <v>       0.41666667       0.35294118       0.50000000 </v>
   <v>       0.45833333       0.35294118       0.50000000 </v>
   <v>       0.50000000       0.35294118       0.50000000 </v>
   <v>       0.00000000       0.41176471       0.50000000 </v>
   <v>       0.04166667       0.41176471       0.50000000 </v>
   <v>       0.08333333       0.41176471       0.50000000 </v>
   <v>       0.12500000       0.41176471       0.50000000 </v>
   <v>       0.16666667       0.41176471       0.50000000 </v>
   <v>       0.20833333       0.41176471       0.50000000 </v>
   <v>       0.25000000       0.41176471       0.50000000 </v>
   <v>       0.29166667       0.41176471       0.50000000 </v>
   <v>       0.33333333       0.41176471       0.50000000 </v>
   <v>       0.37500000       0.41176471       0.50000000 </v>
   <v>       0.41666667       0.41176471       0.50000000 </v>
   <v>       0.45833333       0.41176471       0.50000000 </v>
   <v>       0.50000000       0.41176471       0.50000000 </v>
   <v>       0.00000000       0.47058824       0.50000000 </v>
   <v>       0.04166667       0.47058824       0.50000000 </v>
   <v>       0.08333333       0.47058824       0.50000000 </v>
   <v>       0.12500000       0.47058824       0.50000000 </v>
   <v>       0.16666667       0.47058824       0.50000000 </v>
   <v>       0.20833333       0.47058824       0.50000000 </v>
   <v>       0.25000000       0.47058824       0.50000000 </v>
   <v>       0.29166667       0.47058824       0.50000000 </v>
   <v>       0.33333333       0.47058824       0.50000000 </v>
   <v>       0.37500000       0.47058824       0.50000000 </v>
   <v>       0.41666667       0.47058824       0.50000000 </v>
   <v>       0.45833333       0.47058824       0.50000000 </v>
   <v>       0.50000000       0.47058824       0.50000000 </v>
  </varray>
  <varray name="weights" >
   <v>       0.00030637 </v>
   <v>       0.00061275 </v>
   <v>       0.00061275 </v>
   <v>       0.00061275 </v>
   <v>       0.00061275 </v>
   <v>       0.00061275 </v>
   <v>       0.00061275 </v>
   <v>       0.00061275 </v>
   <v>       0.00061275 </v>
   <v>       0.00061275 </v>
   <v>       0.00061275 </v>
   <v>       0.00061275 </v>
   <v>       0.00030637 </v>
   <v>       0.00061275 </v>
   <v>       0.00122549 </v>
   <v>       0.00122549 </v>
   <v>       0.00122549 </v>
   <v>       0.00122549 </v>
   <v>       0.00122549 </v>
   <v>       0.00122549 </v>
   <v>       0.00122549 </v>
   <v>       0.00122549 </v>
   <v>       0.00122549 </v>
   <v>       0.00122549 </v>
   <v>       0.00122549 </v>
   <v>       0.00061275 </v>
   <v>       0.00061275 </v>
   <v>       0.00122549 </v>
   <v>       0.00122549 </v>
   <v>       0.00122549 </v>
   <v>       0.00122549 </v>
   <v>       0.00122549 </v>
   <v>       0.00122549 </v>
   <v>       0.00122549 </v>
   <v>       0.00122549 </v>
   <v>       0.00122549 </v>
   <v>       0.00122549 </v>
   <v>       0.00122549 </v>
   <v>       0.00061275 </v>
   <v>       0.00061275 </v>
   <v>       0.00122549 </v>
   <v>       0.00122549 </v>
   <v>       0.00122549 </v>
   <v>       0.00122549 </v>
   <v>       0.00122549 </v>
   <v>       0.00122549 </v>
   <v>       0.00122549 </v>
   <v>       0.00122549 </v>
   <v>       0.00122549 </v>
   <v>       0.00122549 </v>
   <v>       0.00122549 </v>
   <v>       0.00061275 </v>
   <v>       0.00061275 </v>
   <v>       0.00122549 </v>
   <v>       0.00122549 </v>
   <v>       0.00122549 </v>
   <v>       0.00122549 </v>
   <v>       0.00122549 </v>
   <v>       0.00122549 </v>
   <v>       0.00122549 </v>
   <v>       0.00122549 </v>
   <v>       0.00122549 </v>
   <v>       0.00122549 </v>
   <v>       0.00122549 </v>
   <v>       0.00061275 </v>
   <v>       0.00061275 </v>
   <v>       0.00122549 </v>
   <v>       0.00122549 </v>
   <v>       0.00122549 </v>
   <v>       0.00122549 </v>
   <v>       0.00122549 </v>
   <v>       0.00122549 </v>
   <v>       0.00122549 </v>
   <v>       0.00122549 </v>
   <v>       0.00122549 </v>
   <v>       0.00122549 </v>
   <v>       0.00122549 </v>
   <v>       0.00061275 </v>
   <v>       0.00061275 </v>
   <v>       0.00122549 </v>
   <v>       0.00122549 </v>
   <v>       0.00122549 </v>
   <v>       0.00122549 </v>
   <v>       0.00122549 </v>
   <v>       0.00122549 </v>
   <v>       0.00122549 </v>
   <v>       0.00122549 </v>
   <v>       0.00122549 </v>
   <v>       0.00122549 </v>
   <v>       0.00122549 </v>
   <v>       0.00061275 </v>
   <v>       0.00061275 </v>
   <v>       0.00122549 </v>
   <v>       0.00122549 </v>
   <v>       0.00122549 </v>
   <v>       0.00122549 </v>
   <v>       0.00122549 </v>
   <v>       0.00122549 </v>
   <v>       0.00122549 </v>
   <v>       0.00122549 </v>
   <v>       0.00122549 </v>
   <v>       0.00122549 </v>
   <v>       0.00122549 </v>
   <v>       0.00061275 </v>
   <v>       0.00061275 </v>
   <v>       0.00122549 </v>
   <v>       0.00122549 </v>
   <v>       0.00122549 </v>
   <v>       0.00122549 </v>
   <v>       0.00122549 </v>
   <v>       0.00122549 </v>
   <v>       0.00122549 </v>
   <v>       0.00122549 </v>
   <v>       0.00122549 </v>
   <v>       0.00122549 </v>
   <v>       0.00122549 </v>
   <v>       0.00061275 </v>
   <v>       0.00061275 </v>
   <v>       0.00122549 </v>
   <v>       0.00122549 </v>
   <v>       0.00122549 </v>
   <v>       0.00122549 </v>
   <v>       0.00122549 </v>
   <v>       0.00122549 </v>
   <v>       0.00122549 </v>
   <v>       0.00122549 </v>
   <v>       0.00122549 </v>
   <v>       0.00122549 </v>
   <v>       0.00122549 </v>
   <v>       0.00061275 </v>
   <v>       0.00122549 </v>
   <v>       0.00245098 </v>
   <v>       0.00245098 </v>
   <v>       0.00245098 </v>
   <v>       0.00245098 </v>
   <v>       0.00245098 </v>
   <v>       0.00245098 </v>
   <v>       0.00245098 </v>
   <v>       0.00245098 </v>
   <v>       0.00245098 </v>
   <v>       0.00245098 </v>
   <v>       0.00245098 </v>
   <v>       0.00122549 </v>
   <v>       0.00122549 </v>
   <v>       0.00245098 </v>
   <v>       0.00245098 </v>
   <v>       0.00245098 </v>
   <v>       0.00245098 </v>
   <v>       0.00245098 </v>
   <v>       0.00245098 </v>
   <v>       0.00245098 </v>
   <v>       0.00245098 </v>
   <v>       0.00245098 </v>
   <v>       0.00245098 </v>
   <v>       0.00245098 </v>
   <v>       0.00122549 </v>
   <v>       0.00122549 </v>
   <v>       0.00245098 </v>
   <v>       0.00245098 </v>
   <v>       0.00245098 </v>
   <v>       0.00245098 </v>
   <v>       0.00245098 </v>
   <v>       0.00245098 </v>
   <v>       0.00245098 </v>
   <v>       0.00245098 </v>
   <v>       0.00245098 </v>
   <v>       0.00245098 </v>
   <v>       0.00245098 </v>
   <v>       0.00122549 </v>
   <v>       0.00122549 </v>
   <v>       0.00245098 </v>
   <v>       0.00245098 </v>
   <v>       0.00245098 </v>
   <v>       0.00245098 </v>
   <v>       0.00245098 </v>
   <v>       0.00245098 </v>
   <v>       0.00245098 </v>
   <v>       0.00245098 </v>
   <v>       0.00245098 </v>
   <v>       0.00245098 </v>
   <v>       0.00245098 </v>
   <v>       0.00122549 </v>
   <v>       0.00122549 </v>
   <v>       0.00245098 </v>
   <v>       0.00245098 </v>
   <v>       0.00245098 </v>
   <v>       0.00245098 </v>
   <v>       0.00245098 </v>
   <v>       0.00245098 </v>
   <v>       0.00245098 </v>
   <v>       0.00245098 </v>
   <v>       0.00245098 </v>
   <v>       0.00245098 </v>
   <v>       0.00245098 </v>
   <v>       0.00122549 </v>
   <v>       0.00122549 </v>
   <v>       0.00245098 </v>
   <v>       0.00245098 </v>
   <v>       0.00245098 </v>
   <v>       0.00245098 </v>
   <v>       0.00245098 </v>
   <v>       0.00245098 </v>
   <v>       0.00245098 </v>
   <v>       0.00245098 </v>
   <v>       0.00245098 </v>
   <v>       0.00245098 </v>
   <v>       0.00245098 </v>
   <v>       0.00122549 </v>
   <v>       0.00122549 </v>
   <v>       0.00245098 </v>
   <v>       0.00245098 </v>
   <v>       0.00245098 </v>
   <v>       0.00245098 </v>
   <v>       0.00245098 </v>
   <v>       0.00245098 </v>
   <v>       0.00245098 </v>
   <v>       0.00245098 </v>
   <v>       0.00245098 </v>
   <v>       0.00245098 </v>
   <v>       0.00245098 </v>
   <v>       0.00122549 </v>
   <v>       0.00122549 </v>
   <v>       0.00245098 </v>
   <v>       0.00245098 </v>
   <v>       0.00245098 </v>
   <v>       0.00245098 </v>
   <v>       0.00245098 </v>
   <v>       0.00245098 </v>
   <v>       0.00245098 </v>
   <v>       0.00245098 </v>
   <v>       0.00245098 </v>
   <v>       0.00245098 </v>
   <v>       0.00245098 </v>
   <v>       0.00122549 </v>
   <v>       0.00061275 </v>
   <v>       0.00122549 </v>
   <v>       0.00122549 </v>
   <v>       0.00122549 </v>
   <v>       0.00122549 </v>
   <v>       0.00122549 </v>
   <v>       0.00122549 </v>
   <v>       0.00122549 </v>
   <v>       0.00122549 </v>
   <v>       0.00122549 </v>
   <v>       0.00122549 </v>
   <v>       0.00122549 </v>
   <v>       0.00061275 </v>
   <v>       0.00122549 </v>
   <v>       0.00245098 </v>
   <v>       0.00245098 </v>
   <v>       0.00245098 </v>
   <v>       0.00245098 </v>
   <v>       0.00245098 </v>
   <v>       0.00245098 </v>
   <v>       0.00245098 </v>
   <v>       0.00245098 </v>
   <v>       0.00245098 </v>
   <v>       0.00245098 </v>
   <v>       0.00245098 </v>
   <v>       0.00122549 </v>
   <v>       0.00122549 </v>
   <v>       0.00245098 </v>
   <v>       0.00245098 </v>
   <v>       0.00245098 </v>
   <v>       0.00245098 </v>
   <v>       0.00245098 </v>
   <v>       0.00245098 </v>
   <v>       0.00245098 </v>
   <v>       0.00245098 </v>
   <v>       0.00245098 </v>
   <v>       0.00245098 </v>
   <v>       0.00245098 </v>
   <v>       0.00122549 </v>
   <v>       0.00122549 </v>
   <v>       0.00245098 </v>
   <v>       0.00245098 </v>
   <v>       0.00245098 </v>
   <v>       0.00245098 </v>
   <v>       0.00245098 </v>
   <v>       0.00245098 </v>
   <v>       0.00245098 </v>
   <v>       0.00245098 </v>
   <v>       0.00245098 </v>
   <v>       0.00245098 </v>
   <v>       0.00245098 </v>
   <v>       0.00122549 </v>
   <v>       0.00122549 </v>
   <v>       0.00245098 </v>
   <v>       0.00245098 </v>
   <v>       0.00245098 </v>
   <v>       0.00245098 </v>
   <v>       0.00245098 </v>
   <v>       0.00245098 </v>
   <v>       0.00245098 </v>
   <v>       0.00245098 </v>
   <v>       0.00245098 </v>
   <v>       0.00245098 </v>
   <v>       0.00245098 </v>
   <v>       0.00122549 </v>
   <v>       0.00122549 </v>
   <v>       0.00245098 </v>
   <v>       0.00245098 </v>
   <v>       0.00245098 </v>
   <v>       0.00245098 </v>
   <v>       0.00245098 </v>
   <v>       0.00245098 </v>
   <v>       0.00245098 </v>
   <v>       0.00245098 </v>
   <v>       0.00245098 </v>
   <v>       0.00245098 </v>
   <v>       0.00245098 </v>
   <v>       0.00122549 </v>
   <v>       0.00122549 </v>
   <v>       0.00245098 </v>
   <v>       0.00245098 </v>
   <v>       0.00245098 </v>
   <v>       0.00245098 </v>
   <v>       0.00245098 </v>
   <v>       0.00245098 </v>
   <v>       0.00245098 </v>
   <v>       0.00245098 </v>
   <v>       0.00245098 </v>
   <v>       0.00245098 </v>
   <v>       0.00245098 </v>
   <v>       0.00122549 </v>
   <v>       0.00122549 </v>
   <v>       0.00245098 </v>
   <v>       0.00245098 </v>
   <v>       0.00245098 </v>
   <v>       0.00245098 </v>
   <v>       0.00245098 </v>
   <v>       0.00245098 </v>
   <v>       0.00245098 </v>
   <v>       0.00245098 </v>
   <v>       0.00245098 </v>
   <v>       0.00245098 </v>
   <v>       0.00245098 </v>
   <v>       0.00122549 </v>
   <v>       0.00122549 </v>
   <v>       0.00245098 </v>
   <v>       0.00245098 </v>
   <v>       0.00245098 </v>
   <v>       0.00245098 </v>
   <v>       0.00245098 </v>
   <v>       0.00245098 </v>
   <v>       0.00245098 </v>
   <v>       0.00245098 </v>
   <v>       0.00245098 </v>
   <v>       0.00245098 </v>
   <v>       0.00245098 </v>
   <v>       0.00122549 </v>
   <v>       0.00061275 </v>
   <v>       0.00122549 </v>
   <v>       0.00122549 </v>
   <v>       0.00122549 </v>
   <v>       0.00122549 </v>
   <v>       0.00122549 </v>
   <v>       0.00122549 </v>
   <v>       0.00122549 </v>
   <v>       0.00122549 </v>
   <v>       0.00122549 </v>
   <v>       0.00122549 </v>
   <v>       0.00122549 </v>
   <v>       0.00061275 </v>
   <v>       0.00122549 </v>
   <v>       0.00245098 </v>
   <v>       0.00245098 </v>
   <v>       0.00245098 </v>
   <v>       0.00245098 </v>
   <v>       0.00245098 </v>
   <v>       0.00245098 </v>
   <v>       0.00245098 </v>
   <v>       0.00245098 </v>
   <v>       0.00245098 </v>
   <v>       0.00245098 </v>
   <v>       0.00245098 </v>
   <v>       0.00122549 </v>
   <v>       0.00122549 </v>
   <v>       0.00245098 </v>
   <v>       0.00245098 </v>
   <v>       0.00245098 </v>
   <v>       0.00245098 </v>
   <v>       0.00245098 </v>
   <v>       0.00245098 </v>
   <v>       0.00245098 </v>
   <v>       0.00245098 </v>
   <v>       0.00245098 </v>
   <v>       0.00245098 </v>
   <v>       0.00245098 </v>
   <v>       0.00122549 </v>
   <v>       0.00122549 </v>
   <v>       0.00245098 </v>
   <v>       0.00245098 </v>
   <v>       0.00245098 </v>
   <v>       0.00245098 </v>
   <v>       0.00245098 </v>
   <v>       0.00245098 </v>
   <v>       0.00245098 </v>
   <v>       0.00245098 </v>
   <v>       0.00245098 </v>
   <v>       0.00245098 </v>
   <v>       0.00245098 </v>
   <v>       0.00122549 </v>
   <v>       0.00122549 </v>
   <v>       0.00245098 </v>
   <v>       0.00245098 </v>
   <v>       0.00245098 </v>
   <v>       0.00245098 </v>
   <v>       0.00245098 </v>
   <v>       0.00245098 </v>
   <v>       0.00245098 </v>
   <v>       0.00245098 </v>
   <v>       0.00245098 </v>
   <v>       0.00245098 </v>
   <v>       0.00245098 </v>
   <v>       0.00122549 </v>
   <v>       0.00122549 </v>
   <v>       0.00245098 </v>
   <v>       0.00245098 </v>
   <v>       0.00245098 </v>
   <v>       0.00245098 </v>
   <v>       0.00245098 </v>
   <v>       0.00245098 </v>
   <v>       0.00245098 </v>
   <v>       0.00245098 </v>
   <v>       0.00245098 </v>
   <v>       0.00245098 </v>
   <v>       0.00245098 </v>
   <v>       0.00122549 </v>
   <v>       0.00122549 </v>
   <v>       0.00245098 </v>
   <v>       0.00245098 </v>
   <v>       0.00245098 </v>
   <v>       0.00245098 </v>
   <v>       0.00245098 </v>
   <v>       0.00245098 </v>
   <v>       0.00245098 </v>
   <v>       0.00245098 </v>
   <v>       0.00245098 </v>
   <v>       0.00245098 </v>
   <v>       0.00245098 </v>
   <v>       0.00122549 </v>
   <v>       0.00122549 </v>
   <v>       0.00245098 </v>
   <v>       0.00245098 </v>
   <v>       0.00245098 </v>
   <v>       0.00245098 </v>
   <v>       0.00245098 </v>
   <v>       0.00245098 </v>
   <v>       0.00245098 </v>
   <v>       0.00245098 </v>
   <v>       0.00245098 </v>
   <v>       0.00245098 </v>
   <v>       0.00245098 </v>
   <v>       0.00122549 </v>
   <v>       0.00122549 </v>
   <v>       0.00245098 </v>
   <v>       0.00245098 </v>
   <v>       0.00245098 </v>
   <v>       0.00245098 </v>
   <v>       0.00245098 </v>
   <v>       0.00245098 </v>
   <v>       0.00245098 </v>
   <v>       0.00245098 </v>
   <v>       0.00245098 </v>
   <v>       0.00245098 </v>
   <v>       0.00245098 </v>
   <v>       0.00122549 </v>
   <v>       0.00030637 </v>
   <v>       0.00061275 </v>
   <v>       0.00061275 </v>
   <v>       0.00061275 </v>
   <v>       0.00061275 </v>
   <v>       0.00061275 </v>
   <v>       0.00061275 </v>
   <v>       0.00061275 </v>
   <v>       0.00061275 </v>
   <v>       0.00061275 </v>
   <v>       0.00061275 </v>
   <v>       0.00061275 </v>
   <v>       0.00030637 </v>
   <v>       0.00061275 </v>
   <v>       0.00122549 </v>
   <v>       0.00122549 </v>
   <v>       0.00122549 </v>
   <v>       0.00122549 </v>
   <v>       0.00122549 </v>
   <v>       0.00122549 </v>
   <v>       0.00122549 </v>
   <v>       0.00122549 </v>
   <v>       0.00122549 </v>
   <v>       0.00122549 </v>
   <v>       0.00122549 </v>
   <v>       0.00061275 </v>
   <v>       0.00061275 </v>
   <v>       0.00122549 </v>
   <v>       0.00122549 </v>
   <v>       0.00122549 </v>
   <v>       0.00122549 </v>
   <v>       0.00122549 </v>
   <v>       0.00122549 </v>
   <v>       0.00122549 </v>
   <v>       0.00122549 </v>
   <v>       0.00122549 </v>
   <v>       0.00122549 </v>
   <v>       0.00122549 </v>
   <v>       0.00061275 </v>
   <v>       0.00061275 </v>
   <v>       0.00122549 </v>
   <v>       0.00122549 </v>
   <v>       0.00122549 </v>
   <v>       0.00122549 </v>
   <v>       0.00122549 </v>
   <v>       0.00122549 </v>
   <v>       0.00122549 </v>
   <v>       0.00122549 </v>
   <v>       0.00122549 </v>
   <v>       0.00122549 </v>
   <v>       0.00122549 </v>
   <v>       0.00061275 </v>
   <v>       0.00061275 </v>
   <v>       0.00122549 </v>
   <v>       0.00122549 </v>
   <v>       0.00122549 </v>
   <v>       0.00122549 </v>
   <v>       0.00122549 </v>
   <v>       0.00122549 </v>
   <v>       0.00122549 </v>
   <v>       0.00122549 </v>
   <v>       0.00122549 </v>
   <v>       0.00122549 </v>
   <v>       0.00122549 </v>
   <v>       0.00061275 </v>
   <v>       0.00061275 </v>
   <v>       0.00122549 </v>
   <v>       0.00122549 </v>
   <v>       0.00122549 </v>
   <v>       0.00122549 </v>
   <v>       0.00122549 </v>
   <v>       0.00122549 </v>
   <v>       0.00122549 </v>
   <v>       0.00122549 </v>
   <v>       0.00122549 </v>
   <v>       0.00122549 </v>
   <v>       0.00122549 </v>
   <v>       0.00061275 </v>
   <v>       0.00061275 </v>
   <v>       0.00122549 </v>
   <v>       0.00122549 </v>
   <v>       0.00122549 </v>
   <v>       0.00122549 </v>
   <v>       0.00122549 </v>
   <v>       0.00122549 </v>
   <v>       0.00122549 </v>
   <v>       0.00122549 </v>
   <v>       0.00122549 </v>
   <v>       0.00122549 </v>
   <v>       0.00122549 </v>
   <v>       0.00061275 </v>
   <v>       0.00061275 </v>
   <v>       0.00122549 </v>
   <v>       0.00122549 </v>
   <v>       0.00122549 </v>
   <v>       0.00122549 </v>
   <v>       0.00122549 </v>
   <v>       0.00122549 </v>
   <v>       0.00122549 </v>
   <v>       0.00122549 </v>
   <v>       0.00122549 </v>
   <v>       0.00122549 </v>
   <v>       0.00122549 </v>
   <v>       0.00061275 </v>
   <v>       0.00061275 </v>
   <v>       0.00122549 </v>
   <v>       0.00122549 </v>
   <v>       0.00122549 </v>
   <v>       0.00122549 </v>
   <v>       0.00122549 </v>
   <v>       0.00122549 </v>
   <v>       0.00122549 </v>
   <v>       0.00122549 </v>
   <v>       0.00122549 </v>
   <v>       0.00122549 </v>
   <v>       0.00122549 </v>
   <v>       0.00061275 </v>
  </varray>
 </kpoints>
 <parameters>
  <separator name="general" >
   <i type="string" name="SYSTEM">unknown system</i>
   <i type="logical" name="LCOMPAT"> F  </i>
  </separator>
  <separator name="electronic" >
   <i type="string" name="PREC">accura</i>
   <i name="ENMAX">    500.00000000</i>
   <i name="ENAUG">    412.49600000</i>
   <i name="EDIFF">      0.00000100</i>
   <i type="int" name="IALGO">    68</i>
   <i type="int" name="IWAVPR">    11</i>
   <i type="int" name="NBANDS">    40</i>
   <i name="NELECT">     66.00000000</i>
   <i type="int" name="TURBO">     0</i>
   <i type="int" name="IRESTART">     0</i>
   <i type="int" name="NREBOOT">     0</i>
   <i type="int" name="NMIN">     0</i>
   <i name="EREF">      0.00000000</i>
   <separator name="electronic smearing" >
    <i type="int" name="ISMEAR">     1</i>
    <i name="SIGMA">      0.30000000</i>
    <i name="KSPACING">      0.50000000</i>
    <i type="logical" name="KGAMMA"> T  </i>
   </separator>
   <separator name="electronic projectors" >
    <i type="logical" name="LREAL"> F  </i>
    <v name="ROPT">      0.00000000      0.00000000</v>
    <i type="int" name="LMAXPAW">  -100</i>
    <i type="int" name="LMAXMIX">     2</i>
    <i type="logical" name="NLSPLINE"> F  </i>
   </separator>
   <separator name="electronic startup" >
    <i type="int" name="ISTART">     0</i>
    <i type="int" name="ICHARG">     2</i>
    <i type="int" name="INIWAV">     1</i>
   </separator>
   <separator name="electronic spin" >
    <i type="int" name="ISPIN">     1</i>
    <i type="logical" name="LNONCOLLINEAR"> F  </i>
    <v name="MAGMOM">      1.00000000      1.00000000      1.00000000      1.00000000      1.00000000      1.00000000</v>
    <i name="NUPDOWN">     -1.00000000</i>
    <i type="logical" name="LSORBIT"> F  </i>
    <v name="SAXIS">      0.00000000      0.00000000      1.00000000</v>
    <i type="logical" name="LSPIRAL"> F  </i>
    <v name="QSPIRAL">      0.00000000      0.00000000      0.00000000</v>
    <i type="logical" name="LZEROZ"> F  </i>
   </separator>
   <separator name="electronic exchange-correlation" >
    <i type="logical" name="LASPH"> F  </i>
    <i type="logical" name="LMETAGGA"> F  </i>
   </separator>
   <separator name="electronic convergence" >
    <i type="int" name="NELM">   100</i>
    <i type="int" name="NELMDL">     0</i>
    <i type="int" name="NELMIN">     4</i>
    <i name="ENINI">    500.00000000</i>
    <separator name="electronic convergence detail" >
     <i type="logical" name="LDIAG"> T  </i>
     <i type="logical" name="LSUBROT"> F  </i>
     <i name="WEIMIN">      0.00100000</i>
     <i name="EBREAK">      0.00000001</i>
     <i name="DEPER">      0.30000000</i>
     <i type="int" name="NRMM">     4</i>
     <i name="TIME">      0.40000000</i>
    </separator>
   </separator>
   <separator name="electronic mixer" >
    <i name="AMIX">      0.40000000</i>
    <i name="BMIX">      1.00000000</i>
    <i name="AMIN">      0.10000000</i>
    <i name="AMIX_MAG">      1.60000000</i>
    <i name="BMIX_MAG">      1.00000000</i>
    <separator name="electronic mixer details" >
     <i type="int" name="IMIX">     4</i>
     <i type="int" name="MAXMIX">   -45</i>
     <i name="WC">    100.00000000</i>
     <i type="int" name="INIMIX">     1</i>
     <i type="int" name="MIXPRE">     1</i>
     <i type="int" name="MREMOVE">     5</i>
    </separator>
   </separator>
   <separator name="electronic dipolcorrection" >
    <i type="logical" name="LDIPOL"> F  </i>
    <i type="logical" name="LMONO"> F  </i>
    <i type="int" name="IDIPOL">     0</i>
    <i name="EPSILON">      1.00000000</i>
    <v name="DIPOL">   -100.00000000   -100.00000000   -100.00000000</v>
    <i name="EFIELD">      0.00000000</i>
   </separator>
  </separator>
  <separator name="grids" >
   <i type="int" name="NGX">    24</i>
   <i type="int" name="NGY">    30</i>
   <i type="int" name="NGZ">    64</i>
   <i type="int" name="NGXF">    48</i>
   <i type="int" name="NGYF">    60</i>
   <i type="int" name="NGZF">   128</i>
   <i type="logical" name="ADDGRID"> T  </i>
  </separator>
  <separator name="ionic" >
   <i type="int" name="NSW">    30</i>
   <i type="int" name="IBRION">     2</i>
   <i type="int" name="ISIF">     3</i>
   <i name="PSTRESS">      0.00000000</i>
   <i name="EDIFFG">     -0.02000000</i>
   <i type="int" name="NFREE">     1</i>
   <i name="POTIM">      0.50000000</i>
   <i name="SMASS">     -3.00000000</i>
   <i name="SCALEE">      1.00000000</i>
  </separator>
  <separator name="ionic md" >
   <i name="TEBEG">      0.00010000</i>
   <i name="TEEND">      0.00010000</i>
   <i type="int" name="NBLOCK">     1</i>
   <i type="int" name="KBLOCK">    30</i>
   <i type="int" name="NPACO">   256</i>
   <i name="APACO">     16.00000000</i>
  </separator>
  <separator name="symmetry" >
   <i type="int" name="ISYM">     2</i>
   <i name="SYMPREC">      0.00001000</i>
  </separator>
  <separator name="dos" >
   <i type="logical" name="LORBIT"> F  </i>
   <v name="RWIGS">     -1.00000000     -1.00000000</v>
   <i type="int" name="NEDOS">   301</i>
   <i name="EMIN">     10.00000000</i>
   <i name="EMAX">    -10.00000000</i>
   <i name="EFERMI">      0.00000000</i>
  </separator>
  <separator name="writing" >
   <i type="int" name="NWRITE">     2</i>
   <i type="logical" name="LWAVE"> F  </i>
   <i type="logical" name="LCHARG"> F  </i>
   <i type="logical" name="LPARD"> F  </i>
   <i type="logical" name="LVTOT"> F  </i>
   <i type="logical" name="LVHAR"> F  </i>
   <i type="logical" name="LELF"> F  </i>
   <i type="logical" name="LOPTICS"> F  </i>
   <v name="STM">      0.00000000      0.00000000      0.00000000      0.00000000      0.00000000      0.00000000      0.00000000</v>
  </separator>
  <separator name="performance" >
   <i type="int" name="NPAR">     4</i>
   <i type="int" name="NSIM">     4</i>
   <i type="int" name="NBLK">    -1</i>
   <i type="logical" name="LPLANE"> T  </i>
   <i type="logical" name="LSCALAPACK"> T  </i>
   <i type="logical" name="LSCAAWARE"> F  </i>
   <i type="logical" name="LSCALU"> F  </i>
   <i type="logical" name="LASYNC"> F  </i>
   <i type="logical" name="LORBITALREAL"> F  </i>
  </separator>
  <separator name="miscellaneous" >
   <i type="int" name="IDIOT">     3</i>
   <i type="logical" name="LMUSIC"> F  </i>
   <v name="POMASS">    107.86800000    196.96600000</v>
   <v name="DARWINR">      0.00000000      0.00000000</v>
   <v name="DARWINV">      1.00000000      1.00000000</v>
   <i type="logical" name="LCORR"> T  </i>
  </separator>
  <i type="logical" name="GGA_COMPAT"> T  </i>
  <i type="logical" name="LBERRY"> F  </i>
  <i type="int" name="ICORELEVEL">     0</i>
  <i type="logical" name="LDAU"> F  </i>
  <i type="int" name="I_CONSTRAINED_M">     0</i>
  <separator name="electronic exchange-correlation" >
   <i type="string" name="GGA">--</i>
   <i type="int" name="VOSKOWN">     0</i>
   <i type="logical" name="LHFCALC"> F  </i>
   <i type="string" name="PRECFOCK"></i>
   <i type="logical" name="LSYMGRAD"> F  </i>
   <i type="logical" name="LHFONE"> F  </i>
   <i type="logical" name="LRHFCALC"> F  </i>
   <i type="logical" name="LTHOMAS"> F  </i>
   <i type="logical" name="LMODELHF"> F  </i>
   <i name="ENCUT4O">     -1.00000000</i>
   <i type="int" name="EXXOEP">     0</i>
   <i type="int" name="FOURORBIT">     0</i>
   <i name="AEXX">      0.00000000</i>
   <i name="HFALPHA">      0.00000000</i>
   <i name="MCALPHA">      0.00000000</i>
   <i name="ALDAX">      1.00000000</i>
   <i name="AGGAX">      1.00000000</i>
   <i name="ALDAC">      1.00000000</i>
   <i name="AGGAC">      1.00000000</i>
   <i type="int" name="NKREDX">     1</i>
   <i type="int" name="NKREDY">     1</i>
   <i type="int" name="NKREDZ">     1</i>
   <i type="logical" name="SHIFTRED"> F  </i>
   <i type="logical" name="ODDONLY"> F  </i>
   <i type="logical" name="EVENONLY"> F  </i>
   <i type="int" name="LMAXFOCK">     0</i>
   <i type="int" name="NMAXFOCKAE">     0</i>
   <i type="logical" name="LFOCKAEDFT"> F  </i>
   <i name="HFSCREEN">      0.00000000</i>
   <i name="HFSCREENC">      0.00000000</i>
   <i type="int" name="NBANDSGWLOW">     0</i>
  </separator>
  <separator name="vdW DFT" >
   <i type="logical" name="LUSE_VDW"> F  </i>
   <i name="Zab_VDW">     -0.84910000</i>
   <i name="PARAM1">      0.12340000</i>
   <i name="PARAM2">      1.00000000</i>
   <i name="PARAM3">      0.00000000</i>
  </separator>
  <separator name="model GW" >
   <i type="int" name="MODEL_GW">     0</i>
   <i name="MODEL_EPS0">     10.69047393</i>
   <i name="MODEL_ALPHA">      1.00000000</i>
  </separator>
  <separator name="linear response parameters" >
   <i type="logical" name="LEPSILON"> F  </i>
   <i type="logical" name="LRPA"> F  </i>
   <i type="logical" name="LNABLA"> F  </i>
   <i type="logical" name="LVEL"> F  </i>
   <i type="int" name="KINTER">     0</i>
   <i name="CSHIFT">      0.10000000</i>
   <i name="OMEGAMAX">     -1.00000000</i>
   <i name="DEG_THRESHOLD">      0.00200000</i>
  </separator>
  <separator name="orbital magnetization" >
   <i type="logical" name="NUCIND"> F  </i>
   <v name="MAGPOS">      0.00000000      0.00000000      0.00000000</v>
   <i type="logical" name="LNICSALL"> T  </i>
   <i type="logical" name="ORBITALMAG"> F  </i>
   <i type="logical" name="LMAGBLOCH"> F  </i>
   <i type="logical" name="LCHIMAG"> F  </i>
   <i type="logical" name="LGAUGE"> T  </i>
   <i type="int" name="MAGATOM">     0</i>
   <v name="MAGDIPOL">      0.00000000      0.00000000      0.00000000</v>
   <v name="AVECCONST">      0.00000000      0.00000000      0.00000000</v>
  </separator>
  <separator name="response functions" >
   <i type="logical" name="LADDER"> F  </i>
   <i type="logical" name="LFXC"> F  </i>
   <i type="logical" name="LHARTREE"> T  </i>
   <i type="int" name="IBSE">     0</i>
   <i type="logical" name="LTCTE"> F  </i>
   <i type="logical" name="LTETE"> F  </i>
   <i type="logical" name="LTRIPLET"> F  </i>
   <i type="logical" name="LFXCEPS"> F  </i>
   <i type="logical" name="LFXHEG"> F  </i>
   <i type="logical" name="L2ORDER"> F  </i>
   <i type="logical" name="LUSEW"> F  </i>
   <i name="ENCUTGW">     -2.00000000</i>
   <i name="ENCUTGWSOFT">     -2.00000000</i>
   <i name="ENCUTLF">     -1.00000000</i>
   <i type="int" name="LMAXMP2">    -1</i>
   <i name="SCISSOR">      0.00000000</i>
   <i type="int" name="NOMEGA">     0</i>
   <i type="int" name="NOMEGAR">     0</i>
   <i type="int" name="NBANDSGW">    -1</i>
   <i type="int" name="NBANDSO">    -1</i>
   <i type="int" name="NBANDSV">    -1</i>
   <i type="int" name="NELM">   100</i>
   <i type="int" name="DIM">     3</i>
   <i type="int" name="ANTIRES">     0</i>
   <i name="OMEGAMAX">    -30.00000000</i>
   <i name="OMEGAMIN">    -30.00000000</i>
   <i name="OMEGATL">   -200.00000000</i>
   <i type="int" name="OMEGAGRID">     0</i>
   <i name="CSHIFT">     -0.10000000</i>
   <i type="logical" name="SELFENERGY"> F  </i>
   <i type="logical" name="LSPECTRAL"> F  </i>
   <i type="logical" name="ODDONLYGW"> F  </i>
   <i type="logical" name="EVENONLYGW"> F  </i>
   <i type="int" name="NKREDLFX">     1</i>
   <i type="int" name="NKREDLFY">     1</i>
   <i type="int" name="NKREDLFZ">     1</i>
   <i type="int" name="MAXMEM">  1800</i>
   <i type="int" name="TELESCOPE">     0</i>
   <i type="int" name="TAUPAR">     1</i>
  </separator>
  <separator name="External order field" >
   <i name="OFIELD_KAPPA">      0.00000000</i>
   <v name="OFIELD_K">      0.00000000      0.00000000      0.00000000</v>
   <i name="OFIELD_Q6_NEAR">      0.00000000</i>
   <i name="OFIELD_Q6_FAR">      0.00000000</i>
   <i name="OFIELD_A">      0.00000000</i>
  </separator>
 </parameters>
 <atominfo>
  <atoms>       6 </atoms>
  <types>       2 </types>
  <array name="atoms" >
   <dimension dim="1">ion</dimension>
   <field type="string">element</field>
   <field type="int">atomtype</field>
   <set>
    <rc><c>Ag</c><c>   1</c></rc>
    <rc><c>Ag</c><c>   1</c></rc>
    <rc><c>Ag</c><c>   1</c></rc>
    <rc><c>Ag</c><c>   1</c></rc>
    <rc><c>Au</c><c>   2</c></rc>
    <rc><c>Au</c><c>   2</c></rc>
   </set>
  </array>
  <array name="atomtypes" >
   <dimension dim="1">type</dimension>
   <field type="int">atomspertype</field>
   <field type="string">element</field>
   <field>mass</field>
   <field>valence</field>
   <field type="string">pseudopotential</field>
   <set>
    <rc><c>   4</c><c>Ag</c><c>    107.86800000</c><c>     11.00000000</c><c>  PAW_PBE Ag 02Apr2005                  </c></rc>
    <rc><c>   2</c><c>Au</c><c>    196.96600000</c><c>     11.00000000</c><c>  PAW_PBE Au 04Oct2007                  </c></rc>
   </set>
  </array>
 </atominfo>
 <structure name="initialpos" >
  <crystal>
   <varray name="basis" >
    <v>       0.00000000       2.06196186       2.06196186 </v>
    <v>       4.16864036       0.00000000       0.00000000 </v>
    <v>       0.00000000       6.21858974      -6.21858974 </v>
   </varray>
   <i name="volume">    106.90473927 </i>
   <varray name="rec_basis" >
    <v>       0.00000000       0.24248751       0.24248751 </v>
    <v>       0.23988637       0.00000000       0.00000000 </v>
    <v>       0.00000000       0.08040408      -0.08040408 </v>
   </varray>
  </crystal>
  <varray name="positions" >
   <v>       0.50000000       0.50000000       0.16666667 </v>
   <v>       0.50000000       0.50000000       0.50036786 </v>
   <v>       0.00000000       0.00000000       0.66666667 </v>
   <v>       0.50000000       0.50000000       0.83296547 </v>
   <v>       0.00000000       0.00000000       0.99868666 </v>
   <v>       0.00000000       0.00000000       0.33464668 </v>
  </varray>
 </structure>
 <calculation>
  <scstep>
   <time name="dav">    8.35    8.35</time>
   <time name="total">    8.40    8.42</time>
   <energy>
    <i name="alphaZ">    321.70160546 </i>
    <i name="ewald">  -5780.18122848 </i>
    <i name="hartreedc">  -1096.80100189 </i>
    <i name="XCdc">    -11.12755310 </i>
    <i name="pawpsdc">   5762.04360401 </i>
    <i name="pawaedc">  -5531.41736657 </i>
    <i name="eentropy">      0.00117354 </i>
    <i name="bandstr">    783.92686928 </i>
    <i name="atom">   6001.21416313 </i>
    <i name="e_fr_energy">    449.36026539 </i>
    <i name="e_wo_entrp">    449.35909186 </i>
    <i name="e_0_energy">    449.35987422 </i>
   </energy>
  </scstep>
  <scstep>
   <time name="dav">    8.71    8.72</time>
   <time name="total">    8.74    8.76</time>
   <energy>
    <i name="e_fr_energy">     -7.36858459 </i>
    <i name="e_wo_entrp">     -7.36840862 </i>
    <i name="e_0_energy">     -7.36852593 </i>
   </energy>
  </scstep>
  <scstep>
   <time name="dav">    9.30    9.31</time>
   <time name="total">    9.34    9.36</time>
   <energy>
    <i name="e_fr_energy">    -19.03001815 </i>
    <i name="e_wo_entrp">    -19.03070122 </i>
    <i name="e_0_energy">    -19.03024584 </i>
   </energy>
  </scstep>
  <scstep>
   <time name="dav">    8.95    8.96</time>
   <time name="total">    8.99    9.01</time>
   <energy>
    <i name="e_fr_energy">    -19.11424426 </i>
    <i name="e_wo_entrp">    -19.11496994 </i>
    <i name="e_0_energy">    -19.11448615 </i>
   </energy>
  </scstep>
  <scstep>
   <time name="dav">    9.42    9.42</time>
   <time name="total">    9.90    9.92</time>
   <energy>
    <i name="e_fr_energy">    -19.11496795 </i>
    <i name="e_wo_entrp">    -19.11569366 </i>
    <i name="e_0_energy">    -19.11520986 </i>
   </energy>
  </scstep>
  <scstep>
   <time name="diag">    2.15    2.15</time>
   <time name="diis">    3.68    3.68</time>
   <time name="orth">    0.38    0.38</time>
   <time name="total">    6.72    6.73</time>
   <energy>
    <i name="e_fr_energy">    -17.66283883 </i>
    <i name="e_wo_entrp">    -17.66436858 </i>
    <i name="e_0_energy">    -17.66334875 </i>
   </energy>
  </scstep>
  <scstep>
   <time name="diag">    2.14    2.14</time>
   <time name="diis">    3.67    3.67</time>
   <time name="orth">    0.38    0.38</time>
   <time name="total">    6.71    6.74</time>
   <energy>
    <i name="e_fr_energy">    -17.60622939 </i>
    <i name="e_wo_entrp">    -17.60775434 </i>
    <i name="e_0_energy">    -17.60673770 </i>
   </energy>
  </scstep>
  <scstep>
   <time name="diag">    2.21    2.21</time>
   <time name="diis">    3.67    3.68</time>
   <time name="orth">    0.38    0.38</time>
   <time name="total">    6.78    6.80</time>
   <energy>
    <i name="e_fr_energy">    -17.59334802 </i>
    <i name="e_wo_entrp">    -17.59494461 </i>
    <i name="e_0_energy">    -17.59388022 </i>
   </energy>
  </scstep>
  <scstep>
   <time name="diag">    2.14    2.15</time>
   <time name="diis">    3.67    3.68</time>
   <time name="orth">    0.38    0.38</time>
   <time name="total">    6.72    6.73</time>
   <energy>
    <i name="e_fr_energy">    -17.59297603 </i>
    <i name="e_wo_entrp">    -17.59450982 </i>
    <i name="e_0_energy">    -17.59348729 </i>
   </energy>
  </scstep>
  <scstep>
   <time name="diag">    2.14    2.14</time>
   <time name="diis">    3.67    3.67</time>
   <time name="orth">    0.38    0.38</time>
   <time name="total">    6.70    6.72</time>
   <energy>
    <i name="e_fr_energy">    -17.59298311 </i>
    <i name="e_wo_entrp">    -17.59452114 </i>
    <i name="e_0_energy">    -17.59349578 </i>
   </energy>
  </scstep>
  <scstep>
   <time name="diag">    2.14    2.14</time>
   <time name="diis">    3.67    3.68</time>
   <time name="orth">    0.38    0.38</time>
   <time name="total">    6.71    6.72</time>
   <energy>
    <i name="e_fr_energy">    -17.59299320 </i>
    <i name="e_wo_entrp">    -17.59452917 </i>
    <i name="e_0_energy">    -17.59350519 </i>
   </energy>
  </scstep>
  <scstep>
   <time name="diag">    2.14    2.14</time>
   <time name="diis">    2.23    2.23</time>
   <time name="orth">    0.43    0.43</time>
   <time name="total">    5.32    5.33</time>
   <energy>
    <i name="e_fr_energy">    -17.59299126 </i>
    <i name="e_wo_entrp">    -17.59452787 </i>
    <i name="e_0_energy">    -17.59350346 </i>
   </energy>
  </scstep>
  <scstep>
   <time name="diag">    2.15    2.15</time>
   <time name="diis">    2.19    2.19</time>
   <time name="orth">    0.38    0.38</time>
   <time name="total">    4.78    4.80</time>
   <energy>
    <i name="alphaZ">    321.70160546 </i>
    <i name="ewald">  -5780.18122848 </i>
    <i name="hartreedc">  -1025.75456846 </i>
    <i name="XCdc">    -13.91950476 </i>
    <i name="pawpsdc">   6446.56341580 </i>
    <i name="pawaedc">  -6230.56292178 </i>
    <i name="eentropy">      0.00153661 </i>
    <i name="bandstr">    263.34451156 </i>
    <i name="atom">   6001.21416313 </i>
    <i name="e_fr_energy">    -17.59299091 </i>
    <i name="e_wo_entrp">    -17.59452752 </i>
    <i name="e_0_energy">    -17.59350312 </i>
   </energy>
  </scstep>
  <structure>
   <crystal>
    <varray name="basis" >
     <v>       0.00000000       2.06196186       2.06196186 </v>
     <v>       4.16864036       0.00000000       0.00000000 </v>
     <v>       0.00000000       6.21858974      -6.21858974 </v>
    </varray>
    <i name="volume">    106.90473927 </i>
    <varray name="rec_basis" >
     <v>       0.00000000       0.24248751       0.24248751 </v>
     <v>       0.23988637       0.00000000       0.00000000 </v>
     <v>       0.00000000       0.08040408      -0.08040408 </v>
    </varray>
   </crystal>
   <varray name="positions" >
    <v>       0.50000000       0.50000000       0.16666667 </v>
    <v>       0.50000000       0.50000000       0.50036786 </v>
    <v>       0.00000000       0.00000000       0.66666667 </v>
    <v>       0.50000000       0.50000000       0.83296547 </v>
    <v>       0.00000000       0.00000000       0.99868666 </v>
    <v>       0.00000000       0.00000000       0.33464668 </v>
   </varray>
  </structure>
  <varray name="forces" >
   <v>       0.00000000       0.00000000       0.00000000 </v>
   <v>       0.00000000       0.00558321      -0.00558321 </v>
   <v>       0.00000000       0.00000000       0.00000000 </v>
   <v>       0.00000000      -0.00558321       0.00558321 </v>
   <v>       0.00000000       0.00597382      -0.00597382 </v>
   <v>       0.00000000      -0.00597382       0.00597382 </v>
  </varray>
  <varray name="stress" >
   <v>       0.48131337       0.00000000       0.00000000 </v>
   <v>       0.00000000      -0.79038342       1.01565513 </v>
   <v>       0.00000000       1.01565513      -0.79038342 </v>
  </varray>
  <energy>
   <i name="e_fr_energy">    -17.59299091 </i>
   <i name="e_wo_entrp">    -17.59350312 </i>
   <i name="e_0_energy">      0.00153661 </i>
  </energy>
  <time name="totalsc">  101.03  101.31</time>
  <eigenvalues>
   <array>
    <dimension dim="1">band</dimension>
    <dimension dim="2">kpoint</dimension>
    <dimension dim="3">spin</dimension>
    <field>eigene</field>
    <field>occ</field>
    <set>
     <set comment="spin 1">
      <set comment="kpoint 1">
       <r>   -0.0980    1.0000 </r>
       <r>    1.5941    1.0000 </r>
       <r>    1.8335    1.0000 </r>
       <r>    1.9943    1.0000 </r>
       <r>    2.2344    1.0000 </r>
       <r>    2.5071    1.0000 </r>
       <r>    2.5580    1.0000 </r>
       <r>    3.1315    1.0000 </r>
       <r>    3.1439    1.0000 </r>
       <r>    3.1596    1.0000 </r>
       <r>    3.1613    1.0000 </r>
       <r>    3.4994    1.0000 </r>
       <r>    3.5425    1.0000 </r>
       <r>    3.5637    1.0000 </r>
       <r>    3.7168    1.0000 </r>
       <r>    3.7248    1.0000 </r>
       <r>    3.7974    1.0000 </r>
       <r>    3.8379    1.0000 </r>
       <r>    4.0740    1.0000 </r>
       <r>    4.1299    1.0000 </r>
       <r>    4.1634    1.0000 </r>
       <r>    4.2184    1.0000 </r>
       <r>    4.4336    1.0000 </r>
       <r>    4.5973    1.0000 </r>
       <r>    4.6622    1.0000 </r>
       <r>    4.8941    1.0000 </r>
       <r>    4.9922    1.0000 </r>
       <r>    5.3563    1.0000 </r>
       <r>    5.4493    1.0000 </r>
       <r>    5.5457    1.0000 </r>
       <r>    5.6388    1.0000 </r>
       <r>    5.7503    1.0000 </r>
       <r>    5.8456    1.0000 </r>
       <r>    9.5298    0.0000 </r>
       <r>   10.9855    0.0000 </r>
       <r>   11.0107    0.0000 </r>
       <r>   13.6846    0.0000 </r>
       <r>   14.0597    0.0000 </r>
       <r>   14.2419    0.0000 </r>
       <r>   15.0992    0.0000 </r>
      </set>
      <set comment="kpoint 2">
       <r>   -0.0603    1.0000 </r>
       <r>    1.6264    1.0000 </r>
       <r>    1.8565    1.0000 </r>
       <r>    2.0116    1.0000 </r>
       <r>    2.2570    1.0000 </r>
       <r>    2.5331    1.0000 </r>
       <r>    2.5830    1.0000 </r>
       <r>    3.1048    1.0000 </r>
       <r>    3.1291    1.0000 </r>
       <r>    3.1359    1.0000 </r>
       <r>    3.1517    1.0000 </r>
       <r>    3.5125    1.0000 </r>
       <r>    3.5493    1.0000 </r>
       <r>    3.5544    1.0000 </r>
       <r>    3.6871    1.0000 </r>
       <r>    3.6979    1.0000 </r>
       <r>    3.7671    1.0000 </r>
       <r>    3.7812    1.0000 </r>
       <r>    4.1101    1.0000 </r>
       <r>    4.1597    1.0000 </r>
       <r>    4.2148    1.0000 </r>
       <r>    4.2544    1.0000 </r>
       <r>    4.4357    1.0000 </r>
       <r>    4.6014    1.0000 </r>
       <r>    4.6534    1.0000 </r>
       <r>    4.8933    1.0000 </r>
       <r>    5.0227    1.0000 </r>
       <r>    5.3545    1.0000 </r>
       <r>    5.4629    1.0000 </r>
       <r>    5.5438    1.0000 </r>
       <r>    5.6162    1.0000 </r>
       <r>    5.7464    1.0000 </r>
       <r>    5.7766    1.0000 </r>
       <r>    9.6441    0.0000 </r>
       <r>   11.0235    0.0000 </r>
       <r>   11.0514    0.0000 </r>
       <r>   13.7252    0.0000 </r>
       <r>   14.0925    0.0000 </r>
       <r>   14.2356    0.0000 </r>
       <r>   15.1079    0.0000 </r>
      </set>
      <set comment="kpoint 3">
       <r>    0.0518    1.0000 </r>
       <r>    1.7169    1.0000 </r>
       <r>    1.9187    1.0000 </r>
       <r>    2.0679    1.0000 </r>
       <r>    2.3167    1.0000 </r>
       <r>    2.6050    1.0000 </r>
       <r>    2.6517    1.0000 </r>
       <r>    3.0318    1.0000 </r>
       <r>    3.0484    1.0000 </r>
       <r>    3.1171    1.0000 </r>
       <r>    3.1285    1.0000 </r>
       <r>    3.5252    1.0000 </r>
[...]
       <r>    4.4882    1.0000 </r>
       <r>    4.5942    1.0000 </r>
       <r>    4.7325    1.0000 </r>
       <r>    5.1338    1.0000 </r>
       <r>    5.2060    1.0000 </r>
       <r>    5.2793    1.0000 </r>
       <r>    5.3319    1.0000 </r>
       <r>    5.7254    1.0000 </r>
       <r>    6.0732    1.0000 </r>
       <r>    7.9330    0.9377 </r>
       <r>    8.3273    0.0500 </r>
       <r>    8.7697   -0.0048 </r>
       <r>    8.9071   -0.0007 </r>
       <r>   11.6876    0.0000 </r>
       <r>   11.8225    0.0000 </r>
       <r>   12.7048    0.0000 </r>
       <r>   12.8694    0.0000 </r>
       <r>   12.9081    0.0000 </r>
       <r>   13.2438    0.0000 </r>
      </set>
      <set comment="kpoint 584">
       <r>    1.9823    1.0000 </r>
       <r>    2.1802    1.0000 </r>
       <r>    2.2102    1.0000 </r>
       <r>    2.2653    1.0000 </r>
       <r>    2.6038    1.0000 </r>
       <r>    2.6476    1.0000 </r>
       <r>    3.1108    1.0000 </r>
       <r>    3.1175    1.0000 </r>
       <r>    3.2774    1.0000 </r>
       <r>    3.3054    1.0000 </r>
       <r>    3.3058    1.0000 </r>
       <r>    3.3446    1.0000 </r>
       <r>    3.4005    1.0000 </r>
       <r>    3.4037    1.0000 </r>
       <r>    3.7423    1.0000 </r>
       <r>    3.7696    1.0000 </r>
       <r>    3.7917    1.0000 </r>
       <r>    4.0392    1.0000 </r>
       <r>    4.3702    1.0000 </r>
       <r>    4.4579    1.0000 </r>
       <r>    4.4944    1.0000 </r>
       <r>    4.5070    1.0000 </r>
       <r>    4.6866    1.0000 </r>
       <r>    4.7564    1.0000 </r>
       <r>    5.1991    1.0000 </r>
       <r>    5.3061    1.0000 </r>
       <r>    5.3415    1.0000 </r>
       <r>    5.3838    1.0000 </r>
       <r>    5.8625    1.0000 </r>
       <r>    6.1968    1.0000 </r>
       <r>    8.5719   -0.0282 </r>
       <r>    8.8959   -0.0008 </r>
       <r>    9.0967    0.0000 </r>
       <r>    9.2950    0.0000 </r>
       <r>   10.9396    0.0000 </r>
       <r>   11.2667    0.0000 </r>
       <r>   12.1665    0.0000 </r>
       <r>   12.6339    0.0000 </r>
       <r>   13.0442    0.0000 </r>
       <r>   13.3789    0.0000 </r>
      </set>
      <set comment="kpoint 585">
       <r>    1.9720    1.0000 </r>
       <r>    2.1682    1.0000 </r>
       <r>    2.1935    1.0000 </r>
       <r>    2.2503    1.0000 </r>
       <r>    2.5864    1.0000 </r>
       <r>    2.6335    1.0000 </r>
       <r>    3.1143    1.0000 </r>
       <r>    3.1153    1.0000 </r>
       <r>    3.2712    1.0000 </r>
       <r>    3.2982    1.0000 </r>
       <r>    3.3010    1.0000 </r>
       <r>    3.3380    1.0000 </r>
       <r>    3.4023    1.0000 </r>
       <r>    3.4169    1.0000 </r>
       <r>    3.7385    1.0000 </r>
       <r>    3.7608    1.0000 </r>
       <r>    3.7881    1.0000 </r>
       <r>    4.0370    1.0000 </r>
       <r>    4.3913    1.0000 </r>
       <r>    4.4826    1.0000 </r>
       <r>    4.4877    1.0000 </r>
       <r>    4.5288    1.0000 </r>
       <r>    4.7118    1.0000 </r>
       <r>    4.7652    1.0000 </r>
       <r>    5.2236    1.0000 </r>
       <r>    5.3421    1.0000 </r>
       <r>    5.3641    1.0000 </r>
       <r>    5.4040    1.0000 </r>
       <r>    5.9074    1.0000 </r>
       <r>    6.2407    1.0000 </r>
       <r>    9.0573   -0.0001 </r>
       <r>    9.1229    0.0000 </r>
       <r>    9.3234    0.0000 </r>
       <r>    9.3354    0.0000 </r>
       <r>   10.4930    0.0000 </r>
       <r>   10.9859    0.0000 </r>
       <r>   11.8755    0.0000 </r>
       <r>   12.3954    0.0000 </r>
       <r>   13.5726    0.0000 </r>
       <r>   13.5892    0.0000 </r>
      </set>
     </set>
    </set>
   </array>
  </eigenvalues>
  <separator name="orbital magnetization" >
   <v name="MAGDIPOLOUT">      0.00000000      0.00000000      0.00000000</v>
  </separator>
  <dos>
   <i name="efermi">      8.12543088 </i>
   <total>
    <array>
     <dimension dim="1">gridpoints</dimension>
     <dimension dim="2">spin</dimension>
     <field>energy</field>
     <field>total</field>
     <field>integrated</field>
     <set>
      <set comment="spin 1">
       <r>    -3.0980     0.0000     0.0000 </r>
       <r>    -3.0162     0.0000     0.0000 </r>
       <r>    -2.9343     0.0000     0.0000 </r>
       <r>    -2.8524     0.0000     0.0000 </r>
       <r>    -2.7705     0.0000     0.0000 </r>
       <r>    -2.6886     0.0000     0.0000 </r>
       <r>    -2.6067     0.0000     0.0000 </r>
       <r>    -2.5248     0.0000     0.0000 </r>
       <r>    -2.4429     0.0000     0.0000 </r>
       <r>    -2.3611     0.0000     0.0000 </r>
       <r>    -2.2792     0.0000     0.0000 </r>
       <r>    -2.1973     0.0000     0.0000 </r>
       <r>    -2.1154     0.0000     0.0000 </r>
       <r>    -2.0335     0.0000     0.0000 </r>
       <r>    -1.9516     0.0000     0.0000 </r>
       <r>    -1.8697     0.0000     0.0000 </r>
       <r>    -1.7878     0.0000     0.0000 </r>
       <r>    -1.7059     0.0000     0.0000 </r>
       <r>    -1.6241     0.0000     0.0000 </r>
       <r>    -1.5422     0.0000     0.0000 </r>
       <r>    -1.4603     0.0000     0.0000 </r>
       <r>    -1.3784     0.0000     0.0000 </r>
       <r>    -1.2965     0.0000     0.0000 </r>
       <r>    -1.2146     0.0000     0.0000 </r>
       <r>    -1.1327     0.0000     0.0000 </r>
       <r>    -1.0508     0.0000     0.0000 </r>
       <r>    -0.9690     0.0000     0.0000 </r>
       <r>    -0.8871     0.0000     0.0000 </r>
       <r>    -0.8052    -0.0002     0.0000 </r>
       <r>    -0.7233    -0.0006    -0.0001 </r>
       <r>    -0.6414    -0.0016    -0.0002 </r>
       <r>    -0.5595    -0.0036    -0.0005 </r>
       <r>    -0.4776    -0.0067    -0.0010 </r>
       <r>    -0.3957    -0.0097    -0.0018 </r>
       <r>    -0.3138    -0.0087    -0.0025 </r>
       <r>    -0.2320     0.0025    -0.0023 </r>
       <r>    -0.1501     0.0312     0.0002 </r>
       <r>    -0.0682     0.0815     0.0069 </r>
       <r>     0.0137     0.1512     0.0193 </r>
       <r>     0.0956     0.2317     0.0383 </r>
       <r>     0.1775     0.3110     0.0637 </r>
       <r>     0.2594     0.3780     0.0947 </r>
       <r>     0.3413     0.4267     0.1296 </r>
       <r>     0.4231     0.4568     0.1670 </r>
       <r>     0.5050     0.4736     0.2058 </r>
       <r>     0.5869     0.4861     0.2456 </r>
       <r>     0.6688     0.5036     0.2869 </r>
       <r>     0.7507     0.5330     0.3305 </r>
       <r>     0.8326     0.5762     0.3777 </r>
       <r>     0.9145     0.6311     0.4294 </r>
       <r>     0.9964     0.6951     0.4863 </r>
       <r>     1.0783     0.7695     0.5493 </r>
       <r>     1.1601     0.8615     0.6198 </r>
       <r>     1.2420     0.9828     0.7003 </r>
       <r>     1.3239     1.1431     0.7939 </r>
       <r>     1.4058     1.3420     0.9038 </r>
       <r>     1.4877     1.5680     1.0322 </r>
       <r>     1.5696     1.8170     1.1810 </r>
       <r>     1.6515     2.1245     1.3550 </r>
       <r>     1.7334     2.5822     1.5665 </r>
       <r>     1.8153     3.3161     1.8380 </r>
       <r>     1.8971     4.4320     2.2009 </r>
       <r>     1.9790     5.9712     2.6899 </r>
       <r>     2.0609     7.9037     3.3371 </r>
       <r>     2.1428    10.1392     4.1674 </r>
       <r>     2.2247    12.5081     5.1917 </r>
       <r>     2.3066    14.7217     6.3972 </r>
       <r>     2.3885    16.3953     7.7398 </r>
       <r>     2.4704    17.1889     9.1473 </r>
       <r>     2.5522    16.9906    10.5387 </r>
       <r>     2.6341    15.9993    11.8488 </r>
       <r>     2.7160    14.6478    13.0483 </r>
       <r>     2.7979    13.4342    14.1484 </r>
       <r>     2.8798    12.7497    15.1925 </r>
       <r>     2.9617    12.7495    16.2365 </r>
       <r>     3.0436    13.3071    17.3262 </r>
       <r>     3.1255    14.0980    18.4807 </r>
       <r>     3.2074    14.7958    19.6923 </r>
       <r>     3.2892    15.2779    20.9434 </r>
       <r>     3.3711    15.7091    22.2297 </r>
       <r>     3.4530    16.4366    23.5757 </r>
       <r>     3.5349    17.7310    25.0277 </r>
       <r>     3.6168    19.5053    26.6249 </r>
       <r>     3.6987    21.2170    28.3624 </r>
       <r>     3.7806    22.1049    30.1725 </r>
       <r>     3.8625    21.6732    31.9473 </r>
       <r>     3.9443    20.0689    33.5907 </r>
       <r>     4.0262    18.0236    35.0666 </r>
       <r>     4.1081    16.3894    36.4087 </r>
       <r>     4.1900    15.6451    37.6899 </r>
       <r>     4.2719    15.7262    38.9776 </r>
       <r>     4.3538    16.2091    40.3050 </r>
       <r>     4.4357    16.6281    41.6666 </r>
       <r>     4.5176    16.7063    43.0347 </r>
       <r>     4.5995    16.4186    44.3792 </r>
       <r>     4.6813    15.9117    45.6822 </r>
       <r>     4.7632    15.3541    46.9395 </r>
       <r>     4.8451    14.8341    48.1542 </r>
       <r>     4.9270    14.3872    49.3324 </r>
       <r>     5.0089    14.1021    50.4872 </r>
       <r>     5.0908    14.1430    51.6453 </r>
       <r>     5.1727    14.6092    52.8416 </r>
       <r>     5.2546    15.3671    54.1000 </r>
       <r>     5.3364    16.0566    55.4149 </r>
       <r>     5.4183    16.2887    56.7487 </r>
       <r>     5.5002    15.8398    58.0458 </r>
       <r>     5.5821    14.6785    59.2478 </r>
       <r>     5.6640    12.8829    60.3028 </r>
       <r>     5.7459    10.6061    61.1713 </r>
       <r>     5.8278     8.1119    61.8356 </r>
       <r>     5.9097     5.7590    62.3072 </r>
       <r>     5.9916     3.8725    62.6243 </r>
       <r>     6.0734     2.6026    62.8374 </r>
       <r>     6.1553     1.8984    62.9928 </r>
       <r>     6.2372     1.5939    63.1234 </r>
       <r>     6.3191     1.5107    63.2471 </r>
       <r>     6.4010     1.5095    63.3707 </r>
       <r>     6.4829     1.5027    63.4937 </r>
       <r>     6.5648     1.4575    63.6131 </r>
       <r>     6.6467     1.3920    63.7271 </r>
       <r>     6.7285     1.3513    63.8377 </r>
       <r>     6.8104     1.3689    63.9498 </r>
       <r>     6.8923     1.4407    64.0678 </r>
       <r>     6.9742     1.5278    64.1929 </r>
       <r>     7.0561     1.5845    64.3227 </r>
       <r>     7.1380     1.5867    64.4526 </r>
       <r>     7.2199     1.5423    64.5789 </r>
       <r>     7.3018     1.4825    64.7003 </r>
       <r>     7.3837     1.4420    64.8184 </r>
       <r>     7.4655     1.4426    64.9365 </r>
       <r>     7.5474     1.4850    65.0581 </r>
       <r>     7.6293     1.5528    65.1853 </r>
       <r>     7.7112     1.6219    65.3181 </r>
       <r>     7.7931     1.6709    65.4549 </r>
       <r>     7.8750     1.6866    65.5930 </r>
       <r>     7.9569     1.6681    65.7296 </r>
       <r>     8.0388     1.6271    65.8629 </r>
       <r>     8.1207     1.5832    65.9925 </r>
       <r>     8.2025     1.5556    66.1199 </r>
       <r>     8.2844     1.5563    66.2474 </r>
       <r>     8.3663     1.5874    66.3773 </r>
       <r>     8.4482     1.6387    66.5115 </r>
       <r>     8.5301     1.6901    66.6499 </r>
       <r>     8.6120     1.7203    66.7908 </r>
       <r>     8.6939     1.7167    66.9314 </r>
       <r>     8.7758     1.6786    67.0688 </r>
       <r>     8.8576     1.6157    67.2011 </r>
       <r>     8.9395     1.5458    67.3277 </r>
       <r>     9.0214     1.4937    67.4500 </r>
       <r>     9.1033     1.4828    67.5715 </r>
       <r>     9.1852     1.5216    67.6961 </r>
       <r>     9.2671     1.5938    67.8266 </r>
       <r>     9.3490     1.6644    67.9629 </r>
       <r>     9.4309     1.6999    68.1021 </r>
       <r>     9.5128     1.6893    68.2404 </r>
       <r>     9.5946     1.6483    68.3754 </r>
       <r>     9.6765     1.6031    68.5067 </r>
       <r>     9.7584     1.5671    68.6350 </r>
       <r>     9.8403     1.5359    68.7608 </r>
       <r>     9.9222     1.5029    68.8838 </r>
       <r>    10.0041     1.4772    69.0048 </r>
       <r>    10.0860     1.4792    69.1259 </r>
       <r>    10.1679     1.5154    69.2500 </r>
       <r>    10.2497     1.5623    69.3779 </r>
       <r>    10.3316     1.5808    69.5074 </r>
       <r>    10.4135     1.5497    69.6343 </r>
       <r>    10.4954     1.4858    69.7560 </r>
       <r>    10.5773     1.4274    69.8729 </r>
       <r>    10.6592     1.4021    69.9877 </r>
       <r>    10.7411     1.4078    70.1030 </r>
       <r>    10.8230     1.4241    70.2196 </r>
       <r>    10.9049     1.4357    70.3371 </r>
       <r>    10.9867     1.4464    70.4556 </r>
       <r>    11.0686     1.4745    70.5763 </r>
       <r>    11.1505     1.5367    70.7022 </r>
       <r>    11.2324     1.6314    70.8358 </r>
       <r>    11.3143     1.7341    70.9778 </r>
       <r>    11.3962     1.8089    71.1259 </r>
       <r>    11.4781     1.8311    71.2758 </r>
       <r>    11.5600     1.8045    71.4236 </r>
       <r>    11.6418     1.7596    71.5677 </r>
       <r>    11.7237     1.7326    71.7096 </r>
       <r>    11.8056     1.7430    71.8523 </r>
       <r>    11.8875     1.7862    71.9986 </r>
       <r>    11.9694     1.8424    72.1495 </r>
       <r>    12.0513     1.8897    72.3042 </r>
       <r>    12.1332     1.9129    72.4608 </r>
       <r>    12.2151     1.9101    72.6173 </r>
       <r>    12.2970     1.8933    72.7723 </r>
       <r>    12.3788     1.8798    72.9262 </r>
       <r>    12.4607     1.8769    73.0799 </r>
       <r>    12.5426     1.8756    73.2335 </r>
       <r>    12.6245     1.8624    73.3860 </r>
       <r>    12.7064     1.8371    73.5365 </r>
       <r>    12.7883     1.8140    73.6850 </r>
       <r>    12.8702     1.8047    73.8328 </r>
       <r>    12.9521     1.8033    73.9805 </r>
       <r>    13.0340     1.7927    74.1273 </r>
       <r>    13.1158     1.7649    74.2718 </r>
       <r>    13.1977     1.7324    74.4137 </r>
       <r>    13.2796     1.7181    74.5543 </r>
       <r>    13.3615     1.7343    74.6964 </r>
       <r>    13.4434     1.7713    74.8414 </r>
       <r>    13.5253     1.8050    74.9892 </r>
       <r>    13.6072     1.8167    75.1380 </r>
       <r>    13.6891     1.8073    75.2860 </r>
       <r>    13.7709     1.7944    75.4329 </r>
       <r>    13.8528     1.7957    75.5800 </r>
       <r>    13.9347     1.8121    75.7284 </r>
       <r>    14.0166     1.8232    75.8777 </r>
       <r>    14.0985     1.8017    76.0252 </r>
       <r>    14.1804     1.7400    76.1677 </r>
       <r>    14.2623     1.6661    76.3041 </r>
       <r>    14.3442     1.6275    76.4374 </r>
       <r>    14.4261     1.6514    76.5726 </r>
       <r>    14.5079     1.7160    76.7131 </r>
       <r>    14.5898     1.7635    76.8575 </r>
       <r>    14.6717     1.7444    77.0004 </r>
       <r>    14.7536     1.6543    77.1359 </r>
       <r>    14.8355     1.5350    77.2615 </r>
       <r>    14.9174     1.4450    77.3799 </r>
       <r>    14.9993     1.4274    77.4968 </r>
       <r>    15.0812     1.4945    77.6191 </r>
       <r>    15.1630     1.6262    77.7523 </r>
       <r>    15.2449     1.7764    77.8978 </r>
       <r>    15.3268     1.8845    78.0521 </r>
       <r>    15.4087     1.8976    78.2075 </r>
       <r>    15.4906     1.7973    78.3547 </r>
       <r>    15.5725     1.6119    78.4867 </r>
       <r>    15.6544     1.4031    78.6016 </r>
       <r>    15.7363     1.2327    78.7025 </r>
       <r>    15.8182     1.1314    78.7952 </r>
       <r>    15.9000     1.0896    78.8844 </r>
       <r>    15.9819     1.0715    78.9721 </r>
       <r>    16.0638     1.0434    79.0576 </r>
       <r>    16.1457     0.9935    79.1389 </r>
       <r>    16.2276     0.9316    79.2152 </r>
       <r>    16.3095     0.8711    79.2865 </r>
       <r>    16.3914     0.8128    79.3531 </r>
       <r>    16.4733     0.7448    79.4141 </r>
       <r>    16.5551     0.6579    79.4680 </r>
       <r>    16.6370     0.5601    79.5138 </r>
       <r>    16.7189     0.4753    79.5528 </r>
       <r>    16.8008     0.4263    79.5877 </r>
       <r>    16.8827     0.4160    79.6217 </r>
       <r>    16.9646     0.4226    79.6563 </r>
       <r>    17.0465     0.4161    79.6904 </r>
       <r>    17.1284     0.3818    79.7217 </r>
       <r>    17.2103     0.3306    79.7488 </r>
       <r>    17.2921     0.2875    79.7723 </r>
       <r>    17.3740     0.2703    79.7944 </r>
       <r>    17.4559     0.2762    79.8170 </r>
       <r>    17.5378     0.2862    79.8405 </r>
       <r>    17.6197     0.2815    79.8635 </r>
       <r>    17.7016     0.2564    79.8845 </r>
       <r>    17.7835     0.2195    79.9025 </r>
       <r>    17.8654     0.1849    79.9176 </r>
       <r>    17.9473     0.1621    79.9309 </r>
       <r>    18.0291     0.1513    79.9433 </r>
       <r>    18.1110     0.1463    79.9553 </r>
       <r>    18.1929     0.1399    79.9667 </r>
       <r>    18.2748     0.1275    79.9772 </r>
       <r>    18.3567     0.1083    79.9860 </r>
       <r>    18.4386     0.0836    79.9929 </r>
       <r>    18.5205     0.0564    79.9975 </r>
       <r>    18.6024     0.0309    80.0000 </r>
       <r>    18.6842     0.0115    80.0010 </r>
       <r>    18.7661     0.0003    80.0010 </r>
       <r>    18.8480    -0.0039    80.0007 </r>
       <r>    18.9299    -0.0039    80.0004 </r>
       <r>    19.0118    -0.0025    80.0002 </r>
       <r>    19.0937    -0.0012    80.0001 </r>
       <r>    19.1756    -0.0005    80.0000 </r>
       <r>    19.2575    -0.0002    80.0000 </r>
       <r>    19.3394     0.0000    80.0000 </r>
       <r>    19.4212     0.0000    80.0000 </r>
       <r>    19.5031     0.0000    80.0000 </r>
       <r>    19.5850     0.0000    80.0000 </r>
       <r>    19.6669     0.0000    80.0000 </r>
       <r>    19.7488     0.0000    80.0000 </r>
       <r>    19.8307     0.0000    80.0000 </r>
       <r>    19.9126     0.0000    80.0000 </r>
       <r>    19.9945     0.0000    80.0000 </r>
       <r>    20.0763     0.0000    80.0000 </r>
       <r>    20.1582     0.0000    80.0000 </r>
       <r>    20.2401     0.0000    80.0000 </r>
       <r>    20.3220     0.0000    80.0000 </r>
       <r>    20.4039     0.0000    80.0000 </r>
       <r>    20.4858     0.0000    80.0000 </r>
       <r>    20.5677     0.0000    80.0000 </r>
       <r>    20.6496     0.0000    80.0000 </r>
       <r>    20.7315     0.0000    80.0000 </r>
       <r>    20.8133     0.0000    80.0000 </r>
       <r>    20.8952     0.0000    80.0000 </r>
       <r>    20.9771     0.0000    80.0000 </r>
       <r>    21.0590     0.0000    80.0000 </r>
       <r>    21.1409     0.0000    80.0000 </r>
       <r>    21.2228     0.0000    80.0000 </r>
       <r>    21.3047     0.0000    80.0000 </r>
       <r>    21.3866     0.0000    80.0000 </r>
       <r>    21.4684     0.0000    80.0000 </r>
      </set>
     </set>
    </array>
   </total>
  </dos>
 </calculation>
 <structure name="finalpos" >
  <crystal>
   <varray name="basis" >
    <v>       0.00000000       2.06196186       2.06196186 </v>
    <v>       4.16864036       0.00000000       0.00000000 </v>
    <v>       0.00000000       6.21858974      -6.21858974 </v>
   </varray>
   <i name="volume">    106.90473927 </i>
   <varray name="rec_basis" >
    <v>       0.00000000       0.24248751       0.24248751 </v>
    <v>       0.23988637       0.00000000       0.00000000 </v>
    <v>       0.00000000       0.08040408      -0.08040408 </v>
   </varray>
  </crystal>
  <varray name="positions" >
   <v>       0.50000000       0.50000000       0.16666667 </v>
   <v>       0.50000000       0.50000000       0.50036786 </v>
   <v>       0.00000000       0.00000000       0.66666667 </v>
   <v>       0.50000000       0.50000000       0.83296547 </v>
   <v>       0.00000000       0.00000000       0.99868666 </v>
   <v>       0.00000000       0.00000000       0.33464668 </v>
  </varray>
 </structure>
</modeling>
