<?xml version="1.0" encoding="ISO-8859-1"?>
<modeling>
 <generator>
  <i name="program" type="string">vasp </i>
  <i name="version" type="string">5.3.5  </i>
  <i name="subversion" type="string">31Mar14 (build Jun 20 2014 13:15:13) complex                          parallel </i>
  <i name="platform" type="string">LinuxIFC </i>
  <i name="date" type="string">2025 11 26 </i>
  <i name="time" type="string">17:32:59 </i>
 </generator>
 <incar>
  <i type="string" name="PREC">accurate</i>
  <i type="int" name="IALGO">    68</i>
  <i type="logical" name="ADDGRID"> T  </i>
  <i type="int" name="NELM">   200</i>
  <i type="int" name="NELMIN">     4</i>
  <i type="int" name="IBRION">     2</i>
  <i name="EDIFF">      0.00000100</i>
  <i name="EDIFFG">     -0.02000000</i>
  <i type="int" name="NSW">    30</i>
  <i type="int" name="ISIF">     3</i>
  <i name="ENCUT">    500.00000000</i>
  <i type="logical" name="LREAL"> F  </i>
  <i type="int" name="ISMEAR">     1</i>
  <i name="SIGMA">      0.30000000</i>
  <i type="logical" name="LWAVE"> F  </i>
  <i type="logical" name="LCHARG"> F  </i>
  <i type="int" name="NELM">   200</i>
 </incar>
 <kpoints>
  <generation param="Auto">
   <i name="subdivisionlength">     70.00000000 </i>
   <v type="int" name="divisions">      28       28        7 </v>
   <v name="usershift">      0.00000000       0.00000000       0.00000000 </v>
   <v name="genvec1">      0.03571429       0.00000000       0.00000000 </v>
   <v name="genvec2">      0.00000000       0.03571429       0.00000000 </v>
   <v name="genvec3">      0.00000000       0.00000000       0.14285714 </v>
   <v name="shift">      0.00000000       0.00000000       0.00000000 </v>
  </generation>
  <varray name="kpointlist" >
   <v>       0.00000000       0.00000000       0.00000000 </v>
   <v>       0.03571429       0.00000000       0.00000000 </v>
   <v>       0.07142857       0.00000000       0.00000000 </v>
   <v>       0.10714286       0.00000000       0.00000000 </v>
   <v>       0.14285714       0.00000000       0.00000000 </v>
   <v>       0.17857143       0.00000000       0.00000000 </v>
   <v>       0.21428571       0.00000000       0.00000000 </v>
   <v>       0.25000000       0.00000000       0.00000000 </v>
   <v>       0.28571429       0.00000000       0.00000000 </v>
   <v>       0.32142857       0.00000000       0.00000000 </v>
   <v>       0.35714286       0.00000000       0.00000000 </v>
   <v>       0.39285714       0.00000000       0.00000000 </v>
   <v>       0.42857143       0.00000000       0.00000000 </v>
   <v>       0.46428571       0.00000000       0.00000000 </v>
   <v>       0.50000000       0.00000000       0.00000000 </v>
   <v>       0.00000000       0.03571429       0.00000000 </v>
   <v>       0.03571429       0.03571429       0.00000000 </v>
   <v>       0.07142857       0.03571429       0.00000000 </v>
   <v>       0.10714286       0.03571429       0.00000000 </v>
   <v>       0.14285714       0.03571429       0.00000000 </v>
   <v>       0.17857143       0.03571429       0.00000000 </v>
   <v>       0.21428571       0.03571429       0.00000000 </v>
   <v>       0.25000000       0.03571429       0.00000000 </v>
   <v>       0.28571429       0.03571429       0.00000000 </v>
   <v>       0.32142857       0.03571429       0.00000000 </v>
   <v>       0.35714286       0.03571429       0.00000000 </v>
   <v>       0.39285714       0.03571429       0.00000000 </v>
   <v>       0.42857143       0.03571429       0.00000000 </v>
   <v>       0.46428571       0.03571429       0.00000000 </v>
   <v>       0.50000000       0.03571429       0.00000000 </v>
   <v>      -0.46428571       0.03571429       0.00000000 </v>
   <v>      -0.42857143       0.03571429       0.00000000 </v>
   <v>      -0.39285714       0.03571429       0.00000000 </v>
   <v>      -0.35714286       0.03571429       0.00000000 </v>
   <v>      -0.32142857       0.03571429       0.00000000 </v>
   <v>      -0.28571429       0.03571429       0.00000000 </v>
   <v>      -0.25000000       0.03571429       0.00000000 </v>
   <v>      -0.21428571       0.03571429       0.00000000 </v>
   <v>      -0.17857143       0.03571429       0.00000000 </v>
   <v>      -0.14285714       0.03571429       0.00000000 </v>
   <v>      -0.10714286       0.03571429       0.00000000 </v>
   <v>      -0.07142857       0.03571429       0.00000000 </v>
   <v>       0.00000000       0.07142857       0.00000000 </v>
   <v>       0.03571429       0.07142857       0.00000000 </v>
   <v>       0.07142857       0.07142857       0.00000000 </v>
   <v>       0.10714286       0.07142857       0.00000000 </v>
   <v>       0.14285714       0.07142857       0.00000000 </v>
   <v>       0.17857143       0.07142857       0.00000000 </v>
   <v>       0.21428571       0.07142857       0.00000000 </v>
   <v>       0.25000000       0.07142857       0.00000000 </v>
   <v>       0.28571429       0.07142857       0.00000000 </v>
   <v>       0.32142857       0.07142857       0.00000000 </v>
   <v>       0.35714286       0.07142857       0.00000000 </v>
   <v>       0.39285714       0.07142857       0.00000000 </v>
   <v>       0.42857143       0.07142857       0.00000000 </v>
   <v>       0.46428571       0.07142857       0.00000000 </v>
   <v>       0.50000000       0.07142857       0.00000000 </v>
   <v>      -0.46428571       0.07142857       0.00000000 </v>
   <v>      -0.42857143       0.07142857       0.00000000 </v>
   <v>      -0.39285714       0.07142857       0.00000000 </v>
   <v>      -0.35714286       0.07142857       0.00000000 </v>
   <v>      -0.32142857       0.07142857       0.00000000 </v>
   <v>      -0.28571429       0.07142857       0.00000000 </v>
   <v>      -0.25000000       0.07142857       0.00000000 </v>
   <v>      -0.21428571       0.07142857       0.00000000 </v>
   <v>      -0.17857143       0.07142857       0.00000000 </v>
   <v>      -0.14285714       0.07142857       0.00000000 </v>
   <v>       0.00000000       0.10714286       0.00000000 </v>
   <v>       0.03571429       0.10714286       0.00000000 </v>
   <v>       0.07142857       0.10714286       0.00000000 </v>
   <v>       0.10714286       0.10714286       0.00000000 </v>
   <v>       0.14285714       0.10714286       0.00000000 </v>
   <v>       0.17857143       0.10714286       0.00000000 </v>
   <v>       0.21428571       0.10714286       0.00000000 </v>
   <v>       0.25000000       0.10714286       0.00000000 </v>
   <v>       0.28571429       0.10714286       0.00000000 </v>
   <v>       0.32142857       0.10714286       0.00000000 </v>
   <v>       0.35714286       0.10714286       0.00000000 </v>
   <v>       0.39285714       0.10714286       0.00000000 </v>
   <v>       0.42857143       0.10714286       0.00000000 </v>
   <v>       0.46428571       0.10714286       0.00000000 </v>
   <v>       0.50000000       0.10714286       0.00000000 </v>
   <v>      -0.46428571       0.10714286       0.00000000 </v>
   <v>      -0.42857143       0.10714286       0.00000000 </v>
   <v>      -0.39285714       0.10714286       0.00000000 </v>
   <v>      -0.35714286       0.10714286       0.00000000 </v>
   <v>      -0.32142857       0.10714286       0.00000000 </v>
   <v>      -0.28571429       0.10714286       0.00000000 </v>
   <v>      -0.25000000       0.10714286       0.00000000 </v>
   <v>      -0.21428571       0.10714286       0.00000000 </v>
   <v>       0.00000000       0.14285714       0.00000000 </v>
   <v>       0.03571429       0.14285714       0.00000000 </v>
   <v>       0.07142857       0.14285714       0.00000000 </v>
   <v>       0.10714286       0.14285714       0.00000000 </v>
   <v>       0.14285714       0.14285714       0.00000000 </v>
   <v>       0.17857143       0.14285714       0.00000000 </v>
   <v>       0.21428571       0.14285714       0.00000000 </v>
   <v>       0.25000000       0.14285714       0.00000000 </v>
   <v>       0.28571429       0.14285714       0.00000000 </v>
   <v>       0.32142857       0.14285714       0.00000000 </v>
   <v>       0.35714286       0.14285714       0.00000000 </v>
   <v>       0.39285714       0.14285714       0.00000000 </v>
   <v>       0.42857143       0.14285714       0.00000000 </v>
   <v>       0.46428571       0.14285714       0.00000000 </v>
   <v>       0.50000000       0.14285714       0.00000000 </v>
   <v>      -0.46428571       0.14285714       0.00000000 </v>
   <v>      -0.42857143       0.14285714       0.00000000 </v>
   <v>      -0.39285714       0.14285714       0.00000000 </v>
   <v>      -0.35714286       0.14285714       0.00000000 </v>
   <v>      -0.32142857       0.14285714       0.00000000 </v>
   <v>      -0.28571429       0.14285714       0.00000000 </v>
   <v>       0.00000000       0.17857143       0.00000000 </v>
   <v>       0.03571429       0.17857143       0.00000000 </v>
   <v>       0.07142857       0.17857143       0.00000000 </v>
   <v>       0.10714286       0.17857143       0.00000000 </v>
   <v>       0.14285714       0.17857143       0.00000000 </v>
   <v>       0.17857143       0.17857143       0.00000000 </v>
   <v>       0.21428571       0.17857143       0.00000000 </v>
   <v>       0.25000000       0.17857143       0.00000000 </v>
   <v>       0.28571429       0.17857143       0.00000000 </v>
   <v>       0.32142857       0.17857143       0.00000000 </v>
   <v>       0.35714286       0.17857143       0.00000000 </v>
   <v>       0.39285714       0.17857143       0.00000000 </v>
   <v>       0.42857143       0.17857143       0.00000000 </v>
   <v>       0.46428571       0.17857143       0.00000000 </v>
   <v>       0.50000000       0.17857143       0.00000000 </v>
   <v>      -0.46428571       0.17857143       0.00000000 </v>
   <v>      -0.42857143       0.17857143       0.00000000 </v>
   <v>      -0.39285714       0.17857143       0.00000000 </v>
   <v>      -0.35714286       0.17857143       0.00000000 </v>
   <v>       0.00000000       0.21428571       0.00000000 </v>
   <v>       0.03571429       0.21428571       0.00000000 </v>
   <v>       0.07142857       0.21428571       0.00000000 </v>
   <v>       0.10714286       0.21428571       0.00000000 </v>
   <v>       0.14285714       0.21428571       0.00000000 </v>
   <v>       0.17857143       0.21428571       0.00000000 </v>
   <v>       0.21428571       0.21428571       0.00000000 </v>
   <v>       0.25000000       0.21428571       0.00000000 </v>
   <v>       0.28571429       0.21428571       0.00000000 </v>
   <v>       0.32142857       0.21428571       0.00000000 </v>
   <v>       0.35714286       0.21428571       0.00000000 </v>
   <v>       0.39285714       0.21428571       0.00000000 </v>
   <v>       0.42857143       0.21428571       0.00000000 </v>
   <v>       0.46428571       0.21428571       0.00000000 </v>
   <v>       0.50000000       0.21428571       0.00000000 </v>
   <v>      -0.46428571       0.21428571       0.00000000 </v>
   <v>      -0.42857143       0.21428571       0.00000000 </v>
   <v>       0.00000000       0.25000000       0.00000000 </v>
   <v>       0.03571429       0.25000000       0.00000000 </v>
   <v>       0.07142857       0.25000000       0.00000000 </v>
   <v>       0.10714286       0.25000000       0.00000000 </v>
   <v>       0.14285714       0.25000000       0.00000000 </v>
   <v>       0.17857143       0.25000000       0.00000000 </v>
   <v>       0.21428571       0.25000000       0.00000000 </v>
   <v>       0.25000000       0.25000000       0.00000000 </v>
   <v>       0.28571429       0.25000000       0.00000000 </v>
   <v>       0.32142857       0.25000000       0.00000000 </v>
   <v>       0.35714286       0.25000000       0.00000000 </v>
   <v>       0.39285714       0.25000000       0.00000000 </v>
   <v>       0.42857143       0.25000000       0.00000000 </v>
   <v>       0.46428571       0.25000000       0.00000000 </v>
   <v>       0.50000000       0.25000000       0.00000000 </v>
   <v>       0.00000000       0.28571429       0.00000000 </v>
   <v>       0.03571429       0.28571429       0.00000000 </v>
   <v>       0.07142857       0.28571429       0.00000000 </v>
   <v>       0.10714286       0.28571429       0.00000000 </v>
   <v>       0.14285714       0.28571429       0.00000000 </v>
   <v>       0.17857143       0.28571429       0.00000000 </v>
   <v>       0.21428571       0.28571429       0.00000000 </v>
   <v>       0.25000000       0.28571429       0.00000000 </v>
   <v>       0.28571429       0.28571429       0.00000000 </v>
   <v>       0.32142857       0.28571429       0.00000000 </v>
   <v>       0.35714286       0.28571429       0.00000000 </v>
   <v>       0.39285714       0.28571429       0.00000000 </v>
   <v>       0.42857143       0.28571429       0.00000000 </v>
   <v>       0.00000000       0.32142857       0.00000000 </v>
   <v>       0.03571429       0.32142857       0.00000000 </v>
   <v>       0.07142857       0.32142857       0.00000000 </v>
   <v>       0.10714286       0.32142857       0.00000000 </v>
   <v>       0.14285714       0.32142857       0.00000000 </v>
   <v>       0.17857143       0.32142857       0.00000000 </v>
   <v>       0.21428571       0.32142857       0.00000000 </v>
   <v>       0.25000000       0.32142857       0.00000000 </v>
   <v>       0.28571429       0.32142857       0.00000000 </v>
   <v>       0.32142857       0.32142857       0.00000000 </v>
   <v>       0.35714286       0.32142857       0.00000000 </v>
   <v>       0.00000000       0.35714286       0.00000000 </v>
   <v>       0.03571429       0.35714286       0.00000000 </v>
   <v>       0.07142857       0.35714286       0.00000000 </v>
   <v>       0.10714286       0.35714286       0.00000000 </v>
   <v>       0.14285714       0.35714286       0.00000000 </v>
   <v>       0.17857143       0.35714286       0.00000000 </v>
   <v>       0.21428571       0.35714286       0.00000000 </v>
   <v>       0.25000000       0.35714286       0.00000000 </v>
   <v>       0.28571429       0.35714286       0.00000000 </v>
   <v>       0.00000000       0.39285714       0.00000000 </v>
   <v>       0.03571429       0.39285714       0.00000000 </v>
   <v>       0.07142857       0.39285714       0.00000000 </v>
   <v>       0.10714286       0.39285714       0.00000000 </v>
   <v>       0.14285714       0.39285714       0.00000000 </v>
   <v>       0.17857143       0.39285714       0.00000000 </v>
   <v>       0.21428571       0.39285714       0.00000000 </v>
   <v>       0.00000000       0.42857143       0.00000000 </v>
   <v>       0.03571429       0.42857143       0.00000000 </v>
   <v>       0.07142857       0.42857143       0.00000000 </v>
   <v>       0.10714286       0.42857143       0.00000000 </v>
   <v>       0.14285714       0.42857143       0.00000000 </v>
   <v>       0.00000000       0.46428571       0.00000000 </v>
   <v>       0.03571429       0.46428571       0.00000000 </v>
   <v>       0.07142857       0.46428571       0.00000000 </v>
   <v>       0.00000000       0.50000000       0.00000000 </v>
   <v>       0.00000000       0.00000000       0.14285714 </v>
   <v>       0.03571429       0.00000000       0.14285714 </v>
   <v>       0.07142857       0.00000000       0.14285714 </v>
   <v>       0.10714286       0.00000000       0.14285714 </v>
   <v>       0.14285714       0.00000000       0.14285714 </v>
   <v>       0.17857143       0.00000000       0.14285714 </v>
   <v>       0.21428571       0.00000000       0.14285714 </v>
   <v>       0.25000000       0.00000000       0.14285714 </v>
   <v>       0.28571429       0.00000000       0.14285714 </v>
   <v>       0.32142857       0.00000000       0.14285714 </v>
   <v>       0.35714286       0.00000000       0.14285714 </v>
   <v>       0.39285714       0.00000000       0.14285714 </v>
   <v>       0.42857143       0.00000000       0.14285714 </v>
   <v>       0.46428571       0.00000000       0.14285714 </v>
   <v>       0.50000000       0.00000000       0.14285714 </v>
   <v>      -0.46428571       0.00000000       0.14285714 </v>
   <v>      -0.42857143       0.00000000       0.14285714 </v>
   <v>      -0.39285714       0.00000000       0.14285714 </v>
   <v>      -0.35714286       0.00000000       0.14285714 </v>
   <v>      -0.32142857       0.00000000       0.14285714 </v>
   <v>      -0.28571429       0.00000000       0.14285714 </v>
   <v>      -0.25000000       0.00000000       0.14285714 </v>
   <v>      -0.21428571       0.00000000       0.14285714 </v>
   <v>      -0.17857143       0.00000000       0.14285714 </v>
   <v>      -0.10714286       0.00000000       0.14285714 </v>
   <v>      -0.07142857       0.00000000       0.14285714 </v>
   <v>      -0.03571429       0.00000000       0.14285714 </v>
   <v>       0.00000000       0.03571429       0.14285714 </v>
   <v>       0.03571429       0.03571429       0.14285714 </v>
   <v>       0.07142857       0.03571429       0.14285714 </v>
   <v>       0.10714286       0.03571429       0.14285714 </v>
   <v>       0.14285714       0.03571429       0.14285714 </v>
   <v>       0.17857143       0.03571429       0.14285714 </v>
   <v>       0.21428571       0.03571429       0.14285714 </v>
   <v>       0.25000000       0.03571429       0.14285714 </v>
   <v>       0.28571429       0.03571429       0.14285714 </v>
   <v>       0.32142857       0.03571429       0.14285714 </v>
   <v>       0.35714286       0.03571429       0.14285714 </v>
   <v>       0.39285714       0.03571429       0.14285714 </v>
   <v>       0.42857143       0.03571429       0.14285714 </v>
   <v>       0.46428571       0.03571429       0.14285714 </v>
   <v>       0.50000000       0.03571429       0.14285714 </v>
   <v>      -0.46428571       0.03571429       0.14285714 </v>
   <v>      -0.42857143       0.03571429       0.14285714 </v>
   <v>      -0.39285714       0.03571429       0.14285714 </v>
   <v>      -0.35714286       0.03571429       0.14285714 </v>
   <v>      -0.32142857       0.03571429       0.14285714 </v>
   <v>      -0.28571429       0.03571429       0.14285714 </v>
   <v>      -0.25000000       0.03571429       0.14285714 </v>
   <v>      -0.21428571       0.03571429       0.14285714 </v>
   <v>      -0.14285714       0.03571429       0.14285714 </v>
   <v>      -0.10714286       0.03571429       0.14285714 </v>
   <v>      -0.07142857       0.03571429       0.14285714 </v>
   <v>       0.00000000       0.07142857       0.14285714 </v>
   <v>       0.03571429       0.07142857       0.14285714 </v>
   <v>       0.07142857       0.07142857       0.14285714 </v>
   <v>       0.10714286       0.07142857       0.14285714 </v>
   <v>       0.14285714       0.07142857       0.14285714 </v>
   <v>       0.17857143       0.07142857       0.14285714 </v>
   <v>       0.21428571       0.07142857       0.14285714 </v>
   <v>       0.25000000       0.07142857       0.14285714 </v>
   <v>       0.28571429       0.07142857       0.14285714 </v>
   <v>       0.32142857       0.07142857       0.14285714 </v>
   <v>       0.35714286       0.07142857       0.14285714 </v>
   <v>       0.39285714       0.07142857       0.14285714 </v>
   <v>       0.42857143       0.07142857       0.14285714 </v>
   <v>       0.46428571       0.07142857       0.14285714 </v>
   <v>       0.50000000       0.07142857       0.14285714 </v>
   <v>      -0.46428571       0.07142857       0.14285714 </v>
   <v>      -0.42857143       0.07142857       0.14285714 </v>
   <v>      -0.39285714       0.07142857       0.14285714 </v>
   <v>      -0.35714286       0.07142857       0.14285714 </v>
   <v>      -0.32142857       0.07142857       0.14285714 </v>
   <v>      -0.28571429       0.07142857       0.14285714 </v>
   <v>      -0.25000000       0.07142857       0.14285714 </v>
   <v>      -0.17857143       0.07142857       0.14285714 </v>
   <v>      -0.14285714       0.07142857       0.14285714 </v>
   <v>      -0.10714286       0.07142857       0.14285714 </v>
   <v>       0.00000000       0.10714286       0.14285714 </v>
   <v>       0.03571429       0.10714286       0.14285714 </v>
   <v>       0.07142857       0.10714286       0.14285714 </v>
   <v>       0.10714286       0.10714286       0.14285714 </v>
   <v>       0.14285714       0.10714286       0.14285714 </v>
   <v>       0.17857143       0.10714286       0.14285714 </v>
   <v>       0.21428571       0.10714286       0.14285714 </v>
   <v>       0.25000000       0.10714286       0.14285714 </v>
   <v>       0.28571429       0.10714286       0.14285714 </v>
   <v>       0.32142857       0.10714286       0.14285714 </v>
   <v>       0.35714286       0.10714286       0.14285714 </v>
   <v>       0.39285714       0.10714286       0.14285714 </v>
   <v>       0.42857143       0.10714286       0.14285714 </v>
   <v>       0.46428571       0.10714286       0.14285714 </v>
   <v>       0.50000000       0.10714286       0.14285714 </v>
   <v>      -0.46428571       0.10714286       0.14285714 </v>
   <v>      -0.42857143       0.10714286       0.14285714 </v>
   <v>      -0.39285714       0.10714286       0.14285714 </v>
   <v>      -0.35714286       0.10714286       0.14285714 </v>
   <v>      -0.32142857       0.10714286       0.14285714 </v>
   <v>      -0.28571429       0.10714286       0.14285714 </v>
   <v>      -0.21428571       0.10714286       0.14285714 </v>
   <v>      -0.17857143       0.10714286       0.14285714 </v>
   <v>      -0.14285714       0.10714286       0.14285714 </v>
   <v>       0.00000000       0.14285714       0.14285714 </v>
   <v>       0.03571429       0.14285714       0.14285714 </v>
   <v>       0.07142857       0.14285714       0.14285714 </v>
   <v>       0.10714286       0.14285714       0.14285714 </v>
   <v>       0.14285714       0.14285714       0.14285714 </v>
   <v>       0.17857143       0.14285714       0.14285714 </v>
   <v>       0.21428571       0.14285714       0.14285714 </v>
   <v>       0.25000000       0.14285714       0.14285714 </v>
   <v>       0.28571429       0.14285714       0.14285714 </v>
   <v>       0.32142857       0.14285714       0.14285714 </v>
   <v>       0.35714286       0.14285714       0.14285714 </v>
   <v>       0.39285714       0.14285714       0.14285714 </v>
   <v>       0.42857143       0.14285714       0.14285714 </v>
   <v>       0.46428571       0.14285714       0.14285714 </v>
   <v>       0.50000000       0.14285714       0.14285714 </v>
   <v>      -0.46428571       0.14285714       0.14285714 </v>
   <v>      -0.42857143       0.14285714       0.14285714 </v>
   <v>      -0.39285714       0.14285714       0.14285714 </v>
   <v>      -0.35714286       0.14285714       0.14285714 </v>
   <v>      -0.32142857       0.14285714       0.14285714 </v>
   <v>      -0.25000000       0.14285714       0.14285714 </v>
   <v>      -0.21428571       0.14285714       0.14285714 </v>
   <v>      -0.17857143       0.14285714       0.14285714 </v>
   <v>       0.00000000       0.17857143       0.14285714 </v>
   <v>       0.03571429       0.17857143       0.14285714 </v>
   <v>       0.07142857       0.17857143       0.14285714 </v>
   <v>       0.10714286       0.17857143       0.14285714 </v>
   <v>       0.14285714       0.17857143       0.14285714 </v>
   <v>       0.17857143       0.17857143       0.14285714 </v>
   <v>       0.21428571       0.17857143       0.14285714 </v>
   <v>       0.25000000       0.17857143       0.14285714 </v>
   <v>       0.28571429       0.17857143       0.14285714 </v>
   <v>       0.32142857       0.17857143       0.14285714 </v>
   <v>       0.35714286       0.17857143       0.14285714 </v>
   <v>       0.39285714       0.17857143       0.14285714 </v>
   <v>       0.42857143       0.17857143       0.14285714 </v>
   <v>       0.46428571       0.17857143       0.14285714 </v>
   <v>       0.50000000       0.17857143       0.14285714 </v>
   <v>      -0.46428571       0.17857143       0.14285714 </v>
   <v>      -0.42857143       0.17857143       0.14285714 </v>
   <v>      -0.39285714       0.17857143       0.14285714 </v>
   <v>      -0.35714286       0.17857143       0.14285714 </v>
   <v>      -0.28571429       0.17857143       0.14285714 </v>
   <v>      -0.25000000       0.17857143       0.14285714 </v>
   <v>      -0.21428571       0.17857143       0.14285714 </v>
   <v>       0.00000000       0.21428571       0.14285714 </v>
   <v>       0.03571429       0.21428571       0.14285714 </v>
   <v>       0.07142857       0.21428571       0.14285714 </v>
   <v>       0.10714286       0.21428571       0.14285714 </v>
   <v>       0.14285714       0.21428571       0.14285714 </v>
   <v>       0.17857143       0.21428571       0.14285714 </v>
   <v>       0.21428571       0.21428571       0.14285714 </v>
   <v>       0.25000000       0.21428571       0.14285714 </v>
   <v>       0.28571429       0.21428571       0.14285714 </v>
   <v>       0.32142857       0.21428571       0.14285714 </v>
   <v>       0.35714286       0.21428571       0.14285714 </v>
   <v>       0.39285714       0.21428571       0.14285714 </v>
   <v>       0.42857143       0.21428571       0.14285714 </v>
   <v>       0.46428571       0.21428571       0.14285714 </v>
   <v>       0.50000000       0.21428571       0.14285714 </v>
   <v>      -0.46428571       0.21428571       0.14285714 </v>
   <v>      -0.42857143       0.21428571       0.14285714 </v>
   <v>      -0.39285714       0.21428571       0.14285714 </v>
   <v>      -0.32142857       0.21428571       0.14285714 </v>
   <v>      -0.28571429       0.21428571       0.14285714 </v>
   <v>      -0.25000000       0.21428571       0.14285714 </v>
   <v>       0.00000000       0.25000000       0.14285714 </v>
   <v>       0.03571429       0.25000000       0.14285714 </v>
   <v>       0.07142857       0.25000000       0.14285714 </v>
   <v>       0.10714286       0.25000000       0.14285714 </v>
   <v>       0.14285714       0.25000000       0.14285714 </v>
   <v>       0.17857143       0.25000000       0.14285714 </v>
   <v>       0.21428571       0.25000000       0.14285714 </v>
   <v>       0.25000000       0.25000000       0.14285714 </v>
   <v>       0.28571429       0.25000000       0.14285714 </v>
   <v>       0.32142857       0.25000000       0.14285714 </v>
   <v>       0.35714286       0.25000000       0.14285714 </v>
   <v>       0.39285714       0.25000000       0.14285714 </v>
   <v>       0.42857143       0.25000000       0.14285714 </v>
   <v>       0.46428571       0.25000000       0.14285714 </v>
   <v>       0.50000000       0.25000000       0.14285714 </v>
   <v>      -0.46428571       0.25000000       0.14285714 </v>
   <v>      -0.42857143       0.25000000       0.14285714 </v>
   <v>      -0.35714286       0.25000000       0.14285714 </v>
   <v>      -0.32142857       0.25000000       0.14285714 </v>
   <v>      -0.28571429       0.25000000       0.14285714 </v>
   <v>       0.00000000       0.28571429       0.14285714 </v>
   <v>       0.03571429       0.28571429       0.14285714 </v>
   <v>       0.07142857       0.28571429       0.14285714 </v>
   <v>       0.10714286       0.28571429       0.14285714 </v>
   <v>       0.14285714       0.28571429       0.14285714 </v>
   <v>       0.17857143       0.28571429       0.14285714 </v>
   <v>       0.21428571       0.28571429       0.14285714 </v>
   <v>       0.25000000       0.28571429       0.14285714 </v>
   <v>       0.28571429       0.28571429       0.14285714 </v>
   <v>       0.32142857       0.28571429       0.14285714 </v>
   <v>       0.35714286       0.28571429       0.14285714 </v>
   <v>       0.39285714       0.28571429       0.14285714 </v>
   <v>       0.42857143       0.28571429       0.14285714 </v>
   <v>       0.46428571       0.28571429       0.14285714 </v>
   <v>       0.50000000       0.28571429       0.14285714 </v>
   <v>      -0.46428571       0.28571429       0.14285714 </v>
   <v>      -0.39285714       0.28571429       0.14285714 </v>
   <v>      -0.35714286       0.28571429       0.14285714 </v>
   <v>      -0.32142857       0.28571429       0.14285714 </v>
   <v>       0.00000000       0.32142857       0.14285714 </v>
   <v>       0.03571429       0.32142857       0.14285714 </v>
   <v>       0.07142857       0.32142857       0.14285714 </v>
   <v>       0.10714286       0.32142857       0.14285714 </v>
   <v>       0.14285714       0.32142857       0.14285714 </v>
   <v>       0.17857143       0.32142857       0.14285714 </v>
   <v>       0.21428571       0.32142857       0.14285714 </v>
   <v>       0.25000000       0.32142857       0.14285714 </v>
   <v>       0.28571429       0.32142857       0.14285714 </v>
   <v>       0.32142857       0.32142857       0.14285714 </v>
   <v>       0.35714286       0.32142857       0.14285714 </v>
   <v>       0.39285714       0.32142857       0.14285714 </v>
   <v>       0.42857143       0.32142857       0.14285714 </v>
   <v>       0.46428571       0.32142857       0.14285714 </v>
   <v>       0.50000000       0.32142857       0.14285714 </v>
   <v>      -0.42857143       0.32142857       0.14285714 </v>
   <v>      -0.39285714       0.32142857       0.14285714 </v>
   <v>      -0.35714286       0.32142857       0.14285714 </v>
   <v>       0.00000000       0.35714286       0.14285714 </v>
   <v>       0.03571429       0.35714286       0.14285714 </v>
   <v>       0.07142857       0.35714286       0.14285714 </v>
   <v>       0.10714286       0.35714286       0.14285714 </v>
   <v>       0.14285714       0.35714286       0.14285714 </v>
   <v>       0.17857143       0.35714286       0.14285714 </v>
   <v>       0.21428571       0.35714286       0.14285714 </v>
   <v>       0.25000000       0.35714286       0.14285714 </v>
   <v>       0.28571429       0.35714286       0.14285714 </v>
   <v>       0.32142857       0.35714286       0.14285714 </v>
   <v>       0.35714286       0.35714286       0.14285714 </v>
   <v>       0.39285714       0.35714286       0.14285714 </v>
   <v>       0.42857143       0.35714286       0.14285714 </v>
   <v>       0.46428571       0.35714286       0.14285714 </v>
   <v>      -0.46428571       0.35714286       0.14285714 </v>
   <v>      -0.42857143       0.35714286       0.14285714 </v>
   <v>      -0.39285714       0.35714286       0.14285714 </v>
   <v>       0.00000000       0.39285714       0.14285714 </v>
   <v>       0.03571429       0.39285714       0.14285714 </v>
   <v>       0.07142857       0.39285714       0.14285714 </v>
   <v>       0.10714286       0.39285714       0.14285714 </v>
   <v>       0.14285714       0.39285714       0.14285714 </v>
   <v>       0.17857143       0.39285714       0.14285714 </v>
   <v>       0.21428571       0.39285714       0.14285714 </v>
   <v>       0.25000000       0.39285714       0.14285714 </v>
   <v>       0.28571429       0.39285714       0.14285714 </v>
   <v>       0.35714286       0.39285714       0.14285714 </v>
   <v>       0.39285714       0.39285714       0.14285714 </v>
   <v>       0.42857143       0.39285714       0.14285714 </v>
   <v>       0.50000000       0.39285714       0.14285714 </v>
   <v>      -0.46428571       0.39285714       0.14285714 </v>
   <v>      -0.42857143       0.39285714       0.14285714 </v>
   <v>       0.00000000       0.42857143       0.14285714 </v>
   <v>       0.03571429       0.42857143       0.14285714 </v>
   <v>       0.07142857       0.42857143       0.14285714 </v>
   <v>       0.10714286       0.42857143       0.14285714 </v>
   <v>       0.14285714       0.42857143       0.14285714 </v>
   <v>       0.17857143       0.42857143       0.14285714 </v>
   <v>       0.21428571       0.42857143       0.14285714 </v>
   <v>       0.25000000       0.42857143       0.14285714 </v>
   <v>       0.32142857       0.42857143       0.14285714 </v>
   <v>       0.35714286       0.42857143       0.14285714 </v>
   <v>       0.39285714       0.42857143       0.14285714 </v>
   <v>       0.46428571       0.42857143       0.14285714 </v>
   <v>       0.50000000       0.42857143       0.14285714 </v>
   <v>      -0.46428571       0.42857143       0.14285714 </v>
   <v>       0.00000000       0.46428571       0.14285714 </v>
   <v>       0.03571429       0.46428571       0.14285714 </v>
   <v>       0.07142857       0.46428571       0.14285714 </v>
   <v>       0.10714286       0.46428571       0.14285714 </v>
   <v>       0.14285714       0.46428571       0.14285714 </v>
   <v>       0.17857143       0.46428571       0.14285714 </v>
   <v>       0.21428571       0.46428571       0.14285714 </v>
   <v>       0.28571429       0.46428571       0.14285714 </v>
   <v>       0.32142857       0.46428571       0.14285714 </v>
   <v>       0.35714286       0.46428571       0.14285714 </v>
   <v>       0.42857143       0.46428571       0.14285714 </v>
   <v>       0.46428571       0.46428571       0.14285714 </v>
   <v>       0.50000000       0.46428571       0.14285714 </v>
   <v>       0.00000000       0.50000000       0.14285714 </v>
   <v>       0.03571429       0.50000000       0.14285714 </v>
   <v>       0.07142857       0.50000000       0.14285714 </v>
   <v>       0.10714286       0.50000000       0.14285714 </v>
   <v>       0.14285714       0.50000000       0.14285714 </v>
   <v>       0.17857143       0.50000000       0.14285714 </v>
   <v>       0.25000000       0.50000000       0.14285714 </v>
   <v>       0.28571429       0.50000000       0.14285714 </v>
   <v>       0.32142857       0.50000000       0.14285714 </v>
   <v>       0.39285714       0.50000000       0.14285714 </v>
   <v>       0.42857143       0.50000000       0.14285714 </v>
   <v>       0.46428571       0.50000000       0.14285714 </v>
   <v>       0.00000000      -0.46428571       0.14285714 </v>
   <v>       0.03571429      -0.46428571       0.14285714 </v>
   <v>       0.07142857      -0.46428571       0.14285714 </v>
   <v>       0.10714286      -0.46428571       0.14285714 </v>
   <v>       0.14285714      -0.46428571       0.14285714 </v>
   <v>       0.21428571      -0.46428571       0.14285714 </v>
   <v>       0.25000000      -0.46428571       0.14285714 </v>
   <v>       0.28571429      -0.46428571       0.14285714 </v>
   <v>       0.35714286      -0.46428571       0.14285714 </v>
   <v>       0.39285714      -0.46428571       0.14285714 </v>
   <v>       0.42857143      -0.46428571       0.14285714 </v>
   <v>       0.00000000      -0.42857143       0.14285714 </v>
   <v>       0.03571429      -0.42857143       0.14285714 </v>
   <v>       0.07142857      -0.42857143       0.14285714 </v>
   <v>       0.10714286      -0.42857143       0.14285714 </v>
   <v>       0.17857143      -0.42857143       0.14285714 </v>
   <v>       0.21428571      -0.42857143       0.14285714 </v>
   <v>       0.25000000      -0.42857143       0.14285714 </v>
   <v>       0.32142857      -0.42857143       0.14285714 </v>
   <v>       0.35714286      -0.42857143       0.14285714 </v>
   <v>       0.39285714      -0.42857143       0.14285714 </v>
   <v>       0.00000000      -0.39285714       0.14285714 </v>
   <v>       0.03571429      -0.39285714       0.14285714 </v>
   <v>       0.07142857      -0.39285714       0.14285714 </v>
   <v>       0.14285714      -0.39285714       0.14285714 </v>
   <v>       0.17857143      -0.39285714       0.14285714 </v>
   <v>       0.21428571      -0.39285714       0.14285714 </v>
   <v>       0.28571429      -0.39285714       0.14285714 </v>
   <v>       0.32142857      -0.39285714       0.14285714 </v>
   <v>       0.35714286      -0.39285714       0.14285714 </v>
   <v>       0.00000000      -0.35714286       0.14285714 </v>
   <v>       0.03571429      -0.35714286       0.14285714 </v>
   <v>       0.10714286      -0.35714286       0.14285714 </v>
   <v>       0.14285714      -0.35714286       0.14285714 </v>
   <v>       0.17857143      -0.35714286       0.14285714 </v>
   <v>       0.25000000      -0.35714286       0.14285714 </v>
   <v>       0.28571429      -0.35714286       0.14285714 </v>
   <v>       0.32142857      -0.35714286       0.14285714 </v>
   <v>       0.00000000      -0.32142857       0.14285714 </v>
   <v>       0.07142857      -0.32142857       0.14285714 </v>
   <v>       0.10714286      -0.32142857       0.14285714 </v>
   <v>       0.14285714      -0.32142857       0.14285714 </v>
   <v>       0.21428571      -0.32142857       0.14285714 </v>
   <v>       0.25000000      -0.32142857       0.14285714 </v>
   <v>       0.28571429      -0.32142857       0.14285714 </v>
   <v>       0.03571429      -0.28571429       0.14285714 </v>
   <v>       0.07142857      -0.28571429       0.14285714 </v>
   <v>       0.10714286      -0.28571429       0.14285714 </v>
   <v>       0.00000000      -0.25000000       0.14285714 </v>
   <v>       0.03571429      -0.25000000       0.14285714 </v>
   <v>       0.07142857      -0.25000000       0.14285714 </v>
   <v>       0.14285714      -0.25000000       0.14285714 </v>
   <v>       0.17857143      -0.25000000       0.14285714 </v>
   <v>       0.21428571      -0.25000000       0.14285714 </v>
   <v>       0.00000000      -0.21428571       0.14285714 </v>
   <v>       0.03571429      -0.21428571       0.14285714 </v>
   <v>       0.10714286      -0.21428571       0.14285714 </v>
   <v>       0.14285714      -0.21428571       0.14285714 </v>
   <v>       0.17857143      -0.21428571       0.14285714 </v>
   <v>       0.00000000      -0.17857143       0.14285714 </v>
   <v>       0.07142857      -0.17857143       0.14285714 </v>
   <v>       0.10714286      -0.17857143       0.14285714 </v>
   <v>       0.14285714      -0.17857143       0.14285714 </v>
   <v>       0.00000000      -0.10714286       0.14285714 </v>
   <v>       0.03571429      -0.10714286       0.14285714 </v>
   <v>       0.07142857      -0.10714286       0.14285714 </v>
   <v>       0.00000000      -0.07142857       0.14285714 </v>
   <v>       0.03571429      -0.07142857       0.14285714 </v>
   <v>       0.00000000      -0.03571429       0.14285714 </v>
   <v>       0.00000000       0.00000000       0.28571429 </v>
   <v>       0.03571429       0.00000000       0.28571429 </v>
   <v>       0.07142857       0.00000000       0.28571429 </v>
   <v>       0.10714286       0.00000000       0.28571429 </v>
   <v>       0.14285714       0.00000000       0.28571429 </v>
   <v>       0.17857143       0.00000000       0.28571429 </v>
   <v>       0.21428571       0.00000000       0.28571429 </v>
   <v>       0.25000000       0.00000000       0.28571429 </v>
   <v>       0.28571429       0.00000000       0.28571429 </v>
   <v>       0.32142857       0.00000000       0.28571429 </v>
   <v>       0.35714286       0.00000000       0.28571429 </v>
   <v>       0.39285714       0.00000000       0.28571429 </v>
   <v>       0.42857143       0.00000000       0.28571429 </v>
   <v>       0.46428571       0.00000000       0.28571429 </v>
   <v>       0.50000000       0.00000000       0.28571429 </v>
   <v>      -0.46428571       0.00000000       0.28571429 </v>
   <v>      -0.39285714       0.00000000       0.28571429 </v>
   <v>      -0.35714286       0.00000000       0.28571429 </v>
   <v>      -0.32142857       0.00000000       0.28571429 </v>
   <v>      -0.25000000       0.00000000       0.28571429 </v>
   <v>      -0.21428571       0.00000000       0.28571429 </v>
   <v>      -0.17857143       0.00000000       0.28571429 </v>
   <v>      -0.10714286       0.00000000       0.28571429 </v>
   <v>      -0.07142857       0.00000000       0.28571429 </v>
   <v>      -0.03571429       0.00000000       0.28571429 </v>
   <v>       0.00000000       0.03571429       0.28571429 </v>
   <v>       0.03571429       0.03571429       0.28571429 </v>
   <v>       0.07142857       0.03571429       0.28571429 </v>
   <v>       0.10714286       0.03571429       0.28571429 </v>
   <v>       0.14285714       0.03571429       0.28571429 </v>
   <v>       0.17857143       0.03571429       0.28571429 </v>
   <v>       0.21428571       0.03571429       0.28571429 </v>
   <v>       0.25000000       0.03571429       0.28571429 </v>
   <v>       0.28571429       0.03571429       0.28571429 </v>
   <v>       0.32142857       0.03571429       0.28571429 </v>
   <v>       0.35714286       0.03571429       0.28571429 </v>
   <v>       0.39285714       0.03571429       0.28571429 </v>
   <v>       0.42857143       0.03571429       0.28571429 </v>
   <v>       0.46428571       0.03571429       0.28571429 </v>
   <v>       0.50000000       0.03571429       0.28571429 </v>
   <v>      -0.42857143       0.03571429       0.28571429 </v>
   <v>      -0.39285714       0.03571429       0.28571429 </v>
   <v>      -0.35714286       0.03571429       0.28571429 </v>
   <v>      -0.28571429       0.03571429       0.28571429 </v>
   <v>      -0.25000000       0.03571429       0.28571429 </v>
   <v>      -0.21428571       0.03571429       0.28571429 </v>
   <v>      -0.14285714       0.03571429       0.28571429 </v>
   <v>      -0.10714286       0.03571429       0.28571429 </v>
   <v>      -0.07142857       0.03571429       0.28571429 </v>
   <v>       0.00000000       0.07142857       0.28571429 </v>
   <v>       0.03571429       0.07142857       0.28571429 </v>
   <v>       0.07142857       0.07142857       0.28571429 </v>
   <v>       0.10714286       0.07142857       0.28571429 </v>
   <v>       0.14285714       0.07142857       0.28571429 </v>
   <v>       0.17857143       0.07142857       0.28571429 </v>
   <v>       0.21428571       0.07142857       0.28571429 </v>
   <v>       0.25000000       0.07142857       0.28571429 </v>
   <v>       0.28571429       0.07142857       0.28571429 </v>
   <v>       0.32142857       0.07142857       0.28571429 </v>
   <v>       0.35714286       0.07142857       0.28571429 </v>
   <v>       0.39285714       0.07142857       0.28571429 </v>
   <v>       0.42857143       0.07142857       0.28571429 </v>
   <v>       0.46428571       0.07142857       0.28571429 </v>
   <v>      -0.46428571       0.07142857       0.28571429 </v>
   <v>      -0.42857143       0.07142857       0.28571429 </v>
   <v>      -0.39285714       0.07142857       0.28571429 </v>
   <v>      -0.32142857       0.07142857       0.28571429 </v>
   <v>      -0.28571429       0.07142857       0.28571429 </v>
   <v>      -0.25000000       0.07142857       0.28571429 </v>
   <v>      -0.17857143       0.07142857       0.28571429 </v>
   <v>      -0.14285714       0.07142857       0.28571429 </v>
   <v>      -0.10714286       0.07142857       0.28571429 </v>
   <v>       0.00000000       0.10714286       0.28571429 </v>
   <v>       0.03571429       0.10714286       0.28571429 </v>
   <v>       0.07142857       0.10714286       0.28571429 </v>
   <v>       0.10714286       0.10714286       0.28571429 </v>
   <v>       0.14285714       0.10714286       0.28571429 </v>
   <v>       0.17857143       0.10714286       0.28571429 </v>
   <v>       0.21428571       0.10714286       0.28571429 </v>
   <v>       0.25000000       0.10714286       0.28571429 </v>
   <v>       0.28571429       0.10714286       0.28571429 </v>
   <v>       0.32142857       0.10714286       0.28571429 </v>
   <v>       0.35714286       0.10714286       0.28571429 </v>
   <v>       0.39285714       0.10714286       0.28571429 </v>
   <v>       0.42857143       0.10714286       0.28571429 </v>
   <v>       0.50000000       0.10714286       0.28571429 </v>
   <v>      -0.46428571       0.10714286       0.28571429 </v>
   <v>      -0.42857143       0.10714286       0.28571429 </v>
   <v>      -0.35714286       0.10714286       0.28571429 </v>
   <v>      -0.32142857       0.10714286       0.28571429 </v>
   <v>      -0.28571429       0.10714286       0.28571429 </v>
   <v>      -0.21428571       0.10714286       0.28571429 </v>
   <v>      -0.17857143       0.10714286       0.28571429 </v>
   <v>      -0.14285714       0.10714286       0.28571429 </v>
   <v>       0.00000000       0.14285714       0.28571429 </v>
   <v>       0.03571429       0.14285714       0.28571429 </v>
   <v>       0.07142857       0.14285714       0.28571429 </v>
   <v>       0.10714286       0.14285714       0.28571429 </v>
   <v>       0.14285714       0.14285714       0.28571429 </v>
   <v>       0.17857143       0.14285714       0.28571429 </v>
   <v>       0.21428571       0.14285714       0.28571429 </v>
   <v>       0.25000000       0.14285714       0.28571429 </v>
   <v>       0.28571429       0.14285714       0.28571429 </v>
   <v>       0.32142857       0.14285714       0.28571429 </v>
   <v>       0.35714286       0.14285714       0.28571429 </v>
   <v>       0.39285714       0.14285714       0.28571429 </v>
   <v>       0.46428571       0.14285714       0.28571429 </v>
   <v>       0.50000000       0.14285714       0.28571429 </v>
   <v>      -0.46428571       0.14285714       0.28571429 </v>
   <v>      -0.39285714       0.14285714       0.28571429 </v>
   <v>      -0.35714286       0.14285714       0.28571429 </v>
   <v>      -0.32142857       0.14285714       0.28571429 </v>
   <v>      -0.25000000       0.14285714       0.28571429 </v>
   <v>      -0.21428571       0.14285714       0.28571429 </v>
   <v>      -0.17857143       0.14285714       0.28571429 </v>
   <v>       0.00000000       0.17857143       0.28571429 </v>
   <v>       0.03571429       0.17857143       0.28571429 </v>
   <v>       0.07142857       0.17857143       0.28571429 </v>
   <v>       0.10714286       0.17857143       0.28571429 </v>
   <v>       0.14285714       0.17857143       0.28571429 </v>
   <v>       0.17857143       0.17857143       0.28571429 </v>
   <v>       0.21428571       0.17857143       0.28571429 </v>
   <v>       0.25000000       0.17857143       0.28571429 </v>
   <v>       0.28571429       0.17857143       0.28571429 </v>
   <v>       0.32142857       0.17857143       0.28571429 </v>
   <v>       0.35714286       0.17857143       0.28571429 </v>
   <v>       0.42857143       0.17857143       0.28571429 </v>
   <v>       0.46428571       0.17857143       0.28571429 </v>
   <v>       0.50000000       0.17857143       0.28571429 </v>
   <v>      -0.42857143       0.17857143       0.28571429 </v>
   <v>      -0.39285714       0.17857143       0.28571429 </v>
   <v>      -0.35714286       0.17857143       0.28571429 </v>
   <v>      -0.28571429       0.17857143       0.28571429 </v>
   <v>      -0.25000000       0.17857143       0.28571429 </v>
   <v>      -0.21428571       0.17857143       0.28571429 </v>
   <v>       0.00000000       0.21428571       0.28571429 </v>
   <v>       0.03571429       0.21428571       0.28571429 </v>
   <v>       0.07142857       0.21428571       0.28571429 </v>
   <v>       0.10714286       0.21428571       0.28571429 </v>
   <v>       0.14285714       0.21428571       0.28571429 </v>
   <v>       0.17857143       0.21428571       0.28571429 </v>
   <v>       0.21428571       0.21428571       0.28571429 </v>
   <v>       0.25000000       0.21428571       0.28571429 </v>
   <v>       0.28571429       0.21428571       0.28571429 </v>
   <v>       0.32142857       0.21428571       0.28571429 </v>
   <v>       0.39285714       0.21428571       0.28571429 </v>
   <v>       0.42857143       0.21428571       0.28571429 </v>
   <v>       0.46428571       0.21428571       0.28571429 </v>
   <v>      -0.46428571       0.21428571       0.28571429 </v>
   <v>      -0.42857143       0.21428571       0.28571429 </v>
   <v>      -0.39285714       0.21428571       0.28571429 </v>
   <v>      -0.32142857       0.21428571       0.28571429 </v>
   <v>      -0.28571429       0.21428571       0.28571429 </v>
   <v>      -0.25000000       0.21428571       0.28571429 </v>
   <v>       0.00000000       0.25000000       0.28571429 </v>
   <v>       0.03571429       0.25000000       0.28571429 </v>
   <v>       0.07142857       0.25000000       0.28571429 </v>
   <v>       0.10714286       0.25000000       0.28571429 </v>
   <v>       0.14285714       0.25000000       0.28571429 </v>
   <v>       0.21428571       0.25000000       0.28571429 </v>
   <v>       0.25000000       0.25000000       0.28571429 </v>
   <v>       0.28571429       0.25000000       0.28571429 </v>
   <v>       0.35714286       0.25000000       0.28571429 </v>
   <v>       0.39285714       0.25000000       0.28571429 </v>
   <v>       0.42857143       0.25000000       0.28571429 </v>
   <v>       0.50000000       0.25000000       0.28571429 </v>
   <v>      -0.46428571       0.25000000       0.28571429 </v>
   <v>      -0.42857143       0.25000000       0.28571429 </v>
   <v>      -0.35714286       0.25000000       0.28571429 </v>
   <v>      -0.32142857       0.25000000       0.28571429 </v>
   <v>      -0.28571429       0.25000000       0.28571429 </v>
   <v>       0.00000000       0.28571429       0.28571429 </v>
   <v>       0.03571429       0.28571429       0.28571429 </v>
   <v>       0.07142857       0.28571429       0.28571429 </v>
   <v>       0.10714286       0.28571429       0.28571429 </v>
   <v>       0.17857143       0.28571429       0.28571429 </v>
   <v>       0.21428571       0.28571429       0.28571429 </v>
   <v>       0.25000000       0.28571429       0.28571429 </v>
   <v>       0.32142857       0.28571429       0.28571429 </v>
   <v>       0.35714286       0.28571429       0.28571429 </v>
   <v>       0.39285714       0.28571429       0.28571429 </v>
   <v>       0.46428571       0.28571429       0.28571429 </v>
   <v>       0.50000000       0.28571429       0.28571429 </v>
   <v>      -0.46428571       0.28571429       0.28571429 </v>
   <v>      -0.39285714       0.28571429       0.28571429 </v>
   <v>      -0.35714286       0.28571429       0.28571429 </v>
   <v>      -0.32142857       0.28571429       0.28571429 </v>
   <v>       0.00000000       0.32142857       0.28571429 </v>
   <v>       0.03571429       0.32142857       0.28571429 </v>
   <v>       0.07142857       0.32142857       0.28571429 </v>
   <v>       0.14285714       0.32142857       0.28571429 </v>
   <v>       0.17857143       0.32142857       0.28571429 </v>
   <v>       0.21428571       0.32142857       0.28571429 </v>
   <v>       0.28571429       0.32142857       0.28571429 </v>
   <v>       0.32142857       0.32142857       0.28571429 </v>
   <v>       0.35714286       0.32142857       0.28571429 </v>
   <v>       0.42857143       0.32142857       0.28571429 </v>
   <v>       0.46428571       0.32142857       0.28571429 </v>
   <v>       0.50000000       0.32142857       0.28571429 </v>
   <v>      -0.42857143       0.32142857       0.28571429 </v>
   <v>      -0.39285714       0.32142857       0.28571429 </v>
   <v>      -0.35714286       0.32142857       0.28571429 </v>
   <v>       0.00000000       0.35714286       0.28571429 </v>
   <v>       0.03571429       0.35714286       0.28571429 </v>
   <v>       0.10714286       0.35714286       0.28571429 </v>
   <v>       0.14285714       0.35714286       0.28571429 </v>
   <v>       0.17857143       0.35714286       0.28571429 </v>
   <v>       0.25000000       0.35714286       0.28571429 </v>
   <v>       0.28571429       0.35714286       0.28571429 </v>
   <v>       0.32142857       0.35714286       0.28571429 </v>
   <v>       0.39285714       0.35714286       0.28571429 </v>
   <v>       0.42857143       0.35714286       0.28571429 </v>
   <v>       0.46428571       0.35714286       0.28571429 </v>
   <v>      -0.46428571       0.35714286       0.28571429 </v>
   <v>      -0.42857143       0.35714286       0.28571429 </v>
   <v>      -0.39285714       0.35714286       0.28571429 </v>
   <v>       0.00000000       0.39285714       0.28571429 </v>
   <v>       0.07142857       0.39285714       0.28571429 </v>
   <v>       0.10714286       0.39285714       0.28571429 </v>
   <v>       0.14285714       0.39285714       0.28571429 </v>
   <v>       0.21428571       0.39285714       0.28571429 </v>
   <v>       0.25000000       0.39285714       0.28571429 </v>
   <v>       0.28571429       0.39285714       0.28571429 </v>
   <v>       0.35714286       0.39285714       0.28571429 </v>
   <v>       0.39285714       0.39285714       0.28571429 </v>
   <v>       0.42857143       0.39285714       0.28571429 </v>
   <v>       0.50000000       0.39285714       0.28571429 </v>
   <v>      -0.46428571       0.39285714       0.28571429 </v>
   <v>      -0.42857143       0.39285714       0.28571429 </v>
   <v>       0.03571429       0.42857143       0.28571429 </v>
   <v>       0.07142857       0.42857143       0.28571429 </v>
   <v>       0.10714286       0.42857143       0.28571429 </v>
   <v>       0.17857143       0.42857143       0.28571429 </v>
   <v>       0.21428571       0.42857143       0.28571429 </v>
   <v>       0.25000000       0.42857143       0.28571429 </v>
   <v>       0.00000000       0.46428571       0.28571429 </v>
   <v>       0.03571429       0.46428571       0.28571429 </v>
   <v>       0.07142857       0.46428571       0.28571429 </v>
   <v>       0.14285714       0.46428571       0.28571429 </v>
   <v>       0.17857143       0.46428571       0.28571429 </v>
   <v>       0.21428571       0.46428571       0.28571429 </v>
   <v>       0.28571429       0.46428571       0.28571429 </v>
   <v>       0.32142857       0.46428571       0.28571429 </v>
   <v>       0.35714286       0.46428571       0.28571429 </v>
   <v>       0.42857143       0.46428571       0.28571429 </v>
   <v>       0.46428571       0.46428571       0.28571429 </v>
   <v>       0.50000000       0.46428571       0.28571429 </v>
   <v>       0.00000000       0.50000000       0.28571429 </v>
   <v>       0.03571429       0.50000000       0.28571429 </v>
   <v>       0.10714286       0.50000000       0.28571429 </v>
   <v>       0.14285714       0.50000000       0.28571429 </v>
   <v>       0.17857143       0.50000000       0.28571429 </v>
   <v>       0.25000000       0.50000000       0.28571429 </v>
   <v>       0.28571429       0.50000000       0.28571429 </v>
   <v>       0.32142857       0.50000000       0.28571429 </v>
   <v>       0.39285714       0.50000000       0.28571429 </v>
   <v>       0.42857143       0.50000000       0.28571429 </v>
   <v>       0.46428571       0.50000000       0.28571429 </v>
   <v>       0.00000000      -0.46428571       0.28571429 </v>
   <v>       0.07142857      -0.46428571       0.28571429 </v>
   <v>       0.10714286      -0.46428571       0.28571429 </v>
   <v>       0.14285714      -0.46428571       0.28571429 </v>
   <v>       0.21428571      -0.46428571       0.28571429 </v>
   <v>       0.25000000      -0.46428571       0.28571429 </v>
   <v>       0.28571429      -0.46428571       0.28571429 </v>
   <v>       0.35714286      -0.46428571       0.28571429 </v>
   <v>       0.39285714      -0.46428571       0.28571429 </v>
   <v>       0.42857143      -0.46428571       0.28571429 </v>
   <v>       0.00000000      -0.39285714       0.28571429 </v>
   <v>       0.03571429      -0.39285714       0.28571429 </v>
   <v>       0.07142857      -0.39285714       0.28571429 </v>
   <v>       0.14285714      -0.39285714       0.28571429 </v>
   <v>       0.17857143      -0.39285714       0.28571429 </v>
   <v>       0.21428571      -0.39285714       0.28571429 </v>
   <v>       0.28571429      -0.39285714       0.28571429 </v>
   <v>       0.32142857      -0.39285714       0.28571429 </v>
   <v>       0.35714286      -0.39285714       0.28571429 </v>
   <v>       0.00000000      -0.35714286       0.28571429 </v>
   <v>       0.03571429      -0.35714286       0.28571429 </v>
   <v>       0.10714286      -0.35714286       0.28571429 </v>
   <v>       0.14285714      -0.35714286       0.28571429 </v>
   <v>       0.17857143      -0.35714286       0.28571429 </v>
   <v>       0.25000000      -0.35714286       0.28571429 </v>
   <v>       0.28571429      -0.35714286       0.28571429 </v>
   <v>       0.32142857      -0.35714286       0.28571429 </v>
   <v>       0.00000000      -0.32142857       0.28571429 </v>
   <v>       0.07142857      -0.32142857       0.28571429 </v>
   <v>       0.10714286      -0.32142857       0.28571429 </v>
   <v>       0.14285714      -0.32142857       0.28571429 </v>
   <v>       0.21428571      -0.32142857       0.28571429 </v>
   <v>       0.25000000      -0.32142857       0.28571429 </v>
   <v>       0.28571429      -0.32142857       0.28571429 </v>
   <v>       0.00000000      -0.25000000       0.28571429 </v>
   <v>       0.03571429      -0.25000000       0.28571429 </v>
   <v>       0.07142857      -0.25000000       0.28571429 </v>
   <v>       0.14285714      -0.25000000       0.28571429 </v>
   <v>       0.17857143      -0.25000000       0.28571429 </v>
   <v>       0.21428571      -0.25000000       0.28571429 </v>
   <v>       0.00000000      -0.21428571       0.28571429 </v>
   <v>       0.03571429      -0.21428571       0.28571429 </v>
   <v>       0.10714286      -0.21428571       0.28571429 </v>
   <v>       0.14285714      -0.21428571       0.28571429 </v>
   <v>       0.17857143      -0.21428571       0.28571429 </v>
   <v>       0.00000000      -0.17857143       0.28571429 </v>
   <v>       0.07142857      -0.17857143       0.28571429 </v>
   <v>       0.10714286      -0.17857143       0.28571429 </v>
   <v>       0.14285714      -0.17857143       0.28571429 </v>
   <v>       0.00000000      -0.10714286       0.28571429 </v>
   <v>       0.03571429      -0.10714286       0.28571429 </v>
   <v>       0.07142857      -0.10714286       0.28571429 </v>
   <v>       0.00000000      -0.07142857       0.28571429 </v>
   <v>       0.03571429      -0.07142857       0.28571429 </v>
   <v>       0.00000000      -0.03571429       0.28571429 </v>
   <v>       0.00000000       0.00000000       0.42857143 </v>
   <v>       0.03571429       0.00000000       0.42857143 </v>
   <v>       0.07142857       0.00000000       0.42857143 </v>
   <v>       0.10714286       0.00000000       0.42857143 </v>
   <v>       0.14285714       0.00000000       0.42857143 </v>
   <v>       0.17857143       0.00000000       0.42857143 </v>
   <v>       0.21428571       0.00000000       0.42857143 </v>
   <v>       0.25000000       0.00000000       0.42857143 </v>
   <v>       0.32142857       0.00000000       0.42857143 </v>
   <v>       0.35714286       0.00000000       0.42857143 </v>
   <v>       0.39285714       0.00000000       0.42857143 </v>
   <v>       0.46428571       0.00000000       0.42857143 </v>
   <v>       0.50000000       0.00000000       0.42857143 </v>
   <v>      -0.46428571       0.00000000       0.42857143 </v>
   <v>      -0.39285714       0.00000000       0.42857143 </v>
   <v>      -0.35714286       0.00000000       0.42857143 </v>
   <v>      -0.32142857       0.00000000       0.42857143 </v>
   <v>      -0.25000000       0.00000000       0.42857143 </v>
   <v>      -0.21428571       0.00000000       0.42857143 </v>
   <v>      -0.17857143       0.00000000       0.42857143 </v>
   <v>      -0.10714286       0.00000000       0.42857143 </v>
   <v>      -0.07142857       0.00000000       0.42857143 </v>
   <v>      -0.03571429       0.00000000       0.42857143 </v>
   <v>       0.00000000       0.03571429       0.42857143 </v>
   <v>       0.03571429       0.03571429       0.42857143 </v>
   <v>       0.07142857       0.03571429       0.42857143 </v>
   <v>       0.10714286       0.03571429       0.42857143 </v>
   <v>       0.14285714       0.03571429       0.42857143 </v>
   <v>       0.17857143       0.03571429       0.42857143 </v>
   <v>       0.21428571       0.03571429       0.42857143 </v>
   <v>       0.28571429       0.03571429       0.42857143 </v>
   <v>       0.32142857       0.03571429       0.42857143 </v>
   <v>       0.35714286       0.03571429       0.42857143 </v>
   <v>       0.42857143       0.03571429       0.42857143 </v>
   <v>       0.46428571       0.03571429       0.42857143 </v>
   <v>       0.50000000       0.03571429       0.42857143 </v>
   <v>      -0.42857143       0.03571429       0.42857143 </v>
   <v>      -0.39285714       0.03571429       0.42857143 </v>
   <v>      -0.35714286       0.03571429       0.42857143 </v>
   <v>      -0.28571429       0.03571429       0.42857143 </v>
   <v>      -0.25000000       0.03571429       0.42857143 </v>
   <v>      -0.21428571       0.03571429       0.42857143 </v>
   <v>      -0.14285714       0.03571429       0.42857143 </v>
   <v>      -0.10714286       0.03571429       0.42857143 </v>
   <v>      -0.07142857       0.03571429       0.42857143 </v>
   <v>       0.00000000       0.07142857       0.42857143 </v>
   <v>       0.03571429       0.07142857       0.42857143 </v>
   <v>       0.07142857       0.07142857       0.42857143 </v>
   <v>       0.10714286       0.07142857       0.42857143 </v>
   <v>       0.14285714       0.07142857       0.42857143 </v>
   <v>       0.17857143       0.07142857       0.42857143 </v>
   <v>       0.25000000       0.07142857       0.42857143 </v>
   <v>       0.28571429       0.07142857       0.42857143 </v>
   <v>       0.32142857       0.07142857       0.42857143 </v>
   <v>       0.39285714       0.07142857       0.42857143 </v>
   <v>       0.42857143       0.07142857       0.42857143 </v>
   <v>       0.46428571       0.07142857       0.42857143 </v>
   <v>      -0.46428571       0.07142857       0.42857143 </v>
   <v>      -0.42857143       0.07142857       0.42857143 </v>
   <v>      -0.39285714       0.07142857       0.42857143 </v>
   <v>      -0.32142857       0.07142857       0.42857143 </v>
   <v>      -0.28571429       0.07142857       0.42857143 </v>
   <v>      -0.25000000       0.07142857       0.42857143 </v>
   <v>      -0.17857143       0.07142857       0.42857143 </v>
   <v>      -0.14285714       0.07142857       0.42857143 </v>
   <v>      -0.10714286       0.07142857       0.42857143 </v>
   <v>       0.00000000       0.10714286       0.42857143 </v>
   <v>       0.07142857       0.10714286       0.42857143 </v>
   <v>       0.10714286       0.10714286       0.42857143 </v>
   <v>       0.14285714       0.10714286       0.42857143 </v>
   <v>       0.21428571       0.10714286       0.42857143 </v>
   <v>       0.25000000       0.10714286       0.42857143 </v>
   <v>       0.28571429       0.10714286       0.42857143 </v>
   <v>       0.35714286       0.10714286       0.42857143 </v>
   <v>       0.39285714       0.10714286       0.42857143 </v>
   <v>       0.42857143       0.10714286       0.42857143 </v>
   <v>       0.50000000       0.10714286       0.42857143 </v>
   <v>      -0.46428571       0.10714286       0.42857143 </v>
   <v>      -0.42857143       0.10714286       0.42857143 </v>
   <v>      -0.35714286       0.10714286       0.42857143 </v>
   <v>      -0.32142857       0.10714286       0.42857143 </v>
   <v>      -0.28571429       0.10714286       0.42857143 </v>
   <v>      -0.21428571       0.10714286       0.42857143 </v>
   <v>      -0.17857143       0.10714286       0.42857143 </v>
   <v>      -0.14285714       0.10714286       0.42857143 </v>
   <v>       0.03571429       0.14285714       0.42857143 </v>
   <v>       0.07142857       0.14285714       0.42857143 </v>
   <v>       0.10714286       0.14285714       0.42857143 </v>
   <v>       0.17857143       0.14285714       0.42857143 </v>
   <v>       0.21428571       0.14285714       0.42857143 </v>
   <v>       0.25000000       0.14285714       0.42857143 </v>
   <v>       0.32142857       0.14285714       0.42857143 </v>
   <v>       0.35714286       0.14285714       0.42857143 </v>
   <v>       0.39285714       0.14285714       0.42857143 </v>
   <v>       0.00000000       0.17857143       0.42857143 </v>
   <v>       0.03571429       0.17857143       0.42857143 </v>
   <v>       0.07142857       0.17857143       0.42857143 </v>
   <v>       0.14285714       0.17857143       0.42857143 </v>
   <v>       0.17857143       0.17857143       0.42857143 </v>
   <v>       0.21428571       0.17857143       0.42857143 </v>
   <v>       0.28571429       0.17857143       0.42857143 </v>
   <v>       0.32142857       0.17857143       0.42857143 </v>
   <v>       0.35714286       0.17857143       0.42857143 </v>
   <v>       0.42857143       0.17857143       0.42857143 </v>
   <v>       0.46428571       0.17857143       0.42857143 </v>
   <v>       0.50000000       0.17857143       0.42857143 </v>
   <v>      -0.42857143       0.17857143       0.42857143 </v>
   <v>      -0.39285714       0.17857143       0.42857143 </v>
   <v>      -0.35714286       0.17857143       0.42857143 </v>
   <v>      -0.28571429       0.17857143       0.42857143 </v>
   <v>      -0.25000000       0.17857143       0.42857143 </v>
   <v>      -0.21428571       0.17857143       0.42857143 </v>
   <v>       0.00000000       0.21428571       0.42857143 </v>
   <v>       0.03571429       0.21428571       0.42857143 </v>
   <v>       0.10714286       0.21428571       0.42857143 </v>
   <v>       0.14285714       0.21428571       0.42857143 </v>
   <v>       0.17857143       0.21428571       0.42857143 </v>
   <v>       0.25000000       0.21428571       0.42857143 </v>
   <v>       0.28571429       0.21428571       0.42857143 </v>
   <v>       0.32142857       0.21428571       0.42857143 </v>
   <v>       0.39285714       0.21428571       0.42857143 </v>
   <v>       0.42857143       0.21428571       0.42857143 </v>
   <v>       0.46428571       0.21428571       0.42857143 </v>
   <v>      -0.46428571       0.21428571       0.42857143 </v>
   <v>      -0.42857143       0.21428571       0.42857143 </v>
   <v>      -0.39285714       0.21428571       0.42857143 </v>
   <v>      -0.32142857       0.21428571       0.42857143 </v>
   <v>      -0.28571429       0.21428571       0.42857143 </v>
   <v>      -0.25000000       0.21428571       0.42857143 </v>
   <v>       0.00000000       0.25000000       0.42857143 </v>
   <v>       0.07142857       0.25000000       0.42857143 </v>
   <v>       0.10714286       0.25000000       0.42857143 </v>
   <v>       0.14285714       0.25000000       0.42857143 </v>
   <v>       0.21428571       0.25000000       0.42857143 </v>
   <v>       0.25000000       0.25000000       0.42857143 </v>
   <v>       0.28571429       0.25000000       0.42857143 </v>
   <v>       0.35714286       0.25000000       0.42857143 </v>
   <v>       0.39285714       0.25000000       0.42857143 </v>
   <v>       0.42857143       0.25000000       0.42857143 </v>
   <v>       0.50000000       0.25000000       0.42857143 </v>
   <v>      -0.46428571       0.25000000       0.42857143 </v>
   <v>      -0.42857143       0.25000000       0.42857143 </v>
   <v>      -0.35714286       0.25000000       0.42857143 </v>
   <v>      -0.32142857       0.25000000       0.42857143 </v>
   <v>      -0.28571429       0.25000000       0.42857143 </v>
   <v>       0.00000000       0.32142857       0.42857143 </v>
   <v>       0.03571429       0.32142857       0.42857143 </v>
   <v>       0.07142857       0.32142857       0.42857143 </v>
   <v>       0.14285714       0.32142857       0.42857143 </v>
   <v>       0.17857143       0.32142857       0.42857143 </v>
   <v>       0.21428571       0.32142857       0.42857143 </v>
   <v>       0.28571429       0.32142857       0.42857143 </v>
   <v>       0.32142857       0.32142857       0.42857143 </v>
   <v>       0.35714286       0.32142857       0.42857143 </v>
   <v>       0.42857143       0.32142857       0.42857143 </v>
   <v>       0.46428571       0.32142857       0.42857143 </v>
   <v>       0.50000000       0.32142857       0.42857143 </v>
   <v>      -0.42857143       0.32142857       0.42857143 </v>
   <v>      -0.39285714       0.32142857       0.42857143 </v>
   <v>      -0.35714286       0.32142857       0.42857143 </v>
   <v>       0.00000000       0.35714286       0.42857143 </v>
   <v>       0.03571429       0.35714286       0.42857143 </v>
   <v>       0.10714286       0.35714286       0.42857143 </v>
   <v>       0.14285714       0.35714286       0.42857143 </v>
   <v>       0.17857143       0.35714286       0.42857143 </v>
   <v>       0.25000000       0.35714286       0.42857143 </v>
   <v>       0.28571429       0.35714286       0.42857143 </v>
   <v>       0.32142857       0.35714286       0.42857143 </v>
   <v>       0.39285714       0.35714286       0.42857143 </v>
   <v>       0.42857143       0.35714286       0.42857143 </v>
   <v>       0.46428571       0.35714286       0.42857143 </v>
   <v>      -0.46428571       0.35714286       0.42857143 </v>
   <v>      -0.42857143       0.35714286       0.42857143 </v>
   <v>      -0.39285714       0.35714286       0.42857143 </v>
   <v>       0.00000000       0.39285714       0.42857143 </v>
   <v>       0.07142857       0.39285714       0.42857143 </v>
   <v>       0.10714286       0.39285714       0.42857143 </v>
   <v>       0.14285714       0.39285714       0.42857143 </v>
   <v>       0.21428571       0.39285714       0.42857143 </v>
   <v>       0.25000000       0.39285714       0.42857143 </v>
   <v>       0.28571429       0.39285714       0.42857143 </v>
   <v>       0.35714286       0.39285714       0.42857143 </v>
   <v>       0.39285714       0.39285714       0.42857143 </v>
   <v>       0.42857143       0.39285714       0.42857143 </v>
   <v>       0.50000000       0.39285714       0.42857143 </v>
   <v>      -0.46428571       0.39285714       0.42857143 </v>
   <v>      -0.42857143       0.39285714       0.42857143 </v>
   <v>       0.00000000       0.46428571       0.42857143 </v>
   <v>       0.03571429       0.46428571       0.42857143 </v>
   <v>       0.07142857       0.46428571       0.42857143 </v>
   <v>       0.14285714       0.46428571       0.42857143 </v>
   <v>       0.17857143       0.46428571       0.42857143 </v>
   <v>       0.21428571       0.46428571       0.42857143 </v>
   <v>       0.28571429       0.46428571       0.42857143 </v>
   <v>       0.32142857       0.46428571       0.42857143 </v>
   <v>       0.35714286       0.46428571       0.42857143 </v>
   <v>       0.42857143       0.46428571       0.42857143 </v>
   <v>       0.46428571       0.46428571       0.42857143 </v>
   <v>       0.50000000       0.46428571       0.42857143 </v>
   <v>       0.00000000       0.50000000       0.42857143 </v>
   <v>       0.03571429       0.50000000       0.42857143 </v>
   <v>       0.10714286       0.50000000       0.42857143 </v>
   <v>       0.14285714       0.50000000       0.42857143 </v>
   <v>       0.17857143       0.50000000       0.42857143 </v>
   <v>       0.25000000       0.50000000       0.42857143 </v>
   <v>       0.28571429       0.50000000       0.42857143 </v>
   <v>       0.32142857       0.50000000       0.42857143 </v>
   <v>       0.39285714       0.50000000       0.42857143 </v>
   <v>       0.42857143       0.50000000       0.42857143 </v>
   <v>       0.46428571       0.50000000       0.42857143 </v>
   <v>       0.00000000      -0.46428571       0.42857143 </v>
   <v>       0.07142857      -0.46428571       0.42857143 </v>
   <v>       0.10714286      -0.46428571       0.42857143 </v>
   <v>       0.14285714      -0.46428571       0.42857143 </v>
   <v>       0.21428571      -0.46428571       0.42857143 </v>
   <v>       0.25000000      -0.46428571       0.42857143 </v>
   <v>       0.28571429      -0.46428571       0.42857143 </v>
   <v>       0.35714286      -0.46428571       0.42857143 </v>
   <v>       0.39285714      -0.46428571       0.42857143 </v>
   <v>       0.42857143      -0.46428571       0.42857143 </v>
   <v>       0.00000000      -0.39285714       0.42857143 </v>
   <v>       0.03571429      -0.39285714       0.42857143 </v>
   <v>       0.07142857      -0.39285714       0.42857143 </v>
   <v>       0.14285714      -0.39285714       0.42857143 </v>
   <v>       0.17857143      -0.39285714       0.42857143 </v>
   <v>       0.21428571      -0.39285714       0.42857143 </v>
   <v>       0.28571429      -0.39285714       0.42857143 </v>
   <v>       0.32142857      -0.39285714       0.42857143 </v>
   <v>       0.35714286      -0.39285714       0.42857143 </v>
   <v>       0.00000000      -0.35714286       0.42857143 </v>
   <v>       0.03571429      -0.35714286       0.42857143 </v>
   <v>       0.10714286      -0.35714286       0.42857143 </v>
   <v>       0.14285714      -0.35714286       0.42857143 </v>
   <v>       0.17857143      -0.35714286       0.42857143 </v>
   <v>       0.25000000      -0.35714286       0.42857143 </v>
   <v>       0.28571429      -0.35714286       0.42857143 </v>
   <v>       0.32142857      -0.35714286       0.42857143 </v>
   <v>       0.00000000      -0.32142857       0.42857143 </v>
   <v>       0.07142857      -0.32142857       0.42857143 </v>
   <v>       0.10714286      -0.32142857       0.42857143 </v>
   <v>       0.14285714      -0.32142857       0.42857143 </v>
   <v>       0.21428571      -0.32142857       0.42857143 </v>
   <v>       0.25000000      -0.32142857       0.42857143 </v>
   <v>       0.28571429      -0.32142857       0.42857143 </v>
   <v>       0.00000000      -0.25000000       0.42857143 </v>
   <v>       0.03571429      -0.25000000       0.42857143 </v>
   <v>       0.07142857      -0.25000000       0.42857143 </v>
   <v>       0.14285714      -0.25000000       0.42857143 </v>
   <v>       0.17857143      -0.25000000       0.42857143 </v>
   <v>       0.21428571      -0.25000000       0.42857143 </v>
   <v>       0.00000000      -0.21428571       0.42857143 </v>
   <v>       0.03571429      -0.21428571       0.42857143 </v>
   <v>       0.10714286      -0.21428571       0.42857143 </v>
   <v>       0.14285714      -0.21428571       0.42857143 </v>
   <v>       0.17857143      -0.21428571       0.42857143 </v>
   <v>       0.00000000      -0.17857143       0.42857143 </v>
   <v>       0.07142857      -0.17857143       0.42857143 </v>
   <v>       0.10714286      -0.17857143       0.42857143 </v>
   <v>       0.14285714      -0.17857143       0.42857143 </v>
   <v>       0.00000000      -0.10714286       0.42857143 </v>
   <v>       0.03571429      -0.10714286       0.42857143 </v>
   <v>       0.07142857      -0.10714286       0.42857143 </v>
   <v>       0.00000000      -0.07142857       0.42857143 </v>
   <v>       0.03571429      -0.07142857       0.42857143 </v>
   <v>       0.00000000      -0.03571429       0.42857143 </v>
  </varray>
  <varray name="weights" >
   <v>       0.00018222 </v>
   <v>       0.00072886 </v>
   <v>       0.00072886 </v>
   <v>       0.00072886 </v>
   <v>       0.00109329 </v>
   <v>       0.00072886 </v>
   <v>       0.00072886 </v>
   <v>       0.00072886 </v>
   <v>       0.00109329 </v>
   <v>       0.00072886 </v>
   <v>       0.00072886 </v>
   <v>       0.00072886 </v>
   <v>       0.00109329 </v>
   <v>       0.00072886 </v>
   <v>       0.00036443 </v>
   <v>       0.00036443 </v>
   <v>       0.00072886 </v>
   <v>       0.00072886 </v>
   <v>       0.00145773 </v>
   <v>       0.00072886 </v>
   <v>       0.00072886 </v>
   <v>       0.00072886 </v>
   <v>       0.00145773 </v>
   <v>       0.00072886 </v>
   <v>       0.00072886 </v>
   <v>       0.00072886 </v>
   <v>       0.00145773 </v>
   <v>       0.00072886 </v>
   <v>       0.00072886 </v>
   <v>       0.00072886 </v>
   <v>       0.00145773 </v>
   <v>       0.00072886 </v>
   <v>       0.00072886 </v>
   <v>       0.00072886 </v>
   <v>       0.00145773 </v>
   <v>       0.00072886 </v>
   <v>       0.00072886 </v>
   <v>       0.00072886 </v>
   <v>       0.00145773 </v>
   <v>       0.00072886 </v>
   <v>       0.00072886 </v>
   <v>       0.00036443 </v>
   <v>       0.00036443 </v>
   <v>       0.00072886 </v>
   <v>       0.00145773 </v>
   <v>       0.00072886 </v>
   <v>       0.00072886 </v>
   <v>       0.00072886 </v>
   <v>       0.00145773 </v>
   <v>       0.00072886 </v>
   <v>       0.00072886 </v>
   <v>       0.00072886 </v>
   <v>       0.00145773 </v>
   <v>       0.00072886 </v>
   <v>       0.00072886 </v>
   <v>       0.00072886 </v>
   <v>       0.00145773 </v>
   <v>       0.00072886 </v>
   <v>       0.00072886 </v>
   <v>       0.00072886 </v>
   <v>       0.00145773 </v>
   <v>       0.00072886 </v>
   <v>       0.00072886 </v>
   <v>       0.00072886 </v>
   <v>       0.00145773 </v>
   <v>       0.00072886 </v>
   <v>       0.00036443 </v>
   <v>       0.00036443 </v>
   <v>       0.00145773 </v>
   <v>       0.00072886 </v>
   <v>       0.00072886 </v>
   <v>       0.00072886 </v>
   <v>       0.00145773 </v>
   <v>       0.00072886 </v>
   <v>       0.00072886 </v>
   <v>       0.00072886 </v>
   <v>       0.00145773 </v>
   <v>       0.00072886 </v>
   <v>       0.00072886 </v>
   <v>       0.00072886 </v>
   <v>       0.00145773 </v>
   <v>       0.00072886 </v>
   <v>       0.00072886 </v>
   <v>       0.00072886 </v>
   <v>       0.00145773 </v>
   <v>       0.00072886 </v>
   <v>       0.00072886 </v>
   <v>       0.00072886 </v>
   <v>       0.00145773 </v>
   <v>       0.00036443 </v>
   <v>       0.00109329 </v>
   <v>       0.00145773 </v>
   <v>       0.00145773 </v>
   <v>       0.00145773 </v>
   <v>       0.00218659 </v>
   <v>       0.00145773 </v>
   <v>       0.00145773 </v>
   <v>       0.00145773 </v>
   <v>       0.00218659 </v>
   <v>       0.00145773 </v>
   <v>       0.00145773 </v>
   <v>       0.00145773 </v>
   <v>       0.00218659 </v>
   <v>       0.00145773 </v>
   <v>       0.00145773 </v>
   <v>       0.00145773 </v>
   <v>       0.00218659 </v>
   <v>       0.00145773 </v>
   <v>       0.00145773 </v>
   <v>       0.00145773 </v>
   <v>       0.00109329 </v>
   <v>       0.00036443 </v>
   <v>       0.00072886 </v>
   <v>       0.00072886 </v>
   <v>       0.00145773 </v>
   <v>       0.00072886 </v>
   <v>       0.00072886 </v>
   <v>       0.00072886 </v>
   <v>       0.00145773 </v>
   <v>       0.00072886 </v>
   <v>       0.00072886 </v>
   <v>       0.00072886 </v>
   <v>       0.00145773 </v>
   <v>       0.00072886 </v>
   <v>       0.00072886 </v>
   <v>       0.00072886 </v>
   <v>       0.00145773 </v>
   <v>       0.00072886 </v>
   <v>       0.00072886 </v>
   <v>       0.00036443 </v>
   <v>       0.00036443 </v>
   <v>       0.00072886 </v>
   <v>       0.00145773 </v>
   <v>       0.00072886 </v>
   <v>       0.00072886 </v>
   <v>       0.00072886 </v>
   <v>       0.00145773 </v>
   <v>       0.00072886 </v>
   <v>       0.00072886 </v>
   <v>       0.00072886 </v>
   <v>       0.00145773 </v>
   <v>       0.00072886 </v>
   <v>       0.00072886 </v>
   <v>       0.00072886 </v>
   <v>       0.00145773 </v>
   <v>       0.00072886 </v>
   <v>       0.00036443 </v>
   <v>       0.00036443 </v>
   <v>       0.00145773 </v>
   <v>       0.00072886 </v>
   <v>       0.00072886 </v>
   <v>       0.00072886 </v>
   <v>       0.00145773 </v>
   <v>       0.00072886 </v>
   <v>       0.00072886 </v>
   <v>       0.00072886 </v>
   <v>       0.00145773 </v>
   <v>       0.00072886 </v>
   <v>       0.00072886 </v>
   <v>       0.00072886 </v>
   <v>       0.00145773 </v>
   <v>       0.00036443 </v>
   <v>       0.00109329 </v>
   <v>       0.00145773 </v>
   <v>       0.00145773 </v>
   <v>       0.00145773 </v>
   <v>       0.00218659 </v>
   <v>       0.00145773 </v>
   <v>       0.00145773 </v>
   <v>       0.00145773 </v>
   <v>       0.00218659 </v>
   <v>       0.00145773 </v>
   <v>       0.00145773 </v>
   <v>       0.00145773 </v>
   <v>       0.00109329 </v>
   <v>       0.00036443 </v>
   <v>       0.00072886 </v>
   <v>       0.00072886 </v>
   <v>       0.00145773 </v>
   <v>       0.00072886 </v>
   <v>       0.00072886 </v>
   <v>       0.00072886 </v>
   <v>       0.00145773 </v>
   <v>       0.00072886 </v>
   <v>       0.00072886 </v>
   <v>       0.00036443 </v>
   <v>       0.00036443 </v>
   <v>       0.00072886 </v>
   <v>       0.00145773 </v>
   <v>       0.00072886 </v>
[...]
       <r>    4.2745    1.0000 </r>
       <r>    4.3041    1.0000 </r>
       <r>    4.3573    1.0000 </r>
       <r>    4.4511    1.0000 </r>
       <r>    4.8940    1.0000 </r>
       <r>    4.9570    1.0000 </r>
       <r>    5.2021    1.0000 </r>
       <r>    5.3875    1.0000 </r>
       <r>    5.4963    1.0000 </r>
       <r>    5.8712    1.0000 </r>
       <r>    6.1288    1.0000 </r>
       <r>    6.4639    1.0000 </r>
       <r>    7.4232    1.0000 </r>
       <r>   13.5528    0.0000 </r>
       <r>   15.6712    0.0000 </r>
       <r>   22.6555    0.0000 </r>
       <r>   22.9111    0.0000 </r>
      </set>
      <set comment="kpoint 1152">
       <r>   -0.2182    1.0000 </r>
       <r>    0.4836    1.0000 </r>
       <r>    1.6570    1.0000 </r>
       <r>    2.2555    1.0000 </r>
       <r>    3.6807    1.0000 </r>
       <r>    3.7990    1.0000 </r>
       <r>    3.8805    1.0000 </r>
       <r>    3.9425    1.0000 </r>
       <r>    4.0639    1.0000 </r>
       <r>    4.1260    1.0000 </r>
       <r>    4.1346    1.0000 </r>
       <r>    4.2265    1.0000 </r>
       <r>    4.2724    1.0000 </r>
       <r>    4.3160    1.0000 </r>
       <r>    4.7029    1.0000 </r>
       <r>    4.9384    1.0000 </r>
       <r>    4.9818    1.0000 </r>
       <r>    5.3278    1.0000 </r>
       <r>    5.3960    1.0000 </r>
       <r>    5.4332    1.0000 </r>
       <r>    5.7140    1.0000 </r>
       <r>    6.2801    1.0000 </r>
       <r>    6.4096    1.0000 </r>
       <r>    7.0626    1.0000 </r>
       <r>   13.4773    0.0000 </r>
       <r>   15.6179    0.0000 </r>
       <r>   22.6161    0.0000 </r>
       <r>   23.0687    0.0000 </r>
      </set>
      <set comment="kpoint 1153">
       <r>   -0.2466    1.0000 </r>
       <r>    0.4328    1.0000 </r>
       <r>    1.6259    1.0000 </r>
       <r>    2.2302    1.0000 </r>
       <r>    3.7187    1.0000 </r>
       <r>    3.7950    1.0000 </r>
       <r>    3.8909    1.0000 </r>
       <r>    3.9283    1.0000 </r>
       <r>    4.0760    1.0000 </r>
       <r>    4.1154    1.0000 </r>
       <r>    4.1295    1.0000 </r>
       <r>    4.2112    1.0000 </r>
       <r>    4.2548    1.0000 </r>
       <r>    4.2871    1.0000 </r>
       <r>    4.7538    1.0000 </r>
       <r>    4.9425    1.0000 </r>
       <r>    5.0110    1.0000 </r>
       <r>    5.3784    1.0000 </r>
       <r>    5.4071    1.0000 </r>
       <r>    5.5028    1.0000 </r>
       <r>    5.8262    1.0000 </r>
       <r>    6.1579    1.0000 </r>
       <r>    6.2988    1.0000 </r>
       <r>    6.9480    1.0000 </r>
       <r>   13.5639    0.0000 </r>
       <r>   15.4802    0.0000 </r>
       <r>   22.6487    0.0000 </r>
       <r>   23.0610    0.0000 </r>
      </set>
      <set comment="kpoint 1154">
       <r>   -0.3135    1.0000 </r>
       <r>    0.3469    1.0000 </r>
       <r>    1.5605    1.0000 </r>
       <r>    2.1787    1.0000 </r>
       <r>    3.7666    1.0000 </r>
       <r>    3.8279    1.0000 </r>
       <r>    3.8956    1.0000 </r>
       <r>    3.8976    1.0000 </r>
       <r>    4.0804    1.0000 </r>
       <r>    4.0892    1.0000 </r>
       <r>    4.1333    1.0000 </r>
       <r>    4.1580    1.0000 </r>
       <r>    4.2346    1.0000 </r>
       <r>    4.2489    1.0000 </r>
       <r>    4.9171    1.0000 </r>
       <r>    4.9782    1.0000 </r>
       <r>    5.0996    1.0000 </r>
       <r>    5.3838    1.0000 </r>
       <r>    5.4095    1.0000 </r>
       <r>    5.6915    1.0000 </r>
       <r>    5.8042    1.0000 </r>
       <r>    6.1325    1.0000 </r>
       <r>    6.2302    1.0000 </r>
       <r>    6.5644    1.0000 </r>
       <r>   13.6236    0.0000 </r>
       <r>   15.3276    0.0000 </r>
       <r>   22.6479    0.0000 </r>
       <r>   23.0705    0.0000 </r>
      </set>
     </set>
    </set>
   </array>
  </eigenvalues>
  <separator name="orbital magnetization" >
   <v name="MAGDIPOLOUT">      0.00000000      0.00000000      0.00000000</v>
  </separator>
  <dos>
   <i name="efermi">      8.46950380 </i>
   <total>
    <array>
     <dimension dim="1">gridpoints</dimension>
     <dimension dim="2">spin</dimension>
     <field>energy</field>
     <field>total</field>
     <field>integrated</field>
     <set>
      <set comment="spin 1">
       <r>    -3.5600     0.0000     0.0000 </r>
       <r>    -3.4602     0.0000     0.0000 </r>
       <r>    -3.3604     0.0000     0.0000 </r>
       <r>    -3.2607     0.0000     0.0000 </r>
       <r>    -3.1609     0.0000     0.0000 </r>
       <r>    -3.0611     0.0000     0.0000 </r>
       <r>    -2.9614     0.0000     0.0000 </r>
       <r>    -2.8616     0.0000     0.0000 </r>
       <r>    -2.7618     0.0000     0.0000 </r>
       <r>    -2.6621     0.0000     0.0000 </r>
       <r>    -2.5623     0.0000     0.0000 </r>
       <r>    -2.4625     0.0000     0.0000 </r>
       <r>    -2.3628     0.0000     0.0000 </r>
       <r>    -2.2630     0.0000     0.0000 </r>
       <r>    -2.1632     0.0000     0.0000 </r>
       <r>    -2.0634     0.0000     0.0000 </r>
       <r>    -1.9637     0.0000     0.0000 </r>
       <r>    -1.8639     0.0000     0.0000 </r>
       <r>    -1.7641     0.0000     0.0000 </r>
       <r>    -1.6644     0.0000     0.0000 </r>
       <r>    -1.5646     0.0000     0.0000 </r>
       <r>    -1.4648     0.0000     0.0000 </r>
       <r>    -1.3651     0.0000     0.0000 </r>
       <r>    -1.2653    -0.0001     0.0000 </r>
       <r>    -1.1655    -0.0004    -0.0001 </r>
       <r>    -1.0658    -0.0014    -0.0002 </r>
       <r>    -0.9660    -0.0034    -0.0005 </r>
       <r>    -0.8662    -0.0060    -0.0011 </r>
       <r>    -0.7665    -0.0054    -0.0017 </r>
       <r>    -0.6667     0.0058    -0.0011 </r>
       <r>    -0.5669     0.0354     0.0024 </r>
       <r>    -0.4672     0.0851     0.0109 </r>
       <r>    -0.3674     0.1452     0.0254 </r>
       <r>    -0.2676     0.1998     0.0453 </r>
       <r>    -0.1678     0.2369     0.0690 </r>
       <r>    -0.0681     0.2549     0.0944 </r>
       <r>     0.0317     0.2617     0.1205 </r>
       <r>     0.1315     0.2683     0.1473 </r>
       <r>     0.2312     0.2834     0.1756 </r>
       <r>     0.3310     0.3107     0.2066 </r>
       <r>     0.4308     0.3480     0.2413 </r>
       <r>     0.5305     0.3905     0.2802 </r>
       <r>     0.6303     0.4350     0.3237 </r>
       <r>     0.7301     0.4810     0.3716 </r>
       <r>     0.8298     0.5262     0.4241 </r>
       <r>     0.9296     0.5660     0.4806 </r>
       <r>     1.0294     0.5988     0.5404 </r>
       <r>     1.1291     0.6276     0.6030 </r>
       <r>     1.2289     0.6601     0.6688 </r>
       <r>     1.3287     0.7112     0.7398 </r>
       <r>     1.4284     0.8027     0.8199 </r>
       <r>     1.5282     0.9588     0.9155 </r>
       <r>     1.6280     1.2062     1.0359 </r>
       <r>     1.7277     1.5657     1.1921 </r>
       <r>     1.8275     2.0357     1.3952 </r>
       <r>     1.9273     2.6022     1.6548 </r>
       <r>     2.0271     3.2732     1.9813 </r>
       <r>     2.1268     4.0880     2.3892 </r>
       <r>     2.2266     5.0758     2.8956 </r>
       <r>     2.3264     6.1874     3.5129 </r>
       <r>     2.4261     7.2610     4.2373 </r>
       <r>     2.5259     8.0894     5.0444 </r>
       <r>     2.6257     8.5549     5.8979 </r>
       <r>     2.7254     8.6739     6.7633 </r>
       <r>     2.8252     8.5052     7.6118 </r>
       <r>     2.9250     8.0818     8.4181 </r>
       <r>     3.0247     7.4928     9.1657 </r>
       <r>     3.1245     6.9870     9.8628 </r>
       <r>     3.2243     6.8775    10.5489 </r>
       <r>     3.3240     7.2818    11.2754 </r>
       <r>     3.4238     7.9934    12.0729 </r>
       <r>     3.5236     8.6581    12.9367 </r>
       <r>     3.6233     9.0685    13.8415 </r>
       <r>     3.7231     9.3041    14.7697 </r>
       <r>     3.8229     9.6490    15.7324 </r>
       <r>     3.9227    10.3818    16.7681 </r>
       <r>     4.0224    11.5273    17.9182 </r>
       <r>     4.1222    12.6947    19.1847 </r>
       <r>     4.2220    13.2191    20.5036 </r>
       <r>     4.3217    12.6583    21.7665 </r>
       <r>     4.4215    11.2278    22.8867 </r>
       <r>     4.5213     9.6691    23.8513 </r>
       <r>     4.6210     8.6759    24.7169 </r>
       <r>     4.7208     8.4691    25.5619 </r>
       <r>     4.8206     8.8000    26.4398 </r>
       <r>     4.9203     9.2131    27.3590 </r>
       <r>     5.0201     9.3653    28.2934 </r>
       <r>     5.1199     9.2380    29.2150 </r>
       <r>     5.2196     9.0576    30.1187 </r>
       <r>     5.3194     8.9833    31.0149 </r>
       <r>     5.4192     8.9254    31.9054 </r>
       <r>     5.5189     8.7068    32.7741 </r>
       <r>     5.6187     8.3237    33.6045 </r>
       <r>     5.7185     7.9714    34.3998 </r>
       <r>     5.8182     7.8551    35.1835 </r>
       <r>     5.9180     8.0380    35.9854 </r>
       <r>     6.0178     8.4326    36.8267 </r>
       <r>     6.1176     8.8620    37.7109 </r>
       <r>     6.2173     9.1242    38.6212 </r>
       <r>     6.3171     9.0244    39.5215 </r>
       <r>     6.4169     8.3900    40.3586 </r>
       <r>     6.5166     7.1428    41.0712 </r>
       <r>     6.6164     5.4216    41.6121 </r>
       <r>     6.7162     3.6011    41.9714 </r>
       <r>     6.8159     2.1171    42.1826 </r>
       <r>     6.9157     1.2250    42.3048 </r>
       <r>     7.0155     0.8970    42.3943 </r>
       <r>     7.1152     0.9108    42.4852 </r>
       <r>     7.2150     1.0193    42.5869 </r>
       <r>     7.3148     1.0796    42.6946 </r>
       <r>     7.4145     1.0830    42.8027 </r>
       <r>     7.5143     1.0879    42.9112 </r>
       <r>     7.6141     1.1226    43.0232 </r>
       <r>     7.7138     1.1523    43.1382 </r>
       <r>     7.8136     1.1363    43.2515 </r>
       <r>     7.9134     1.0938    43.3607 </r>
       <r>     8.0132     1.0861    43.4690 </r>
       <r>     8.1129     1.1378    43.5825 </r>
       <r>     8.2127     1.2007    43.7023 </r>
       <r>     8.3125     1.2082    43.8229 </r>
       <r>     8.4122     1.1497    43.9376 </r>
       <r>     8.5120     1.0786    44.0452 </r>
       <r>     8.6118     1.0579    44.1507 </r>
       <r>     8.7115     1.1022    44.2607 </r>
       <r>     8.8113     1.1664    44.3771 </r>
       <r>     8.9111     1.1905    44.4958 </r>
       <r>     9.0108     1.1538    44.6109 </r>
       <r>     9.1106     1.0895    44.7196 </r>
       <r>     9.2104     1.0517    44.8246 </r>
       <r>     9.3101     1.0692    44.9312 </r>
       <r>     9.4099     1.1212    45.0431 </r>
       <r>     9.5097     1.1593    45.1588 </r>
       <r>     9.6094     1.1527    45.2738 </r>
       <r>     9.7092     1.1129    45.3848 </r>
       <r>     9.8090     1.0789    45.4924 </r>
       <r>     9.9087     1.0799    45.6002 </r>
       <r>    10.0085     1.1084    45.7108 </r>
       <r>    10.1083     1.1257    45.8231 </r>
       <r>    10.2081     1.1038    45.9332 </r>
       <r>    10.3078     1.0595    46.0389 </r>
       <r>    10.4076     1.0322    46.1419 </r>
       <r>    10.5074     1.0324    46.2449 </r>
       <r>    10.6071     1.0323    46.3479 </r>
       <r>    10.7069     1.0054    46.4482 </r>
       <r>    10.8067     0.9607    46.5440 </r>
       <r>    10.9064     0.9304    46.6369 </r>
       <r>    11.0062     0.9363    46.7303 </r>
       <r>    11.1060     0.9790    46.8279 </r>
       <r>    11.2057     1.0604    46.9337 </r>
       <r>    11.3055     1.1928    47.0528 </r>
       <r>    11.4053     1.3663    47.1891 </r>
       <r>    11.5050     1.5199    47.3407 </r>
       <r>    11.6048     1.5786    47.4982 </r>
       <r>    11.7046     1.5216    47.6500 </r>
       <r>    11.8043     1.4014    47.7898 </r>
       <r>    11.9041     1.2965    47.9192 </r>
       <r>    12.0039     1.2529    48.0442 </r>
       <r>    12.1037     1.2646    48.1703 </r>
       <r>    12.2034     1.2930    48.2993 </r>
       <r>    12.3032     1.3019    48.4292 </r>
       <r>    12.4030     1.2780    48.5567 </r>
       <r>    12.5027     1.2320    48.6796 </r>
       <r>    12.6025     1.1836    48.7977 </r>
       <r>    12.7023     1.1473    48.9122 </r>
       <r>    12.8020     1.1279    49.0247 </r>
       <r>    12.9018     1.1240    49.1369 </r>
       <r>    13.0016     1.1328    49.2499 </r>
       <r>    13.1013     1.1562    49.3652 </r>
       <r>    13.2011     1.2025    49.4852 </r>
       <r>    13.3009     1.2709    49.6120 </r>
       <r>    13.4006     1.3375    49.7454 </r>
       <r>    13.5004     1.3690    49.8820 </r>
       <r>    13.6002     1.3563    50.0173 </r>
       <r>    13.6999     1.3255    50.1496 </r>
       <r>    13.7997     1.3161    50.2809 </r>
       <r>    13.8995     1.3464    50.4152 </r>
       <r>    13.9992     1.3989    50.5548 </r>
       <r>    14.0990     1.4367    50.6981 </r>
       <r>    14.1988     1.4424    50.8420 </r>
       <r>    14.2986     1.4339    50.9851 </r>
       <r>    14.3983     1.4309    51.1278 </r>
       <r>    14.4981     1.4138    51.2689 </r>
       <r>    14.5979     1.3425    51.4028 </r>
       <r>    14.6976     1.2149    51.5240 </r>
       <r>    14.7974     1.0861    51.6324 </r>
       <r>    14.8972     1.0202    51.7342 </r>
       <r>    14.9969     1.0345    51.8374 </r>
       <r>    15.0967     1.0983    51.9470 </r>
       <r>    15.1965     1.1748    52.0642 </r>
       <r>    15.2962     1.2461    52.1885 </r>
       <r>    15.3960     1.3030    52.3185 </r>
       <r>    15.4958     1.3289    52.4511 </r>
       <r>    15.5955     1.3089    52.5817 </r>
       <r>    15.6953     1.2523    52.7066 </r>
       <r>    15.7951     1.1933    52.8257 </r>
       <r>    15.8948     1.1620    52.9416 </r>
       <r>    15.9946     1.1579    53.0571 </r>
       <r>    16.0944     1.1548    53.1723 </r>
       <r>    16.1942     1.1306    53.2851 </r>
       <r>    16.2939     1.0839    53.3932 </r>
       <r>    16.3937     1.0260    53.4956 </r>
       <r>    16.4935     0.9674    53.5921 </r>
       <r>    16.5932     0.9158    53.6835 </r>
       <r>    16.6930     0.8756    53.7709 </r>
       <r>    16.7928     0.8448    53.8551 </r>
       <r>    16.8925     0.8179    53.9367 </r>
       <r>    16.9923     0.7939    54.0159 </r>
       <r>    17.0921     0.7766    54.0934 </r>
       <r>    17.1918     0.7646    54.1697 </r>
       <r>    17.2916     0.7481    54.2443 </r>
       <r>    17.3914     0.7155    54.3157 </r>
       <r>    17.4911     0.6649    54.3821 </r>
       <r>    17.5909     0.6064    54.4426 </r>
       <r>    17.6907     0.5537    54.4978 </r>
       <r>    17.7904     0.5120    54.5489 </r>
       <r>    17.8902     0.4756    54.5963 </r>
       <r>    17.9900     0.4388    54.6401 </r>
       <r>    18.0897     0.4100    54.6810 </r>
       <r>    18.1895     0.4062    54.7215 </r>
       <r>    18.2893     0.4343    54.7649 </r>
       <r>    18.3891     0.4756    54.8123 </r>
       <r>    18.4888     0.4959    54.8618 </r>
       <r>    18.5886     0.4729    54.9090 </r>
       <r>    18.6884     0.4159    54.9505 </r>
       <r>    18.7881     0.3567    54.9861 </r>
       <r>    18.8879     0.3237    55.0183 </r>
       <r>    18.9877     0.3251    55.0508 </r>
       <r>    19.0874     0.3474    55.0854 </r>
       <r>    19.1872     0.3646    55.1218 </r>
       <r>    19.2870     0.3578    55.1575 </r>
       <r>    19.3867     0.3312    55.1905 </r>
       <r>    19.4865     0.3085    55.2213 </r>
       <r>    19.5863     0.3070    55.2519 </r>
       <r>    19.6860     0.3196    55.2838 </r>
       <r>    19.7858     0.3244    55.3162 </r>
       <r>    19.8856     0.3092    55.3471 </r>
       <r>    19.9853     0.2819    55.3752 </r>
       <r>    20.0851     0.2605    55.4012 </r>
       <r>    20.1849     0.2585    55.4270 </r>
       <r>    20.2846     0.2740    55.4543 </r>
       <r>    20.3844     0.2868    55.4829 </r>
       <r>    20.4842     0.2720    55.5100 </r>
       <r>    20.5840     0.2253    55.5325 </r>
       <r>    20.6837     0.1713    55.5496 </r>
       <r>    20.7835     0.1426    55.5638 </r>
       <r>    20.8833     0.1514    55.5789 </r>
       <r>    20.9830     0.1804    55.5969 </r>
       <r>    21.0828     0.2011    55.6170 </r>
       <r>    21.1826     0.1999    55.6369 </r>
       <r>    21.2823     0.1872    55.6556 </r>
       <r>    21.3821     0.1818    55.6738 </r>
       <r>    21.4819     0.1882    55.6925 </r>
       <r>    21.5816     0.1936    55.7119 </r>
       <r>    21.6814     0.1840    55.7302 </r>
       <r>    21.7812     0.1599    55.7462 </r>
       <r>    21.8809     0.1370    55.7598 </r>
       <r>    21.9807     0.1296    55.7728 </r>
       <r>    22.0805     0.1363    55.7864 </r>
       <r>    22.1802     0.1431    55.8006 </r>
       <r>    22.2800     0.1393    55.8145 </r>
       <r>    22.3798     0.1317    55.8277 </r>
       <r>    22.4796     0.1392    55.8416 </r>
       <r>    22.5793     0.1744    55.8590 </r>
       <r>    22.6791     0.2278    55.8817 </r>
       <r>    22.7789     0.2713    55.9088 </r>
       <r>    22.8786     0.2783    55.9365 </r>
       <r>    22.9784     0.2426    55.9607 </r>
       <r>    23.0782     0.1809    55.9788 </r>
       <r>    23.1779     0.1170    55.9904 </r>
       <r>    23.2777     0.0656    55.9970 </r>
       <r>    23.3775     0.0301    56.0000 </r>
       <r>    23.4772     0.0091    56.0009 </r>
       <r>    23.5770    -0.0007    56.0008 </r>
       <r>    23.6768    -0.0033    56.0005 </r>
       <r>    23.7765    -0.0027    56.0002 </r>
       <r>    23.8763    -0.0015    56.0001 </r>
       <r>    23.9761    -0.0006    56.0000 </r>
       <r>    24.0758    -0.0002    56.0000 </r>
       <r>    24.1756     0.0000    56.0000 </r>
       <r>    24.2754     0.0000    56.0000 </r>
       <r>    24.3751     0.0000    56.0000 </r>
       <r>    24.4749     0.0000    56.0000 </r>
       <r>    24.5747     0.0000    56.0000 </r>
       <r>    24.6745     0.0000    56.0000 </r>
       <r>    24.7742     0.0000    56.0000 </r>
       <r>    24.8740     0.0000    56.0000 </r>
       <r>    24.9738     0.0000    56.0000 </r>
       <r>    25.0735     0.0000    56.0000 </r>
       <r>    25.1733     0.0000    56.0000 </r>
       <r>    25.2731     0.0000    56.0000 </r>
       <r>    25.3728     0.0000    56.0000 </r>
       <r>    25.4726     0.0000    56.0000 </r>
       <r>    25.5724     0.0000    56.0000 </r>
       <r>    25.6721     0.0000    56.0000 </r>
       <r>    25.7719     0.0000    56.0000 </r>
       <r>    25.8717     0.0000    56.0000 </r>
       <r>    25.9714     0.0000    56.0000 </r>
       <r>    26.0712     0.0000    56.0000 </r>
       <r>    26.1710     0.0000    56.0000 </r>
       <r>    26.2707     0.0000    56.0000 </r>
       <r>    26.3705     0.0000    56.0000 </r>
      </set>
     </set>
    </array>
   </total>
  </dos>
 </calculation>
 <structure name="finalpos" >
  <crystal>
   <varray name="basis" >
    <v>      -2.07046209       0.00000000      -2.07046209 </v>
    <v>       2.07046209      -2.07046209       0.00000000 </v>
    <v>      -6.24975521      -4.17929313       6.24975521 </v>
   </varray>
   <i name="volume">     71.49891608 </i>
   <varray name="rec_basis" >
    <v>      -0.18098010      -0.18098010      -0.30200387 </v>
    <v>       0.12102376      -0.36196021      -0.12102376 </v>
    <v>      -0.05995634      -0.05995634       0.05995634 </v>
   </varray>
  </crystal>
  <varray name="positions" >
   <v>       0.75000000       0.50000000       0.25000000 </v>
   <v>       0.00092495       0.00184991       0.00277486 </v>
   <v>       0.25000000       0.50000000       0.75000000 </v>
   <v>       0.49907505       0.99815009       0.49722514 </v>
  </varray>
 </structure>
</modeling>
