<?xml version="1.0" encoding="ISO-8859-1"?>
<modeling>
 <generator>
  <i name="program" type="string">vasp </i>
  <i name="version" type="string">5.3.5  </i>
  <i name="subversion" type="string">31Mar14 (build Jun 20 2014 13:15:13) complex                          parallel </i>
  <i name="platform" type="string">LinuxIFC </i>
  <i name="date" type="string">2025 12 16 </i>
  <i name="time" type="string">15:57:21 </i>
 </generator>
 <incar>
  <i type="string" name="PREC">accurate</i>
  <i type="int" name="IALGO">    68</i>
  <i type="logical" name="ADDGRID"> T  </i>
  <i type="int" name="NELM">   100</i>
  <i type="int" name="NELMIN">     4</i>
  <i type="int" name="IBRION">     2</i>
  <i name="EDIFF">      0.00000100</i>
  <i name="EDIFFG">     -0.02000000</i>
  <i type="int" name="NSW">    30</i>
  <i type="int" name="ISIF">     3</i>
  <i name="ENCUT">    600.00000000</i>
  <i type="logical" name="LREAL"> F  </i>
  <i type="int" name="ISMEAR">     0</i>
  <i name="SIGMA">      0.10000000</i>
  <i type="logical" name="LWAVE"> F  </i>
  <i type="logical" name="LCHARG"> F  </i>
  <i type="int" name="NELM">   100</i>
 </incar>
 <kpoints>
  <generation param="Auto">
   <i name="subdivisionlength">     20.00000000 </i>
   <v type="int" name="divisions">       7        7        1 </v>
   <v name="usershift">      0.00000000       0.00000000       0.00000000 </v>
   <v name="genvec1">      0.14285714       0.00000000       0.00000000 </v>
   <v name="genvec2">      0.00000000       0.14285714       0.00000000 </v>
   <v name="genvec3">      0.00000000       0.00000000       1.00000000 </v>
   <v name="shift">      0.00000000       0.00000000       0.00000000 </v>
  </generation>
  <varray name="kpointlist" >
   <v>       0.00000000       0.00000000       0.00000000 </v>
   <v>       0.14285714       0.00000000       0.00000000 </v>
   <v>       0.28571429       0.00000000       0.00000000 </v>
   <v>       0.42857143       0.00000000       0.00000000 </v>
   <v>       0.14285714       0.14285714       0.00000000 </v>
   <v>       0.28571429       0.14285714       0.00000000 </v>
   <v>       0.42857143       0.14285714       0.00000000 </v>
   <v>       0.28571429       0.28571429       0.00000000 </v>
  </varray>
  <varray name="weights" >
   <v>       0.02040816 </v>
   <v>       0.12244898 </v>
   <v>       0.12244898 </v>
   <v>       0.12244898 </v>
   <v>       0.12244898 </v>
   <v>       0.24489796 </v>
   <v>       0.12244898 </v>
   <v>       0.12244898 </v>
  </varray>
 </kpoints>
 <parameters>
  <separator name="general" >
   <i type="string" name="SYSTEM">unknown system</i>
   <i type="logical" name="LCOMPAT"> F  </i>
  </separator>
  <separator name="electronic" >
   <i type="string" name="PREC">accura</i>
   <i name="ENMAX">    600.00000000</i>
   <i name="ENAUG">    644.87300000</i>
   <i name="EDIFF">      0.00000100</i>
   <i type="int" name="IALGO">    68</i>
   <i type="int" name="IWAVPR">    11</i>
   <i type="int" name="NBANDS">    32</i>
   <i name="NELECT">     48.00000000</i>
   <i type="int" name="TURBO">     0</i>
   <i type="int" name="IRESTART">     0</i>
   <i type="int" name="NREBOOT">     0</i>
   <i type="int" name="NMIN">     0</i>
   <i name="EREF">      0.00000000</i>
   <separator name="electronic smearing" >
    <i type="int" name="ISMEAR">     0</i>
    <i name="SIGMA">      0.10000000</i>
    <i name="KSPACING">      0.50000000</i>
    <i type="logical" name="KGAMMA"> T  </i>
   </separator>
   <separator name="electronic projectors" >
    <i type="logical" name="LREAL"> F  </i>
    <v name="ROPT">      0.00000000      0.00000000      0.00000000      0.00000000</v>
    <i type="int" name="LMAXPAW">  -100</i>
    <i type="int" name="LMAXMIX">     2</i>
    <i type="logical" name="NLSPLINE"> F  </i>
   </separator>
   <separator name="electronic startup" >
    <i type="int" name="ISTART">     0</i>
    <i type="int" name="ICHARG">     2</i>
    <i type="int" name="INIWAV">     1</i>
   </separator>
   <separator name="electronic spin" >
    <i type="int" name="ISPIN">     1</i>
    <i type="logical" name="LNONCOLLINEAR"> F  </i>
    <v name="MAGMOM">      1.00000000      1.00000000      1.00000000      1.00000000      1.00000000      1.00000000      1.00000000      1.00000000      1.00000000      1.00000000      1.00000000      1.00000000</v>
    <i name="NUPDOWN">     -1.00000000</i>
    <i type="logical" name="LSORBIT"> F  </i>
    <v name="SAXIS">      0.00000000      0.00000000      1.00000000</v>
    <i type="logical" name="LSPIRAL"> F  </i>
    <v name="QSPIRAL">      0.00000000      0.00000000      0.00000000</v>
    <i type="logical" name="LZEROZ"> F  </i>
   </separator>
   <separator name="electronic exchange-correlation" >
    <i type="logical" name="LASPH"> F  </i>
    <i type="logical" name="LMETAGGA"> F  </i>
   </separator>
   <separator name="electronic convergence" >
    <i type="int" name="NELM">   100</i>
    <i type="int" name="NELMDL">     0</i>
    <i type="int" name="NELMIN">     4</i>
    <i name="ENINI">    600.00000000</i>
    <separator name="electronic convergence detail" >
     <i type="logical" name="LDIAG"> T  </i>
     <i type="logical" name="LSUBROT"> F  </i>
     <i name="WEIMIN">      0.00100000</i>
     <i name="EBREAK">      0.00000001</i>
     <i name="DEPER">      0.30000000</i>
     <i type="int" name="NRMM">     4</i>
     <i name="TIME">      0.40000000</i>
    </separator>
   </separator>
   <separator name="electronic mixer" >
    <i name="AMIX">      0.40000000</i>
    <i name="BMIX">      1.00000000</i>
    <i name="AMIN">      0.10000000</i>
    <i name="AMIX_MAG">      1.60000000</i>
    <i name="BMIX_MAG">      1.00000000</i>
    <separator name="electronic mixer details" >
     <i type="int" name="IMIX">     4</i>
     <i type="int" name="MAXMIX">   -45</i>
     <i name="WC">    100.00000000</i>
     <i type="int" name="INIMIX">     1</i>
     <i type="int" name="MIXPRE">     1</i>
     <i type="int" name="MREMOVE">     5</i>
    </separator>
   </separator>
   <separator name="electronic dipolcorrection" >
    <i type="logical" name="LDIPOL"> F  </i>
    <i type="logical" name="LMONO"> F  </i>
    <i type="int" name="IDIPOL">     0</i>
    <i name="EPSILON">      1.00000000</i>
    <v name="DIPOL">   -100.00000000   -100.00000000   -100.00000000</v>
    <i name="EFIELD">      0.00000000</i>
   </separator>
  </separator>
  <separator name="grids" >
   <i type="int" name="NGX">    28</i>
   <i type="int" name="NGY">    28</i>
   <i type="int" name="NGZ">   126</i>
   <i type="int" name="NGXF">    56</i>
   <i type="int" name="NGYF">    56</i>
   <i type="int" name="NGZF">   252</i>
   <i type="logical" name="ADDGRID"> T  </i>
  </separator>
  <separator name="ionic" >
   <i type="int" name="NSW">    30</i>
   <i type="int" name="IBRION">     2</i>
   <i type="int" name="ISIF">     3</i>
   <i name="PSTRESS">      0.00000000</i>
   <i name="EDIFFG">     -0.02000000</i>
   <i type="int" name="NFREE">     1</i>
   <i name="POTIM">      0.50000000</i>
   <i name="SMASS">     -3.00000000</i>
   <i name="SCALEE">      1.00000000</i>
  </separator>
  <separator name="ionic md" >
   <i name="TEBEG">      0.00010000</i>
   <i name="TEEND">      0.00010000</i>
   <i type="int" name="NBLOCK">     1</i>
   <i type="int" name="KBLOCK">    30</i>
   <i type="int" name="NPACO">   256</i>
   <i name="APACO">     16.00000000</i>
  </separator>
  <separator name="symmetry" >
   <i type="int" name="ISYM">     2</i>
   <i name="SYMPREC">      0.00001000</i>
  </separator>
  <separator name="dos" >
   <i type="logical" name="LORBIT"> F  </i>
   <v name="RWIGS">     -1.00000000     -1.00000000     -1.00000000     -1.00000000</v>
   <i type="int" name="NEDOS">   301</i>
   <i name="EMIN">     10.00000000</i>
   <i name="EMAX">    -10.00000000</i>
   <i name="EFERMI">      0.00000000</i>
  </separator>
  <separator name="writing" >
   <i type="int" name="NWRITE">     2</i>
   <i type="logical" name="LWAVE"> F  </i>
   <i type="logical" name="LCHARG"> F  </i>
   <i type="logical" name="LPARD"> F  </i>
   <i type="logical" name="LVTOT"> F  </i>
   <i type="logical" name="LVHAR"> F  </i>
   <i type="logical" name="LELF"> F  </i>
   <i type="logical" name="LOPTICS"> F  </i>
   <v name="STM">      0.00000000      0.00000000      0.00000000      0.00000000      0.00000000      0.00000000      0.00000000</v>
  </separator>
  <separator name="performance" >
   <i type="int" name="NPAR">     4</i>
   <i type="int" name="NSIM">     4</i>
   <i type="int" name="NBLK">    -1</i>
   <i type="logical" name="LPLANE"> T  </i>
   <i type="logical" name="LSCALAPACK"> T  </i>
   <i type="logical" name="LSCAAWARE"> F  </i>
   <i type="logical" name="LSCALU"> F  </i>
   <i type="logical" name="LASYNC"> F  </i>
   <i type="logical" name="LORBITALREAL"> F  </i>
  </separator>
  <separator name="miscellaneous" >
   <i type="int" name="IDIOT">     3</i>
   <i type="logical" name="LMUSIC"> F  </i>
   <v name="POMASS">     28.08500000     26.98100000     12.01100000     14.00100000</v>
   <v name="DARWINR">      0.00000000      0.00000000      0.00000000      0.00000000</v>
   <v name="DARWINV">      1.00000000      1.00000000      1.00000000      1.00000000</v>
   <i type="logical" name="LCORR"> T  </i>
  </separator>
  <i type="logical" name="GGA_COMPAT"> T  </i>
  <i type="logical" name="LBERRY"> F  </i>
  <i type="int" name="ICORELEVEL">     0</i>
  <i type="logical" name="LDAU"> F  </i>
  <i type="int" name="I_CONSTRAINED_M">     0</i>
  <separator name="electronic exchange-correlation" >
   <i type="string" name="GGA">--</i>
   <i type="int" name="VOSKOWN">     0</i>
   <i type="logical" name="LHFCALC"> F  </i>
   <i type="string" name="PRECFOCK"></i>
   <i type="logical" name="LSYMGRAD"> F  </i>
   <i type="logical" name="LHFONE"> F  </i>
   <i type="logical" name="LRHFCALC"> F  </i>
   <i type="logical" name="LTHOMAS"> F  </i>
   <i type="logical" name="LMODELHF"> F  </i>
   <i name="ENCUT4O">     -1.00000000</i>
   <i type="int" name="EXXOEP">     0</i>
   <i type="int" name="FOURORBIT">     0</i>
   <i name="AEXX">      0.00000000</i>
   <i name="HFALPHA">      0.00000000</i>
   <i name="MCALPHA">      0.00000000</i>
   <i name="ALDAX">      1.00000000</i>
   <i name="AGGAX">      1.00000000</i>
   <i name="ALDAC">      1.00000000</i>
   <i name="AGGAC">      1.00000000</i>
   <i type="int" name="NKREDX">     1</i>
   <i type="int" name="NKREDY">     1</i>
   <i type="int" name="NKREDZ">     1</i>
   <i type="logical" name="SHIFTRED"> F  </i>
   <i type="logical" name="ODDONLY"> F  </i>
   <i type="logical" name="EVENONLY"> F  </i>
   <i type="int" name="LMAXFOCK">     0</i>
   <i type="int" name="NMAXFOCKAE">     0</i>
   <i type="logical" name="LFOCKAEDFT"> F  </i>
   <i name="HFSCREEN">      0.00000000</i>
   <i name="HFSCREENC">      0.00000000</i>
   <i type="int" name="NBANDSGWLOW">     0</i>
  </separator>
  <separator name="vdW DFT" >
   <i type="logical" name="LUSE_VDW"> F  </i>
   <i name="Zab_VDW">     -0.84910000</i>
   <i name="PARAM1">      0.12340000</i>
   <i name="PARAM2">      1.00000000</i>
   <i name="PARAM3">      0.00000000</i>
  </separator>
  <separator name="model GW" >
   <i type="int" name="MODEL_GW">     0</i>
   <i name="MODEL_EPS0">      6.49236601</i>
   <i name="MODEL_ALPHA">      1.00000000</i>
  </separator>
  <separator name="linear response parameters" >
   <i type="logical" name="LEPSILON"> F  </i>
   <i type="logical" name="LRPA"> F  </i>
   <i type="logical" name="LNABLA"> F  </i>
   <i type="logical" name="LVEL"> F  </i>
   <i type="int" name="KINTER">     0</i>
   <i name="CSHIFT">      0.10000000</i>
   <i name="OMEGAMAX">     -1.00000000</i>
   <i name="DEG_THRESHOLD">      0.00200000</i>
  </separator>
  <separator name="orbital magnetization" >
   <i type="logical" name="NUCIND"> F  </i>
   <v name="MAGPOS">      0.00000000      0.00000000      0.00000000</v>
   <i type="logical" name="LNICSALL"> T  </i>
   <i type="logical" name="ORBITALMAG"> F  </i>
   <i type="logical" name="LMAGBLOCH"> F  </i>
   <i type="logical" name="LCHIMAG"> F  </i>
   <i type="logical" name="LGAUGE"> T  </i>
   <i type="int" name="MAGATOM">     0</i>
   <v name="MAGDIPOL">      0.00000000      0.00000000      0.00000000</v>
   <v name="AVECCONST">      0.00000000      0.00000000      0.00000000</v>
  </separator>
  <separator name="response functions" >
   <i type="logical" name="LADDER"> F  </i>
   <i type="logical" name="LFXC"> F  </i>
   <i type="logical" name="LHARTREE"> T  </i>
   <i type="int" name="IBSE">     0</i>
   <i type="logical" name="LTCTE"> F  </i>
   <i type="logical" name="LTETE"> F  </i>
   <i type="logical" name="LTRIPLET"> F  </i>
   <i type="logical" name="LFXCEPS"> F  </i>
   <i type="logical" name="LFXHEG"> F  </i>
   <i type="logical" name="L2ORDER"> F  </i>
   <i type="logical" name="LUSEW"> F  </i>
   <i name="ENCUTGW">     -2.00000000</i>
   <i name="ENCUTGWSOFT">     -2.00000000</i>
   <i name="ENCUTLF">     -1.00000000</i>
   <i type="int" name="LMAXMP2">    -1</i>
   <i name="SCISSOR">      0.00000000</i>
   <i type="int" name="NOMEGA">     0</i>
   <i type="int" name="NOMEGAR">     0</i>
   <i type="int" name="NBANDSGW">    -1</i>
   <i type="int" name="NBANDSO">    -1</i>
   <i type="int" name="NBANDSV">    -1</i>
   <i type="int" name="NELM">   100</i>
   <i type="int" name="DIM">     3</i>
   <i type="int" name="ANTIRES">     0</i>
   <i name="OMEGAMAX">    -30.00000000</i>
   <i name="OMEGAMIN">    -30.00000000</i>
   <i name="OMEGATL">   -200.00000000</i>
   <i type="int" name="OMEGAGRID">     0</i>
   <i name="CSHIFT">     -0.10000000</i>
   <i type="logical" name="SELFENERGY"> F  </i>
   <i type="logical" name="LSPECTRAL"> F  </i>
   <i type="logical" name="ODDONLYGW"> F  </i>
   <i type="logical" name="EVENONLYGW"> F  </i>
   <i type="int" name="NKREDLFX">     1</i>
   <i type="int" name="NKREDLFY">     1</i>
   <i type="int" name="NKREDLFZ">     1</i>
   <i type="int" name="MAXMEM">  1800</i>
   <i type="int" name="TELESCOPE">     0</i>
   <i type="int" name="TAUPAR">     1</i>
  </separator>
  <separator name="External order field" >
   <i name="OFIELD_KAPPA">      0.00000000</i>
   <v name="OFIELD_K">      0.00000000      0.00000000      0.00000000</v>
   <i name="OFIELD_Q6_NEAR">      0.00000000</i>
   <i name="OFIELD_Q6_FAR">      0.00000000</i>
   <i name="OFIELD_A">      0.00000000</i>
  </separator>
 </parameters>
 <atominfo>
  <atoms>      12 </atoms>
  <types>       4 </types>
  <array name="atoms" >
   <dimension dim="1">ion</dimension>
   <field type="string">element</field>
   <field type="int">atomtype</field>
   <set>
    <rc><c>Si</c><c>   1</c></rc>
    <rc><c>Si</c><c>   1</c></rc>
    <rc><c>Al</c><c>   2</c></rc>
    <rc><c>Al</c><c>   2</c></rc>
    <rc><c>Al</c><c>   2</c></rc>
    <rc><c>Al</c><c>   2</c></rc>
    <rc><c>C </c><c>   3</c></rc>
    <rc><c>C </c><c>   3</c></rc>
    <rc><c>N </c><c>   4</c></rc>
    <rc><c>N </c><c>   4</c></rc>
    <rc><c>N </c><c>   4</c></rc>
    <rc><c>N </c><c>   4</c></rc>
   </set>
  </array>
  <array name="atomtypes" >
   <dimension dim="1">type</dimension>
   <field type="int">atomspertype</field>
   <field type="string">element</field>
   <field>mass</field>
   <field>valence</field>
   <field type="string">pseudopotential</field>
   <set>
    <rc><c>   2</c><c>Si</c><c>     28.08500000</c><c>      4.00000000</c><c>  PAW_PBE Si 05Jan2001                  </c></rc>
    <rc><c>   4</c><c>Al</c><c>     26.98100000</c><c>      3.00000000</c><c>  PAW_PBE Al 04Jan2001                  </c></rc>
    <rc><c>   2</c><c>C </c><c>     12.01100000</c><c>      4.00000000</c><c>  PAW_PBE C 08Apr2002                   </c></rc>
    <rc><c>   4</c><c>N </c><c>     14.00100000</c><c>      5.00000000</c><c>  PAW_PBE N_s 07Sep2000                 </c></rc>
   </set>
  </array>
 </atominfo>
 <structure name="initialpos" >
  <crystal>
   <varray name="basis" >
    <v>       3.15039377       0.00000000       0.00000000 </v>
    <v>      -1.57519688       2.72832103       0.00000000 </v>
    <v>       0.00000000       0.00000000      15.10680699 </v>
   </varray>
   <i name="volume">    129.84732017 </i>
   <varray name="rec_basis" >
    <v>       0.31742064       0.18326289       0.00000000 </v>
    <v>       0.00000000       0.36652578       0.00000000 </v>
    <v>       0.00000000       0.00000000       0.06619533 </v>
   </varray>
  </crystal>
  <varray name="positions" >
   <v>       0.66666667       0.33333333       0.50388213 </v>
   <v>       0.66666667       0.33333333       0.82962162 </v>
   <v>       0.33333333       0.66666667       0.99527529 </v>
   <v>       0.33333333       0.66666667       0.33529392 </v>
   <v>       0.33333333       0.66666667       0.65651682 </v>
   <v>       0.66666667       0.33333333       0.16595868 </v>
   <v>       0.33333333       0.66666667       0.48065945 </v>
   <v>       0.66666667       0.33333333       0.29357922 </v>
   <v>       0.33333333       0.66666667       0.11534946 </v>
   <v>       0.33333333       0.66666667       0.79445844 </v>
   <v>       0.66666667       0.33333333       0.63389447 </v>
   <v>       0.66666667       0.33333333       0.94551050 </v>
  </varray>
 </structure>
 <calculation>
  <scstep>
   <time name="dav">    0.18    0.18</time>
   <time name="total">    0.26    0.27</time>
   <energy>
    <i name="alphaZ">     41.41795557 </i>
    <i name="ewald">  -1617.77307100 </i>
    <i name="hartreedc">   -398.93442485 </i>
    <i name="XCdc">    -15.00546756 </i>
    <i name="pawpsdc">   1477.84591612 </i>
    <i name="pawaedc">  -1320.72128580 </i>
    <i name="eentropy">     -0.00926044 </i>
    <i name="bandstr">    331.96226515 </i>
    <i name="atom">   1772.77609029 </i>
    <i name="e_fr_energy">    271.55871748 </i>
    <i name="e_wo_entrp">    271.56797792 </i>
    <i name="e_0_energy">    271.56334770 </i>
   </energy>
  </scstep>
  <scstep>
   <time name="dav">    0.20    0.20</time>
   <time name="total">    0.20    0.21</time>
   <energy>
    <i name="e_fr_energy">    -75.26288719 </i>
    <i name="e_wo_entrp">    -75.26288719 </i>
    <i name="e_0_energy">    -75.26288719 </i>
   </energy>
  </scstep>
  <scstep>
   <time name="dav">    0.21    0.21</time>
   <time name="total">    0.21    0.23</time>
   <energy>
    <i name="e_fr_energy">   -100.77098346 </i>
    <i name="e_wo_entrp">   -100.77098346 </i>
    <i name="e_0_energy">   -100.77098346 </i>
   </energy>
  </scstep>
  <scstep>
   <time name="dav">    0.21    0.21</time>
   <time name="total">    0.21    0.22</time>
   <energy>
    <i name="e_fr_energy">   -101.24637489 </i>
    <i name="e_wo_entrp">   -101.24637489 </i>
    <i name="e_0_energy">   -101.24637489 </i>
   </energy>
  </scstep>
  <scstep>
   <time name="dav">    0.21    0.21</time>
   <time name="total">    0.30    0.32</time>
   <energy>
    <i name="e_fr_energy">   -101.25858817 </i>
    <i name="e_wo_entrp">   -101.25858817 </i>
    <i name="e_0_energy">   -101.25858817 </i>
   </energy>
  </scstep>
  <scstep>
   <time name="diag">    0.05    0.05</time>
   <time name="diis">    0.14    0.14</time>
   <time name="orth">    0.00    0.00</time>
   <time name="total">    0.37    0.39</time>
   <energy>
    <i name="e_fr_energy">    -85.65039859 </i>
    <i name="e_wo_entrp">    -85.64466737 </i>
    <i name="e_0_energy">    -85.64753298 </i>
   </energy>
  </scstep>
  <scstep>
   <time name="diag">    0.05    0.05</time>
   <time name="diis">    0.14    0.14</time>
   <time name="orth">    0.01    0.01</time>
   <time name="total">    0.37    0.39</time>
   <energy>
    <i name="e_fr_energy">    -85.76399001 </i>
    <i name="e_wo_entrp">    -85.74894542 </i>
    <i name="e_0_energy">    -85.75646772 </i>
   </energy>
  </scstep>
  <scstep>
   <time name="diag">    0.05    0.05</time>
   <time name="diis">    0.15    0.15</time>
   <time name="orth">    0.01    0.01</time>
   <time name="total">    0.39    0.40</time>
   <energy>
    <i name="e_fr_energy">    -87.55104261 </i>
    <i name="e_wo_entrp">    -87.55104261 </i>
    <i name="e_0_energy">    -87.55104261 </i>
   </energy>
  </scstep>
  <scstep>
   <time name="diag">    0.05    0.05</time>
   <time name="diis">    0.14    0.14</time>
   <time name="orth">    0.00    0.00</time>
   <time name="total">    0.37    0.38</time>
   <energy>
    <i name="e_fr_energy">    -86.15405508 </i>
    <i name="e_wo_entrp">    -86.13481742 </i>
    <i name="e_0_energy">    -86.14443625 </i>
   </energy>
  </scstep>
  <scstep>
   <time name="diag">    0.05    0.05</time>
   <time name="diis">    0.14    0.14</time>
   <time name="orth">    0.00    0.00</time>
   <time name="total">    0.37    0.39</time>
   <energy>
    <i name="e_fr_energy">    -85.72915756 </i>
    <i name="e_wo_entrp">    -85.72445070 </i>
    <i name="e_0_energy">    -85.72680413 </i>
   </energy>
  </scstep>
  <scstep>
   <time name="diag">    0.05    0.05</time>
   <time name="diis">    0.14    0.14</time>
   <time name="orth">    0.00    0.00</time>
   <time name="total">    0.37    0.38</time>
   <energy>
    <i name="e_fr_energy">    -85.65790440 </i>
    <i name="e_wo_entrp">    -85.65308656 </i>
    <i name="e_0_energy">    -85.65549548 </i>
   </energy>
  </scstep>
  <scstep>
   <time name="diag">    0.05    0.05</time>
   <time name="diis">    0.14    0.14</time>
   <time name="orth">    0.00    0.00</time>
   <time name="total">    0.37    0.39</time>
   <energy>
    <i name="e_fr_energy">    -85.64299560 </i>
    <i name="e_wo_entrp">    -85.63717713 </i>
    <i name="e_0_energy">    -85.64008637 </i>
   </energy>
  </scstep>
  <scstep>
   <time name="diag">    0.05    0.05</time>
   <time name="diis">    0.14    0.14</time>
   <time name="orth">    0.00    0.00</time>
   <time name="total">    0.37    0.39</time>
   <energy>
    <i name="e_fr_energy">    -85.64396666 </i>
    <i name="e_wo_entrp">    -85.62487634 </i>
    <i name="e_0_energy">    -85.63442150 </i>
   </energy>
  </scstep>
  <scstep>
   <time name="diag">    0.05    0.05</time>
   <time name="diis">    0.14    0.14</time>
   <time name="orth">    0.00    0.00</time>
   <time name="total">    0.37    0.38</time>
   <energy>
    <i name="e_fr_energy">    -85.64205925 </i>
    <i name="e_wo_entrp">    -85.62330164 </i>
    <i name="e_0_energy">    -85.63268045 </i>
   </energy>
  </scstep>
  <scstep>
   <time name="diag">    0.05    0.05</time>
   <time name="diis">    0.14    0.14</time>
   <time name="orth">    0.00    0.00</time>
   <time name="total">    0.37    0.38</time>
   <energy>
    <i name="e_fr_energy">    -85.63880650 </i>
    <i name="e_wo_entrp">    -85.62901578 </i>
    <i name="e_0_energy">    -85.63391114 </i>
   </energy>
  </scstep>
  <scstep>
   <time name="diag">    0.05    0.05</time>
   <time name="diis">    0.14    0.14</time>
   <time name="orth">    0.00    0.00</time>
   <time name="total">    0.37    0.38</time>
   <energy>
    <i name="e_fr_energy">    -85.63832759 </i>
    <i name="e_wo_entrp">    -85.62359300 </i>
    <i name="e_0_energy">    -85.63096030 </i>
   </energy>
  </scstep>
  <scstep>
   <time name="diag">    0.05    0.05</time>
   <time name="diis">    0.14    0.14</time>
   <time name="orth">    0.00    0.00</time>
   <time name="total">    0.37    0.38</time>
   <energy>
    <i name="e_fr_energy">    -85.63812073 </i>
    <i name="e_wo_entrp">    -85.62514177 </i>
    <i name="e_0_energy">    -85.63163125 </i>
   </energy>
  </scstep>
  <scstep>
   <time name="diag">    0.05    0.05</time>
   <time name="diis">    0.13    0.13</time>
   <time name="orth">    0.01    0.01</time>
   <time name="total">    0.27    0.28</time>
   <energy>
    <i name="alphaZ">     41.41795557 </i>
    <i name="ewald">  -1617.77307100 </i>
    <i name="hartreedc">   -479.61435301 </i>
    <i name="XCdc">     -7.64330389 </i>
    <i name="pawpsdc">   8009.52799563 </i>
    <i name="pawaedc">  -7856.09415280 </i>
    <i name="eentropy">     -0.01292416 </i>
    <i name="bandstr">     51.77764263 </i>
    <i name="atom">   1772.77609029 </i>
    <i name="e_fr_energy">    -85.63812075 </i>
    <i name="e_wo_entrp">    -85.62519659 </i>
    <i name="e_0_energy">    -85.63165867 </i>
   </energy>
  </scstep>
  <structure>
   <crystal>
    <varray name="basis" >
     <v>       3.15039377       0.00000000       0.00000000 </v>
     <v>      -1.57519688       2.72832103       0.00000000 </v>
     <v>       0.00000000       0.00000000      15.10680699 </v>
    </varray>
    <i name="volume">    129.84732017 </i>
    <varray name="rec_basis" >
     <v>       0.31742064       0.18326289       0.00000000 </v>
     <v>       0.00000000       0.36652578       0.00000000 </v>
     <v>       0.00000000       0.00000000       0.06619533 </v>
    </varray>
   </crystal>
   <varray name="positions" >
    <v>       0.66666667       0.33333333       0.50388213 </v>
    <v>       0.66666667       0.33333333       0.82962162 </v>
    <v>       0.33333333       0.66666667       0.99527529 </v>
    <v>       0.33333333       0.66666667       0.33529392 </v>
    <v>       0.33333333       0.66666667       0.65651682 </v>
    <v>       0.66666667       0.33333333       0.16595868 </v>
    <v>       0.33333333       0.66666667       0.48065945 </v>
    <v>       0.66666667       0.33333333       0.29357922 </v>
    <v>       0.33333333       0.66666667       0.11534946 </v>
    <v>       0.33333333       0.66666667       0.79445844 </v>
    <v>       0.66666667       0.33333333       0.63389447 </v>
    <v>       0.66666667       0.33333333       0.94551050 </v>
   </varray>
  </structure>
  <varray name="forces" >
   <v>       0.00000000       0.00000000       0.00474139 </v>
   <v>       0.00000000       0.00000000       0.00056894 </v>
   <v>       0.00000000       0.00000000       0.01353119 </v>
   <v>       0.00000000       0.00000000      -0.01766615 </v>
   <v>       0.00000000       0.00000000       0.00219345 </v>
   <v>       0.00000000       0.00000000      -0.00322963 </v>
   <v>       0.00000000       0.00000000      -0.00846993 </v>
   <v>       0.00000000       0.00000000      -0.00110361 </v>
   <v>       0.00000000       0.00000000      -0.00542730 </v>
   <v>       0.00000000       0.00000000       0.01013432 </v>
   <v>       0.00000000       0.00000000      -0.00717094 </v>
   <v>       0.00000000       0.00000000       0.01189826 </v>
  </varray>
  <varray name="stress" >
   <v>      -0.84591616       0.00000000       0.00000000 </v>
   <v>       0.00000000      -0.84591616       0.00000000 </v>
   <v>       0.00000000       0.00000000      -0.05144029 </v>
  </varray>
  <energy>
   <i name="e_fr_energy">    -85.63812075 </i>
   <i name="e_wo_entrp">    -85.63165867 </i>
   <i name="e_0_energy">     -0.01292416 </i>
  </energy>
  <time name="totalsc">    7.81    8.10</time>
  <eigenvalues>
   <array>
    <dimension dim="1">band</dimension>
    <dimension dim="2">kpoint</dimension>
    <dimension dim="3">spin</dimension>
    <field>eigene</field>
    <field>occ</field>
    <set>
     <set comment="spin 1">
      <set comment="kpoint 1">
       <r>  -11.2508    1.0000 </r>
       <r>   -9.3242    1.0000 </r>
       <r>   -8.8056    1.0000 </r>
       <r>   -7.0323    1.0000 </r>
       <r>   -5.7626    1.0000 </r>
       <r>   -2.6269    1.0000 </r>
       <r>   -0.9101    1.0000 </r>
       <r>    1.0562    1.0000 </r>
       <r>    2.1158    1.0000 </r>
       <r>    2.6484    1.0000 </r>
       <r>    2.6484    1.0000 </r>
       <r>    4.0143    1.0000 </r>
       <r>    4.4252    1.0000 </r>
       <r>    4.4252    1.0000 </r>
       <r>    4.5268    1.0000 </r>
       <r>    4.5268    1.0000 </r>
       <r>    4.9998    1.0000 </r>
       <r>    6.6002    1.0000 </r>
       <r>    6.6002    1.0000 </r>
       <r>    6.6538    1.0000 </r>
       <r>    6.6538    1.0000 </r>
       <r>    7.4342    1.0000 </r>
       <r>    8.2647    1.0000 </r>
       <r>    9.9127    0.0000 </r>
       <r>    9.9127    0.0000 </r>
       <r>   10.5644    0.0000 </r>
       <r>   11.8064    0.0000 </r>
       <r>   12.1597    0.0000 </r>
       <r>   13.1659    0.0000 </r>
       <r>   14.1348    0.0000 </r>
       <r>   14.4561    0.0000 </r>
       <r>   15.0851    0.0000 </r>
      </set>
      <set comment="kpoint 2">
       <r>  -10.9923    1.0000 </r>
       <r>   -9.1120    1.0000 </r>
       <r>   -8.6239    1.0000 </r>
       <r>   -6.8413    1.0000 </r>
       <r>   -5.4728    1.0000 </r>
       <r>   -2.3399    1.0000 </r>
       <r>   -0.7143    1.0000 </r>
       <r>    0.7525    1.0000 </r>
       <r>    1.9319    1.0000 </r>
       <r>    2.0957    1.0000 </r>
       <r>    2.3550    1.0000 </r>
       <r>    3.3409    1.0000 </r>
       <r>    3.6514    1.0000 </r>
       <r>    4.1370    1.0000 </r>
       <r>    4.2142    1.0000 </r>
       <r>    4.3910    1.0000 </r>
       <r>    5.0907    1.0000 </r>
       <r>    5.4821    1.0000 </r>
       <r>    5.8199    1.0000 </r>
       <r>    6.2726    1.0000 </r>
       <r>    6.4645    1.0000 </r>
       <r>    7.5509    1.0000 </r>
       <r>    8.7079    1.0000 </r>
       <r>    9.2180    0.2646 </r>
       <r>    9.6395    0.0000 </r>
       <r>   11.2464    0.0000 </r>
       <r>   11.8059    0.0000 </r>
       <r>   12.4168    0.0000 </r>
       <r>   13.0749    0.0000 </r>
       <r>   13.2511    0.0000 </r>
       <r>   14.4384    0.0000 </r>
       <r>   14.6100    0.0000 </r>
      </set>
      <set comment="kpoint 3">
       <r>  -10.2857    1.0000 </r>
       <r>   -8.5971    1.0000 </r>
       <r>   -8.1810    1.0000 </r>
       <r>   -6.3584    1.0000 </r>
       <r>   -4.6569    1.0000 </r>
       <r>   -1.5689    1.0000 </r>
       <r>   -1.1680    1.0000 </r>
       <r>    0.0384    1.0000 </r>
       <r>    1.1347    1.0000 </r>
       <r>    1.5228    1.0000 </r>
       <r>    1.8040    1.0000 </r>
       <r>    2.1045    1.0000 </r>
       <r>    2.7877    1.0000 </r>
       <r>    3.5379    1.0000 </r>
       <r>    3.7846    1.0000 </r>
       <r>    3.8501    1.0000 </r>
       <r>    4.0737    1.0000 </r>
       <r>    4.4762    1.0000 </r>
       <r>    5.4908    1.0000 </r>
       <r>    5.6871    1.0000 </r>
       <r>    6.0791    1.0000 </r>
       <r>    6.7560    1.0000 </r>
       <r>    7.5945    1.0000 </r>
       <r>    9.1093    0.8178 </r>
       <r>    9.2709    0.0842 </r>
       <r>   11.2958    0.0000 </r>
       <r>   11.6631    0.0000 </r>
       <r>   12.1151    0.0000 </r>
       <r>   12.4915    0.0000 </r>
       <r>   13.4043    0.0000 </r>
       <r>   14.0839    0.0000 </r>
       <r>   14.3696    0.0000 </r>
      </set>
      <set comment="kpoint 4">
       <r>   -9.4502    1.0000 </r>
       <r>   -8.2604    1.0000 </r>
       <r>   -7.7479    1.0000 </r>
       <r>   -5.8908    1.0000 </r>
       <r>   -3.6210    1.0000 </r>
       <r>   -2.4440    1.0000 </r>
       <r>   -0.7505    1.0000 </r>
       <r>   -0.4159    1.0000 </r>
       <r>    0.1121    1.0000 </r>
       <r>    0.8837    1.0000 </r>
       <r>    1.3058    1.0000 </r>
       <r>    1.4331    1.0000 </r>
       <r>    2.2310    1.0000 </r>
       <r>    3.2425    1.0000 </r>
       <r>    3.4756    1.0000 </r>
       <r>    3.7432    1.0000 </r>
       <r>    3.8253    1.0000 </r>
       <r>    3.9093    1.0000 </r>
       <r>    4.7680    1.0000 </r>
       <r>    5.3101    1.0000 </r>
       <r>    5.8014    1.0000 </r>
       <r>    6.2797    1.0000 </r>
       <r>    7.3225    1.0000 </r>
       <r>    8.5922    1.0000 </r>
       <r>    8.7456    1.0000 </r>
       <r>   10.7161    0.0000 </r>
       <r>   10.8173    0.0000 </r>
       <r>   11.4593    0.0000 </r>
       <r>   12.4465    0.0000 </r>
       <r>   12.7753    0.0000 </r>
       <r>   13.2855    0.0000 </r>
       <r>   13.8784    0.0000 </r>
      </set>
      <set comment="kpoint 5">
       <r>  -10.5071    1.0000 </r>
       <r>   -8.7441    1.0000 </r>
       <r>   -8.3099    1.0000 </r>
       <r>   -6.5020    1.0000 </r>
       <r>   -4.9170    1.0000 </r>
       <r>   -1.8011    1.0000 </r>
       <r>   -0.7306    1.0000 </r>
       <r>    0.1213    1.0000 </r>
       <r>    1.2727    1.0000 </r>
       <r>    1.7171    1.0000 </r>
       <r>    2.0646    1.0000 </r>
       <r>    2.3690    1.0000 </r>
       <r>    3.2346    1.0000 </r>
       <r>    3.5343    1.0000 </r>
       <r>    3.6595    1.0000 </r>
       <r>    3.9301    1.0000 </r>
       <r>    4.3980    1.0000 </r>
       <r>    4.7763    1.0000 </r>
       <r>    5.3752    1.0000 </r>
       <r>    5.6370    1.0000 </r>
       <r>    5.9723    1.0000 </r>
       <r>    7.4018    1.0000 </r>
       <r>    7.6600    1.0000 </r>
       <r>    8.8812    1.0000 </r>
       <r>   10.3160    0.0000 </r>
       <r>   11.0217    0.0000 </r>
       <r>   11.8382    0.0000 </r>
       <r>   12.7310    0.0000 </r>
       <r>   13.2761    0.0000 </r>
       <r>   13.7908    0.0000 </r>
       <r>   13.8391    0.0000 </r>
       <r>   14.6342    0.0000 </r>
      </set>
      <set comment="kpoint 6">
       <r>   -9.6999    1.0000 </r>
       <r>   -8.3018    1.0000 </r>
       <r>   -7.8608    1.0000 </r>
       <r>   -6.0088    1.0000 </r>
       <r>   -3.9423    1.0000 </r>
       <r>   -1.8643    1.0000 </r>
       <r>   -0.9010    1.0000 </r>
       <r>   -0.0179    1.0000 </r>
       <r>    0.3842    1.0000 </r>
       <r>    1.0208    1.0000 </r>
       <r>    1.2655    1.0000 </r>
       <r>    1.6548    1.0000 </r>
       <r>    2.4562    1.0000 </r>
       <r>    2.8444    1.0000 </r>
       <r>    3.1348    1.0000 </r>
       <r>    3.5837    1.0000 </r>
       <r>    4.0669    1.0000 </r>
       <r>    4.2390    1.0000 </r>
       <r>    4.5775    1.0000 </r>
       <r>    5.0484    1.0000 </r>
       <r>    5.3791    1.0000 </r>
       <r>    6.4869    1.0000 </r>
       <r>    7.5146    1.0000 </r>
       <r>    8.0338    1.0000 </r>
       <r>    9.9475    0.0000 </r>
       <r>   11.5036    0.0000 </r>
       <r>   11.8664    0.0000 </r>
       <r>   12.1177    0.0000 </r>
       <r>   12.5965    0.0000 </r>
       <r>   13.2645    0.0000 </r>
       <r>   13.6560    0.0000 </r>
       <r>   14.1697    0.0000 </r>
      </set>
      <set comment="kpoint 7">
       <r>   -9.1564    1.0000 </r>
       <r>   -8.2303    1.0000 </r>
       <r>   -7.6052    1.0000 </r>
       <r>   -5.7508    1.0000 </r>
       <r>   -3.2315    1.0000 </r>
       <r>   -2.4614    1.0000 </r>
       <r>   -0.6395    1.0000 </r>
       <r>   -0.2709    1.0000 </r>
       <r>   -0.0084    1.0000 </r>
       <r>    0.4454    1.0000 </r>
       <r>    0.9738    1.0000 </r>
       <r>    1.5151    1.0000 </r>
       <r>    2.1602    1.0000 </r>
       <r>    2.6776    1.0000 </r>
       <r>    3.0537    1.0000 </r>
       <r>    3.4030    1.0000 </r>
       <r>    3.7006    1.0000 </r>
       <r>    3.8747    1.0000 </r>
       <r>    4.3963    1.0000 </r>
       <r>    4.9705    1.0000 </r>
       <r>    5.0315    1.0000 </r>
       <r>    6.3916    1.0000 </r>
       <r>    7.3313    1.0000 </r>
       <r>    7.7283    1.0000 </r>
       <r>    9.5783    0.0000 </r>
       <r>   11.3310    0.0000 </r>
       <r>   11.4183    0.0000 </r>
       <r>   11.7731    0.0000 </r>
       <r>   12.6489    0.0000 </r>
       <r>   13.1515    0.0000 </r>
       <r>   13.6153    0.0000 </r>
       <r>   13.9450    0.0000 </r>
      </set>
      <set comment="kpoint 8">
       <r>   -9.0477    1.0000 </r>
       <r>   -8.2055    1.0000 </r>
       <r>   -7.5450    1.0000 </r>
       <r>   -5.6925    1.0000 </r>
       <r>   -3.0890    1.0000 </r>
       <r>   -2.1030    1.0000 </r>
       <r>   -0.6862    1.0000 </r>
       <r>   -0.3481    1.0000 </r>
       <r>    0.1443    1.0000 </r>
       <r>    0.4328    1.0000 </r>
       <r>    1.1039    1.0000 </r>
       <r>    1.5419    1.0000 </r>
       <r>    1.6639    1.0000 </r>
       <r>    2.0773    1.0000 </r>
       <r>    2.9102    1.0000 </r>
       <r>    3.1762    1.0000 </r>
       <r>    3.5186    1.0000 </r>
       <r>    3.8914    1.0000 </r>
       <r>    4.1644    1.0000 </r>
       <r>    4.2626    1.0000 </r>
       <r>    5.2781    1.0000 </r>
       <r>    6.1630    1.0000 </r>
       <r>    6.9324    1.0000 </r>
       <r>    7.4503    1.0000 </r>
       <r>   10.6250    0.0000 </r>
       <r>   11.9012    0.0000 </r>
       <r>   12.1054    0.0000 </r>
       <r>   12.3889    0.0000 </r>
       <r>   12.8630    0.0000 </r>
       <r>   13.2203    0.0000 </r>
       <r>   13.8030    0.0000 </r>
       <r>   14.2741    0.0000 </r>
      </set>
     </set>
    </set>
   </array>
  </eigenvalues>
  <separator name="orbital magnetization" >
   <v name="MAGDIPOLOUT">      0.00000000      0.00000000      0.00000000</v>
  </separator>
  <dos>
   <i name="efermi">      9.17348794 </i>
   <total>
    <array>
     <dimension dim="1">gridpoints</dimension>
     <dimension dim="2">spin</dimension>
     <field>energy</field>
     <field>total</field>
     <field>integrated</field>
     <set>
      <set comment="spin 1">
       <r>   -12.5676     0.0000     0.0000 </r>
       <r>   -12.4711     0.0000     0.0000 </r>
       <r>   -12.3745     0.0000     0.0000 </r>
       <r>   -12.2779     0.0000     0.0000 </r>
       <r>   -12.1814     0.0000     0.0000 </r>
       <r>   -12.0848     0.0000     0.0000 </r>
       <r>   -11.9883     0.0000     0.0000 </r>
       <r>   -11.8917     0.0000     0.0000 </r>
       <r>   -11.7951     0.0000     0.0000 </r>
       <r>   -11.6986     0.0000     0.0000 </r>
       <r>   -11.6020     0.0000     0.0000 </r>
       <r>   -11.5054     0.0001     0.0000 </r>
       <r>   -11.4089     0.0053     0.0005 </r>
       <r>   -11.3123     0.0760     0.0079 </r>
       <r>   -11.2157     0.2124     0.0284 </r>
       <r>   -11.1192     0.2079     0.0484 </r>
       <r>   -11.0226     0.7678     0.1226 </r>
       <r>   -10.9260     1.2469     0.2430 </r>
       <r>   -10.8295     0.4154     0.2831 </r>
       <r>   -10.7329     0.0285     0.2859 </r>
       <r>   -10.6363     0.0841     0.2940 </r>
       <r>   -10.5398     0.7309     0.3646 </r>
       <r>   -10.4432     1.2877     0.4889 </r>
       <r>   -10.3466     0.8957     0.5754 </r>
       <r>   -10.2501     1.2933     0.7003 </r>
       <r>   -10.1535     0.7010     0.7680 </r>
       <r>   -10.0569     0.0764     0.7754 </r>
       <r>    -9.9604     0.0021     0.7756 </r>
       <r>    -9.8638     0.0513     0.7805 </r>
       <r>    -9.7673     0.8125     0.8590 </r>
       <r>    -9.6707     2.4868     1.0991 </r>
       <r>    -9.5741     1.6314     1.2566 </r>
       <r>    -9.4776     0.9786     1.3511 </r>
       <r>    -9.3810     1.3233     1.4789 </r>
       <r>    -9.2844     0.7098     1.5475 </r>
       <r>    -9.1879     1.2763     1.6707 </r>
       <r>    -9.0913     3.0848     1.9686 </r>
       <r>    -8.9947     2.5591     2.2157 </r>
       <r>    -8.8982     0.7552     2.2887 </r>
       <r>    -8.8016     0.7373     2.3599 </r>
       <r>    -8.7050     1.9014     2.5435 </r>
       <r>    -8.6085     2.8122     2.8150 </r>
       <r>    -8.5119     2.1289     3.0206 </r>
       <r>    -8.4153     0.9034     3.1078 </r>
       <r>    -8.3188     3.7039     3.4655 </r>
       <r>    -8.2222     7.4037     4.1804 </r>
       <r>    -8.1256     4.9933     4.6626 </r>
       <r>    -8.0291     1.1495     4.7736 </r>
       <r>    -7.9325     0.8173     4.8526 </r>
       <r>    -7.8359     2.7064     5.1139 </r>
       <r>    -7.7394     2.8206     5.3863 </r>
       <r>    -7.6428     2.0691     5.5861 </r>
       <r>    -7.5463     2.4813     5.8257 </r>
       <r>    -7.4497     1.5443     5.9748 </r>
       <r>    -7.3531     0.2520     5.9991 </r>
       <r>    -7.2566     0.0092     6.0000 </r>
       <r>    -7.1600     0.0147     6.0014 </r>
       <r>    -7.0634     0.1266     6.0137 </r>
       <r>    -6.9669     0.3022     6.0429 </r>
       <r>    -6.8703     0.8388     6.1239 </r>
       <r>    -6.7737     1.2461     6.2442 </r>
       <r>    -6.6772     0.4212     6.2849 </r>
       <r>    -6.5806     0.3485     6.3185 </r>
       <r>    -6.4840     1.2789     6.4420 </r>
       <r>    -6.3875     1.6483     6.6012 </r>
       <r>    -6.2909     1.3715     6.7336 </r>
       <r>    -6.1943     0.4302     6.7752 </r>
       <r>    -6.0978     0.5363     6.8269 </r>
       <r>    -6.0012     2.3717     7.0560 </r>
       <r>    -5.9046     2.9321     7.3391 </r>
       <r>    -5.8081     2.2226     7.5537 </r>
       <r>    -5.7115     2.6614     7.8107 </r>
       <r>    -5.6149     2.0161     8.0054 </r>
       <r>    -5.5184     1.0057     8.1025 </r>
       <r>    -5.4218     1.2994     8.2280 </r>
       <r>    -5.3252     0.5508     8.2812 </r>
       <r>    -5.2287     0.0462     8.2856 </r>
       <r>    -5.1321     0.0037     8.2860 </r>
       <r>    -5.0356     0.1157     8.2972 </r>
       <r>    -4.9390     0.8398     8.3783 </r>
       <r>    -4.8424     1.2189     8.4960 </r>
       <r>    -4.7459     0.6032     8.5542 </r>
       <r>    -4.6493     1.1318     8.6635 </r>
       <r>    -4.5527     0.9813     8.7583 </r>
       <r>    -4.4562     0.1727     8.7750 </r>
       <r>    -4.3596     0.0057     8.7755 </r>
       <r>    -4.2630     0.0000     8.7755 </r>
       <r>    -4.1665     0.0038     8.7759 </r>
       <r>    -4.0699     0.1766     8.7929 </r>
       <r>    -3.9733     1.4953     8.9373 </r>
       <r>    -3.8768     2.4989     9.1786 </r>
       <r>    -3.7802     0.8729     9.2629 </r>
       <r>    -3.6836     0.5003     9.3112 </r>
       <r>    -3.5871     1.2597     9.4329 </r>
       <r>    -3.4905     0.7186     9.5023 </r>
       <r>    -3.3939     0.1078     9.5127 </r>
       <r>    -3.2974     0.4243     9.5537 </r>
       <r>    -3.2008     1.3885     9.6877 </r>
       <r>    -3.1042     1.6585     9.8479 </r>
       <r>    -3.0077     1.2563     9.9692 </r>
       <r>    -2.9111     0.3039     9.9985 </r>
       <r>    -2.8146     0.0166    10.0001 </r>
       <r>    -2.7180     0.0407    10.0041 </r>
       <r>    -2.6214     0.2275    10.0260 </r>
       <r>    -2.5249     0.9220    10.1151 </r>
       <r>    -2.4283     2.7143    10.3772 </r>
       <r>    -2.3317     2.7486    10.6426 </r>
       <r>    -2.2352     1.2732    10.7656 </r>
       <r>    -2.1386     0.8772    10.8503 </r>
       <r>    -2.0420     1.3004    10.9758 </r>
       <r>    -1.9455     1.1175    11.0837 </r>
       <r>    -1.8489     2.9499    11.3686 </r>
       <r>    -1.7523     3.1055    11.6685 </r>
       <r>    -1.6558     1.1162    11.7763 </r>
       <r>    -1.5592     1.1858    11.8908 </r>
       <r>    -1.4626     0.9624    11.9837 </r>
       <r>    -1.3661     0.1699    12.0001 </r>
       <r>    -1.2695     0.1905    12.0185 </r>
       <r>    -1.1729     1.0062    12.1157 </r>
       <r>    -1.0764     1.1282    12.2246 </r>
       <r>    -0.9798     0.9436    12.3157 </r>
       <r>    -0.8832     2.7245    12.5788 </r>
       <r>    -0.7867     3.6974    12.9359 </r>
       <r>    -0.6901     5.6064    13.4773 </r>
       <r>    -0.5935     4.3223    13.8946 </r>
       <r>    -0.4970     1.3871    14.0286 </r>
       <r>    -0.4004     1.8587    14.2081 </r>
       <r>    -0.3039     2.9143    14.4895 </r>
       <r>    -0.2073     2.0354    14.6860 </r>
       <r>    -0.1107     1.1882    14.8008 </r>
       <r>    -0.0142     3.9187    15.1792 </r>
       <r>     0.0824     6.2934    15.7869 </r>
       <r>     0.1790     5.0297    16.2726 </r>
       <r>     0.2755     2.0512    16.4707 </r>
       <r>     0.3721     2.8420    16.7451 </r>
       <r>     0.4687     4.7729    17.2060 </r>
       <r>     0.5652     2.0968    17.4085 </r>
       <r>     0.6618     0.4583    17.4528 </r>
       <r>     0.7584     1.2010    17.5687 </r>
       <r>     0.8549     1.9318    17.7553 </r>
       <r>     0.9515     3.1175    18.0563 </r>
       <r>     1.0481     5.0292    18.5420 </r>
       <r>     1.1446     4.8744    19.0127 </r>
       <r>     1.2412     4.6842    19.4650 </r>
       <r>     1.3378     5.4252    19.9889 </r>
       <r>     1.4343     3.6895    20.3452 </r>
       <r>     1.5309     4.7136    20.8004 </r>
       <r>     1.6275     5.7518    21.3558 </r>
       <r>     1.7240     5.7480    21.9108 </r>
       <r>     1.8206     3.5786    22.2564 </r>
       <r>     1.9171     2.1650    22.4655 </r>
       <r>     2.0137     2.9149    22.7470 </r>
       <r>     2.1103     5.9368    23.3202 </r>
       <r>     2.2068     5.6113    23.8621 </r>
       <r>     2.3034     3.3560    24.1862 </r>
       <r>     2.4000     3.9674    24.5693 </r>
       <r>     2.4965     3.9536    24.9511 </r>
       <r>     2.5931     1.9126    25.1358 </r>
       <r>     2.6897     1.9821    25.3272 </r>
       <r>     2.7862     3.2604    25.6420 </r>
       <r>     2.8828     4.5830    26.0846 </r>
       <r>     2.9794     3.2337    26.3968 </r>
       <r>     3.0759     2.9514    26.6818 </r>
       <r>     3.1725     5.2762    27.1913 </r>
       <r>     3.2691     5.4980    27.7222 </r>
       <r>     3.3656     4.0205    28.1105 </r>
       <r>     3.4622     4.6382    28.5584 </r>
       <r>     3.5588     7.5482    29.2873 </r>
       <r>     3.6553     8.1708    30.0763 </r>
       <r>     3.7519     7.0545    30.7575 </r>
       <r>     3.8485     7.6935    31.5004 </r>
       <r>     3.9450     7.8651    32.2599 </r>
       <r>     4.0416     5.7905    32.8191 </r>
       <r>     4.1382     6.8000    33.4757 </r>
       <r>     4.2347     7.5687    34.2066 </r>
       <r>     4.3313     6.3596    34.8207 </r>
       <r>     4.4278     5.8623    35.3868 </r>
       <r>     4.5244     5.2664    35.8954 </r>
       <r>     4.6210     3.8912    36.2711 </r>
       <r>     4.7175     2.4133    36.5042 </r>
       <r>     4.8141     2.7137    36.7662 </r>
       <r>     4.9107     2.0400    36.9632 </r>
       <r>     5.0072     3.9738    37.3469 </r>
       <r>     5.1038     5.8020    37.9072 </r>
       <r>     5.2004     2.9382    38.1909 </r>
       <r>     5.2969     3.3035    38.5099 </r>
       <r>     5.3935     6.0031    39.0896 </r>
       <r>     5.4901     5.3366    39.6050 </r>
       <r>     5.5866     3.2174    39.9156 </r>
       <r>     5.6832     2.8760    40.1934 </r>
       <r>     5.7798     3.1998    40.5024 </r>
       <r>     5.8763     2.9846    40.7906 </r>
       <r>     5.9729     2.0855    40.9920 </r>
       <r>     6.0695     2.2996    41.2140 </r>
       <r>     6.1660     2.7082    41.4755 </r>
       <r>     6.2626     3.2375    41.7882 </r>
       <r>     6.3592     3.5928    42.1351 </r>
       <r>     6.4557     4.3263    42.5529 </r>
       <r>     6.5523     4.3424    42.9722 </r>
       <r>     6.6488     2.0555    43.1707 </r>
       <r>     6.7454     1.5838    43.3236 </r>
       <r>     6.8420     1.4762    43.4662 </r>
       <r>     6.9385     1.3764    43.5991 </r>
       <r>     7.0351     1.0072    43.6964 </r>
       <r>     7.1317     0.1945    43.7151 </r>
       <r>     7.2282     0.4275    43.7564 </r>
       <r>     7.3248     2.5331    44.0010 </r>
       <r>     7.4214     4.8102    44.4655 </r>
       <r>     7.5179     6.0208    45.0469 </r>
       <r>     7.6145     5.8214    45.6091 </r>
       <r>     7.7111     3.8822    45.9840 </r>
       <r>     7.8076     1.9000    46.1674 </r>
       <r>     7.9042     0.5318    46.2188 </r>
       <r>     8.0008     1.4713    46.3609 </r>
       <r>     8.0973     2.5165    46.6039 </r>
       <r>     8.1939     0.9393    46.6946 </r>
       <r>     8.2905     0.2637    46.7200 </r>
       <r>     8.3870     0.1389    46.7334 </r>
       <r>     8.4836     0.1728    46.7501 </r>
       <r>     8.5802     1.0516    46.8517 </r>
       <r>     8.6767     2.2908    47.0729 </r>
       <r>     8.7733     2.9224    47.3551 </r>
       <r>     8.8698     2.1626    47.5639 </r>
       <r>     8.9664     1.3203    47.6914 </r>
       <r>     9.0630     0.9132    47.7796 </r>
       <r>     9.1595     1.9182    47.9648 </r>
       <r>     9.2561     2.7401    48.2294 </r>
       <r>     9.3527     1.8890    48.4119 </r>
       <r>     9.4492     0.4634    48.4566 </r>
       <r>     9.5458     0.9741    48.5507 </r>
       <r>     9.6424     2.3291    48.7756 </r>
       <r>     9.7389     1.4721    48.9177 </r>
       <r>     9.8355     0.6135    48.9770 </r>
       <r>     9.9321     2.2156    49.1909 </r>
       <r>    10.0286     2.6262    49.4445 </r>
       <r>    10.1252     0.6573    49.5080 </r>
       <r>    10.2218     0.2540    49.5325 </r>
       <r>    10.3183     1.0702    49.6359 </r>
       <r>    10.4149     1.0404    49.7363 </r>
       <r>    10.5115     0.4251    49.7774 </r>
       <r>    10.6080     1.2696    49.9000 </r>
       <r>    10.7046     2.3632    50.1282 </r>
       <r>    10.8012     2.3662    50.3567 </r>
       <r>    10.8977     1.5653    50.5078 </r>
       <r>    10.9943     1.1066    50.6147 </r>
       <r>    11.0909     1.2905    50.7393 </r>
       <r>    11.1874     1.0779    50.8434 </r>
       <r>    11.2840     2.9153    51.1249 </r>
       <r>    11.3805     4.3077    51.5409 </r>
       <r>    11.4771     4.9672    52.0205 </r>
       <r>    11.5737     4.1431    52.4206 </r>
       <r>    11.6702     2.3396    52.6466 </r>
       <r>    11.7668     3.6391    52.9980 </r>
       <r>    11.8634     6.7138    53.6463 </r>
       <r>    11.9599     5.2029    54.1487 </r>
       <r>    12.0565     3.0877    54.4469 </r>
       <r>    12.1531     5.3008    54.9587 </r>
       <r>    12.2496     2.9419    55.2428 </r>
       <r>    12.3462     1.5697    55.3944 </r>
       <r>    12.4428     4.1800    55.7980 </r>
       <r>    12.5393     4.8334    56.2648 </r>
       <r>    12.6359     4.7115    56.7197 </r>
       <r>    12.7325     4.3122    57.1362 </r>
       <r>    12.8290     3.4571    57.4700 </r>
       <r>    12.9256     2.0484    57.6678 </r>
       <r>    13.0222     1.1317    57.7771 </r>
       <r>    13.1187     2.5524    58.0236 </r>
       <r>    13.2153     5.7799    58.5817 </r>
       <r>    13.3119     8.2350    59.3769 </r>
       <r>    13.4084     4.4948    59.8109 </r>
       <r>    13.5050     1.5669    59.9623 </r>
       <r>    13.6015     2.1702    60.1718 </r>
       <r>    13.6981     4.1910    60.5765 </r>
       <r>    13.7947     4.5615    61.0170 </r>
       <r>    13.8912     5.2351    61.5225 </r>
       <r>    13.9878     3.4451    61.8552 </r>
       <r>    14.0844     2.5483    62.1013 </r>
       <r>    14.1809     3.8434    62.4724 </r>
       <r>    14.2775     3.5453    62.8148 </r>
       <r>    14.3741     2.9197    63.0967 </r>
       <r>    14.4706     2.7472    63.3620 </r>
       <r>    14.5672     2.1208    63.5668 </r>
       <r>    14.6638     2.6373    63.8215 </r>
       <r>    14.7603     1.2891    63.9460 </r>
       <r>    14.8569     0.1344    63.9590 </r>
       <r>    14.9535     0.0156    63.9605 </r>
       <r>    15.0500     0.1177    63.9718 </r>
       <r>    15.1466     0.2104    63.9921 </r>
       <r>    15.2432     0.0760    63.9995 </r>
       <r>    15.3397     0.0053    64.0000 </r>
       <r>    15.4363     0.0001    64.0000 </r>
       <r>    15.5329     0.0000    64.0000 </r>
       <r>    15.6294     0.0000    64.0000 </r>
       <r>    15.7260     0.0000    64.0000 </r>
       <r>    15.8226     0.0000    64.0000 </r>
       <r>    15.9191     0.0000    64.0000 </r>
       <r>    16.0157     0.0000    64.0000 </r>
       <r>    16.1122     0.0000    64.0000 </r>
       <r>    16.2088     0.0000    64.0000 </r>
       <r>    16.3054     0.0000    64.0000 </r>
       <r>    16.4019     0.0000    64.0000 </r>
      </set>
     </set>
    </array>
   </total>
  </dos>
 </calculation>
 <structure name="finalpos" >
  <crystal>
   <varray name="basis" >
    <v>       3.15039377       0.00000000       0.00000000 </v>
    <v>      -1.57519688       2.72832103       0.00000000 </v>
    <v>       0.00000000       0.00000000      15.10680699 </v>
   </varray>
   <i name="volume">    129.84732017 </i>
   <varray name="rec_basis" >
    <v>       0.31742064       0.18326289       0.00000000 </v>
    <v>       0.00000000       0.36652578       0.00000000 </v>
    <v>       0.00000000       0.00000000       0.06619533 </v>
   </varray>
  </crystal>
  <varray name="positions" >
   <v>       0.66666667       0.33333333       0.50388213 </v>
   <v>       0.66666667       0.33333333       0.82962162 </v>
   <v>       0.33333333       0.66666667       0.99527529 </v>
   <v>       0.33333333       0.66666667       0.33529392 </v>
   <v>       0.33333333       0.66666667       0.65651682 </v>
   <v>       0.66666667       0.33333333       0.16595868 </v>
   <v>       0.33333333       0.66666667       0.48065945 </v>
   <v>       0.66666667       0.33333333       0.29357922 </v>
   <v>       0.33333333       0.66666667       0.11534946 </v>
   <v>       0.33333333       0.66666667       0.79445844 </v>
   <v>       0.66666667       0.33333333       0.63389447 </v>
   <v>       0.66666667       0.33333333       0.94551050 </v>
  </varray>
 </structure>
</modeling>
