<?xml version="1.0" encoding="ISO-8859-1"?>
<modeling>
 <generator>
  <i name="program" type="string">vasp </i>
  <i name="version" type="string">5.3.5  </i>
  <i name="subversion" type="string">31Mar14 (build Jun 20 2014 13:15:13) complex                          parallel </i>
  <i name="platform" type="string">LinuxIFC </i>
  <i name="date" type="string">2025 11 26 </i>
  <i name="time" type="string">17:37:19 </i>
 </generator>
 <incar>
  <i type="string" name="PREC">accurate</i>
  <i type="int" name="IALGO">    68</i>
  <i type="logical" name="ADDGRID"> T  </i>
  <i type="int" name="NELM">   200</i>
  <i type="int" name="NELMIN">     4</i>
  <i type="int" name="IBRION">     2</i>
  <i name="EDIFF">      0.00000100</i>
  <i name="EDIFFG">     -0.02000000</i>
  <i type="int" name="NSW">    30</i>
  <i type="int" name="ISIF">     3</i>
  <i name="ENCUT">    500.00000000</i>
  <i type="logical" name="LREAL"> F  </i>
  <i type="int" name="ISMEAR">     1</i>
  <i name="SIGMA">      0.30000000</i>
  <i type="logical" name="LWAVE"> F  </i>
  <i type="logical" name="LCHARG"> F  </i>
  <i type="int" name="NELM">   200</i>
 </incar>
 <kpoints>
  <generation param="Auto">
   <i name="subdivisionlength">     70.00000000 </i>
   <v type="int" name="divisions">      29       29        8 </v>
   <v name="usershift">      0.00000000       0.00000000       0.00000000 </v>
   <v name="genvec1">      0.03448276       0.00000000       0.00000000 </v>
   <v name="genvec2">      0.00000000       0.03448276       0.00000000 </v>
   <v name="genvec3">      0.00000000       0.00000000       0.12500000 </v>
   <v name="shift">      0.00000000       0.00000000       0.00000000 </v>
  </generation>
  <varray name="kpointlist" >
   <v>       0.00000000       0.00000000       0.00000000 </v>
   <v>       0.03448276       0.00000000       0.00000000 </v>
   <v>       0.06896552       0.00000000       0.00000000 </v>
   <v>       0.10344828       0.00000000       0.00000000 </v>
   <v>       0.13793103       0.00000000       0.00000000 </v>
   <v>       0.17241379       0.00000000       0.00000000 </v>
   <v>       0.20689655       0.00000000       0.00000000 </v>
   <v>       0.24137931       0.00000000       0.00000000 </v>
   <v>       0.27586207       0.00000000       0.00000000 </v>
   <v>       0.31034483       0.00000000       0.00000000 </v>
   <v>       0.34482759       0.00000000       0.00000000 </v>
   <v>       0.37931034       0.00000000       0.00000000 </v>
   <v>       0.41379310       0.00000000       0.00000000 </v>
   <v>       0.44827586       0.00000000       0.00000000 </v>
   <v>       0.48275862       0.00000000       0.00000000 </v>
   <v>       0.00000000       0.03448276       0.00000000 </v>
   <v>       0.03448276       0.03448276       0.00000000 </v>
   <v>       0.06896552       0.03448276       0.00000000 </v>
   <v>       0.10344828       0.03448276       0.00000000 </v>
   <v>       0.13793103       0.03448276       0.00000000 </v>
   <v>       0.17241379       0.03448276       0.00000000 </v>
   <v>       0.20689655       0.03448276       0.00000000 </v>
   <v>       0.24137931       0.03448276       0.00000000 </v>
   <v>       0.27586207       0.03448276       0.00000000 </v>
   <v>       0.31034483       0.03448276       0.00000000 </v>
   <v>       0.34482759       0.03448276       0.00000000 </v>
   <v>       0.37931034       0.03448276       0.00000000 </v>
   <v>       0.41379310       0.03448276       0.00000000 </v>
   <v>       0.44827586       0.03448276       0.00000000 </v>
   <v>       0.48275862       0.03448276       0.00000000 </v>
   <v>      -0.48275862       0.03448276       0.00000000 </v>
   <v>      -0.44827586       0.03448276       0.00000000 </v>
   <v>      -0.41379310       0.03448276       0.00000000 </v>
   <v>      -0.37931034       0.03448276       0.00000000 </v>
   <v>      -0.34482759       0.03448276       0.00000000 </v>
   <v>      -0.31034483       0.03448276       0.00000000 </v>
   <v>      -0.27586207       0.03448276       0.00000000 </v>
   <v>      -0.24137931       0.03448276       0.00000000 </v>
   <v>      -0.20689655       0.03448276       0.00000000 </v>
   <v>      -0.17241379       0.03448276       0.00000000 </v>
   <v>      -0.13793103       0.03448276       0.00000000 </v>
   <v>      -0.10344828       0.03448276       0.00000000 </v>
   <v>      -0.06896552       0.03448276       0.00000000 </v>
   <v>       0.00000000       0.06896552       0.00000000 </v>
   <v>       0.03448276       0.06896552       0.00000000 </v>
   <v>       0.06896552       0.06896552       0.00000000 </v>
   <v>       0.10344828       0.06896552       0.00000000 </v>
   <v>       0.13793103       0.06896552       0.00000000 </v>
   <v>       0.17241379       0.06896552       0.00000000 </v>
   <v>       0.20689655       0.06896552       0.00000000 </v>
   <v>       0.24137931       0.06896552       0.00000000 </v>
   <v>       0.27586207       0.06896552       0.00000000 </v>
   <v>       0.31034483       0.06896552       0.00000000 </v>
   <v>       0.34482759       0.06896552       0.00000000 </v>
   <v>       0.37931034       0.06896552       0.00000000 </v>
   <v>       0.41379310       0.06896552       0.00000000 </v>
   <v>       0.44827586       0.06896552       0.00000000 </v>
   <v>       0.48275862       0.06896552       0.00000000 </v>
   <v>      -0.48275862       0.06896552       0.00000000 </v>
   <v>      -0.44827586       0.06896552       0.00000000 </v>
   <v>      -0.41379310       0.06896552       0.00000000 </v>
   <v>      -0.37931034       0.06896552       0.00000000 </v>
   <v>      -0.34482759       0.06896552       0.00000000 </v>
   <v>      -0.31034483       0.06896552       0.00000000 </v>
   <v>      -0.27586207       0.06896552       0.00000000 </v>
   <v>      -0.24137931       0.06896552       0.00000000 </v>
   <v>      -0.20689655       0.06896552       0.00000000 </v>
   <v>      -0.17241379       0.06896552       0.00000000 </v>
   <v>      -0.13793103       0.06896552       0.00000000 </v>
   <v>       0.00000000       0.10344828       0.00000000 </v>
   <v>       0.03448276       0.10344828       0.00000000 </v>
   <v>       0.06896552       0.10344828       0.00000000 </v>
   <v>       0.10344828       0.10344828       0.00000000 </v>
   <v>       0.13793103       0.10344828       0.00000000 </v>
   <v>       0.17241379       0.10344828       0.00000000 </v>
   <v>       0.20689655       0.10344828       0.00000000 </v>
   <v>       0.24137931       0.10344828       0.00000000 </v>
   <v>       0.27586207       0.10344828       0.00000000 </v>
   <v>       0.31034483       0.10344828       0.00000000 </v>
   <v>       0.34482759       0.10344828       0.00000000 </v>
   <v>       0.37931034       0.10344828       0.00000000 </v>
   <v>       0.41379310       0.10344828       0.00000000 </v>
   <v>       0.44827586       0.10344828       0.00000000 </v>
   <v>       0.48275862       0.10344828       0.00000000 </v>
   <v>      -0.48275862       0.10344828       0.00000000 </v>
   <v>      -0.44827586       0.10344828       0.00000000 </v>
   <v>      -0.41379310       0.10344828       0.00000000 </v>
   <v>      -0.37931034       0.10344828       0.00000000 </v>
   <v>      -0.34482759       0.10344828       0.00000000 </v>
   <v>      -0.31034483       0.10344828       0.00000000 </v>
   <v>      -0.27586207       0.10344828       0.00000000 </v>
   <v>      -0.24137931       0.10344828       0.00000000 </v>
   <v>      -0.20689655       0.10344828       0.00000000 </v>
   <v>       0.00000000       0.13793103       0.00000000 </v>
   <v>       0.03448276       0.13793103       0.00000000 </v>
   <v>       0.06896552       0.13793103       0.00000000 </v>
   <v>       0.10344828       0.13793103       0.00000000 </v>
   <v>       0.13793103       0.13793103       0.00000000 </v>
   <v>       0.17241379       0.13793103       0.00000000 </v>
   <v>       0.20689655       0.13793103       0.00000000 </v>
   <v>       0.24137931       0.13793103       0.00000000 </v>
   <v>       0.27586207       0.13793103       0.00000000 </v>
   <v>       0.31034483       0.13793103       0.00000000 </v>
   <v>       0.34482759       0.13793103       0.00000000 </v>
   <v>       0.37931034       0.13793103       0.00000000 </v>
   <v>       0.41379310       0.13793103       0.00000000 </v>
   <v>       0.44827586       0.13793103       0.00000000 </v>
   <v>       0.48275862       0.13793103       0.00000000 </v>
   <v>      -0.48275862       0.13793103       0.00000000 </v>
   <v>      -0.44827586       0.13793103       0.00000000 </v>
   <v>      -0.41379310       0.13793103       0.00000000 </v>
   <v>      -0.37931034       0.13793103       0.00000000 </v>
   <v>      -0.34482759       0.13793103       0.00000000 </v>
   <v>      -0.31034483       0.13793103       0.00000000 </v>
   <v>      -0.27586207       0.13793103       0.00000000 </v>
   <v>       0.00000000       0.17241379       0.00000000 </v>
   <v>       0.03448276       0.17241379       0.00000000 </v>
   <v>       0.06896552       0.17241379       0.00000000 </v>
   <v>       0.10344828       0.17241379       0.00000000 </v>
   <v>       0.13793103       0.17241379       0.00000000 </v>
   <v>       0.17241379       0.17241379       0.00000000 </v>
   <v>       0.20689655       0.17241379       0.00000000 </v>
   <v>       0.24137931       0.17241379       0.00000000 </v>
   <v>       0.27586207       0.17241379       0.00000000 </v>
   <v>       0.31034483       0.17241379       0.00000000 </v>
   <v>       0.34482759       0.17241379       0.00000000 </v>
   <v>       0.37931034       0.17241379       0.00000000 </v>
   <v>       0.41379310       0.17241379       0.00000000 </v>
   <v>       0.44827586       0.17241379       0.00000000 </v>
   <v>       0.48275862       0.17241379       0.00000000 </v>
   <v>      -0.48275862       0.17241379       0.00000000 </v>
   <v>      -0.44827586       0.17241379       0.00000000 </v>
   <v>      -0.41379310       0.17241379       0.00000000 </v>
   <v>      -0.37931034       0.17241379       0.00000000 </v>
   <v>      -0.34482759       0.17241379       0.00000000 </v>
   <v>       0.00000000       0.20689655       0.00000000 </v>
   <v>       0.03448276       0.20689655       0.00000000 </v>
   <v>       0.06896552       0.20689655       0.00000000 </v>
   <v>       0.10344828       0.20689655       0.00000000 </v>
   <v>       0.13793103       0.20689655       0.00000000 </v>
   <v>       0.17241379       0.20689655       0.00000000 </v>
   <v>       0.20689655       0.20689655       0.00000000 </v>
   <v>       0.24137931       0.20689655       0.00000000 </v>
   <v>       0.27586207       0.20689655       0.00000000 </v>
   <v>       0.31034483       0.20689655       0.00000000 </v>
   <v>       0.34482759       0.20689655       0.00000000 </v>
   <v>       0.37931034       0.20689655       0.00000000 </v>
   <v>       0.41379310       0.20689655       0.00000000 </v>
   <v>       0.44827586       0.20689655       0.00000000 </v>
   <v>       0.48275862       0.20689655       0.00000000 </v>
   <v>      -0.48275862       0.20689655       0.00000000 </v>
   <v>      -0.44827586       0.20689655       0.00000000 </v>
   <v>      -0.41379310       0.20689655       0.00000000 </v>
   <v>       0.00000000       0.24137931       0.00000000 </v>
   <v>       0.03448276       0.24137931       0.00000000 </v>
   <v>       0.06896552       0.24137931       0.00000000 </v>
   <v>       0.10344828       0.24137931       0.00000000 </v>
   <v>       0.13793103       0.24137931       0.00000000 </v>
   <v>       0.17241379       0.24137931       0.00000000 </v>
   <v>       0.20689655       0.24137931       0.00000000 </v>
   <v>       0.24137931       0.24137931       0.00000000 </v>
   <v>       0.27586207       0.24137931       0.00000000 </v>
   <v>       0.31034483       0.24137931       0.00000000 </v>
   <v>       0.34482759       0.24137931       0.00000000 </v>
   <v>       0.37931034       0.24137931       0.00000000 </v>
   <v>       0.41379310       0.24137931       0.00000000 </v>
   <v>       0.44827586       0.24137931       0.00000000 </v>
   <v>       0.48275862       0.24137931       0.00000000 </v>
   <v>      -0.48275862       0.24137931       0.00000000 </v>
   <v>       0.00000000       0.27586207       0.00000000 </v>
   <v>       0.03448276       0.27586207       0.00000000 </v>
   <v>       0.06896552       0.27586207       0.00000000 </v>
   <v>       0.10344828       0.27586207       0.00000000 </v>
   <v>       0.13793103       0.27586207       0.00000000 </v>
   <v>       0.17241379       0.27586207       0.00000000 </v>
   <v>       0.20689655       0.27586207       0.00000000 </v>
   <v>       0.24137931       0.27586207       0.00000000 </v>
   <v>       0.27586207       0.27586207       0.00000000 </v>
   <v>       0.31034483       0.27586207       0.00000000 </v>
   <v>       0.34482759       0.27586207       0.00000000 </v>
   <v>       0.37931034       0.27586207       0.00000000 </v>
   <v>       0.41379310       0.27586207       0.00000000 </v>
   <v>       0.44827586       0.27586207       0.00000000 </v>
   <v>       0.00000000       0.31034483       0.00000000 </v>
   <v>       0.03448276       0.31034483       0.00000000 </v>
   <v>       0.06896552       0.31034483       0.00000000 </v>
   <v>       0.10344828       0.31034483       0.00000000 </v>
   <v>       0.13793103       0.31034483       0.00000000 </v>
   <v>       0.17241379       0.31034483       0.00000000 </v>
   <v>       0.20689655       0.31034483       0.00000000 </v>
   <v>       0.24137931       0.31034483       0.00000000 </v>
   <v>       0.27586207       0.31034483       0.00000000 </v>
   <v>       0.31034483       0.31034483       0.00000000 </v>
   <v>       0.34482759       0.31034483       0.00000000 </v>
   <v>       0.37931034       0.31034483       0.00000000 </v>
   <v>       0.00000000       0.34482759       0.00000000 </v>
   <v>       0.03448276       0.34482759       0.00000000 </v>
   <v>       0.06896552       0.34482759       0.00000000 </v>
   <v>       0.10344828       0.34482759       0.00000000 </v>
   <v>       0.13793103       0.34482759       0.00000000 </v>
   <v>       0.17241379       0.34482759       0.00000000 </v>
   <v>       0.20689655       0.34482759       0.00000000 </v>
   <v>       0.24137931       0.34482759       0.00000000 </v>
   <v>       0.27586207       0.34482759       0.00000000 </v>
   <v>       0.31034483       0.34482759       0.00000000 </v>
   <v>       0.00000000       0.37931034       0.00000000 </v>
   <v>       0.03448276       0.37931034       0.00000000 </v>
   <v>       0.06896552       0.37931034       0.00000000 </v>
   <v>       0.10344828       0.37931034       0.00000000 </v>
   <v>       0.13793103       0.37931034       0.00000000 </v>
   <v>       0.17241379       0.37931034       0.00000000 </v>
   <v>       0.20689655       0.37931034       0.00000000 </v>
   <v>       0.24137931       0.37931034       0.00000000 </v>
   <v>       0.00000000       0.41379310       0.00000000 </v>
   <v>       0.03448276       0.41379310       0.00000000 </v>
   <v>       0.06896552       0.41379310       0.00000000 </v>
   <v>       0.10344828       0.41379310       0.00000000 </v>
   <v>       0.13793103       0.41379310       0.00000000 </v>
   <v>       0.17241379       0.41379310       0.00000000 </v>
   <v>       0.00000000       0.44827586       0.00000000 </v>
   <v>       0.03448276       0.44827586       0.00000000 </v>
   <v>       0.06896552       0.44827586       0.00000000 </v>
   <v>       0.10344828       0.44827586       0.00000000 </v>
   <v>       0.00000000       0.48275862       0.00000000 </v>
   <v>       0.03448276       0.48275862       0.00000000 </v>
   <v>       0.00000000       0.00000000       0.12500000 </v>
   <v>       0.03448276       0.00000000       0.12500000 </v>
   <v>       0.06896552       0.00000000       0.12500000 </v>
   <v>       0.10344828       0.00000000       0.12500000 </v>
   <v>       0.13793103       0.00000000       0.12500000 </v>
   <v>       0.17241379       0.00000000       0.12500000 </v>
   <v>       0.20689655       0.00000000       0.12500000 </v>
   <v>       0.24137931       0.00000000       0.12500000 </v>
   <v>       0.27586207       0.00000000       0.12500000 </v>
   <v>       0.31034483       0.00000000       0.12500000 </v>
   <v>       0.34482759       0.00000000       0.12500000 </v>
   <v>       0.37931034       0.00000000       0.12500000 </v>
   <v>       0.41379310       0.00000000       0.12500000 </v>
   <v>       0.44827586       0.00000000       0.12500000 </v>
   <v>       0.48275862       0.00000000       0.12500000 </v>
   <v>      -0.48275862       0.00000000       0.12500000 </v>
   <v>      -0.44827586       0.00000000       0.12500000 </v>
   <v>      -0.41379310       0.00000000       0.12500000 </v>
   <v>      -0.37931034       0.00000000       0.12500000 </v>
   <v>      -0.34482759       0.00000000       0.12500000 </v>
   <v>      -0.31034483       0.00000000       0.12500000 </v>
   <v>      -0.27586207       0.00000000       0.12500000 </v>
   <v>      -0.24137931       0.00000000       0.12500000 </v>
   <v>      -0.20689655       0.00000000       0.12500000 </v>
   <v>      -0.17241379       0.00000000       0.12500000 </v>
   <v>      -0.13793103       0.00000000       0.12500000 </v>
   <v>      -0.10344828       0.00000000       0.12500000 </v>
   <v>      -0.06896552       0.00000000       0.12500000 </v>
   <v>      -0.03448276       0.00000000       0.12500000 </v>
   <v>       0.00000000       0.03448276       0.12500000 </v>
   <v>       0.03448276       0.03448276       0.12500000 </v>
   <v>       0.06896552       0.03448276       0.12500000 </v>
   <v>       0.10344828       0.03448276       0.12500000 </v>
   <v>       0.13793103       0.03448276       0.12500000 </v>
   <v>       0.17241379       0.03448276       0.12500000 </v>
   <v>       0.20689655       0.03448276       0.12500000 </v>
   <v>       0.24137931       0.03448276       0.12500000 </v>
   <v>       0.27586207       0.03448276       0.12500000 </v>
   <v>       0.31034483       0.03448276       0.12500000 </v>
   <v>       0.34482759       0.03448276       0.12500000 </v>
   <v>       0.37931034       0.03448276       0.12500000 </v>
   <v>       0.41379310       0.03448276       0.12500000 </v>
   <v>       0.44827586       0.03448276       0.12500000 </v>
   <v>       0.48275862       0.03448276       0.12500000 </v>
   <v>      -0.48275862       0.03448276       0.12500000 </v>
   <v>      -0.44827586       0.03448276       0.12500000 </v>
   <v>      -0.41379310       0.03448276       0.12500000 </v>
   <v>      -0.37931034       0.03448276       0.12500000 </v>
   <v>      -0.34482759       0.03448276       0.12500000 </v>
   <v>      -0.31034483       0.03448276       0.12500000 </v>
   <v>      -0.27586207       0.03448276       0.12500000 </v>
   <v>      -0.24137931       0.03448276       0.12500000 </v>
   <v>      -0.20689655       0.03448276       0.12500000 </v>
   <v>      -0.17241379       0.03448276       0.12500000 </v>
   <v>      -0.13793103       0.03448276       0.12500000 </v>
   <v>      -0.10344828       0.03448276       0.12500000 </v>
   <v>      -0.06896552       0.03448276       0.12500000 </v>
   <v>       0.00000000       0.06896552       0.12500000 </v>
   <v>       0.03448276       0.06896552       0.12500000 </v>
   <v>       0.06896552       0.06896552       0.12500000 </v>
   <v>       0.10344828       0.06896552       0.12500000 </v>
   <v>       0.13793103       0.06896552       0.12500000 </v>
   <v>       0.17241379       0.06896552       0.12500000 </v>
   <v>       0.20689655       0.06896552       0.12500000 </v>
   <v>       0.24137931       0.06896552       0.12500000 </v>
   <v>       0.27586207       0.06896552       0.12500000 </v>
   <v>       0.31034483       0.06896552       0.12500000 </v>
   <v>       0.34482759       0.06896552       0.12500000 </v>
   <v>       0.37931034       0.06896552       0.12500000 </v>
   <v>       0.41379310       0.06896552       0.12500000 </v>
   <v>       0.44827586       0.06896552       0.12500000 </v>
   <v>       0.48275862       0.06896552       0.12500000 </v>
   <v>      -0.48275862       0.06896552       0.12500000 </v>
   <v>      -0.44827586       0.06896552       0.12500000 </v>
   <v>      -0.41379310       0.06896552       0.12500000 </v>
   <v>      -0.37931034       0.06896552       0.12500000 </v>
   <v>      -0.34482759       0.06896552       0.12500000 </v>
   <v>      -0.31034483       0.06896552       0.12500000 </v>
   <v>      -0.27586207       0.06896552       0.12500000 </v>
   <v>      -0.24137931       0.06896552       0.12500000 </v>
   <v>      -0.20689655       0.06896552       0.12500000 </v>
   <v>      -0.17241379       0.06896552       0.12500000 </v>
   <v>      -0.13793103       0.06896552       0.12500000 </v>
   <v>      -0.10344828       0.06896552       0.12500000 </v>
   <v>       0.00000000       0.10344828       0.12500000 </v>
   <v>       0.03448276       0.10344828       0.12500000 </v>
   <v>       0.06896552       0.10344828       0.12500000 </v>
   <v>       0.10344828       0.10344828       0.12500000 </v>
   <v>       0.13793103       0.10344828       0.12500000 </v>
   <v>       0.17241379       0.10344828       0.12500000 </v>
   <v>       0.20689655       0.10344828       0.12500000 </v>
   <v>       0.24137931       0.10344828       0.12500000 </v>
   <v>       0.27586207       0.10344828       0.12500000 </v>
   <v>       0.31034483       0.10344828       0.12500000 </v>
   <v>       0.34482759       0.10344828       0.12500000 </v>
   <v>       0.37931034       0.10344828       0.12500000 </v>
   <v>       0.41379310       0.10344828       0.12500000 </v>
   <v>       0.44827586       0.10344828       0.12500000 </v>
   <v>       0.48275862       0.10344828       0.12500000 </v>
   <v>      -0.48275862       0.10344828       0.12500000 </v>
   <v>      -0.44827586       0.10344828       0.12500000 </v>
   <v>      -0.41379310       0.10344828       0.12500000 </v>
   <v>      -0.37931034       0.10344828       0.12500000 </v>
   <v>      -0.34482759       0.10344828       0.12500000 </v>
   <v>      -0.31034483       0.10344828       0.12500000 </v>
   <v>      -0.27586207       0.10344828       0.12500000 </v>
   <v>      -0.24137931       0.10344828       0.12500000 </v>
   <v>      -0.20689655       0.10344828       0.12500000 </v>
   <v>      -0.17241379       0.10344828       0.12500000 </v>
   <v>      -0.13793103       0.10344828       0.12500000 </v>
   <v>       0.00000000       0.13793103       0.12500000 </v>
   <v>       0.03448276       0.13793103       0.12500000 </v>
   <v>       0.06896552       0.13793103       0.12500000 </v>
   <v>       0.10344828       0.13793103       0.12500000 </v>
   <v>       0.13793103       0.13793103       0.12500000 </v>
   <v>       0.17241379       0.13793103       0.12500000 </v>
   <v>       0.20689655       0.13793103       0.12500000 </v>
   <v>       0.24137931       0.13793103       0.12500000 </v>
   <v>       0.27586207       0.13793103       0.12500000 </v>
   <v>       0.31034483       0.13793103       0.12500000 </v>
   <v>       0.34482759       0.13793103       0.12500000 </v>
   <v>       0.37931034       0.13793103       0.12500000 </v>
   <v>       0.41379310       0.13793103       0.12500000 </v>
   <v>       0.44827586       0.13793103       0.12500000 </v>
   <v>       0.48275862       0.13793103       0.12500000 </v>
   <v>      -0.48275862       0.13793103       0.12500000 </v>
   <v>      -0.44827586       0.13793103       0.12500000 </v>
   <v>      -0.41379310       0.13793103       0.12500000 </v>
   <v>      -0.37931034       0.13793103       0.12500000 </v>
   <v>      -0.34482759       0.13793103       0.12500000 </v>
   <v>      -0.31034483       0.13793103       0.12500000 </v>
   <v>      -0.27586207       0.13793103       0.12500000 </v>
   <v>      -0.24137931       0.13793103       0.12500000 </v>
   <v>      -0.20689655       0.13793103       0.12500000 </v>
   <v>      -0.17241379       0.13793103       0.12500000 </v>
   <v>       0.00000000       0.17241379       0.12500000 </v>
   <v>       0.03448276       0.17241379       0.12500000 </v>
   <v>       0.06896552       0.17241379       0.12500000 </v>
   <v>       0.10344828       0.17241379       0.12500000 </v>
   <v>       0.13793103       0.17241379       0.12500000 </v>
   <v>       0.17241379       0.17241379       0.12500000 </v>
   <v>       0.20689655       0.17241379       0.12500000 </v>
   <v>       0.24137931       0.17241379       0.12500000 </v>
   <v>       0.27586207       0.17241379       0.12500000 </v>
   <v>       0.31034483       0.17241379       0.12500000 </v>
   <v>       0.34482759       0.17241379       0.12500000 </v>
   <v>       0.37931034       0.17241379       0.12500000 </v>
   <v>       0.41379310       0.17241379       0.12500000 </v>
   <v>       0.44827586       0.17241379       0.12500000 </v>
   <v>       0.48275862       0.17241379       0.12500000 </v>
   <v>      -0.48275862       0.17241379       0.12500000 </v>
   <v>      -0.44827586       0.17241379       0.12500000 </v>
   <v>      -0.41379310       0.17241379       0.12500000 </v>
   <v>      -0.37931034       0.17241379       0.12500000 </v>
   <v>      -0.34482759       0.17241379       0.12500000 </v>
   <v>      -0.31034483       0.17241379       0.12500000 </v>
   <v>      -0.27586207       0.17241379       0.12500000 </v>
   <v>      -0.24137931       0.17241379       0.12500000 </v>
   <v>      -0.20689655       0.17241379       0.12500000 </v>
   <v>       0.00000000       0.20689655       0.12500000 </v>
   <v>       0.03448276       0.20689655       0.12500000 </v>
   <v>       0.06896552       0.20689655       0.12500000 </v>
   <v>       0.10344828       0.20689655       0.12500000 </v>
   <v>       0.13793103       0.20689655       0.12500000 </v>
   <v>       0.17241379       0.20689655       0.12500000 </v>
   <v>       0.20689655       0.20689655       0.12500000 </v>
   <v>       0.24137931       0.20689655       0.12500000 </v>
   <v>       0.27586207       0.20689655       0.12500000 </v>
   <v>       0.31034483       0.20689655       0.12500000 </v>
   <v>       0.34482759       0.20689655       0.12500000 </v>
   <v>       0.37931034       0.20689655       0.12500000 </v>
   <v>       0.41379310       0.20689655       0.12500000 </v>
   <v>       0.44827586       0.20689655       0.12500000 </v>
   <v>       0.48275862       0.20689655       0.12500000 </v>
   <v>      -0.48275862       0.20689655       0.12500000 </v>
   <v>      -0.44827586       0.20689655       0.12500000 </v>
   <v>      -0.41379310       0.20689655       0.12500000 </v>
   <v>      -0.37931034       0.20689655       0.12500000 </v>
   <v>      -0.34482759       0.20689655       0.12500000 </v>
   <v>      -0.31034483       0.20689655       0.12500000 </v>
   <v>      -0.27586207       0.20689655       0.12500000 </v>
   <v>      -0.24137931       0.20689655       0.12500000 </v>
   <v>       0.00000000       0.24137931       0.12500000 </v>
   <v>       0.03448276       0.24137931       0.12500000 </v>
   <v>       0.06896552       0.24137931       0.12500000 </v>
   <v>       0.10344828       0.24137931       0.12500000 </v>
   <v>       0.13793103       0.24137931       0.12500000 </v>
   <v>       0.17241379       0.24137931       0.12500000 </v>
   <v>       0.20689655       0.24137931       0.12500000 </v>
   <v>       0.24137931       0.24137931       0.12500000 </v>
   <v>       0.27586207       0.24137931       0.12500000 </v>
   <v>       0.31034483       0.24137931       0.12500000 </v>
   <v>       0.34482759       0.24137931       0.12500000 </v>
   <v>       0.37931034       0.24137931       0.12500000 </v>
   <v>       0.41379310       0.24137931       0.12500000 </v>
   <v>       0.44827586       0.24137931       0.12500000 </v>
   <v>       0.48275862       0.24137931       0.12500000 </v>
   <v>      -0.48275862       0.24137931       0.12500000 </v>
   <v>      -0.44827586       0.24137931       0.12500000 </v>
   <v>      -0.41379310       0.24137931       0.12500000 </v>
   <v>      -0.37931034       0.24137931       0.12500000 </v>
   <v>      -0.34482759       0.24137931       0.12500000 </v>
   <v>      -0.31034483       0.24137931       0.12500000 </v>
   <v>      -0.27586207       0.24137931       0.12500000 </v>
   <v>       0.00000000       0.27586207       0.12500000 </v>
   <v>       0.03448276       0.27586207       0.12500000 </v>
   <v>       0.06896552       0.27586207       0.12500000 </v>
   <v>       0.10344828       0.27586207       0.12500000 </v>
   <v>       0.13793103       0.27586207       0.12500000 </v>
   <v>       0.17241379       0.27586207       0.12500000 </v>
   <v>       0.20689655       0.27586207       0.12500000 </v>
   <v>       0.24137931       0.27586207       0.12500000 </v>
   <v>       0.27586207       0.27586207       0.12500000 </v>
   <v>       0.31034483       0.27586207       0.12500000 </v>
   <v>       0.34482759       0.27586207       0.12500000 </v>
   <v>       0.37931034       0.27586207       0.12500000 </v>
   <v>       0.41379310       0.27586207       0.12500000 </v>
   <v>       0.44827586       0.27586207       0.12500000 </v>
   <v>       0.48275862       0.27586207       0.12500000 </v>
   <v>      -0.48275862       0.27586207       0.12500000 </v>
   <v>      -0.44827586       0.27586207       0.12500000 </v>
   <v>      -0.41379310       0.27586207       0.12500000 </v>
   <v>      -0.37931034       0.27586207       0.12500000 </v>
   <v>      -0.34482759       0.27586207       0.12500000 </v>
   <v>      -0.31034483       0.27586207       0.12500000 </v>
   <v>       0.00000000       0.31034483       0.12500000 </v>
   <v>       0.03448276       0.31034483       0.12500000 </v>
   <v>       0.06896552       0.31034483       0.12500000 </v>
   <v>       0.10344828       0.31034483       0.12500000 </v>
   <v>       0.13793103       0.31034483       0.12500000 </v>
   <v>       0.17241379       0.31034483       0.12500000 </v>
   <v>       0.20689655       0.31034483       0.12500000 </v>
   <v>       0.24137931       0.31034483       0.12500000 </v>
   <v>       0.27586207       0.31034483       0.12500000 </v>
   <v>       0.31034483       0.31034483       0.12500000 </v>
   <v>       0.34482759       0.31034483       0.12500000 </v>
   <v>       0.37931034       0.31034483       0.12500000 </v>
   <v>       0.41379310       0.31034483       0.12500000 </v>
   <v>       0.44827586       0.31034483       0.12500000 </v>
   <v>       0.48275862       0.31034483       0.12500000 </v>
   <v>      -0.48275862       0.31034483       0.12500000 </v>
   <v>      -0.44827586       0.31034483       0.12500000 </v>
   <v>      -0.41379310       0.31034483       0.12500000 </v>
   <v>      -0.37931034       0.31034483       0.12500000 </v>
   <v>      -0.34482759       0.31034483       0.12500000 </v>
   <v>       0.00000000       0.34482759       0.12500000 </v>
   <v>       0.03448276       0.34482759       0.12500000 </v>
   <v>       0.06896552       0.34482759       0.12500000 </v>
   <v>       0.10344828       0.34482759       0.12500000 </v>
   <v>       0.13793103       0.34482759       0.12500000 </v>
   <v>       0.17241379       0.34482759       0.12500000 </v>
   <v>       0.20689655       0.34482759       0.12500000 </v>
   <v>       0.24137931       0.34482759       0.12500000 </v>
   <v>       0.27586207       0.34482759       0.12500000 </v>
   <v>       0.31034483       0.34482759       0.12500000 </v>
   <v>       0.34482759       0.34482759       0.12500000 </v>
   <v>       0.37931034       0.34482759       0.12500000 </v>
   <v>       0.41379310       0.34482759       0.12500000 </v>
   <v>       0.44827586       0.34482759       0.12500000 </v>
   <v>       0.48275862       0.34482759       0.12500000 </v>
   <v>      -0.48275862       0.34482759       0.12500000 </v>
   <v>      -0.44827586       0.34482759       0.12500000 </v>
   <v>      -0.41379310       0.34482759       0.12500000 </v>
   <v>      -0.37931034       0.34482759       0.12500000 </v>
   <v>       0.00000000       0.37931034       0.12500000 </v>
   <v>       0.03448276       0.37931034       0.12500000 </v>
   <v>       0.06896552       0.37931034       0.12500000 </v>
   <v>       0.10344828       0.37931034       0.12500000 </v>
   <v>       0.13793103       0.37931034       0.12500000 </v>
   <v>       0.17241379       0.37931034       0.12500000 </v>
   <v>       0.20689655       0.37931034       0.12500000 </v>
   <v>       0.24137931       0.37931034       0.12500000 </v>
   <v>       0.27586207       0.37931034       0.12500000 </v>
   <v>       0.31034483       0.37931034       0.12500000 </v>
   <v>       0.34482759       0.37931034       0.12500000 </v>
   <v>       0.37931034       0.37931034       0.12500000 </v>
   <v>       0.41379310       0.37931034       0.12500000 </v>
   <v>       0.44827586       0.37931034       0.12500000 </v>
   <v>       0.48275862       0.37931034       0.12500000 </v>
   <v>      -0.48275862       0.37931034       0.12500000 </v>
   <v>      -0.44827586       0.37931034       0.12500000 </v>
   <v>      -0.41379310       0.37931034       0.12500000 </v>
   <v>       0.00000000       0.41379310       0.12500000 </v>
   <v>       0.03448276       0.41379310       0.12500000 </v>
   <v>       0.06896552       0.41379310       0.12500000 </v>
   <v>       0.10344828       0.41379310       0.12500000 </v>
   <v>       0.13793103       0.41379310       0.12500000 </v>
   <v>       0.17241379       0.41379310       0.12500000 </v>
   <v>       0.20689655       0.41379310       0.12500000 </v>
   <v>       0.24137931       0.41379310       0.12500000 </v>
   <v>       0.27586207       0.41379310       0.12500000 </v>
   <v>       0.31034483       0.41379310       0.12500000 </v>
   <v>       0.34482759       0.41379310       0.12500000 </v>
   <v>       0.37931034       0.41379310       0.12500000 </v>
   <v>       0.41379310       0.41379310       0.12500000 </v>
   <v>       0.44827586       0.41379310       0.12500000 </v>
   <v>       0.48275862       0.41379310       0.12500000 </v>
   <v>      -0.48275862       0.41379310       0.12500000 </v>
   <v>      -0.44827586       0.41379310       0.12500000 </v>
   <v>       0.00000000       0.44827586       0.12500000 </v>
   <v>       0.03448276       0.44827586       0.12500000 </v>
   <v>       0.06896552       0.44827586       0.12500000 </v>
   <v>       0.10344828       0.44827586       0.12500000 </v>
   <v>       0.13793103       0.44827586       0.12500000 </v>
   <v>       0.17241379       0.44827586       0.12500000 </v>
   <v>       0.20689655       0.44827586       0.12500000 </v>
   <v>       0.24137931       0.44827586       0.12500000 </v>
   <v>       0.27586207       0.44827586       0.12500000 </v>
   <v>       0.31034483       0.44827586       0.12500000 </v>
   <v>       0.34482759       0.44827586       0.12500000 </v>
   <v>       0.37931034       0.44827586       0.12500000 </v>
   <v>       0.41379310       0.44827586       0.12500000 </v>
   <v>       0.44827586       0.44827586       0.12500000 </v>
   <v>       0.48275862       0.44827586       0.12500000 </v>
   <v>      -0.48275862       0.44827586       0.12500000 </v>
   <v>       0.00000000       0.48275862       0.12500000 </v>
   <v>       0.03448276       0.48275862       0.12500000 </v>
   <v>       0.06896552       0.48275862       0.12500000 </v>
   <v>       0.10344828       0.48275862       0.12500000 </v>
   <v>       0.13793103       0.48275862       0.12500000 </v>
   <v>       0.17241379       0.48275862       0.12500000 </v>
   <v>       0.20689655       0.48275862       0.12500000 </v>
   <v>       0.24137931       0.48275862       0.12500000 </v>
   <v>       0.27586207       0.48275862       0.12500000 </v>
   <v>       0.31034483       0.48275862       0.12500000 </v>
   <v>       0.34482759       0.48275862       0.12500000 </v>
   <v>       0.37931034       0.48275862       0.12500000 </v>
   <v>       0.41379310       0.48275862       0.12500000 </v>
   <v>       0.44827586       0.48275862       0.12500000 </v>
   <v>       0.48275862       0.48275862       0.12500000 </v>
   <v>       0.00000000      -0.48275862       0.12500000 </v>
   <v>       0.03448276      -0.48275862       0.12500000 </v>
   <v>       0.06896552      -0.48275862       0.12500000 </v>
   <v>       0.10344828      -0.48275862       0.12500000 </v>
   <v>       0.13793103      -0.48275862       0.12500000 </v>
   <v>       0.17241379      -0.48275862       0.12500000 </v>
   <v>       0.20689655      -0.48275862       0.12500000 </v>
   <v>       0.24137931      -0.48275862       0.12500000 </v>
   <v>       0.27586207      -0.48275862       0.12500000 </v>
   <v>       0.31034483      -0.48275862       0.12500000 </v>
   <v>       0.34482759      -0.48275862       0.12500000 </v>
   <v>       0.37931034      -0.48275862       0.12500000 </v>
   <v>       0.41379310      -0.48275862       0.12500000 </v>
   <v>       0.44827586      -0.48275862       0.12500000 </v>
   <v>       0.00000000      -0.44827586       0.12500000 </v>
   <v>       0.03448276      -0.44827586       0.12500000 </v>
   <v>       0.06896552      -0.44827586       0.12500000 </v>
   <v>       0.10344828      -0.44827586       0.12500000 </v>
   <v>       0.13793103      -0.44827586       0.12500000 </v>
   <v>       0.17241379      -0.44827586       0.12500000 </v>
   <v>       0.20689655      -0.44827586       0.12500000 </v>
   <v>       0.24137931      -0.44827586       0.12500000 </v>
   <v>       0.27586207      -0.44827586       0.12500000 </v>
   <v>       0.31034483      -0.44827586       0.12500000 </v>
   <v>       0.34482759      -0.44827586       0.12500000 </v>
   <v>       0.37931034      -0.44827586       0.12500000 </v>
   <v>       0.41379310      -0.44827586       0.12500000 </v>
   <v>       0.00000000      -0.41379310       0.12500000 </v>
   <v>       0.03448276      -0.41379310       0.12500000 </v>
   <v>       0.06896552      -0.41379310       0.12500000 </v>
   <v>       0.10344828      -0.41379310       0.12500000 </v>
   <v>       0.13793103      -0.41379310       0.12500000 </v>
   <v>       0.17241379      -0.41379310       0.12500000 </v>
   <v>       0.20689655      -0.41379310       0.12500000 </v>
   <v>       0.24137931      -0.41379310       0.12500000 </v>
   <v>       0.27586207      -0.41379310       0.12500000 </v>
   <v>       0.31034483      -0.41379310       0.12500000 </v>
   <v>       0.34482759      -0.41379310       0.12500000 </v>
   <v>       0.37931034      -0.41379310       0.12500000 </v>
   <v>       0.00000000      -0.37931034       0.12500000 </v>
   <v>       0.03448276      -0.37931034       0.12500000 </v>
   <v>       0.06896552      -0.37931034       0.12500000 </v>
   <v>       0.10344828      -0.37931034       0.12500000 </v>
   <v>       0.13793103      -0.37931034       0.12500000 </v>
   <v>       0.17241379      -0.37931034       0.12500000 </v>
   <v>       0.20689655      -0.37931034       0.12500000 </v>
   <v>       0.24137931      -0.37931034       0.12500000 </v>
   <v>       0.27586207      -0.37931034       0.12500000 </v>
   <v>       0.31034483      -0.37931034       0.12500000 </v>
   <v>       0.34482759      -0.37931034       0.12500000 </v>
   <v>       0.00000000      -0.34482759       0.12500000 </v>
   <v>       0.03448276      -0.34482759       0.12500000 </v>
   <v>       0.06896552      -0.34482759       0.12500000 </v>
   <v>       0.10344828      -0.34482759       0.12500000 </v>
   <v>       0.13793103      -0.34482759       0.12500000 </v>
   <v>       0.17241379      -0.34482759       0.12500000 </v>
   <v>       0.20689655      -0.34482759       0.12500000 </v>
   <v>       0.24137931      -0.34482759       0.12500000 </v>
   <v>       0.27586207      -0.34482759       0.12500000 </v>
   <v>       0.31034483      -0.34482759       0.12500000 </v>
   <v>       0.00000000      -0.31034483       0.12500000 </v>
   <v>       0.03448276      -0.31034483       0.12500000 </v>
   <v>       0.06896552      -0.31034483       0.12500000 </v>
   <v>       0.10344828      -0.31034483       0.12500000 </v>
   <v>       0.13793103      -0.31034483       0.12500000 </v>
   <v>       0.17241379      -0.31034483       0.12500000 </v>
   <v>       0.20689655      -0.31034483       0.12500000 </v>
   <v>       0.24137931      -0.31034483       0.12500000 </v>
   <v>       0.27586207      -0.31034483       0.12500000 </v>
   <v>       0.00000000      -0.27586207       0.12500000 </v>
   <v>       0.03448276      -0.27586207       0.12500000 </v>
   <v>       0.06896552      -0.27586207       0.12500000 </v>
   <v>       0.10344828      -0.27586207       0.12500000 </v>
   <v>       0.13793103      -0.27586207       0.12500000 </v>
   <v>       0.17241379      -0.27586207       0.12500000 </v>
   <v>       0.20689655      -0.27586207       0.12500000 </v>
   <v>       0.24137931      -0.27586207       0.12500000 </v>
   <v>       0.00000000      -0.24137931       0.12500000 </v>
   <v>       0.03448276      -0.24137931       0.12500000 </v>
   <v>       0.06896552      -0.24137931       0.12500000 </v>
   <v>       0.10344828      -0.24137931       0.12500000 </v>
   <v>       0.13793103      -0.24137931       0.12500000 </v>
   <v>       0.17241379      -0.24137931       0.12500000 </v>
   <v>       0.20689655      -0.24137931       0.12500000 </v>
   <v>       0.00000000      -0.20689655       0.12500000 </v>
   <v>       0.03448276      -0.20689655       0.12500000 </v>
   <v>       0.06896552      -0.20689655       0.12500000 </v>
   <v>       0.10344828      -0.20689655       0.12500000 </v>
   <v>       0.13793103      -0.20689655       0.12500000 </v>
   <v>       0.17241379      -0.20689655       0.12500000 </v>
   <v>       0.00000000      -0.17241379       0.12500000 </v>
   <v>       0.03448276      -0.17241379       0.12500000 </v>
   <v>       0.06896552      -0.17241379       0.12500000 </v>
   <v>       0.10344828      -0.17241379       0.12500000 </v>
   <v>       0.13793103      -0.17241379       0.12500000 </v>
   <v>       0.00000000      -0.13793103       0.12500000 </v>
   <v>       0.03448276      -0.13793103       0.12500000 </v>
   <v>       0.06896552      -0.13793103       0.12500000 </v>
   <v>       0.10344828      -0.13793103       0.12500000 </v>
   <v>       0.00000000      -0.10344828       0.12500000 </v>
   <v>       0.03448276      -0.10344828       0.12500000 </v>
   <v>       0.06896552      -0.10344828       0.12500000 </v>
   <v>       0.00000000      -0.06896552       0.12500000 </v>
   <v>       0.03448276      -0.06896552       0.12500000 </v>
   <v>       0.00000000      -0.03448276       0.12500000 </v>
   <v>       0.00000000       0.00000000       0.25000000 </v>
   <v>       0.03448276       0.00000000       0.25000000 </v>
   <v>       0.06896552       0.00000000       0.25000000 </v>
   <v>       0.10344828       0.00000000       0.25000000 </v>
   <v>       0.13793103       0.00000000       0.25000000 </v>
   <v>       0.17241379       0.00000000       0.25000000 </v>
   <v>       0.20689655       0.00000000       0.25000000 </v>
   <v>       0.24137931       0.00000000       0.25000000 </v>
   <v>       0.27586207       0.00000000       0.25000000 </v>
   <v>       0.31034483       0.00000000       0.25000000 </v>
   <v>       0.34482759       0.00000000       0.25000000 </v>
   <v>       0.37931034       0.00000000       0.25000000 </v>
   <v>       0.41379310       0.00000000       0.25000000 </v>
   <v>       0.44827586       0.00000000       0.25000000 </v>
   <v>       0.48275862       0.00000000       0.25000000 </v>
   <v>      -0.48275862       0.00000000       0.25000000 </v>
   <v>      -0.44827586       0.00000000       0.25000000 </v>
   <v>      -0.41379310       0.00000000       0.25000000 </v>
   <v>      -0.37931034       0.00000000       0.25000000 </v>
   <v>      -0.34482759       0.00000000       0.25000000 </v>
   <v>      -0.31034483       0.00000000       0.25000000 </v>
   <v>      -0.27586207       0.00000000       0.25000000 </v>
   <v>      -0.24137931       0.00000000       0.25000000 </v>
   <v>      -0.20689655       0.00000000       0.25000000 </v>
   <v>      -0.17241379       0.00000000       0.25000000 </v>
   <v>      -0.13793103       0.00000000       0.25000000 </v>
   <v>      -0.10344828       0.00000000       0.25000000 </v>
   <v>      -0.06896552       0.00000000       0.25000000 </v>
   <v>      -0.03448276       0.00000000       0.25000000 </v>
   <v>       0.00000000       0.03448276       0.25000000 </v>
   <v>       0.03448276       0.03448276       0.25000000 </v>
   <v>       0.06896552       0.03448276       0.25000000 </v>
   <v>       0.10344828       0.03448276       0.25000000 </v>
   <v>       0.13793103       0.03448276       0.25000000 </v>
   <v>       0.17241379       0.03448276       0.25000000 </v>
   <v>       0.20689655       0.03448276       0.25000000 </v>
   <v>       0.24137931       0.03448276       0.25000000 </v>
   <v>       0.27586207       0.03448276       0.25000000 </v>
   <v>       0.31034483       0.03448276       0.25000000 </v>
   <v>       0.34482759       0.03448276       0.25000000 </v>
   <v>       0.37931034       0.03448276       0.25000000 </v>
   <v>       0.41379310       0.03448276       0.25000000 </v>
   <v>       0.44827586       0.03448276       0.25000000 </v>
   <v>       0.48275862       0.03448276       0.25000000 </v>
   <v>      -0.48275862       0.03448276       0.25000000 </v>
   <v>      -0.44827586       0.03448276       0.25000000 </v>
   <v>      -0.41379310       0.03448276       0.25000000 </v>
   <v>      -0.37931034       0.03448276       0.25000000 </v>
   <v>      -0.34482759       0.03448276       0.25000000 </v>
   <v>      -0.31034483       0.03448276       0.25000000 </v>
   <v>      -0.27586207       0.03448276       0.25000000 </v>
   <v>      -0.24137931       0.03448276       0.25000000 </v>
   <v>      -0.20689655       0.03448276       0.25000000 </v>
   <v>      -0.17241379       0.03448276       0.25000000 </v>
   <v>      -0.13793103       0.03448276       0.25000000 </v>
   <v>      -0.10344828       0.03448276       0.25000000 </v>
   <v>      -0.06896552       0.03448276       0.25000000 </v>
   <v>       0.00000000       0.06896552       0.25000000 </v>
   <v>       0.03448276       0.06896552       0.25000000 </v>
   <v>       0.06896552       0.06896552       0.25000000 </v>
   <v>       0.10344828       0.06896552       0.25000000 </v>
   <v>       0.13793103       0.06896552       0.25000000 </v>
   <v>       0.17241379       0.06896552       0.25000000 </v>
   <v>       0.20689655       0.06896552       0.25000000 </v>
   <v>       0.24137931       0.06896552       0.25000000 </v>
   <v>       0.27586207       0.06896552       0.25000000 </v>
   <v>       0.31034483       0.06896552       0.25000000 </v>
   <v>       0.34482759       0.06896552       0.25000000 </v>
   <v>       0.37931034       0.06896552       0.25000000 </v>
   <v>       0.41379310       0.06896552       0.25000000 </v>
   <v>       0.44827586       0.06896552       0.25000000 </v>
   <v>       0.48275862       0.06896552       0.25000000 </v>
   <v>      -0.48275862       0.06896552       0.25000000 </v>
   <v>      -0.44827586       0.06896552       0.25000000 </v>
   <v>      -0.41379310       0.06896552       0.25000000 </v>
   <v>      -0.37931034       0.06896552       0.25000000 </v>
   <v>      -0.34482759       0.06896552       0.25000000 </v>
   <v>      -0.31034483       0.06896552       0.25000000 </v>
   <v>      -0.27586207       0.06896552       0.25000000 </v>
   <v>      -0.24137931       0.06896552       0.25000000 </v>
   <v>      -0.20689655       0.06896552       0.25000000 </v>
   <v>      -0.17241379       0.06896552       0.25000000 </v>
   <v>      -0.13793103       0.06896552       0.25000000 </v>
   <v>      -0.10344828       0.06896552       0.25000000 </v>
   <v>       0.00000000       0.10344828       0.25000000 </v>
   <v>       0.03448276       0.10344828       0.25000000 </v>
   <v>       0.06896552       0.10344828       0.25000000 </v>
   <v>       0.10344828       0.10344828       0.25000000 </v>
   <v>       0.13793103       0.10344828       0.25000000 </v>
   <v>       0.17241379       0.10344828       0.25000000 </v>
   <v>       0.20689655       0.10344828       0.25000000 </v>
   <v>       0.24137931       0.10344828       0.25000000 </v>
   <v>       0.27586207       0.10344828       0.25000000 </v>
   <v>       0.31034483       0.10344828       0.25000000 </v>
   <v>       0.34482759       0.10344828       0.25000000 </v>
   <v>       0.37931034       0.10344828       0.25000000 </v>
   <v>       0.41379310       0.10344828       0.25000000 </v>
   <v>       0.44827586       0.10344828       0.25000000 </v>
   <v>       0.48275862       0.10344828       0.25000000 </v>
   <v>      -0.48275862       0.10344828       0.25000000 </v>
   <v>      -0.44827586       0.10344828       0.25000000 </v>
   <v>      -0.41379310       0.10344828       0.25000000 </v>
   <v>      -0.37931034       0.10344828       0.25000000 </v>
   <v>      -0.34482759       0.10344828       0.25000000 </v>
   <v>      -0.31034483       0.10344828       0.25000000 </v>
   <v>      -0.27586207       0.10344828       0.25000000 </v>
   <v>      -0.24137931       0.10344828       0.25000000 </v>
   <v>      -0.20689655       0.10344828       0.25000000 </v>
   <v>      -0.17241379       0.10344828       0.25000000 </v>
   <v>      -0.13793103       0.10344828       0.25000000 </v>
   <v>       0.00000000       0.13793103       0.25000000 </v>
   <v>       0.03448276       0.13793103       0.25000000 </v>
   <v>       0.06896552       0.13793103       0.25000000 </v>
   <v>       0.10344828       0.13793103       0.25000000 </v>
   <v>       0.13793103       0.13793103       0.25000000 </v>
   <v>       0.17241379       0.13793103       0.25000000 </v>
   <v>       0.20689655       0.13793103       0.25000000 </v>
   <v>       0.24137931       0.13793103       0.25000000 </v>
   <v>       0.27586207       0.13793103       0.25000000 </v>
   <v>       0.31034483       0.13793103       0.25000000 </v>
   <v>       0.34482759       0.13793103       0.25000000 </v>
   <v>       0.37931034       0.13793103       0.25000000 </v>
   <v>       0.41379310       0.13793103       0.25000000 </v>
   <v>       0.44827586       0.13793103       0.25000000 </v>
   <v>       0.48275862       0.13793103       0.25000000 </v>
   <v>      -0.48275862       0.13793103       0.25000000 </v>
   <v>      -0.44827586       0.13793103       0.25000000 </v>
   <v>      -0.41379310       0.13793103       0.25000000 </v>
   <v>      -0.37931034       0.13793103       0.25000000 </v>
   <v>      -0.34482759       0.13793103       0.25000000 </v>
   <v>      -0.31034483       0.13793103       0.25000000 </v>
   <v>      -0.27586207       0.13793103       0.25000000 </v>
   <v>      -0.24137931       0.13793103       0.25000000 </v>
   <v>      -0.20689655       0.13793103       0.25000000 </v>
   <v>      -0.17241379       0.13793103       0.25000000 </v>
   <v>       0.00000000       0.17241379       0.25000000 </v>
   <v>       0.03448276       0.17241379       0.25000000 </v>
   <v>       0.06896552       0.17241379       0.25000000 </v>
   <v>       0.10344828       0.17241379       0.25000000 </v>
   <v>       0.13793103       0.17241379       0.25000000 </v>
   <v>       0.17241379       0.17241379       0.25000000 </v>
   <v>       0.20689655       0.17241379       0.25000000 </v>
   <v>       0.24137931       0.17241379       0.25000000 </v>
   <v>       0.27586207       0.17241379       0.25000000 </v>
   <v>       0.31034483       0.17241379       0.25000000 </v>
   <v>       0.34482759       0.17241379       0.25000000 </v>
   <v>       0.37931034       0.17241379       0.25000000 </v>
   <v>       0.41379310       0.17241379       0.25000000 </v>
   <v>       0.44827586       0.17241379       0.25000000 </v>
   <v>       0.48275862       0.17241379       0.25000000 </v>
   <v>      -0.48275862       0.17241379       0.25000000 </v>
   <v>      -0.44827586       0.17241379       0.25000000 </v>
   <v>      -0.41379310       0.17241379       0.25000000 </v>
   <v>      -0.37931034       0.17241379       0.25000000 </v>
   <v>      -0.34482759       0.17241379       0.25000000 </v>
   <v>      -0.31034483       0.17241379       0.25000000 </v>
   <v>      -0.27586207       0.17241379       0.25000000 </v>
   <v>      -0.24137931       0.17241379       0.25000000 </v>
   <v>      -0.20689655       0.17241379       0.25000000 </v>
   <v>       0.00000000       0.20689655       0.25000000 </v>
   <v>       0.03448276       0.20689655       0.25000000 </v>
   <v>       0.06896552       0.20689655       0.25000000 </v>
   <v>       0.10344828       0.20689655       0.25000000 </v>
   <v>       0.13793103       0.20689655       0.25000000 </v>
   <v>       0.17241379       0.20689655       0.25000000 </v>
   <v>       0.20689655       0.20689655       0.25000000 </v>
   <v>       0.24137931       0.20689655       0.25000000 </v>
   <v>       0.27586207       0.20689655       0.25000000 </v>
   <v>       0.31034483       0.20689655       0.25000000 </v>
   <v>       0.34482759       0.20689655       0.25000000 </v>
   <v>       0.37931034       0.20689655       0.25000000 </v>
   <v>       0.41379310       0.20689655       0.25000000 </v>
   <v>       0.44827586       0.20689655       0.25000000 </v>
   <v>       0.48275862       0.20689655       0.25000000 </v>
   <v>      -0.48275862       0.20689655       0.25000000 </v>
   <v>      -0.44827586       0.20689655       0.25000000 </v>
   <v>      -0.41379310       0.20689655       0.25000000 </v>
   <v>      -0.37931034       0.20689655       0.25000000 </v>
   <v>      -0.34482759       0.20689655       0.25000000 </v>
   <v>      -0.31034483       0.20689655       0.25000000 </v>
   <v>      -0.27586207       0.20689655       0.25000000 </v>
   <v>      -0.24137931       0.20689655       0.25000000 </v>
   <v>       0.00000000       0.24137931       0.25000000 </v>
   <v>       0.03448276       0.24137931       0.25000000 </v>
   <v>       0.06896552       0.24137931       0.25000000 </v>
   <v>       0.10344828       0.24137931       0.25000000 </v>
   <v>       0.13793103       0.24137931       0.25000000 </v>
   <v>       0.17241379       0.24137931       0.25000000 </v>
   <v>       0.20689655       0.24137931       0.25000000 </v>
   <v>       0.24137931       0.24137931       0.25000000 </v>
   <v>       0.27586207       0.24137931       0.25000000 </v>
   <v>       0.31034483       0.24137931       0.25000000 </v>
   <v>       0.34482759       0.24137931       0.25000000 </v>
   <v>       0.37931034       0.24137931       0.25000000 </v>
   <v>       0.41379310       0.24137931       0.25000000 </v>
   <v>       0.44827586       0.24137931       0.25000000 </v>
   <v>       0.48275862       0.24137931       0.25000000 </v>
   <v>      -0.48275862       0.24137931       0.25000000 </v>
   <v>      -0.44827586       0.24137931       0.25000000 </v>
   <v>      -0.41379310       0.24137931       0.25000000 </v>
   <v>      -0.37931034       0.24137931       0.25000000 </v>
   <v>      -0.34482759       0.24137931       0.25000000 </v>
   <v>      -0.31034483       0.24137931       0.25000000 </v>
   <v>      -0.27586207       0.24137931       0.25000000 </v>
   <v>       0.00000000       0.27586207       0.25000000 </v>
   <v>       0.03448276       0.27586207       0.25000000 </v>
   <v>       0.06896552       0.27586207       0.25000000 </v>
   <v>       0.10344828       0.27586207       0.25000000 </v>
   <v>       0.13793103       0.27586207       0.25000000 </v>
   <v>       0.17241379       0.27586207       0.25000000 </v>
   <v>       0.20689655       0.27586207       0.25000000 </v>
   <v>       0.24137931       0.27586207       0.25000000 </v>
   <v>       0.27586207       0.27586207       0.25000000 </v>
   <v>       0.31034483       0.27586207       0.25000000 </v>
   <v>       0.34482759       0.27586207       0.25000000 </v>
   <v>       0.37931034       0.27586207       0.25000000 </v>
   <v>       0.41379310       0.27586207       0.25000000 </v>
   <v>       0.44827586       0.27586207       0.25000000 </v>
   <v>       0.48275862       0.27586207       0.25000000 </v>
   <v>      -0.48275862       0.27586207       0.25000000 </v>
   <v>      -0.44827586       0.27586207       0.25000000 </v>
   <v>      -0.41379310       0.27586207       0.25000000 </v>
   <v>      -0.37931034       0.27586207       0.25000000 </v>
   <v>      -0.34482759       0.27586207       0.25000000 </v>
   <v>      -0.31034483       0.27586207       0.25000000 </v>
   <v>       0.00000000       0.31034483       0.25000000 </v>
   <v>       0.03448276       0.31034483       0.25000000 </v>
   <v>       0.06896552       0.31034483       0.25000000 </v>
   <v>       0.10344828       0.31034483       0.25000000 </v>
   <v>       0.13793103       0.31034483       0.25000000 </v>
   <v>       0.17241379       0.31034483       0.25000000 </v>
   <v>       0.20689655       0.31034483       0.25000000 </v>
   <v>       0.24137931       0.31034483       0.25000000 </v>
   <v>       0.27586207       0.31034483       0.25000000 </v>
   <v>       0.31034483       0.31034483       0.25000000 </v>
   <v>       0.34482759       0.31034483       0.25000000 </v>
   <v>       0.37931034       0.31034483       0.25000000 </v>
   <v>       0.41379310       0.31034483       0.25000000 </v>
   <v>       0.44827586       0.31034483       0.25000000 </v>
   <v>       0.48275862       0.31034483       0.25000000 </v>
   <v>      -0.48275862       0.31034483       0.25000000 </v>
   <v>      -0.44827586       0.31034483       0.25000000 </v>
   <v>      -0.41379310       0.31034483       0.25000000 </v>
   <v>      -0.37931034       0.31034483       0.25000000 </v>
   <v>      -0.34482759       0.31034483       0.25000000 </v>
   <v>       0.00000000       0.34482759       0.25000000 </v>
   <v>       0.03448276       0.34482759       0.25000000 </v>
   <v>       0.06896552       0.34482759       0.25000000 </v>
   <v>       0.10344828       0.34482759       0.25000000 </v>
   <v>       0.13793103       0.34482759       0.25000000 </v>
   <v>       0.17241379       0.34482759       0.25000000 </v>
   <v>       0.20689655       0.34482759       0.25000000 </v>
   <v>       0.24137931       0.34482759       0.25000000 </v>
   <v>       0.27586207       0.34482759       0.25000000 </v>
   <v>       0.31034483       0.34482759       0.25000000 </v>
   <v>       0.34482759       0.34482759       0.25000000 </v>
   <v>       0.37931034       0.34482759       0.25000000 </v>
   <v>       0.41379310       0.34482759       0.25000000 </v>
   <v>       0.44827586       0.34482759       0.25000000 </v>
   <v>       0.48275862       0.34482759       0.25000000 </v>
   <v>      -0.48275862       0.34482759       0.25000000 </v>
   <v>      -0.44827586       0.34482759       0.25000000 </v>
   <v>      -0.41379310       0.34482759       0.25000000 </v>
   <v>      -0.37931034       0.34482759       0.25000000 </v>
   <v>       0.00000000       0.37931034       0.25000000 </v>
   <v>       0.03448276       0.37931034       0.25000000 </v>
   <v>       0.06896552       0.37931034       0.25000000 </v>
   <v>       0.10344828       0.37931034       0.25000000 </v>
   <v>       0.13793103       0.37931034       0.25000000 </v>
   <v>       0.17241379       0.37931034       0.25000000 </v>
   <v>       0.20689655       0.37931034       0.25000000 </v>
   <v>       0.24137931       0.37931034       0.25000000 </v>
   <v>       0.27586207       0.37931034       0.25000000 </v>
   <v>       0.31034483       0.37931034       0.25000000 </v>
   <v>       0.34482759       0.37931034       0.25000000 </v>
   <v>       0.37931034       0.37931034       0.25000000 </v>
   <v>       0.41379310       0.37931034       0.25000000 </v>
   <v>       0.44827586       0.37931034       0.25000000 </v>
   <v>       0.48275862       0.37931034       0.25000000 </v>
   <v>      -0.48275862       0.37931034       0.25000000 </v>
   <v>      -0.44827586       0.37931034       0.25000000 </v>
   <v>      -0.41379310       0.37931034       0.25000000 </v>
   <v>       0.00000000       0.41379310       0.25000000 </v>
   <v>       0.03448276       0.41379310       0.25000000 </v>
   <v>       0.06896552       0.41379310       0.25000000 </v>
   <v>       0.10344828       0.41379310       0.25000000 </v>
   <v>       0.13793103       0.41379310       0.25000000 </v>
   <v>       0.17241379       0.41379310       0.25000000 </v>
   <v>       0.20689655       0.41379310       0.25000000 </v>
   <v>       0.24137931       0.41379310       0.25000000 </v>
   <v>       0.27586207       0.41379310       0.25000000 </v>
   <v>       0.31034483       0.41379310       0.25000000 </v>
   <v>       0.34482759       0.41379310       0.25000000 </v>
   <v>       0.37931034       0.41379310       0.25000000 </v>
   <v>       0.41379310       0.41379310       0.25000000 </v>
   <v>       0.44827586       0.41379310       0.25000000 </v>
   <v>       0.48275862       0.41379310       0.25000000 </v>
   <v>      -0.48275862       0.41379310       0.25000000 </v>
   <v>      -0.44827586       0.41379310       0.25000000 </v>
   <v>       0.00000000       0.44827586       0.25000000 </v>
   <v>       0.03448276       0.44827586       0.25000000 </v>
   <v>       0.06896552       0.44827586       0.25000000 </v>
   <v>       0.10344828       0.44827586       0.25000000 </v>
   <v>       0.13793103       0.44827586       0.25000000 </v>
   <v>       0.17241379       0.44827586       0.25000000 </v>
   <v>       0.20689655       0.44827586       0.25000000 </v>
   <v>       0.24137931       0.44827586       0.25000000 </v>
   <v>       0.27586207       0.44827586       0.25000000 </v>
   <v>       0.31034483       0.44827586       0.25000000 </v>
   <v>       0.34482759       0.44827586       0.25000000 </v>
   <v>       0.37931034       0.44827586       0.25000000 </v>
   <v>       0.41379310       0.44827586       0.25000000 </v>
   <v>       0.44827586       0.44827586       0.25000000 </v>
   <v>       0.48275862       0.44827586       0.25000000 </v>
   <v>      -0.48275862       0.44827586       0.25000000 </v>
   <v>       0.00000000       0.48275862       0.25000000 </v>
   <v>       0.03448276       0.48275862       0.25000000 </v>
   <v>       0.06896552       0.48275862       0.25000000 </v>
   <v>       0.10344828       0.48275862       0.25000000 </v>
   <v>       0.13793103       0.48275862       0.25000000 </v>
   <v>       0.17241379       0.48275862       0.25000000 </v>
   <v>       0.20689655       0.48275862       0.25000000 </v>
   <v>       0.24137931       0.48275862       0.25000000 </v>
   <v>       0.27586207       0.48275862       0.25000000 </v>
   <v>       0.31034483       0.48275862       0.25000000 </v>
   <v>       0.34482759       0.48275862       0.25000000 </v>
   <v>       0.37931034       0.48275862       0.25000000 </v>
   <v>       0.41379310       0.48275862       0.25000000 </v>
   <v>       0.44827586       0.48275862       0.25000000 </v>
   <v>       0.48275862       0.48275862       0.25000000 </v>
   <v>       0.00000000      -0.48275862       0.25000000 </v>
   <v>       0.03448276      -0.48275862       0.25000000 </v>
   <v>       0.06896552      -0.48275862       0.25000000 </v>
   <v>       0.10344828      -0.48275862       0.25000000 </v>
   <v>       0.13793103      -0.48275862       0.25000000 </v>
   <v>       0.17241379      -0.48275862       0.25000000 </v>
   <v>       0.20689655      -0.48275862       0.25000000 </v>
   <v>       0.24137931      -0.48275862       0.25000000 </v>
   <v>       0.27586207      -0.48275862       0.25000000 </v>
   <v>       0.31034483      -0.48275862       0.25000000 </v>
   <v>       0.34482759      -0.48275862       0.25000000 </v>
   <v>       0.37931034      -0.48275862       0.25000000 </v>
   <v>       0.41379310      -0.48275862       0.25000000 </v>
   <v>       0.44827586      -0.48275862       0.25000000 </v>
   <v>       0.00000000      -0.44827586       0.25000000 </v>
   <v>       0.03448276      -0.44827586       0.25000000 </v>
   <v>       0.06896552      -0.44827586       0.25000000 </v>
   <v>       0.10344828      -0.44827586       0.25000000 </v>
   <v>       0.13793103      -0.44827586       0.25000000 </v>
   <v>       0.17241379      -0.44827586       0.25000000 </v>
   <v>       0.20689655      -0.44827586       0.25000000 </v>
   <v>       0.24137931      -0.44827586       0.25000000 </v>
   <v>       0.27586207      -0.44827586       0.25000000 </v>
   <v>       0.31034483      -0.44827586       0.25000000 </v>
   <v>       0.34482759      -0.44827586       0.25000000 </v>
   <v>       0.37931034      -0.44827586       0.25000000 </v>
   <v>       0.41379310      -0.44827586       0.25000000 </v>
   <v>       0.00000000      -0.41379310       0.25000000 </v>
   <v>       0.03448276      -0.41379310       0.25000000 </v>
   <v>       0.06896552      -0.41379310       0.25000000 </v>
   <v>       0.10344828      -0.41379310       0.25000000 </v>
   <v>       0.13793103      -0.41379310       0.25000000 </v>
   <v>       0.17241379      -0.41379310       0.25000000 </v>
   <v>       0.20689655      -0.41379310       0.25000000 </v>
   <v>       0.24137931      -0.41379310       0.25000000 </v>
   <v>       0.27586207      -0.41379310       0.25000000 </v>
   <v>       0.31034483      -0.41379310       0.25000000 </v>
   <v>       0.34482759      -0.41379310       0.25000000 </v>
   <v>       0.37931034      -0.41379310       0.25000000 </v>
   <v>       0.00000000      -0.37931034       0.25000000 </v>
   <v>       0.03448276      -0.37931034       0.25000000 </v>
   <v>       0.06896552      -0.37931034       0.25000000 </v>
   <v>       0.10344828      -0.37931034       0.25000000 </v>
   <v>       0.13793103      -0.37931034       0.25000000 </v>
   <v>       0.17241379      -0.37931034       0.25000000 </v>
   <v>       0.20689655      -0.37931034       0.25000000 </v>
   <v>       0.24137931      -0.37931034       0.25000000 </v>
   <v>       0.27586207      -0.37931034       0.25000000 </v>
   <v>       0.31034483      -0.37931034       0.25000000 </v>
   <v>       0.34482759      -0.37931034       0.25000000 </v>
   <v>       0.00000000      -0.34482759       0.25000000 </v>
   <v>       0.03448276      -0.34482759       0.25000000 </v>
   <v>       0.06896552      -0.34482759       0.25000000 </v>
   <v>       0.10344828      -0.34482759       0.25000000 </v>
   <v>       0.13793103      -0.34482759       0.25000000 </v>
   <v>       0.17241379      -0.34482759       0.25000000 </v>
   <v>       0.20689655      -0.34482759       0.25000000 </v>
   <v>       0.24137931      -0.34482759       0.25000000 </v>
   <v>       0.27586207      -0.34482759       0.25000000 </v>
   <v>       0.31034483      -0.34482759       0.25000000 </v>
   <v>       0.00000000      -0.31034483       0.25000000 </v>
   <v>       0.03448276      -0.31034483       0.25000000 </v>
   <v>       0.06896552      -0.31034483       0.25000000 </v>
   <v>       0.10344828      -0.31034483       0.25000000 </v>
   <v>       0.13793103      -0.31034483       0.25000000 </v>
   <v>       0.17241379      -0.31034483       0.25000000 </v>
   <v>       0.20689655      -0.31034483       0.25000000 </v>
   <v>       0.24137931      -0.31034483       0.25000000 </v>
   <v>       0.27586207      -0.31034483       0.25000000 </v>
   <v>       0.00000000      -0.27586207       0.25000000 </v>
   <v>       0.03448276      -0.27586207       0.25000000 </v>
   <v>       0.06896552      -0.27586207       0.25000000 </v>
   <v>       0.10344828      -0.27586207       0.25000000 </v>
   <v>       0.13793103      -0.27586207       0.25000000 </v>
   <v>       0.17241379      -0.27586207       0.25000000 </v>
   <v>       0.20689655      -0.27586207       0.25000000 </v>
   <v>       0.24137931      -0.27586207       0.25000000 </v>
   <v>       0.00000000      -0.24137931       0.25000000 </v>
   <v>       0.03448276      -0.24137931       0.25000000 </v>
   <v>       0.06896552      -0.24137931       0.25000000 </v>
   <v>       0.10344828      -0.24137931       0.25000000 </v>
   <v>       0.13793103      -0.24137931       0.25000000 </v>
   <v>       0.17241379      -0.24137931       0.25000000 </v>
   <v>       0.20689655      -0.24137931       0.25000000 </v>
   <v>       0.00000000      -0.20689655       0.25000000 </v>
   <v>       0.03448276      -0.20689655       0.25000000 </v>
   <v>       0.06896552      -0.20689655       0.25000000 </v>
   <v>       0.10344828      -0.20689655       0.25000000 </v>
   <v>       0.13793103      -0.20689655       0.25000000 </v>
   <v>       0.17241379      -0.20689655       0.25000000 </v>
   <v>       0.00000000      -0.17241379       0.25000000 </v>
   <v>       0.03448276      -0.17241379       0.25000000 </v>
   <v>       0.06896552      -0.17241379       0.25000000 </v>
   <v>       0.10344828      -0.17241379       0.25000000 </v>
   <v>       0.13793103      -0.17241379       0.25000000 </v>
   <v>       0.00000000      -0.13793103       0.25000000 </v>
   <v>       0.03448276      -0.13793103       0.25000000 </v>
   <v>       0.06896552      -0.13793103       0.25000000 </v>
   <v>       0.10344828      -0.13793103       0.25000000 </v>
   <v>       0.00000000      -0.10344828       0.25000000 </v>
   <v>       0.03448276      -0.10344828       0.25000000 </v>
   <v>       0.06896552      -0.10344828       0.25000000 </v>
   <v>       0.00000000      -0.06896552       0.25000000 </v>
   <v>       0.03448276      -0.06896552       0.25000000 </v>
   <v>       0.00000000      -0.03448276       0.25000000 </v>
   <v>       0.00000000       0.00000000       0.37500000 </v>
   <v>       0.03448276       0.00000000       0.37500000 </v>
   <v>       0.06896552       0.00000000       0.37500000 </v>
   <v>       0.10344828       0.00000000       0.37500000 </v>
   <v>       0.13793103       0.00000000       0.37500000 </v>
   <v>       0.17241379       0.00000000       0.37500000 </v>
   <v>       0.20689655       0.00000000       0.37500000 </v>
   <v>       0.24137931       0.00000000       0.37500000 </v>
   <v>       0.27586207       0.00000000       0.37500000 </v>
   <v>       0.31034483       0.00000000       0.37500000 </v>
   <v>       0.34482759       0.00000000       0.37500000 </v>
   <v>       0.37931034       0.00000000       0.37500000 </v>
   <v>       0.41379310       0.00000000       0.37500000 </v>
   <v>       0.44827586       0.00000000       0.37500000 </v>
   <v>       0.48275862       0.00000000       0.37500000 </v>
   <v>      -0.48275862       0.00000000       0.37500000 </v>
   <v>      -0.44827586       0.00000000       0.37500000 </v>
   <v>      -0.41379310       0.00000000       0.37500000 </v>
   <v>      -0.37931034       0.00000000       0.37500000 </v>
   <v>      -0.34482759       0.00000000       0.37500000 </v>
   <v>      -0.31034483       0.00000000       0.37500000 </v>
   <v>      -0.27586207       0.00000000       0.37500000 </v>
   <v>      -0.24137931       0.00000000       0.37500000 </v>
   <v>      -0.20689655       0.00000000       0.37500000 </v>
   <v>      -0.17241379       0.00000000       0.37500000 </v>
   <v>      -0.13793103       0.00000000       0.37500000 </v>
   <v>      -0.10344828       0.00000000       0.37500000 </v>
   <v>      -0.06896552       0.00000000       0.37500000 </v>
   <v>      -0.03448276       0.00000000       0.37500000 </v>
   <v>       0.00000000       0.03448276       0.37500000 </v>
   <v>       0.03448276       0.03448276       0.37500000 </v>
   <v>       0.06896552       0.03448276       0.37500000 </v>
   <v>       0.10344828       0.03448276       0.37500000 </v>
   <v>       0.13793103       0.03448276       0.37500000 </v>
   <v>       0.17241379       0.03448276       0.37500000 </v>
   <v>       0.20689655       0.03448276       0.37500000 </v>
   <v>       0.24137931       0.03448276       0.37500000 </v>
   <v>       0.27586207       0.03448276       0.37500000 </v>
   <v>       0.31034483       0.03448276       0.37500000 </v>
   <v>       0.34482759       0.03448276       0.37500000 </v>
   <v>       0.37931034       0.03448276       0.37500000 </v>
   <v>       0.41379310       0.03448276       0.37500000 </v>
   <v>       0.44827586       0.03448276       0.37500000 </v>
   <v>       0.48275862       0.03448276       0.37500000 </v>
   <v>      -0.48275862       0.03448276       0.37500000 </v>
   <v>      -0.44827586       0.03448276       0.37500000 </v>
   <v>      -0.41379310       0.03448276       0.37500000 </v>
   <v>      -0.37931034       0.03448276       0.37500000 </v>
   <v>      -0.34482759       0.03448276       0.37500000 </v>
   <v>      -0.31034483       0.03448276       0.37500000 </v>
   <v>      -0.27586207       0.03448276       0.37500000 </v>
   <v>      -0.24137931       0.03448276       0.37500000 </v>
   <v>      -0.20689655       0.03448276       0.37500000 </v>
   <v>      -0.17241379       0.03448276       0.37500000 </v>
   <v>      -0.13793103       0.03448276       0.37500000 </v>
   <v>      -0.10344828       0.03448276       0.37500000 </v>
   <v>      -0.06896552       0.03448276       0.37500000 </v>
   <v>       0.00000000       0.06896552       0.37500000 </v>
   <v>       0.03448276       0.06896552       0.37500000 </v>
   <v>       0.06896552       0.06896552       0.37500000 </v>
   <v>       0.10344828       0.06896552       0.37500000 </v>
   <v>       0.13793103       0.06896552       0.37500000 </v>
   <v>       0.17241379       0.06896552       0.37500000 </v>
   <v>       0.20689655       0.06896552       0.37500000 </v>
   <v>       0.24137931       0.06896552       0.37500000 </v>
   <v>       0.27586207       0.06896552       0.37500000 </v>
   <v>       0.31034483       0.06896552       0.37500000 </v>
   <v>       0.34482759       0.06896552       0.37500000 </v>
   <v>       0.37931034       0.06896552       0.37500000 </v>
   <v>       0.41379310       0.06896552       0.37500000 </v>
   <v>       0.44827586       0.06896552       0.37500000 </v>
   <v>       0.48275862       0.06896552       0.37500000 </v>
   <v>      -0.48275862       0.06896552       0.37500000 </v>
   <v>      -0.44827586       0.06896552       0.37500000 </v>
   <v>      -0.41379310       0.06896552       0.37500000 </v>
   <v>      -0.37931034       0.06896552       0.37500000 </v>
   <v>      -0.34482759       0.06896552       0.37500000 </v>
   <v>      -0.31034483       0.06896552       0.37500000 </v>
   <v>      -0.27586207       0.06896552       0.37500000 </v>
   <v>      -0.24137931       0.06896552       0.37500000 </v>
   <v>      -0.20689655       0.06896552       0.37500000 </v>
   <v>      -0.17241379       0.06896552       0.37500000 </v>
   <v>      -0.13793103       0.06896552       0.37500000 </v>
   <v>      -0.10344828       0.06896552       0.37500000 </v>
   <v>       0.00000000       0.10344828       0.37500000 </v>
   <v>       0.03448276       0.10344828       0.37500000 </v>
   <v>       0.06896552       0.10344828       0.37500000 </v>
   <v>       0.10344828       0.10344828       0.37500000 </v>
   <v>       0.13793103       0.10344828       0.37500000 </v>
   <v>       0.17241379       0.10344828       0.37500000 </v>
   <v>       0.20689655       0.10344828       0.37500000 </v>
   <v>       0.24137931       0.10344828       0.37500000 </v>
   <v>       0.27586207       0.10344828       0.37500000 </v>
   <v>       0.31034483       0.10344828       0.37500000 </v>
   <v>       0.34482759       0.10344828       0.37500000 </v>
   <v>       0.37931034       0.10344828       0.37500000 </v>
   <v>       0.41379310       0.10344828       0.37500000 </v>
   <v>       0.44827586       0.10344828       0.37500000 </v>
   <v>       0.48275862       0.10344828       0.37500000 </v>
   <v>      -0.48275862       0.10344828       0.37500000 </v>
   <v>      -0.44827586       0.10344828       0.37500000 </v>
   <v>      -0.41379310       0.10344828       0.37500000 </v>
   <v>      -0.37931034       0.10344828       0.37500000 </v>
   <v>      -0.34482759       0.10344828       0.37500000 </v>
   <v>      -0.31034483       0.10344828       0.37500000 </v>
   <v>      -0.27586207       0.10344828       0.37500000 </v>
   <v>      -0.24137931       0.10344828       0.37500000 </v>
   <v>      -0.20689655       0.10344828       0.37500000 </v>
   <v>      -0.17241379       0.10344828       0.37500000 </v>
   <v>      -0.13793103       0.10344828       0.37500000 </v>
   <v>       0.00000000       0.13793103       0.37500000 </v>
   <v>       0.03448276       0.13793103       0.37500000 </v>
   <v>       0.06896552       0.13793103       0.37500000 </v>
   <v>       0.10344828       0.13793103       0.37500000 </v>
   <v>       0.13793103       0.13793103       0.37500000 </v>
   <v>       0.17241379       0.13793103       0.37500000 </v>
   <v>       0.20689655       0.13793103       0.37500000 </v>
   <v>       0.24137931       0.13793103       0.37500000 </v>
   <v>       0.27586207       0.13793103       0.37500000 </v>
   <v>       0.31034483       0.13793103       0.37500000 </v>
   <v>       0.34482759       0.13793103       0.37500000 </v>
   <v>       0.37931034       0.13793103       0.37500000 </v>
   <v>       0.41379310       0.13793103       0.37500000 </v>
   <v>       0.44827586       0.13793103       0.37500000 </v>
   <v>       0.48275862       0.13793103       0.37500000 </v>
   <v>      -0.48275862       0.13793103       0.37500000 </v>
   <v>      -0.44827586       0.13793103       0.37500000 </v>
   <v>      -0.41379310       0.13793103       0.37500000 </v>
   <v>      -0.37931034       0.13793103       0.37500000 </v>
   <v>      -0.34482759       0.13793103       0.37500000 </v>
   <v>      -0.31034483       0.13793103       0.37500000 </v>
   <v>      -0.27586207       0.13793103       0.37500000 </v>
   <v>      -0.24137931       0.13793103       0.37500000 </v>
   <v>      -0.20689655       0.13793103       0.37500000 </v>
   <v>      -0.17241379       0.13793103       0.37500000 </v>
   <v>       0.00000000       0.17241379       0.37500000 </v>
   <v>       0.03448276       0.17241379       0.37500000 </v>
   <v>       0.06896552       0.17241379       0.37500000 </v>
   <v>       0.10344828       0.17241379       0.37500000 </v>
   <v>       0.13793103       0.17241379       0.37500000 </v>
   <v>       0.17241379       0.17241379       0.37500000 </v>
   <v>       0.20689655       0.17241379       0.37500000 </v>
   <v>       0.24137931       0.17241379       0.37500000 </v>
   <v>       0.27586207       0.17241379       0.37500000 </v>
   <v>       0.31034483       0.17241379       0.37500000 </v>
   <v>       0.34482759       0.17241379       0.37500000 </v>
   <v>       0.37931034       0.17241379       0.37500000 </v>
[...]
       <r>    4.9477    1.0000 </r>
       <r>    5.3051    1.0000 </r>
       <r>    5.3464    1.0000 </r>
       <r>    5.6214    1.0000 </r>
       <r>    5.8183    1.0000 </r>
       <r>    5.9336    1.0000 </r>
       <r>    6.0425    1.0000 </r>
       <r>    6.1439    1.0000 </r>
       <r>    6.1717    1.0000 </r>
       <r>    7.6904    0.7742 </r>
       <r>    8.3720   -0.0101 </r>
       <r>    8.7324    0.0000 </r>
       <r>    9.5256    0.0000 </r>
       <r>   11.3008    0.0000 </r>
       <r>   11.9945    0.0000 </r>
       <r>   15.3594    0.0000 </r>
       <r>   16.0895    0.0000 </r>
      </set>
      <set comment="kpoint 1753">
       <r>    1.1191    1.0000 </r>
       <r>    1.6671    1.0000 </r>
       <r>    1.7469    1.0000 </r>
       <r>    2.0004    1.0000 </r>
       <r>    2.9184    1.0000 </r>
       <r>    3.0179    1.0000 </r>
       <r>    3.4274    1.0000 </r>
       <r>    3.6671    1.0000 </r>
       <r>    4.3597    1.0000 </r>
       <r>    4.5698    1.0000 </r>
       <r>    4.8997    1.0000 </r>
       <r>    4.9247    1.0000 </r>
       <r>    5.2838    1.0000 </r>
       <r>    5.3136    1.0000 </r>
       <r>    5.5996    1.0000 </r>
       <r>    5.7949    1.0000 </r>
       <r>    5.9800    1.0000 </r>
       <r>    6.0311    1.0000 </r>
       <r>    6.1239    1.0000 </r>
       <r>    6.1624    1.0000 </r>
       <r>    8.2012   -0.0332 </r>
       <r>    8.3439   -0.0132 </r>
       <r>    9.2442    0.0000 </r>
       <r>    9.3693    0.0000 </r>
       <r>   11.6081    0.0000 </r>
       <r>   11.7905    0.0000 </r>
       <r>   15.6375    0.0000 </r>
       <r>   15.9324    0.0000 </r>
      </set>
      <set comment="kpoint 1754">
       <r>    0.8621    1.0000 </r>
       <r>    1.4937    1.0000 </r>
       <r>    1.6541    1.0000 </r>
       <r>    1.9234    1.0000 </r>
       <r>    2.8721    1.0000 </r>
       <r>    3.0086    1.0000 </r>
       <r>    3.5810    1.0000 </r>
       <r>    3.9001    1.0000 </r>
       <r>    4.6748    1.0000 </r>
       <r>    4.7916    1.0000 </r>
       <r>    4.8701    1.0000 </r>
       <r>    5.0322    1.0000 </r>
       <r>    5.2377    1.0000 </r>
       <r>    5.5063    1.0000 </r>
       <r>    5.7116    1.0000 </r>
       <r>    5.8117    1.0000 </r>
       <r>    5.8417    1.0000 </r>
       <r>    6.0234    1.0000 </r>
       <r>    6.1719    1.0000 </r>
       <r>    6.1964    1.0000 </r>
       <r>    7.4630    1.0328 </r>
       <r>    8.1584   -0.0354 </r>
       <r>    8.5827   -0.0006 </r>
       <r>    9.3631    0.0000 </r>
       <r>   11.2529    0.0000 </r>
       <r>   11.9263    0.0000 </r>
       <r>   15.3311    0.0000 </r>
       <r>   16.0781    0.0000 </r>
      </set>
      <set comment="kpoint 1755">
       <r>    0.8896    1.0000 </r>
       <r>    1.5113    1.0000 </r>
       <r>    1.6623    1.0000 </r>
       <r>    1.9296    1.0000 </r>
       <r>    2.8916    1.0000 </r>
       <r>    2.9996    1.0000 </r>
       <r>    3.5621    1.0000 </r>
       <r>    3.8698    1.0000 </r>
       <r>    4.6844    1.0000 </r>
       <r>    4.7402    1.0000 </r>
       <r>    4.8588    1.0000 </r>
       <r>    5.0200    1.0000 </r>
       <r>    5.2691    1.0000 </r>
       <r>    5.4578    1.0000 </r>
       <r>    5.6747    1.0000 </r>
       <r>    5.8373    1.0000 </r>
       <r>    5.8710    1.0000 </r>
       <r>    6.0328    1.0000 </r>
       <r>    6.1717    1.0000 </r>
       <r>    6.1852    1.0000 </r>
       <r>    7.7468    0.6317 </r>
       <r>    8.0681   -0.0136 </r>
       <r>    8.8474    0.0000 </r>
       <r>    9.1079    0.0000 </r>
       <r>   11.5188    0.0000 </r>
       <r>   11.6380    0.0000 </r>
       <r>   15.6481    0.0000 </r>
       <r>   15.8435    0.0000 </r>
      </set>
     </set>
    </set>
   </array>
  </eigenvalues>
  <separator name="orbital magnetization" >
   <v name="MAGDIPOLOUT">      0.00000000      0.00000000      0.00000000</v>
  </separator>
  <dos>
   <i name="efermi">      7.79413258 </i>
   <total>
    <array>
     <dimension dim="1">gridpoints</dimension>
     <dimension dim="2">spin</dimension>
     <field>energy</field>
     <field>total</field>
     <field>integrated</field>
     <set>
      <set comment="spin 1">
       <r>    -4.3419     0.0000     0.0000 </r>
       <r>    -4.2382     0.0000     0.0000 </r>
       <r>    -4.1346     0.0000     0.0000 </r>
       <r>    -4.0310     0.0000     0.0000 </r>
       <r>    -3.9274     0.0000     0.0000 </r>
       <r>    -3.8237     0.0000     0.0000 </r>
       <r>    -3.7201     0.0000     0.0000 </r>
       <r>    -3.6165     0.0000     0.0000 </r>
       <r>    -3.5129     0.0000     0.0000 </r>
       <r>    -3.4093     0.0000     0.0000 </r>
       <r>    -3.3056     0.0000     0.0000 </r>
       <r>    -3.2020     0.0000     0.0000 </r>
       <r>    -3.0984     0.0000     0.0000 </r>
       <r>    -2.9948     0.0000     0.0000 </r>
       <r>    -2.8911     0.0000     0.0000 </r>
       <r>    -2.7875     0.0000     0.0000 </r>
       <r>    -2.6839     0.0000     0.0000 </r>
       <r>    -2.5803     0.0000     0.0000 </r>
       <r>    -2.4766     0.0000     0.0000 </r>
       <r>    -2.3730     0.0000     0.0000 </r>
       <r>    -2.2694     0.0000     0.0000 </r>
       <r>    -2.1658     0.0000     0.0000 </r>
       <r>    -2.0621    -0.0001     0.0000 </r>
       <r>    -1.9585    -0.0005    -0.0001 </r>
       <r>    -1.8549    -0.0016    -0.0002 </r>
       <r>    -1.7513    -0.0040    -0.0006 </r>
       <r>    -1.6476    -0.0069    -0.0014 </r>
       <r>    -1.5440    -0.0049    -0.0019 </r>
       <r>    -1.4404     0.0122    -0.0006 </r>
       <r>    -1.3368     0.0527     0.0049 </r>
       <r>    -1.2332     0.1126     0.0165 </r>
       <r>    -1.1295     0.1738     0.0345 </r>
       <r>    -1.0259     0.2177     0.0571 </r>
       <r>    -0.9223     0.2390     0.0819 </r>
       <r>    -0.8187     0.2452     0.1073 </r>
       <r>    -0.7150     0.2464     0.1328 </r>
       <r>    -0.6114     0.2481     0.1585 </r>
       <r>    -0.5078     0.2512     0.1846 </r>
       <r>    -0.4042     0.2554     0.2110 </r>
       <r>    -0.3005     0.2598     0.2379 </r>
       <r>    -0.1969     0.2634     0.2652 </r>
       <r>    -0.0933     0.2684     0.2931 </r>
       <r>     0.0103     0.2792     0.3220 </r>
       <r>     0.1140     0.3009     0.3532 </r>
       <r>     0.2176     0.3388     0.3883 </r>
       <r>     0.3212     0.3920     0.4289 </r>
       <r>     0.4248     0.4507     0.4756 </r>
       <r>     0.5285     0.5247     0.5300 </r>
       <r>     0.6321     0.6709     0.5995 </r>
       <r>     0.7357     0.9536     0.6983 </r>
       <r>     0.8393     1.3476     0.8380 </r>
       <r>     0.9429     1.6929     1.0134 </r>
       <r>     1.0466     1.8023     1.2001 </r>
       <r>     1.1502     1.6538     1.3715 </r>
       <r>     1.2538     1.4695     1.5238 </r>
       <r>     1.3574     1.5923     1.6888 </r>
       <r>     1.4611     2.2726     1.9243 </r>
       <r>     1.5647     3.5045     2.2874 </r>
       <r>     1.6683     4.9942     2.8050 </r>
       <r>     1.7719     6.3141     3.4592 </r>
       <r>     1.8756     7.1691     4.2021 </r>
       <r>     1.9792     7.5173     4.9811 </r>
       <r>     2.0828     7.4146     5.7494 </r>
       <r>     2.1864     6.8440     6.4586 </r>
       <r>     2.2901     5.8341     7.0632 </r>
       <r>     2.3937     4.7050     7.5507 </r>
       <r>     2.4973     4.0420     7.9696 </r>
       <r>     2.6009     4.3431     8.4196 </r>
       <r>     2.7046     5.6698     9.0072 </r>
       <r>     2.8082     7.5793     9.7925 </r>
       <r>     2.9118     9.3480    10.7612 </r>
       <r>     3.0154    10.3183    11.8304 </r>
       <r>     3.1190    10.2046    12.8879 </r>
       <r>     3.2227     9.2414    13.8455 </r>
       <r>     3.3263     8.0551    14.6802 </r>
       <r>     3.4299     7.2391    15.4303 </r>
       <r>     3.5335     6.9374    16.1492 </r>
       <r>     3.6372     6.8655    16.8607 </r>
       <r>     3.7408     6.7146    17.5564 </r>
       <r>     3.8444     6.3874    18.2183 </r>
       <r>     3.9480     5.8830    18.8280 </r>
       <r>     4.0517     5.2271    19.3696 </r>
       <r>     4.1553     4.5716    19.8433 </r>
       <r>     4.2589     4.1318    20.2715 </r>
       <r>     4.3625     3.9729    20.6832 </r>
       <r>     4.4662     4.0173    21.0995 </r>
       <r>     4.5698     4.2486    21.5397 </r>
       <r>     4.6734     4.7592    22.0329 </r>
       <r>     4.7770     5.6166    22.6149 </r>
       <r>     4.8807     6.8032    23.3199 </r>
       <r>     4.9843     8.2740    24.1772 </r>
       <r>     5.0879     9.9385    25.2071 </r>
       <r>     5.1915    11.5410    26.4030 </r>
       <r>     5.2951    12.7257    27.7217 </r>
       <r>     5.3988    13.4032    29.1106 </r>
       <r>     5.5024    13.9115    30.5522 </r>
       <r>     5.6060    14.5919    32.0643 </r>
       <r>     5.7096    15.3830    33.6583 </r>
       <r>     5.8133    16.0271    35.3191 </r>
       <r>     5.9169    16.3511    37.0134 </r>
       <r>     6.0205    16.0194    38.6734 </r>
       <r>     6.1241    14.3571    40.1612 </r>
       <r>     6.2278    11.0278    41.3039 </r>
       <r>     6.3314     6.8483    42.0136 </r>
       <r>     6.4350     3.3538    42.3611 </r>
       <r>     6.5386     1.4626    42.5127 </r>
       <r>     6.6423     0.9300    42.6090 </r>
       <r>     6.7459     1.0013    42.7128 </r>
       <r>     6.8495     1.1592    42.8329 </r>
       <r>     6.9531     1.2549    42.9629 </r>
       <r>     7.0568     1.2881    43.0964 </r>
       <r>     7.1604     1.2673    43.2277 </r>
       <r>     7.2640     1.2179    43.3539 </r>
       <r>     7.3676     1.1940    43.4777 </r>
       <r>     7.4713     1.2219    43.6043 </r>
       <r>     7.5749     1.2593    43.7348 </r>
       <r>     7.6785     1.2455    43.8638 </r>
       <r>     7.7821     1.1813    43.9863 </r>
       <r>     7.8857     1.1319    44.1035 </r>
       <r>     7.9894     1.1504    44.2227 </r>
       <r>     8.0930     1.2146    44.3486 </r>
       <r>     8.1966     1.2468    44.4778 </r>
       <r>     8.3002     1.1949    44.6016 </r>
       <r>     8.4039     1.0890    44.7145 </r>
       <r>     8.5075     1.0109    44.8192 </r>
       <r>     8.6111     1.0115    44.9240 </r>
       <r>     8.7147     1.0666    45.0346 </r>
       <r>     8.8184     1.1088    45.1494 </r>
       <r>     8.9220     1.0986    45.2633 </r>
       <r>     9.0256     1.0610    45.3732 </r>
       <r>     9.1292     1.0502    45.4821 </r>
       <r>     9.2329     1.0858    45.5946 </r>
       <r>     9.3365     1.1345    45.7121 </r>
       <r>     9.4401     1.1502    45.8313 </r>
       <r>     9.5437     1.1172    45.9471 </r>
       <r>     9.6474     1.0578    46.0567 </r>
       <r>     9.7510     1.0049    46.1608 </r>
       <r>     9.8546     0.9735    46.2617 </r>
       <r>     9.9582     0.9590    46.3611 </r>
       <r>    10.0618     0.9516    46.4597 </r>
       <r>    10.1655     0.9413    46.5572 </r>
       <r>    10.2691     0.9166    46.6522 </r>
       <r>    10.3727     0.8741    46.7428 </r>
       <r>    10.4763     0.8256    46.8284 </r>
       <r>    10.5800     0.7954    46.9108 </r>
       <r>    10.6836     0.8165    46.9954 </r>
       <r>    10.7872     0.9160    47.0903 </r>
       <r>    10.8908     1.0804    47.2023 </r>
       <r>    10.9945     1.2410    47.3309 </r>
       <r>    11.0981     1.3258    47.4683 </r>
       <r>    11.2017     1.3221    47.6053 </r>
       <r>    11.3053     1.2723    47.7371 </r>
       <r>    11.4090     1.2230    47.8638 </r>
       <r>    11.5126     1.1940    47.9875 </r>
       <r>    11.6162     1.1767    48.1095 </r>
       <r>    11.7198     1.1517    48.2288 </r>
       <r>    11.8235     1.1191    48.3448 </r>
       <r>    11.9271     1.1073    48.4595 </r>
       <r>    12.0307     1.1341    48.5770 </r>
       <r>    12.1343     1.1701    48.6983 </r>
       <r>    12.2379     1.1681    48.8193 </r>
       <r>    12.3416     1.1261    48.9360 </r>
       <r>    12.4452     1.0919    49.0492 </r>
       <r>    12.5488     1.1044    49.1636 </r>
       <r>    12.6524     1.1523    49.2830 </r>
       <r>    12.7561     1.1929    49.4066 </r>
       <r>    12.8597     1.1960    49.5306 </r>
       <r>    12.9633     1.1626    49.6510 </r>
       <r>    13.0669     1.1142    49.7665 </r>
       <r>    13.1706     1.0788    49.8783 </r>
       <r>    13.2742     1.0951    49.9918 </r>
       <r>    13.3778     1.2127    50.1174 </r>
       <r>    13.4814     1.4514    50.2678 </r>
       <r>    13.5851     1.7453    50.4487 </r>
       <r>    13.6887     1.9636    50.6522 </r>
       <r>    13.7923     2.0182    50.8613 </r>
       <r>    13.8959     1.9384    51.0621 </r>
       <r>    13.9996     1.8316    51.2519 </r>
       <r>    14.1032     1.7865    51.4371 </r>
       <r>    14.2068     1.8129    51.6249 </r>
       <r>    14.3104     1.8565    51.8173 </r>
       <r>    14.4140     1.8644    52.0105 </r>
       <r>    14.5177     1.8321    52.2004 </r>
       <r>    14.6213     1.7911    52.3860 </r>
       <r>    14.7249     1.7687    52.5692 </r>
       <r>    14.8285     1.7675    52.7524 </r>
       <r>    14.9322     1.7719    52.9360 </r>
       <r>    15.0358     1.7703    53.1194 </r>
       <r>    15.1394     1.7724    53.3031 </r>
       <r>    15.2430     1.7927    53.4889 </r>
       <r>    15.3467     1.8193    53.6774 </r>
       <r>    15.4503     1.8211    53.8661 </r>
       <r>    15.5539     1.7907    54.0517 </r>
       <r>    15.6575     1.7716    54.2352 </r>
       <r>    15.7612     1.8365    54.4255 </r>
       <r>    15.8648     2.0197    54.6348 </r>
       <r>    15.9684     2.2331    54.8662 </r>
       <r>    16.0720     2.2632    55.1007 </r>
       <r>    16.1757     1.9362    55.3014 </r>
       <r>    16.2793     1.3163    55.4378 </r>
       <r>    16.3829     0.6776    55.5080 </r>
       <r>    16.4865     0.2570    55.5346 </r>
       <r>    16.5901     0.0897    55.5439 </r>
       <r>    16.6938     0.0718    55.5514 </r>
       <r>    16.7974     0.0984    55.5616 </r>
       <r>    16.9010     0.1220    55.5742 </r>
       <r>    17.0046     0.1384    55.5885 </r>
       <r>    17.1083     0.1544    55.6045 </r>
       <r>    17.2119     0.1680    55.6219 </r>
       <r>    17.3155     0.1673    55.6393 </r>
       <r>    17.4191     0.1466    55.6545 </r>
       <r>    17.5228     0.1151    55.6664 </r>
       <r>    17.6264     0.0892    55.6757 </r>
       <r>    17.7300     0.0794    55.6839 </r>
       <r>    17.8336     0.0854    55.6927 </r>
       <r>    17.9373     0.0999    55.7031 </r>
       <r>    18.0409     0.1143    55.7149 </r>
       <r>    18.1445     0.1233    55.7277 </r>
       <r>    18.2481     0.1236    55.7405 </r>
       <r>    18.3518     0.1125    55.7522 </r>
       <r>    18.4554     0.0913    55.7616 </r>
       <r>    18.5590     0.0691    55.7688 </r>
       <r>    18.6626     0.0582    55.7748 </r>
       <r>    18.7662     0.0643    55.7815 </r>
       <r>    18.8699     0.0805    55.7898 </r>
       <r>    18.9735     0.0930    55.7995 </r>
       <r>    19.0771     0.0937    55.8092 </r>
       <r>    19.1807     0.0853    55.8180 </r>
       <r>    19.2844     0.0758    55.8259 </r>
       <r>    19.3880     0.0701    55.8331 </r>
       <r>    19.4916     0.0675    55.8401 </r>
       <r>    19.5952     0.0649    55.8469 </r>
       <r>    19.6989     0.0607    55.8532 </r>
       <r>    19.8025     0.0543    55.8588 </r>
       <r>    19.9061     0.0464    55.8636 </r>
       <r>    20.0097     0.0404    55.8678 </r>
       <r>    20.1134     0.0402    55.8719 </r>
       <r>    20.2170     0.0469    55.8768 </r>
       <r>    20.3206     0.0562    55.8826 </r>
       <r>    20.4242     0.0624    55.8891 </r>
       <r>    20.5279     0.0632    55.8956 </r>
       <r>    20.6315     0.0603    55.9019 </r>
       <r>    20.7351     0.0568    55.9078 </r>
       <r>    20.8387     0.0554    55.9135 </r>
       <r>    20.9423     0.0599    55.9197 </r>
       <r>    21.0460     0.0721    55.9272 </r>
       <r>    21.1496     0.0873    55.9362 </r>
       <r>    21.2532     0.0953    55.9461 </r>
       <r>    21.3568     0.0889    55.9553 </r>
       <r>    21.4605     0.0709    55.9627 </r>
       <r>    21.5641     0.0511    55.9680 </r>
       <r>    21.6677     0.0366    55.9718 </r>
       <r>    21.7713     0.0284    55.9747 </r>
       <r>    21.8750     0.0246    55.9773 </r>
       <r>    21.9786     0.0232    55.9797 </r>
       <r>    22.0822     0.0224    55.9820 </r>
       <r>    22.1858     0.0214    55.9842 </r>
       <r>    22.2895     0.0204    55.9863 </r>
       <r>    22.3931     0.0190    55.9883 </r>
       <r>    22.4967     0.0164    55.9900 </r>
       <r>    22.6003     0.0122    55.9913 </r>
       <r>    22.7040     0.0080    55.9921 </r>
       <r>    22.8076     0.0057    55.9927 </r>
       <r>    22.9112     0.0058    55.9933 </r>
       <r>    23.0148     0.0068    55.9940 </r>
       <r>    23.1184     0.0074    55.9948 </r>
       <r>    23.2221     0.0072    55.9955 </r>
       <r>    23.3257     0.0073    55.9963 </r>
       <r>    23.4293     0.0080    55.9971 </r>
       <r>    23.5329     0.0086    55.9980 </r>
       <r>    23.6366     0.0081    55.9988 </r>
       <r>    23.7402     0.0063    55.9995 </r>
       <r>    23.8438     0.0038    55.9999 </r>
       <r>    23.9474     0.0016    56.0000 </r>
       <r>    24.0511     0.0003    56.0001 </r>
       <r>    24.1547    -0.0002    56.0000 </r>
       <r>    24.2583    -0.0002    56.0000 </r>
       <r>    24.3619    -0.0001    56.0000 </r>
       <r>    24.4656     0.0000    56.0000 </r>
       <r>    24.5692     0.0000    56.0000 </r>
       <r>    24.6728     0.0000    56.0000 </r>
       <r>    24.7764     0.0000    56.0000 </r>
       <r>    24.8801     0.0000    56.0000 </r>
       <r>    24.9837     0.0000    56.0000 </r>
       <r>    25.0873     0.0000    56.0000 </r>
       <r>    25.1909     0.0000    56.0000 </r>
       <r>    25.2945     0.0000    56.0000 </r>
       <r>    25.3982     0.0000    56.0000 </r>
       <r>    25.5018     0.0000    56.0000 </r>
       <r>    25.6054     0.0000    56.0000 </r>
       <r>    25.7090     0.0000    56.0000 </r>
       <r>    25.8127     0.0000    56.0000 </r>
       <r>    25.9163     0.0000    56.0000 </r>
       <r>    26.0199     0.0000    56.0000 </r>
       <r>    26.1235     0.0000    56.0000 </r>
       <r>    26.2272     0.0000    56.0000 </r>
       <r>    26.3308     0.0000    56.0000 </r>
       <r>    26.4344     0.0000    56.0000 </r>
       <r>    26.5380     0.0000    56.0000 </r>
       <r>    26.6417     0.0000    56.0000 </r>
       <r>    26.7453     0.0000    56.0000 </r>
      </set>
     </set>
    </array>
   </total>
  </dos>
 </calculation>
 <structure name="finalpos" >
  <crystal>
   <varray name="basis" >
    <v>      -2.00514714       0.00000000      -2.00514714 </v>
    <v>       2.00514714      -2.00514714       0.00000000 </v>
    <v>      -5.71489686      -3.70974972       5.71489686 </v>
   </varray>
   <i name="volume">     60.87027639 </i>
   <varray name="rec_basis" >
    <v>      -0.18825624      -0.18825624      -0.31046028 </v>
    <v>       0.12220405      -0.37651247      -0.12220405 </v>
    <v>      -0.06605219      -0.06605219       0.06605219 </v>
   </varray>
  </crystal>
  <varray name="positions" >
   <v>       0.25003244       0.50006487       0.75009731 </v>
   <v>       0.74996756       0.49993513       0.24990269 </v>
   <v>       0.50000000       0.00000000       0.50000000 </v>
   <v>       0.00000000       0.00000000       0.00000000 </v>
  </varray>
 </structure>
</modeling>
