<?xml version="1.0" encoding="ISO-8859-1"?>
<modeling>
 <generator>
  <i name="program" type="string">vasp </i>
  <i name="version" type="string">5.3.5  </i>
  <i name="subversion" type="string">31Mar14 (build Jun 20 2014 13:15:13) complex                          parallel </i>
  <i name="platform" type="string">LinuxIFC </i>
  <i name="date" type="string">2025 12 12 </i>
  <i name="time" type="string">11:53:20 </i>
 </generator>
 <incar>
  <i type="string" name="PREC">accurate</i>
  <i type="int" name="IALGO">    38</i>
  <i type="logical" name="ADDGRID"> T  </i>
  <i type="int" name="ISPIN">     2</i>
  <i type="int" name="NELM">   100</i>
  <i type="int" name="NELMIN">     4</i>
  <i name="EDIFF">      0.00000100</i>
  <i name="ENCUT">    500.00000000</i>
  <i type="logical" name="LREAL"> F  </i>
  <i type="int" name="ISMEAR">     0</i>
  <i name="SIGMA">      0.05000000</i>
  <i type="logical" name="LWAVE"> F  </i>
  <i type="logical" name="LCHARG"> F  </i>
  <i type="int" name="NELM">   100</i>
  <i type="logical" name="LDAU"> T  </i>
  <v name="LDAUU">      0.00000000      4.00000000      0.00000000</v>
  <v name="LDAUJ">      0.00000000      0.00000000      0.00000000</v>
 </incar>
 <kpoints>
  <generation param="Auto">
   <i name="subdivisionlength">     20.00000000 </i>
   <v type="int" name="divisions">       5        3        1 </v>
   <v name="usershift">      0.00000000       0.00000000       0.00000000 </v>
   <v name="genvec1">      0.20000000       0.00000000       0.00000000 </v>
   <v name="genvec2">      0.00000000       0.33333333       0.00000000 </v>
   <v name="genvec3">      0.00000000       0.00000000       1.00000000 </v>
   <v name="shift">      0.00000000       0.00000000       0.00000000 </v>
  </generation>
  <varray name="kpointlist" >
   <v>       0.00000000       0.00000000       0.00000000 </v>
   <v>       0.20000000       0.00000000       0.00000000 </v>
   <v>       0.40000000       0.00000000       0.00000000 </v>
   <v>       0.00000000       0.33333333       0.00000000 </v>
   <v>       0.20000000       0.33333333       0.00000000 </v>
   <v>       0.40000000       0.33333333       0.00000000 </v>
  </varray>
  <varray name="weights" >
   <v>       0.06666667 </v>
   <v>       0.13333333 </v>
   <v>       0.13333333 </v>
   <v>       0.13333333 </v>
   <v>       0.26666667 </v>
   <v>       0.26666667 </v>
  </varray>
 </kpoints>
 <parameters>
  <separator name="general" >
   <i type="string" name="SYSTEM">unknown system</i>
   <i type="logical" name="LCOMPAT"> F  </i>
  </separator>
  <separator name="electronic" >
   <i type="string" name="PREC">accura</i>
   <i name="ENMAX">    500.00000000</i>
   <i name="ENAUG">    586.98000000</i>
   <i name="EDIFF">      0.00000100</i>
   <i type="int" name="IALGO">    38</i>
   <i type="int" name="IWAVPR">    10</i>
   <i type="int" name="NBANDS">   184</i>
   <i name="NELECT">    276.00000000</i>
   <i type="int" name="TURBO">     0</i>
   <i type="int" name="IRESTART">     0</i>
   <i type="int" name="NREBOOT">     0</i>
   <i type="int" name="NMIN">     0</i>
   <i name="EREF">      0.00000000</i>
   <separator name="electronic smearing" >
    <i type="int" name="ISMEAR">     0</i>
    <i name="SIGMA">      0.05000000</i>
    <i name="KSPACING">      0.50000000</i>
    <i type="logical" name="KGAMMA"> T  </i>
   </separator>
   <separator name="electronic projectors" >
    <i type="logical" name="LREAL"> F  </i>
    <v name="ROPT">      0.00000000      0.00000000      0.00000000</v>
    <i type="int" name="LMAXPAW">  -100</i>
    <i type="int" name="LMAXMIX">     2</i>
    <i type="logical" name="NLSPLINE"> F  </i>
   </separator>
   <separator name="electronic startup" >
    <i type="int" name="ISTART">     0</i>
    <i type="int" name="ICHARG">     2</i>
    <i type="int" name="INIWAV">     1</i>
   </separator>
   <separator name="electronic spin" >
    <i type="int" name="ISPIN">     2</i>
    <i type="logical" name="LNONCOLLINEAR"> F  </i>
    <v name="MAGMOM">      1.00000000      1.00000000      1.00000000      1.00000000      1.00000000      1.00000000      1.00000000      1.00000000      1.00000000      1.00000000      1.00000000      1.00000000      1.00000000      1.00000000      1.00000000      1.00000000      1.00000000      1.00000000      1.00000000      1.00000000
      1.00000000      1.00000000      1.00000000      1.00000000      1.00000000      1.00000000      1.00000000      1.00000000      1.00000000      1.00000000      1.00000000      1.00000000      1.00000000      1.00000000</v>
    <i name="NUPDOWN">     -1.00000000</i>
    <i type="logical" name="LSORBIT"> F  </i>
    <v name="SAXIS">      0.00000000      0.00000000      1.00000000</v>
    <i type="logical" name="LSPIRAL"> F  </i>
    <v name="QSPIRAL">      0.00000000      0.00000000      0.00000000</v>
    <i type="logical" name="LZEROZ"> F  </i>
   </separator>
   <separator name="electronic exchange-correlation" >
    <i type="logical" name="LASPH"> F  </i>
    <i type="logical" name="LMETAGGA"> F  </i>
   </separator>
   <separator name="electronic convergence" >
    <i type="int" name="NELM">   100</i>
    <i type="int" name="NELMDL">    -5</i>
    <i type="int" name="NELMIN">     4</i>
    <i name="ENINI">    500.00000000</i>
    <separator name="electronic convergence detail" >
     <i type="logical" name="LDIAG"> T  </i>
     <i type="logical" name="LSUBROT"> F  </i>
     <i name="WEIMIN">      0.00000000</i>
     <i name="EBREAK">      0.00000000</i>
     <i name="DEPER">      0.30000000</i>
     <i type="int" name="NRMM">     4</i>
     <i name="TIME">      0.40000000</i>
    </separator>
   </separator>
   <separator name="electronic mixer" >
    <i name="AMIX">      0.40000000</i>
    <i name="BMIX">      1.00000000</i>
    <i name="AMIN">      0.10000000</i>
    <i name="AMIX_MAG">      1.60000000</i>
    <i name="BMIX_MAG">      1.00000000</i>
    <separator name="electronic mixer details" >
     <i type="int" name="IMIX">     4</i>
     <i type="int" name="MAXMIX">   -45</i>
     <i name="WC">    100.00000000</i>
     <i type="int" name="INIMIX">     1</i>
     <i type="int" name="MIXPRE">     1</i>
     <i type="int" name="MREMOVE">     5</i>
    </separator>
   </separator>
   <separator name="electronic dipolcorrection" >
    <i type="logical" name="LDIPOL"> F  </i>
    <i type="logical" name="LMONO"> F  </i>
    <i type="int" name="IDIPOL">     0</i>
    <i name="EPSILON">      1.00000000</i>
    <v name="DIPOL">   -100.00000000   -100.00000000   -100.00000000</v>
    <i name="EFIELD">      0.00000000</i>
   </separator>
  </separator>
  <separator name="grids" >
   <i type="int" name="NGX">    30</i>
   <i type="int" name="NGY">    60</i>
   <i type="int" name="NGZ">   120</i>
   <i type="int" name="NGXF">    60</i>
   <i type="int" name="NGYF">   120</i>
   <i type="int" name="NGZF">   240</i>
   <i type="logical" name="ADDGRID"> T  </i>
  </separator>
  <separator name="ionic" >
   <i type="int" name="NSW">     0</i>
   <i type="int" name="IBRION">    -1</i>
   <i type="int" name="ISIF">     2</i>
   <i name="PSTRESS">      0.00000000</i>
   <i name="EDIFFG">      0.00001000</i>
   <i type="int" name="NFREE">     0</i>
   <i name="POTIM">      0.50000000</i>
   <i name="SMASS">     -3.00000000</i>
   <i name="SCALEE">      1.00000000</i>
  </separator>
  <separator name="ionic md" >
   <i name="TEBEG">      0.00010000</i>
   <i name="TEEND">      0.00010000</i>
   <i type="int" name="NBLOCK">     1</i>
   <i type="int" name="KBLOCK">     1</i>
   <i type="int" name="NPACO">   256</i>
   <i name="APACO">     16.00000000</i>
  </separator>
  <separator name="symmetry" >
   <i type="int" name="ISYM">     2</i>
   <i name="SYMPREC">      0.00001000</i>
  </separator>
  <separator name="dos" >
   <i type="logical" name="LORBIT"> F  </i>
   <v name="RWIGS">     -1.00000000     -1.00000000     -1.00000000</v>
   <i type="int" name="NEDOS">   301</i>
   <i name="EMIN">     10.00000000</i>
   <i name="EMAX">    -10.00000000</i>
   <i name="EFERMI">      0.00000000</i>
  </separator>
  <separator name="writing" >
   <i type="int" name="NWRITE">     2</i>
   <i type="logical" name="LWAVE"> F  </i>
   <i type="logical" name="LCHARG"> F  </i>
   <i type="logical" name="LPARD"> F  </i>
   <i type="logical" name="LVTOT"> F  </i>
   <i type="logical" name="LVHAR"> F  </i>
   <i type="logical" name="LELF"> F  </i>
   <i type="logical" name="LOPTICS"> F  </i>
   <v name="STM">      0.00000000      0.00000000      0.00000000      0.00000000      0.00000000      0.00000000      0.00000000</v>
  </separator>
  <separator name="performance" >
   <i type="int" name="NPAR">     4</i>
   <i type="int" name="NSIM">     4</i>
   <i type="int" name="NBLK">    -1</i>
   <i type="logical" name="LPLANE"> T  </i>
   <i type="logical" name="LSCALAPACK"> T  </i>
   <i type="logical" name="LSCAAWARE"> F  </i>
   <i type="logical" name="LSCALU"> F  </i>
   <i type="logical" name="LASYNC"> F  </i>
   <i type="logical" name="LORBITALREAL"> F  </i>
  </separator>
  <separator name="miscellaneous" >
   <i type="int" name="IDIOT">     3</i>
   <i type="logical" name="LMUSIC"> F  </i>
   <v name="POMASS">     87.62000000     63.54600000     16.00000000</v>
   <v name="DARWINR">      0.00000000      0.00000000      0.00000000</v>
   <v name="DARWINV">      1.00000000      1.00000000      1.00000000</v>
   <i type="logical" name="LCORR"> T  </i>
  </separator>
  <i type="logical" name="GGA_COMPAT"> T  </i>
  <i type="logical" name="LBERRY"> F  </i>
  <i type="int" name="ICORELEVEL">     0</i>
  <i type="logical" name="LDAU"> T  </i>
  <v type="int" name="LDAUTYPE">     2</v>
  <v type="int" name="LDAUL">     2</v>
  <v name="LDAUU">      0.00000000</v>
  <v name="LDAUJ">      0.00000000</v>
  <i type="int" name="LDAUPRINT">     0</i>
  <i type="int" name="I_CONSTRAINED_M">     0</i>
  <separator name="electronic exchange-correlation" >
   <i type="string" name="GGA">--</i>
   <i type="int" name="VOSKOWN">     0</i>
   <i type="logical" name="LHFCALC"> F  </i>
   <i type="string" name="PRECFOCK"></i>
   <i type="logical" name="LSYMGRAD"> F  </i>
   <i type="logical" name="LHFONE"> F  </i>
   <i type="logical" name="LRHFCALC"> F  </i>
   <i type="logical" name="LTHOMAS"> F  </i>
   <i type="logical" name="LMODELHF"> F  </i>
   <i name="ENCUT4O">     -1.00000000</i>
   <i type="int" name="EXXOEP">     0</i>
   <i type="int" name="FOURORBIT">     0</i>
   <i name="AEXX">      0.00000000</i>
   <i name="HFALPHA">      0.00000000</i>
   <i name="MCALPHA">      0.00000000</i>
   <i name="ALDAX">      1.00000000</i>
   <i name="AGGAX">      1.00000000</i>
   <i name="ALDAC">      1.00000000</i>
   <i name="AGGAC">      1.00000000</i>
   <i type="int" name="NKREDX">     1</i>
   <i type="int" name="NKREDY">     1</i>
   <i type="int" name="NKREDZ">     1</i>
   <i type="logical" name="SHIFTRED"> F  </i>
   <i type="logical" name="ODDONLY"> F  </i>
   <i type="logical" name="EVENONLY"> F  </i>
   <i type="int" name="LMAXFOCK">     0</i>
   <i type="int" name="NMAXFOCKAE">     0</i>
   <i type="logical" name="LFOCKAEDFT"> F  </i>
   <i name="HFSCREEN">      0.00000000</i>
   <i name="HFSCREENC">      0.00000000</i>
   <i type="int" name="NBANDSGWLOW">     0</i>
  </separator>
  <separator name="vdW DFT" >
   <i type="logical" name="LUSE_VDW"> F  </i>
   <i name="Zab_VDW">     -0.84910000</i>
   <i name="PARAM1">      0.12340000</i>
   <i name="PARAM2">      1.00000000</i>
   <i name="PARAM3">      0.00000000</i>
  </separator>
  <separator name="model GW" >
   <i type="int" name="MODEL_GW">     0</i>
   <i name="MODEL_EPS0">      9.03529412</i>
   <i name="MODEL_ALPHA">      1.00000000</i>
  </separator>
  <separator name="linear response parameters" >
   <i type="logical" name="LEPSILON"> F  </i>
   <i type="logical" name="LRPA"> F  </i>
   <i type="logical" name="LNABLA"> F  </i>
   <i type="logical" name="LVEL"> F  </i>
   <i type="int" name="KINTER">     0</i>
   <i name="CSHIFT">      0.10000000</i>
   <i name="OMEGAMAX">     -1.00000000</i>
   <i name="DEG_THRESHOLD">      0.00200000</i>
  </separator>
  <separator name="orbital magnetization" >
   <i type="logical" name="NUCIND"> F  </i>
   <v name="MAGPOS">      0.00000000      0.00000000      0.00000000</v>
   <i type="logical" name="LNICSALL"> T  </i>
   <i type="logical" name="ORBITALMAG"> F  </i>
   <i type="logical" name="LMAGBLOCH"> F  </i>
   <i type="logical" name="LCHIMAG"> F  </i>
   <i type="logical" name="LGAUGE"> T  </i>
   <i type="int" name="MAGATOM">     0</i>
   <v name="MAGDIPOL">      0.00000000      0.00000000      0.00000000</v>
   <v name="AVECCONST">      0.00000000      0.00000000      0.00000000</v>
  </separator>
  <separator name="response functions" >
   <i type="logical" name="LADDER"> F  </i>
   <i type="logical" name="LFXC"> F  </i>
   <i type="logical" name="LHARTREE"> T  </i>
   <i type="int" name="IBSE">     0</i>
   <i type="logical" name="LTCTE"> F  </i>
   <i type="logical" name="LTETE"> F  </i>
   <i type="logical" name="LTRIPLET"> F  </i>
   <i type="logical" name="LFXCEPS"> F  </i>
   <i type="logical" name="LFXHEG"> F  </i>
   <i type="logical" name="L2ORDER"> F  </i>
   <i type="logical" name="LUSEW"> F  </i>
   <i name="ENCUTGW">     -2.00000000</i>
   <i name="ENCUTGWSOFT">     -2.00000000</i>
   <i name="ENCUTLF">     -1.00000000</i>
   <i type="int" name="LMAXMP2">    -1</i>
   <i name="SCISSOR">      0.00000000</i>
   <i type="int" name="NOMEGA">     0</i>
   <i type="int" name="NOMEGAR">     0</i>
   <i type="int" name="NBANDSGW">    -1</i>
   <i type="int" name="NBANDSO">    -1</i>
   <i type="int" name="NBANDSV">    -1</i>
   <i type="int" name="NELM">   100</i>
   <i type="int" name="DIM">     3</i>
   <i type="int" name="ANTIRES">     0</i>
   <i name="OMEGAMAX">    -30.00000000</i>
   <i name="OMEGAMIN">    -30.00000000</i>
   <i name="OMEGATL">   -200.00000000</i>
   <i type="int" name="OMEGAGRID">     0</i>
   <i name="CSHIFT">     -0.10000000</i>
   <i type="logical" name="SELFENERGY"> F  </i>
   <i type="logical" name="LSPECTRAL"> F  </i>
   <i type="logical" name="ODDONLYGW"> F  </i>
   <i type="logical" name="EVENONLYGW"> F  </i>
   <i type="int" name="NKREDLFX">     1</i>
   <i type="int" name="NKREDLFY">     1</i>
   <i type="int" name="NKREDLFZ">     1</i>
   <i type="int" name="MAXMEM">  1800</i>
   <i type="int" name="TELESCOPE">     0</i>
   <i type="int" name="TAUPAR">     1</i>
  </separator>
  <separator name="External order field" >
   <i name="OFIELD_KAPPA">      0.00000000</i>
   <v name="OFIELD_K">      0.00000000      0.00000000      0.00000000</v>
   <i name="OFIELD_Q6_NEAR">      0.00000000</i>
   <i name="OFIELD_Q6_FAR">      0.00000000</i>
   <i name="OFIELD_A">      0.00000000</i>
  </separator>
 </parameters>
 <atominfo>
  <atoms>      34 </atoms>
  <types>       3 </types>
  <array name="atoms" >
   <dimension dim="1">ion</dimension>
   <field type="string">element</field>
   <field type="int">atomtype</field>
   <set>
    <rc><c>Sr</c><c>   1</c></rc>
    <rc><c>Sr</c><c>   1</c></rc>
    <rc><c>Sr</c><c>   1</c></rc>
    <rc><c>Sr</c><c>   1</c></rc>
    <rc><c>Sr</c><c>   1</c></rc>
    <rc><c>Sr</c><c>   1</c></rc>
    <rc><c>Sr</c><c>   1</c></rc>
    <rc><c>Sr</c><c>   1</c></rc>
    <rc><c>Cu</c><c>   2</c></rc>
    <rc><c>Cu</c><c>   2</c></rc>
    <rc><c>Cu</c><c>   2</c></rc>
    <rc><c>Cu</c><c>   2</c></rc>
    <rc><c>Cu</c><c>   2</c></rc>
    <rc><c>Cu</c><c>   2</c></rc>
    <rc><c>Cu</c><c>   2</c></rc>
    <rc><c>Cu</c><c>   2</c></rc>
    <rc><c>O </c><c>   3</c></rc>
    <rc><c>O </c><c>   3</c></rc>
    <rc><c>O </c><c>   3</c></rc>
    <rc><c>O </c><c>   3</c></rc>
    <rc><c>O </c><c>   3</c></rc>
    <rc><c>O </c><c>   3</c></rc>
    <rc><c>O </c><c>   3</c></rc>
    <rc><c>O </c><c>   3</c></rc>
    <rc><c>O </c><c>   3</c></rc>
    <rc><c>O </c><c>   3</c></rc>
    <rc><c>O </c><c>   3</c></rc>
    <rc><c>O </c><c>   3</c></rc>
    <rc><c>O </c><c>   3</c></rc>
    <rc><c>O </c><c>   3</c></rc>
    <rc><c>O </c><c>   3</c></rc>
    <rc><c>O </c><c>   3</c></rc>
    <rc><c>O </c><c>   3</c></rc>
    <rc><c>O </c><c>   3</c></rc>
   </set>
  </array>
  <array name="atomtypes" >
   <dimension dim="1">type</dimension>
   <field type="int">atomspertype</field>
   <field type="string">element</field>
   <field>mass</field>
   <field>valence</field>
   <field type="string">pseudopotential</field>
   <set>
    <rc><c>   8</c><c>Sr</c><c>     87.62000000</c><c>     10.00000000</c><c>  PAW_PBE Sr_sv 07Sep2000               </c></rc>
    <rc><c>   8</c><c>Cu</c><c>     63.54600000</c><c>     11.00000000</c><c>  PAW_PBE Cu 22Jun2005                  </c></rc>
    <rc><c>  18</c><c>O </c><c>     16.00000000</c><c>      6.00000000</c><c>  PAW_PBE O_s 07Sep2000                 </c></rc>
   </set>
  </array>
 </atominfo>
 <structure name="initialpos" >
  <crystal>
   <varray name="basis" >
    <v>       4.00000000       0.00000000       0.00000000 </v>
    <v>       0.00000000       8.00000000       0.00000000 </v>
    <v>       0.00000000       0.00000000      16.00000000 </v>
   </varray>
   <i name="volume">    512.00000000 </i>
   <varray name="rec_basis" >
    <v>       0.25000000       0.00000000       0.00000000 </v>
    <v>       0.00000000       0.12500000       0.00000000 </v>
    <v>       0.00000000       0.00000000       0.06250000 </v>
   </varray>
  </crystal>
  <varray name="positions" >
   <v>       0.00000000       0.25000000       0.25000000 </v>
   <v>       0.00000000       0.75000000       0.50000000 </v>
   <v>       0.00000000       0.75000000       0.25000000 </v>
   <v>       0.00000000       0.25000000       0.50000000 </v>
   <v>       0.00000000       0.75000000       0.75000000 </v>
   <v>       0.00000000       0.25000000       0.00000000 </v>
   <v>       0.00000000       0.25000000       0.75000000 </v>
   <v>       0.00000000       0.75000000       0.00000000 </v>
   <v>       0.50000000       0.00000000       0.62500000 </v>
   <v>       0.50000000       0.00000000       0.37500000 </v>
   <v>       0.50000000       0.50000000       0.62500000 </v>
   <v>       0.50000000       0.50000000       0.37500000 </v>
   <v>       0.50000000       0.50000000       0.12500000 </v>
   <v>       0.50000000       0.50000000       0.87500000 </v>
   <v>       0.50000000       0.00000000       0.12500000 </v>
   <v>       0.50000000       0.00000000       0.87500000 </v>
   <v>       0.50000000       0.00000000       0.50000000 </v>
   <v>       0.50000000       0.00000000       0.25000000 </v>
   <v>       0.50000000       0.50000000       0.50000000 </v>
   <v>       0.00000000       0.00000000       0.62500000 </v>
   <v>       0.00000000       0.00000000       0.37500000 </v>
   <v>       0.00000000       0.50000000       0.62500000 </v>
   <v>       0.00000000       0.50000000       0.37500000 </v>
   <v>       0.50000000       0.75000000       0.37500000 </v>
   <v>       0.50000000       0.25000000       0.37500000 </v>
   <v>       0.50000000       0.50000000       0.00000000 </v>
   <v>       0.50000000       0.50000000       0.75000000 </v>
   <v>       0.50000000       0.00000000       0.00000000 </v>
   <v>       0.00000000       0.50000000       0.12500000 </v>
   <v>       0.00000000       0.50000000       0.87500000 </v>
   <v>       0.00000000       0.00000000       0.12500000 </v>
   <v>       0.00000000       0.00000000       0.87500000 </v>
   <v>       0.50000000       0.25000000       0.87500000 </v>
   <v>       0.50000000       0.75000000       0.87500000 </v>
  </varray>
 </structure>
 <calculation>
  <scstep>
   <time name="dav">    6.13    6.14</time>
   <time name="total">    6.44    6.45</time>
   <energy>
    <i name="alphaZ">   1271.29833366 </i>
    <i name="ewald"> -18092.60969240 </i>
    <i name="hartreedc">  -7779.78412531 </i>
    <i name="XCdc">   1142.43211860 </i>
    <i name="pawpsdc">  21065.97634094 </i>
    <i name="pawaedc"> -21731.86537179 </i>
    <i name="eentropy">     -0.01593326 </i>
    <i name="bandstr">   2127.70913450 </i>
    <i name="atom">  25654.75912617 </i>
    <i name="e_fr_energy">   3657.89993112 </i>
    <i name="e_wo_entrp">   3657.91586437 </i>
    <i name="e_0_energy">   3657.90789775 </i>
   </energy>
  </scstep>
  <scstep>
   <time name="dav">    6.24    6.24</time>
   <time name="total">    6.24    6.26</time>
   <energy>
    <i name="e_fr_energy">    416.83949268 </i>
    <i name="e_wo_entrp">    416.85589425 </i>
    <i name="e_0_energy">    416.84769346 </i>
   </energy>
  </scstep>
  <scstep>
   <time name="dav">    6.16    6.16</time>
   <time name="total">    6.16    6.18</time>
   <energy>
    <i name="e_fr_energy">   -157.65853980 </i>
    <i name="e_wo_entrp">   -157.63746726 </i>
    <i name="e_0_energy">   -157.64800353 </i>
   </energy>
  </scstep>
  <scstep>
   <time name="dav">    8.04    8.04</time>
   <time name="total">    8.04    8.06</time>
   <energy>
    <i name="e_fr_energy">   -210.68082654 </i>
    <i name="e_wo_entrp">   -210.64615459 </i>
    <i name="e_0_energy">   -210.66349056 </i>
   </energy>
  </scstep>
  <scstep>
   <time name="dav">    9.75    9.75</time>
   <time name="total">   10.25   10.27</time>
   <energy>
    <i name="e_fr_energy">   -213.90514080 </i>
    <i name="e_wo_entrp">   -213.86914891 </i>
    <i name="e_0_energy">   -213.88714485 </i>
   </energy>
  </scstep>
  <scstep>
   <time name="dav">    8.66    8.67</time>
   <time name="total">    9.46    9.48</time>
   <energy>
    <i name="e_fr_energy">   -193.34420370 </i>
    <i name="e_wo_entrp">   -193.31167341 </i>
    <i name="e_0_energy">   -193.32793855 </i>
   </energy>
  </scstep>
  <scstep>
   <time name="dav">    8.24    8.25</time>
   <time name="total">    9.04    9.05</time>
   <energy>
    <i name="e_fr_energy">   -171.73366994 </i>
    <i name="e_wo_entrp">   -171.70343824 </i>
    <i name="e_0_energy">   -171.71855409 </i>
   </energy>
  </scstep>
  <scstep>
   <time name="dav">    8.73    8.74</time>
   <time name="total">    9.53    9.55</time>
   <energy>
    <i name="e_fr_energy">   -174.10586432 </i>
    <i name="e_wo_entrp">   -174.08621989 </i>
    <i name="e_0_energy">   -174.09604211 </i>
   </energy>
  </scstep>
  <scstep>
   <time name="dav">    9.22    9.22</time>
   <time name="total">   10.01   10.03</time>
   <energy>
    <i name="e_fr_energy">   -181.67301925 </i>
    <i name="e_wo_entrp">   -181.65868788 </i>
    <i name="e_0_energy">   -181.66585357 </i>
   </energy>
  </scstep>
  <scstep>
   <time name="dav">    8.19    8.20</time>
   <time name="total">    8.99    9.00</time>
   <energy>
    <i name="e_fr_energy">   -173.39458097 </i>
    <i name="e_wo_entrp">   -173.37528861 </i>
    <i name="e_0_energy">   -173.38493479 </i>
   </energy>
  </scstep>
  <scstep>
   <time name="dav">    8.62    8.62</time>
   <time name="total">    9.41    9.43</time>
   <energy>
    <i name="e_fr_energy">   -167.90620643 </i>
    <i name="e_wo_entrp">   -167.88191050 </i>
    <i name="e_0_energy">   -167.89405846 </i>
   </energy>
  </scstep>
  <scstep>
   <time name="dav">    8.84    8.84</time>
   <time name="total">    9.63    9.64</time>
   <energy>
    <i name="e_fr_energy">   -168.53602559 </i>
    <i name="e_wo_entrp">   -168.52280902 </i>
    <i name="e_0_energy">   -168.52941730 </i>
   </energy>
  </scstep>
  <scstep>
   <time name="dav">    8.59    8.59</time>
   <time name="total">    9.38    9.40</time>
   <energy>
    <i name="e_fr_energy">   -168.47433132 </i>
    <i name="e_wo_entrp">   -168.46702098 </i>
    <i name="e_0_energy">   -168.47067615 </i>
   </energy>
  </scstep>
  <scstep>
   <time name="dav">    8.61    8.61</time>
   <time name="total">    9.40    9.42</time>
   <energy>
    <i name="e_fr_energy">   -168.61934369 </i>
    <i name="e_wo_entrp">   -168.61074932 </i>
    <i name="e_0_energy">   -168.61504650 </i>
   </energy>
  </scstep>
  <scstep>
   <time name="dav">    8.35    8.35</time>
   <time name="total">    9.15    9.16</time>
   <energy>
    <i name="e_fr_energy">   -169.16170817 </i>
    <i name="e_wo_entrp">   -169.15127208 </i>
    <i name="e_0_energy">   -169.15649013 </i>
   </energy>
  </scstep>
  <scstep>
   <time name="dav">    8.41    8.41</time>
   <time name="total">    9.20    9.22</time>
   <energy>
    <i name="e_fr_energy">   -169.44046793 </i>
    <i name="e_wo_entrp">   -169.42804906 </i>
    <i name="e_0_energy">   -169.43425849 </i>
   </energy>
  </scstep>
  <scstep>
   <time name="dav">    8.18    8.19</time>
   <time name="total">    8.98    9.00</time>
   <energy>
    <i name="e_fr_energy">   -169.54910853 </i>
    <i name="e_wo_entrp">   -169.53684647 </i>
    <i name="e_0_energy">   -169.54297750 </i>
   </energy>
  </scstep>
  <scstep>
   <time name="dav">    8.43    8.43</time>
   <time name="total">    9.22    9.24</time>
   <energy>
    <i name="e_fr_energy">   -169.60814221 </i>
    <i name="e_wo_entrp">   -169.59474783 </i>
    <i name="e_0_energy">   -169.60144502 </i>
   </energy>
  </scstep>
  <scstep>
   <time name="dav">    8.18    8.18</time>
   <time name="total">    8.97    8.99</time>
   <energy>
    <i name="e_fr_energy">   -169.63388012 </i>
    <i name="e_wo_entrp">   -169.62045304 </i>
    <i name="e_0_energy">   -169.62716658 </i>
   </energy>
  </scstep>
  <scstep>
   <time name="dav">    8.08    8.08</time>
   <time name="total">    8.87    8.89</time>
   <energy>
    <i name="e_fr_energy">   -169.64435615 </i>
    <i name="e_wo_entrp">   -169.63112793 </i>
    <i name="e_0_energy">   -169.63774204 </i>
   </energy>
  </scstep>
  <scstep>
   <time name="dav">    8.81    8.81</time>
   <time name="total">    9.60    9.62</time>
   <energy>
    <i name="e_fr_energy">   -169.64315566 </i>
    <i name="e_wo_entrp">   -169.63039504 </i>
    <i name="e_0_energy">   -169.63677535 </i>
   </energy>
  </scstep>
  <scstep>
   <time name="dav">    8.63    8.63</time>
   <time name="total">    9.43    9.44</time>
   <energy>
    <i name="e_fr_energy">   -169.64348060 </i>
    <i name="e_wo_entrp">   -169.63084150 </i>
    <i name="e_0_energy">   -169.63716105 </i>
   </energy>
  </scstep>
  <scstep>
   <time name="dav">    8.28    8.28</time>
   <time name="total">    9.07    9.09</time>
   <energy>
    <i name="e_fr_energy">   -169.64370110 </i>
    <i name="e_wo_entrp">   -169.63110165 </i>
    <i name="e_0_energy">   -169.63740137 </i>
   </energy>
  </scstep>
  <scstep>
   <time name="dav">    8.30    8.30</time>
   <time name="total">    9.09    9.11</time>
   <energy>
    <i name="e_fr_energy">   -169.64377176 </i>
    <i name="e_wo_entrp">   -169.63126339 </i>
    <i name="e_0_energy">   -169.63751757 </i>
   </energy>
  </scstep>
  <scstep>
   <time name="dav">    8.56    8.56</time>
   <time name="total">    9.35    9.37</time>
   <energy>
    <i name="e_fr_energy">   -169.64376009 </i>
    <i name="e_wo_entrp">   -169.63123841 </i>
    <i name="e_0_energy">   -169.63749925 </i>
   </energy>
  </scstep>
  <scstep>
   <time name="dav">    8.44    8.44</time>
   <time name="total">    9.24    9.25</time>
   <energy>
    <i name="e_fr_energy">   -169.64377033 </i>
    <i name="e_wo_entrp">   -169.63130039 </i>
    <i name="e_0_energy">   -169.63753536 </i>
   </energy>
  </scstep>
  <scstep>
   <time name="dav">    7.96    7.96</time>
   <time name="total">    8.75    8.77</time>
   <energy>
    <i name="e_fr_energy">   -169.64377176 </i>
    <i name="e_wo_entrp">   -169.63131004 </i>
    <i name="e_0_energy">   -169.63754090 </i>
   </energy>
  </scstep>
  <scstep>
   <time name="dav">    6.23    6.23</time>
   <time name="total">    6.52    6.54</time>
   <energy>
    <i name="alphaZ">   1271.29833366 </i>
    <i name="ewald"> -18092.60969240 </i>
    <i name="hartreedc">  -7759.03325088 </i>
    <i name="XCdc">   1142.57197852 </i>
    <i name="pawpsdc">  32624.59106852 </i>
    <i name="pawaedc"> -33366.37979376 </i>
    <i name="eentropy">     -0.01246053 </i>
    <i name="bandstr">  -1644.82908197 </i>
    <i name="atom">  25654.75912617 </i>
    <i name="e_fr_energy">   -169.64377266 </i>
    <i name="e_wo_entrp">   -169.63131213 </i>
    <i name="e_0_energy">   -169.63754239 </i>
   </energy>
  </scstep>
  <structure>
   <crystal>
    <varray name="basis" >
     <v>       4.00000000       0.00000000       0.00000000 </v>
     <v>       0.00000000       8.00000000       0.00000000 </v>
     <v>       0.00000000       0.00000000      16.00000000 </v>
    </varray>
    <i name="volume">    512.00000000 </i>
    <varray name="rec_basis" >
     <v>       0.25000000       0.00000000       0.00000000 </v>
     <v>       0.00000000       0.12500000       0.00000000 </v>
     <v>       0.00000000       0.00000000       0.06250000 </v>
    </varray>
   </crystal>
   <varray name="positions" >
    <v>       0.00000000       0.25000000       0.25000000 </v>
    <v>       0.00000000       0.75000000       0.50000000 </v>
    <v>       0.00000000       0.75000000       0.25000000 </v>
    <v>       0.00000000       0.25000000       0.50000000 </v>
    <v>       0.00000000       0.75000000       0.75000000 </v>
    <v>       0.00000000       0.25000000       0.00000000 </v>
    <v>       0.00000000       0.25000000       0.75000000 </v>
    <v>       0.00000000       0.75000000       0.00000000 </v>
    <v>       0.50000000       0.00000000       0.62500000 </v>
    <v>       0.50000000       0.00000000       0.37500000 </v>
    <v>       0.50000000       0.50000000       0.62500000 </v>
    <v>       0.50000000       0.50000000       0.37500000 </v>
    <v>       0.50000000       0.50000000       0.12500000 </v>
    <v>       0.50000000       0.50000000       0.87500000 </v>
    <v>       0.50000000       0.00000000       0.12500000 </v>
    <v>       0.50000000       0.00000000       0.87500000 </v>
    <v>       0.50000000       0.00000000       0.50000000 </v>
    <v>       0.50000000       0.00000000       0.25000000 </v>
    <v>       0.50000000       0.50000000       0.50000000 </v>
    <v>       0.00000000       0.00000000       0.62500000 </v>
    <v>       0.00000000       0.00000000       0.37500000 </v>
    <v>       0.00000000       0.50000000       0.62500000 </v>
    <v>       0.00000000       0.50000000       0.37500000 </v>
    <v>       0.50000000       0.75000000       0.37500000 </v>
    <v>       0.50000000       0.25000000       0.37500000 </v>
    <v>       0.50000000       0.50000000       0.00000000 </v>
    <v>       0.50000000       0.50000000       0.75000000 </v>
    <v>       0.50000000       0.00000000       0.00000000 </v>
    <v>       0.00000000       0.50000000       0.12500000 </v>
    <v>       0.00000000       0.50000000       0.87500000 </v>
    <v>       0.00000000       0.00000000       0.12500000 </v>
    <v>       0.00000000       0.00000000       0.87500000 </v>
    <v>       0.50000000       0.25000000       0.87500000 </v>
    <v>       0.50000000       0.75000000       0.87500000 </v>
   </varray>
  </structure>
  <varray name="forces" >
   <v>       0.00000000      -1.32353458       1.46707217 </v>
   <v>       0.00000000      -0.05934839      -1.35231443 </v>
   <v>       0.00000000       1.32353458       1.46707217 </v>
   <v>       0.00000000       0.05934839      -1.35231443 </v>
   <v>       0.00000000      -1.32353458       1.46707217 </v>
   <v>       0.00000000      -0.05934839      -1.35231443 </v>
   <v>       0.00000000       1.32353458       1.46707217 </v>
   <v>       0.00000000       0.05934839      -1.35231443 </v>
   <v>       0.00000000       0.00000000      -0.81503485 </v>
   <v>       0.00000000       0.00000000       0.39400324 </v>
   <v>       0.00000000       0.00000000      -0.46150666 </v>
   <v>       0.00000000       0.00000000       0.67708774 </v>
   <v>       0.00000000       0.00000000      -0.81503485 </v>
   <v>       0.00000000       0.00000000       0.39400324 </v>
   <v>       0.00000000       0.00000000      -0.46150666 </v>
   <v>       0.00000000       0.00000000       0.67708774 </v>
   <v>       0.00000000       0.00000000      -0.01924284 </v>
   <v>       0.00000000       0.00000000      -1.10962625 </v>
   <v>       0.00000000       0.00000000       2.23398223 </v>
   <v>       0.00000000       0.00000000       1.33114399 </v>
   <v>       0.00000000       0.00000000      -0.17672585 </v>
   <v>       0.00000000       0.00000000       0.18502517 </v>
   <v>       0.00000000       0.00000000      -1.13788414 </v>
   <v>       0.00000000      -0.79098794      -0.66536863 </v>
   <v>       0.00000000       0.79098794      -0.66536863 </v>
   <v>       0.00000000       0.00000000      -0.01924284 </v>
   <v>       0.00000000       0.00000000      -1.10962625 </v>
   <v>       0.00000000       0.00000000       2.23398223 </v>
   <v>       0.00000000       0.00000000       1.33114399 </v>
   <v>       0.00000000       0.00000000      -0.17672585 </v>
   <v>       0.00000000       0.00000000       0.18502517 </v>
   <v>       0.00000000       0.00000000      -1.13788414 </v>
   <v>       0.00000000      -0.79098794      -0.66536863 </v>
   <v>       0.00000000       0.79098794      -0.66536863 </v>
  </varray>
  <varray name="stress" >
   <v>     -97.72039995       0.00000000       0.00000000 </v>
   <v>       0.00000000    -114.27144899       0.00000000 </v>
   <v>       0.00000000       0.00000000     -83.68022177 </v>
  </varray>
  <energy>
   <i name="e_fr_energy">   -169.64377266 </i>
   <i name="e_wo_entrp">   -169.63754239 </i>
   <i name="e_0_energy">     -0.01246053 </i>
  </energy>
  <time name="totalsc">  258.45  258.98</time>
  <eigenvalues>
   <array>
    <dimension dim="1">band</dimension>
    <dimension dim="2">kpoint</dimension>
    <dimension dim="3">spin</dimension>
    <field>eigene</field>
    <field>occ</field>
    <set>
     <set comment="spin 1">
      <set comment="kpoint 1">
       <r>  -31.4297    1.0000 </r>
       <r>  -31.4297    1.0000 </r>
       <r>  -31.4166    1.0000 </r>
       <r>  -31.4166    1.0000 </r>
       <r>  -30.6637    1.0000 </r>
       <r>  -30.6636    1.0000 </r>
       <r>  -30.6497    1.0000 </r>
       <r>  -30.6497    1.0000 </r>
       <r>  -15.0344    1.0000 </r>
       <r>  -15.0027    1.0000 </r>
       <r>  -14.8679    1.0000 </r>
       <r>  -14.8231    1.0000 </r>
       <r>  -14.7446    1.0000 </r>
       <r>  -14.7431    1.0000 </r>
       <r>  -14.5650    1.0000 </r>
       <r>  -14.1921    1.0000 </r>
       <r>  -14.1597    1.0000 </r>
       <r>  -14.1363    1.0000 </r>
       <r>  -14.1251    1.0000 </r>
       <r>  -13.7776    1.0000 </r>
       <r>  -13.6811    1.0000 </r>
       <r>  -13.6079    1.0000 </r>
       <r>  -13.5766    1.0000 </r>
       <r>  -13.5452    1.0000 </r>
       <r>  -13.5251    1.0000 </r>
       <r>  -13.5234    1.0000 </r>
       <r>  -13.4359    1.0000 </r>
       <r>  -13.4357    1.0000 </r>
       <r>  -13.4089    1.0000 </r>
       <r>  -13.4087    1.0000 </r>
       <r>  -13.3032    1.0000 </r>
       <r>  -13.3026    1.0000 </r>
       <r>  -13.2262    1.0000 </r>
       <r>  -13.1666    1.0000 </r>
       <r>  -13.1287    1.0000 </r>
       <r>  -12.9906    1.0000 </r>
       <r>  -12.9350    1.0000 </r>
       <r>  -12.9065    1.0000 </r>
       <r>  -12.6203    1.0000 </r>
       <r>  -12.6200    1.0000 </r>
       <r>  -12.5984    1.0000 </r>
       <r>  -12.5841    1.0000 </r>
       <r>  -12.5838    1.0000 </r>
       <r>  -12.5635    1.0000 </r>
       <r>  -12.5100    1.0000 </r>
       <r>  -12.5092    1.0000 </r>
       <r>  -12.4483    1.0000 </r>
       <r>  -12.4205    1.0000 </r>
       <r>  -12.1129    1.0000 </r>
       <r>  -12.0967    1.0000 </r>
       <r>   -2.8630    1.0000 </r>
       <r>   -2.8527    1.0000 </r>
       <r>   -2.5471    1.0000 </r>
       <r>   -2.5453    1.0000 </r>
       <r>   -2.0321    1.0000 </r>
       <r>   -2.0096    1.0000 </r>
       <r>   -1.9797    1.0000 </r>
       <r>   -1.9656    1.0000 </r>
       <r>   -1.6088    1.0000 </r>
       <r>   -1.5989    1.0000 </r>
       <r>   -1.5919    1.0000 </r>
       <r>   -1.5907    1.0000 </r>
       <r>   -1.3144    1.0000 </r>
       <r>   -1.3054    1.0000 </r>
       <r>   -1.3025    1.0000 </r>
       <r>   -1.2920    1.0000 </r>
       <r>   -1.2655    1.0000 </r>
       <r>   -1.1955    1.0000 </r>
       <r>   -1.0426    1.0000 </r>
       <r>   -1.0423    1.0000 </r>
       <r>   -1.0248    1.0000 </r>
       <r>   -1.0194    1.0000 </r>
       <r>   -1.0173    1.0000 </r>
       <r>   -0.9880    1.0000 </r>
       <r>   -0.8962    1.0000 </r>
       <r>   -0.8732    1.0000 </r>
       <r>   -0.8707    1.0000 </r>
       <r>   -0.8607    1.0000 </r>
       <r>   -0.8395    1.0000 </r>
       <r>   -0.8392    1.0000 </r>
       <r>   -0.8121    1.0000 </r>
       <r>   -0.8053    1.0000 </r>
       <r>   -0.6884    1.0000 </r>
       <r>   -0.6714    1.0000 </r>
       <r>   -0.6528    1.0000 </r>
       <r>   -0.6239    1.0000 </r>
       <r>   -0.6226    1.0000 </r>
       <r>   -0.5764    1.0000 </r>
       <r>   -0.5712    1.0000 </r>
       <r>   -0.5290    1.0000 </r>
       <r>   -0.4913    1.0000 </r>
       <r>   -0.4437    1.0000 </r>
       <r>   -0.4199    1.0000 </r>
       <r>   -0.4199    1.0000 </r>
       <r>   -0.3873    1.0000 </r>
       <r>   -0.3400    1.0000 </r>
       <r>   -0.3269    1.0000 </r>
       <r>   -0.3007    1.0000 </r>
       <r>   -0.1512    1.0000 </r>
       <r>   -0.1388    1.0000 </r>
       <r>   -0.0761    1.0000 </r>
       <r>   -0.0667    1.0000 </r>
       <r>    0.1033    1.0000 </r>
       <r>    0.1575    1.0000 </r>
       <r>    0.2007    1.0000 </r>
       <r>    0.2078    1.0000 </r>
       <r>    0.3306    1.0000 </r>
       <r>    0.3379    1.0000 </r>
       <r>    0.5459    1.0000 </r>
       <r>    0.5480    1.0000 </r>
       <r>    0.7702    1.0000 </r>
       <r>    0.8340    1.0000 </r>
       <r>    0.8805    1.0000 </r>
       <r>    0.9371    1.0000 </r>
       <r>    0.9766    1.0000 </r>
       <r>    0.9887    1.0000 </r>
       <r>    1.0502    1.0000 </r>
       <r>    1.1532    1.0000 </r>
       <r>    1.1926    1.0000 </r>
       <r>    1.2612    1.0000 </r>
       <r>    1.3288    1.0000 </r>
       <r>    1.3672    1.0000 </r>
       <r>    1.6233    1.0000 </r>
       <r>    1.6369    1.0000 </r>
       <r>    1.6764    1.0000 </r>
       <r>    1.6862    1.0000 </r>
       <r>    1.6884    1.0000 </r>
       <r>    1.6981    1.0000 </r>
       <r>    1.7140    1.0000 </r>
       <r>    1.7782    1.0000 </r>
       <r>    1.7867    1.0000 </r>
       <r>    1.8265    1.0000 </r>
       <r>    1.8389    1.0000 </r>
       <r>    1.8443    1.0000 </r>
       <r>    1.8447    1.0000 </r>
       <r>    1.9511    1.0000 </r>
       <r>    1.9514    1.0000 </r>
       <r>    1.9601    1.0000 </r>
       <r>    2.0926    1.0000 </r>
       <r>    2.1328    1.0000 </r>
       <r>    2.1384    1.0000 </r>
       <r>    2.2067    1.0000 </r>
       <r>    2.8886    0.0000 </r>
       <r>    3.0026    0.0000 </r>
       <r>    3.4390    0.0000 </r>
       <r>    3.8272    0.0000 </r>
       <r>    5.6397    0.0000 </r>
       <r>    5.6659    0.0000 </r>
       <r>    5.7208    0.0000 </r>
       <r>    5.8278    0.0000 </r>
       <r>    7.1513    0.0000 </r>
       <r>    7.3161    0.0000 </r>
       <r>    7.3684    0.0000 </r>
       <r>    7.5701    0.0000 </r>
       <r>    7.7773    0.0000 </r>
       <r>    7.8825    0.0000 </r>
       <r>    7.8970    0.0000 </r>
       <r>    8.2748    0.0000 </r>
       <r>    8.5964    0.0000 </r>
       <r>    8.7045    0.0000 </r>
       <r>    8.7776    0.0000 </r>
       <r>    8.9506    0.0000 </r>
       <r>    8.9841    0.0000 </r>
       <r>    9.1196    0.0000 </r>
       <r>    9.2073    0.0000 </r>
       <r>    9.2675    0.0000 </r>
       <r>    9.3493    0.0000 </r>
       <r>    9.4081    0.0000 </r>
       <r>    9.4238    0.0000 </r>
       <r>    9.4698    0.0000 </r>
       <r>    9.6168    0.0000 </r>
       <r>    9.6279    0.0000 </r>
       <r>    9.7474    0.0000 </r>
       <r>    9.7747    0.0000 </r>
       <r>    9.8607    0.0000 </r>
       <r>   10.0299    0.0000 </r>
       <r>   10.1004    0.0000 </r>
       <r>   10.1731    0.0000 </r>
       <r>   10.1734    0.0000 </r>
       <r>   10.3398    0.0000 </r>
       <r>   10.3578    0.0000 </r>
       <r>   10.4639    0.0000 </r>
       <r>   10.5353    0.0000 </r>
       <r>   10.5531    0.0000 </r>
      </set>
      <set comment="kpoint 2">
       <r>  -31.4252    1.0000 </r>
       <r>  -31.4252    1.0000 </r>
       <r>  -31.4124    1.0000 </r>
       <r>  -31.4123    1.0000 </r>
       <r>  -30.6589    1.0000 </r>
       <r>  -30.6588    1.0000 </r>
       <r>  -30.6454    1.0000 </r>
       <r>  -30.6453    1.0000 </r>
       <r>  -14.9312    1.0000 </r>
       <r>  -14.9140    1.0000 </r>
       <r>  -14.7696    1.0000 </r>
       <r>  -14.7218    1.0000 </r>
       <r>  -14.6739    1.0000 </r>
       <r>  -14.6706    1.0000 </r>
       <r>  -14.4558    1.0000 </r>
       <r>  -14.1526    1.0000 </r>
       <r>  -14.1374    1.0000 </r>
       <r>  -14.1223    1.0000 </r>
       <r>  -14.0739    1.0000 </r>
       <r>  -13.9090    1.0000 </r>
       <r>  -13.8544    1.0000 </r>
       <r>  -13.7614    1.0000 </r>
       <r>  -13.7548    1.0000 </r>
       <r>  -13.6198    1.0000 </r>
       <r>  -13.5955    1.0000 </r>
       <r>  -13.5850    1.0000 </r>
       <r>  -13.4686    1.0000 </r>
       <r>  -13.4606    1.0000 </r>
       <r>  -13.2940    1.0000 </r>
       <r>  -13.2933    1.0000 </r>
       <r>  -13.2787    1.0000 </r>
       <r>  -13.2753    1.0000 </r>
       <r>  -13.2297    1.0000 </r>
       <r>  -13.1900    1.0000 </r>
       <r>  -13.1179    1.0000 </r>
       <r>  -12.9953    1.0000 </r>
       <r>  -12.9504    1.0000 </r>
       <r>  -12.9372    1.0000 </r>
       <r>  -12.6995    1.0000 </r>
       <r>  -12.6943    1.0000 </r>
       <r>  -12.5494    1.0000 </r>
       <r>  -12.5299    1.0000 </r>
       <r>  -12.4973    1.0000 </r>
       <r>  -12.4966    1.0000 </r>
       <r>  -12.4804    1.0000 </r>
       <r>  -12.4694    1.0000 </r>
       <r>  -12.4351    1.0000 </r>
       <r>  -12.4139    1.0000 </r>
       <r>  -12.2306    1.0000 </r>
       <r>  -12.2045    1.0000 </r>
       <r>   -2.8935    1.0000 </r>
       <r>   -2.8811    1.0000 </r>
       <r>   -2.5936    1.0000 </r>
       <r>   -2.5759    1.0000 </r>
       <r>   -2.0594    1.0000 </r>
       <r>   -2.0588    1.0000 </r>
       <r>   -1.9603    1.0000 </r>
       <r>   -1.9426    1.0000 </r>
       <r>   -1.9043    1.0000 </r>
       <r>   -1.8707    1.0000 </r>
       <r>   -1.8632    1.0000 </r>
       <r>   -1.8398    1.0000 </r>
       <r>   -1.8336    1.0000 </r>
       <r>   -1.8100    1.0000 </r>
       <r>   -1.7805    1.0000 </r>
       <r>   -1.7718    1.0000 </r>
       <r>   -1.7415    1.0000 </r>
       <r>   -1.7182    1.0000 </r>
       <r>   -1.6235    1.0000 </r>
       <r>   -1.6029    1.0000 </r>
       <r>   -1.5123    1.0000 </r>
       <r>   -1.4785    1.0000 </r>
       <r>   -1.3186    1.0000 </r>
       <r>   -1.3172    1.0000 </r>
       <r>   -1.2893    1.0000 </r>
       <r>   -1.2197    1.0000 </r>
       <r>   -1.2147    1.0000 </r>
       <r>   -1.1944    1.0000 </r>
       <r>   -1.1895    1.0000 </r>
       <r>   -1.1861    1.0000 </r>
       <r>   -1.1022    1.0000 </r>
       <r>   -1.0971    1.0000 </r>
       <r>   -1.0096    1.0000 </r>
       <r>   -0.9764    1.0000 </r>
       <r>   -0.9569    1.0000 </r>
       <r>   -0.9518    1.0000 </r>
       <r>   -0.9458    1.0000 </r>
       <r>   -0.9387    1.0000 </r>
       <r>   -0.7154    1.0000 </r>
       <r>   -0.7005    1.0000 </r>
       <r>   -0.5838    1.0000 </r>
       <r>   -0.5531    1.0000 </r>
       <r>   -0.5153    1.0000 </r>
       <r>   -0.4905    1.0000 </r>
       <r>   -0.1271    1.0000 </r>
       <r>   -0.0699    1.0000 </r>
       <r>    0.0219    1.0000 </r>
       <r>    0.1172    1.0000 </r>
       <r>    0.1422    1.0000 </r>
       <r>    0.2605    1.0000 </r>
       <r>    0.3795    1.0000 </r>
       <r>    0.4171    1.0000 </r>
       <r>    0.6056    1.0000 </r>
       <r>    0.6073    1.0000 </r>
       <r>    0.6585    1.0000 </r>
       <r>    0.6867    1.0000 </r>
       <r>    0.7180    1.0000 </r>
       <r>    0.8017    1.0000 </r>
       <r>    0.9010    1.0000 </r>
       <r>    0.9231    1.0000 </r>
       <r>    0.9281    1.0000 </r>
       <r>    1.0605    1.0000 </r>
       <r>    1.0833    1.0000 </r>
       <r>    1.0833    1.0000 </r>
       <r>    1.1497    1.0000 </r>
       <r>    1.1572    1.0000 </r>
       <r>    1.2234    1.0000 </r>
       <r>    1.2247    1.0000 </r>
       <r>    1.3114    1.0000 </r>
       <r>    1.3311    1.0000 </r>
       <r>    1.3694    1.0000 </r>
       <r>    1.4120    1.0000 </r>
       <r>    1.5562    1.0000 </r>
       <r>    1.5992    1.0000 </r>
       <r>    1.6284    1.0000 </r>
       <r>    1.6509    1.0000 </r>
       <r>    1.6863    1.0000 </r>
       <r>    1.7179    1.0000 </r>
       <r>    1.8545    1.0000 </r>
       <r>    1.8585    1.0000 </r>
       <r>    1.8902    1.0000 </r>
       <r>    1.9406    1.0000 </r>
       <r>    1.9498    1.0000 </r>
       <r>    1.9938    1.0000 </r>
       <r>    2.0090    1.0000 </r>
       <r>    2.1547    1.0000 </r>
       <r>    2.2568    1.0000 </r>
       <r>    2.2583    1.0000 </r>
       <r>    2.5930    0.0118 </r>
       <r>    2.6319    0.0004 </r>
       <r>    2.7256    0.0000 </r>
       <r>    2.9123    0.0000 </r>
       <r>    3.2695    0.0000 </r>
       <r>    3.4673    0.0000 </r>
       <r>    4.2231    0.0000 </r>
       <r>    4.2706    0.0000 </r>
       <r>    5.3304    0.0000 </r>
       <r>    5.4043    0.0000 </r>
       <r>    6.0179    0.0000 </r>
       <r>    6.0608    0.0000 </r>
       <r>    7.6099    0.0000 </r>
       <r>    7.7155    0.0000 </r>
       <r>    7.7780    0.0000 </r>
       <r>    7.8810    0.0000 </r>
       <r>    7.9078    0.0000 </r>
       <r>    7.9768    0.0000 </r>
       <r>    8.0246    0.0000 </r>
       <r>    8.2204    0.0000 </r>
       <r>    8.2412    0.0000 </r>
       <r>    8.3501    0.0000 </r>
       <r>    8.6998    0.0000 </r>
       <r>    8.8954    0.0000 </r>
       <r>    9.1385    0.0000 </r>
       <r>    9.1541    0.0000 </r>
       <r>    9.2159    0.0000 </r>
       <r>    9.3768    0.0000 </r>
       <r>    9.4858    0.0000 </r>
       <r>    9.5420    0.0000 </r>
       <r>    9.5960    0.0000 </r>
       <r>    9.6304    0.0000 </r>
       <r>    9.7357    0.0000 </r>
       <r>    9.8704    0.0000 </r>
       <r>    9.9539    0.0000 </r>
       <r>    9.9915    0.0000 </r>
       <r>   10.0702    0.0000 </r>
       <r>   10.0702    0.0000 </r>
       <r>   10.1090    0.0000 </r>
       <r>   10.2071    0.0000 </r>
       <r>   10.3749    0.0000 </r>
       <r>   10.4192    0.0000 </r>
       <r>   10.4433    0.0000 </r>
       <r>   10.5284    0.0000 </r>
       <r>   10.5690    0.0000 </r>
       <r>   10.5887    0.0000 </r>
      </set>
      <set comment="kpoint 3">
       <r>  -31.4179    1.0000 </r>
       <r>  -31.4179    1.0000 </r>
       <r>  -31.4055    1.0000 </r>
       <r>  -31.4054    1.0000 </r>
       <r>  -30.6512    1.0000 </r>
       <r>  -30.6511    1.0000 </r>
       <r>  -30.6384    1.0000 </r>
       <r>  -30.6383    1.0000 </r>
       <r>  -14.7483    1.0000 </r>
       <r>  -14.7353    1.0000 </r>
       <r>  -14.6487    1.0000 </r>
       <r>  -14.6386    1.0000 </r>
       <r>  -14.4784    1.0000 </r>
       <r>  -14.4603    1.0000 </r>
       <r>  -14.1997    1.0000 </r>
       <r>  -14.1835    1.0000 </r>
       <r>  -14.1761    1.0000 </r>
       <r>  -14.1720    1.0000 </r>
       <r>  -14.1113    1.0000 </r>
       <r>  -14.0907    1.0000 </r>
       <r>  -13.9569    1.0000 </r>
       <r>  -13.9478    1.0000 </r>
       <r>  -13.7526    1.0000 </r>
       <r>  -13.6891    1.0000 </r>
       <r>  -13.6672    1.0000 </r>
       <r>  -13.6392    1.0000 </r>
       <r>  -13.4537    1.0000 </r>
       <r>  -13.4405    1.0000 </r>
       <r>  -13.3217    1.0000 </r>
       <r>  -13.3150    1.0000 </r>
       <r>  -13.2764    1.0000 </r>
       <r>  -13.2760    1.0000 </r>
       <r>  -13.2167    1.0000 </r>
       <r>  -13.1397    1.0000 </r>
       <r>  -13.0987    1.0000 </r>
       <r>  -13.0556    1.0000 </r>
       <r>  -13.0199    1.0000 </r>
       <r>  -13.0062    1.0000 </r>
       <r>  -12.7399    1.0000 </r>
       <r>  -12.7173    1.0000 </r>
       <r>  -12.6121    1.0000 </r>
       <r>  -12.6040    1.0000 </r>
       <r>  -12.4865    1.0000 </r>
       <r>  -12.4769    1.0000 </r>
       <r>  -12.4764    1.0000 </r>
       <r>  -12.4600    1.0000 </r>
       <r>  -12.4084    1.0000 </r>
       <r>  -12.3572    1.0000 </r>
       <r>  -12.2571    1.0000 </r>
       <r>  -12.2564    1.0000 </r>
       <r>   -3.1137    1.0000 </r>
       <r>   -3.0680    1.0000 </r>
       <r>   -3.0175    1.0000 </r>
       <r>   -2.9075    1.0000 </r>
       <r>   -2.8547    1.0000 </r>
       <r>   -2.7893    1.0000 </r>
       <r>   -2.7372    1.0000 </r>
       <r>   -2.7214    1.0000 </r>
       <r>   -2.4312    1.0000 </r>
       <r>   -2.4250    1.0000 </r>
       <r>   -2.3628    1.0000 </r>
       <r>   -2.3591    1.0000 </r>
       <r>   -2.2114    1.0000 </r>
       <r>   -2.1952    1.0000 </r>
       <r>   -2.1490    1.0000 </r>
       <r>   -2.0392    1.0000 </r>
       <r>   -1.9156    1.0000 </r>
       <r>   -1.8690    1.0000 </r>
       <r>   -1.8686    1.0000 </r>
       <r>   -1.8552    1.0000 </r>
       <r>   -1.8548    1.0000 </r>
       <r>   -1.7503    1.0000 </r>
       <r>   -1.5411    1.0000 </r>
       <r>   -1.5371    1.0000 </r>
       <r>   -1.5065    1.0000 </r>
       <r>   -1.4758    1.0000 </r>
       <r>   -1.4540    1.0000 </r>
       <r>   -1.4266    1.0000 </r>
       <r>   -1.4114    1.0000 </r>
       <r>   -1.2886    1.0000 </r>
       <r>   -1.2835    1.0000 </r>
       <r>   -1.2757    1.0000 </r>
       <r>   -1.2668    1.0000 </r>
       <r>   -1.2136    1.0000 </r>
       <r>   -1.1192    1.0000 </r>
       <r>   -1.0604    1.0000 </r>
       <r>   -1.0287    1.0000 </r>
       <r>   -0.9498    1.0000 </r>
       <r>   -0.6510    1.0000 </r>
       <r>   -0.6447    1.0000 </r>
       <r>   -0.5639    1.0000 </r>
       <r>   -0.5388    1.0000 </r>
       <r>   -0.4422    1.0000 </r>
       <r>   -0.3500    1.0000 </r>
       <r>   -0.0996    1.0000 </r>
       <r>    0.0184    1.0000 </r>
       <r>    0.1325    1.0000 </r>
       <r>    0.4864    1.0000 </r>
       <r>    0.6088    1.0000 </r>
       <r>    0.6799    1.0000 </r>
       <r>    0.7541    1.0000 </r>
       <r>    0.8121    1.0000 </r>
       <r>    0.8138    1.0000 </r>
       <r>    0.9187    1.0000 </r>
       <r>    0.9457    1.0000 </r>
       <r>    0.9570    1.0000 </r>
       <r>    0.9923    1.0000 </r>
       <r>    1.0116    1.0000 </r>
       <r>    1.1029    1.0000 </r>
       <r>    1.1293    1.0000 </r>
       <r>    1.1768    1.0000 </r>
       <r>    1.1964    1.0000 </r>
       <r>    1.2509    1.0000 </r>
       <r>    1.2691    1.0000 </r>
       <r>    1.3005    1.0000 </r>
       <r>    1.3344    1.0000 </r>
       <r>    1.3509    1.0000 </r>
       <r>    1.3781    1.0000 </r>
       <r>    1.3969    1.0000 </r>
       <r>    1.4462    1.0000 </r>
       <r>    1.4630    1.0000 </r>
       <r>    1.5813    1.0000 </r>
       <r>    1.5840    1.0000 </r>
       <r>    1.6130    1.0000 </r>
       <r>    1.6139    1.0000 </r>
       <r>    1.7112    1.0000 </r>
       <r>    1.7254    1.0000 </r>
       <r>    1.7700    1.0000 </r>
       <r>    1.8339    1.0000 </r>
       <r>    1.9630    1.0000 </r>
       <r>    2.0349    1.0000 </r>
       <r>    2.0780    1.0000 </r>
       <r>    2.1867    1.0000 </r>
       <r>    2.2076    1.0000 </r>
       <r>    2.3314    1.0000 </r>
       <r>    2.4014    0.9992 </r>
       <r>    2.4241    0.9940 </r>
       <r>    2.4295    0.9909 </r>
       <r>    2.8446    0.0000 </r>
       <r>    2.9991    0.0000 </r>
       <r>    3.8963    0.0000 </r>
       <r>    3.9206    0.0000 </r>
       <r>    4.1015    0.0000 </r>
       <r>    4.1077    0.0000 </r>
       <r>    4.7585    0.0000 </r>
       <r>    4.8670    0.0000 </r>
       <r>    5.2302    0.0000 </r>
       <r>    5.3147    0.0000 </r>
       <r>    6.5662    0.0000 </r>
       <r>    6.5677    0.0000 </r>
       <r>    7.3903    0.0000 </r>
       <r>    7.6398    0.0000 </r>
       <r>    7.7931    0.0000 </r>
       <r>    7.9224    0.0000 </r>
       <r>    8.1731    0.0000 </r>
       <r>    8.3821    0.0000 </r>
       <r>    8.5345    0.0000 </r>
       <r>    8.6541    0.0000 </r>
       <r>    8.7913    0.0000 </r>
       <r>    8.8510    0.0000 </r>
       <r>    8.8769    0.0000 </r>
       <r>    9.1321    0.0000 </r>
       <r>    9.1612    0.0000 </r>
       <r>    9.4321    0.0000 </r>
       <r>    9.4656    0.0000 </r>
       <r>    9.5129    0.0000 </r>
       <r>    9.5595    0.0000 </r>
       <r>    9.7003    0.0000 </r>
       <r>    9.8714    0.0000 </r>
       <r>    9.9687    0.0000 </r>
       <r>    9.9888    0.0000 </r>
       <r>   10.1356    0.0000 </r>
       <r>   10.1926    0.0000 </r>
       <r>   10.2018    0.0000 </r>
       <r>   10.3353    0.0000 </r>
       <r>   10.3587    0.0000 </r>
       <r>   10.6729    0.0000 </r>
       <r>   10.6934    0.0000 </r>
       <r>   10.7416    0.0000 </r>
       <r>   10.7877    0.0000 </r>
       <r>   10.8865    0.0000 </r>
       <r>   11.0363    0.0000 </r>
       <r>   11.0732    0.0000 </r>
       <r>   11.1525    0.0000 </r>
      </set>
      <set comment="kpoint 4">
       <r>  -31.4265    1.0000 </r>
       <r>  -31.4264    1.0000 </r>
       <r>  -31.4199    1.0000 </r>
       <r>  -31.4198    1.0000 </r>
       <r>  -30.6602    1.0000 </r>
       <r>  -30.6601    1.0000 </r>
       <r>  -30.6532    1.0000 </r>
       <r>  -30.6532    1.0000 </r>
       <r>  -14.9654    1.0000 </r>
       <r>  -14.9249    1.0000 </r>
       <r>  -14.8208    1.0000 </r>
       <r>  -14.8103    1.0000 </r>
       <r>  -14.7718    1.0000 </r>
       <r>  -14.7480    1.0000 </r>
       <r>  -14.6451    1.0000 </r>
       <r>  -14.5296    1.0000 </r>
       <r>  -14.0562    1.0000 </r>
       <r>  -14.0555    1.0000 </r>
       <r>  -13.8638    1.0000 </r>
       <r>  -13.8584    1.0000 </r>
       <r>  -13.7904    1.0000 </r>
       <r>  -13.6660    1.0000 </r>
       <r>  -13.6576    1.0000 </r>
       <r>  -13.6275    1.0000 </r>
       <r>  -13.5421    1.0000 </r>
       <r>  -13.5369    1.0000 </r>
       <r>  -13.4296    1.0000 </r>
       <r>  -13.4294    1.0000 </r>
       <r>  -13.4153    1.0000 </r>
       <r>  -13.4151    1.0000 </r>
       <r>  -13.2213    1.0000 </r>
       <r>  -13.2148    1.0000 </r>
       <r>  -13.1616    1.0000 </r>
       <r>  -13.1590    1.0000 </r>
       <r>  -13.1399    1.0000 </r>
       <r>  -13.0408    1.0000 </r>
       <r>  -12.9374    1.0000 </r>
       <r>  -12.9198    1.0000 </r>
       <r>  -12.6113    1.0000 </r>
       <r>  -12.6110    1.0000 </r>
       <r>  -12.5932    1.0000 </r>
       <r>  -12.5929    1.0000 </r>
       <r>  -12.5653    1.0000 </r>
       <r>  -12.5339    1.0000 </r>
       <r>  -12.4794    1.0000 </r>
       <r>  -12.4777    1.0000 </r>
       <r>  -12.3817    1.0000 </r>
       <r>  -12.3790    1.0000 </r>
       <r>  -12.1906    1.0000 </r>
       <r>  -12.1809    1.0000 </r>
       <r>   -2.5777    1.0000 </r>
       <r>   -2.5749    1.0000 </r>
       <r>   -2.5326    1.0000 </r>
       <r>   -2.5166    1.0000 </r>
       <r>   -1.9996    1.0000 </r>
       <r>   -1.9729    1.0000 </r>
       <r>   -1.9506    1.0000 </r>
       <r>   -1.9219    1.0000 </r>
       <r>   -1.6439    1.0000 </r>
       <r>   -1.6309    1.0000 </r>
       <r>   -1.6040    1.0000 </r>
       <r>   -1.5990    1.0000 </r>
       <r>   -1.5473    1.0000 </r>
       <r>   -1.5467    1.0000 </r>
       <r>   -1.4351    1.0000 </r>
       <r>   -1.3856    1.0000 </r>
       <r>   -1.2945    1.0000 </r>
       <r>   -1.2843    1.0000 </r>
       <r>   -1.2377    1.0000 </r>
       <r>   -1.2202    1.0000 </r>
       <r>   -1.2135    1.0000 </r>
       <r>   -1.2066    1.0000 </r>
       <r>   -1.0098    1.0000 </r>
       <r>   -1.0092    1.0000 </r>
       <r>   -0.9803    1.0000 </r>
       <r>   -0.9493    1.0000 </r>
       <r>   -0.8714    1.0000 </r>
       <r>   -0.8619    1.0000 </r>
       <r>   -0.8358    1.0000 </r>
       <r>   -0.8325    1.0000 </r>
       <r>   -0.6901    1.0000 </r>
       <r>   -0.6812    1.0000 </r>
       <r>   -0.6781    1.0000 </r>
       <r>   -0.6656    1.0000 </r>
       <r>   -0.6616    1.0000 </r>
       <r>   -0.6122    1.0000 </r>
       <r>   -0.5798    1.0000 </r>
       <r>   -0.5703    1.0000 </r>
       <r>   -0.5614    1.0000 </r>
       <r>   -0.5215    1.0000 </r>
       <r>   -0.4538    1.0000 </r>
       <r>   -0.4457    1.0000 </r>
       <r>   -0.4296    1.0000 </r>
       <r>   -0.4172    1.0000 </r>
       <r>   -0.3855    1.0000 </r>
       <r>   -0.3640    1.0000 </r>
       <r>   -0.3172    1.0000 </r>
       <r>   -0.3123    1.0000 </r>
       <r>   -0.1753    1.0000 </r>
       <r>   -0.1506    1.0000 </r>
       <r>    0.0638    1.0000 </r>
       <r>    0.1028    1.0000 </r>
       <r>    0.1619    1.0000 </r>
       <r>    0.1690    1.0000 </r>
       <r>    0.2185    1.0000 </r>
       <r>    0.2355    1.0000 </r>
       <r>    0.4839    1.0000 </r>
       <r>    0.5231    1.0000 </r>
       <r>    0.5514    1.0000 </r>
       <r>    0.6947    1.0000 </r>
       <r>    0.8068    1.0000 </r>
       <r>    0.8314    1.0000 </r>
       <r>    0.8673    1.0000 </r>
       <r>    0.8837    1.0000 </r>
       <r>    0.9441    1.0000 </r>
       <r>    0.9941    1.0000 </r>
       <r>    1.1174    1.0000 </r>
       <r>    1.2122    1.0000 </r>
       <r>    1.2787    1.0000 </r>
       <r>    1.2802    1.0000 </r>
       <r>    1.3233    1.0000 </r>
       <r>    1.3457    1.0000 </r>
       <r>    1.4941    1.0000 </r>
       <r>    1.5787    1.0000 </r>
       <r>    1.6176    1.0000 </r>
       <r>    1.6222    1.0000 </r>
       <r>    1.6732    1.0000 </r>
       <r>    1.6737    1.0000 </r>
       <r>    1.6975    1.0000 </r>
       <r>    1.7486    1.0000 </r>
       <r>    1.7809    1.0000 </r>
       <r>    1.7849    1.0000 </r>
       <r>    1.8347    1.0000 </r>
       <r>    1.9102    1.0000 </r>
       <r>    1.9184    1.0000 </r>
       <r>    1.9226    1.0000 </r>
       <r>    1.9805    1.0000 </r>
       <r>    1.9944    1.0000 </r>
       <r>    2.0585    1.0000 </r>
       <r>    2.0653    1.0000 </r>
       <r>    2.1925    1.0000 </r>
       <r>    2.3901    0.9997 </r>
       <r>    2.6910    0.0000 </r>
       <r>    2.8419    0.0000 </r>
       <r>    3.7473    0.0000 </r>
       <r>    3.8950    0.0000 </r>
       <r>    5.2283    0.0000 </r>
       <r>    5.3170    0.0000 </r>
       <r>    5.9799    0.0000 </r>
       <r>    6.1585    0.0000 </r>
       <r>    7.1446    0.0000 </r>
       <r>    7.1606    0.0000 </r>
       <r>    7.7641    0.0000 </r>
       <r>    7.7644    0.0000 </r>
       <r>    7.9756    0.0000 </r>
       <r>    8.0837    0.0000 </r>
       <r>    8.2385    0.0000 </r>
       <r>    8.5071    0.0000 </r>
       <r>    8.6958    0.0000 </r>
       <r>    8.7558    0.0000 </r>
       <r>    8.8101    0.0000 </r>
       <r>    8.8116    0.0000 </r>
       <r>    8.9495    0.0000 </r>
       <r>    8.9636    0.0000 </r>
       <r>    8.9948    0.0000 </r>
       <r>    9.0729    0.0000 </r>
       <r>    9.1026    0.0000 </r>
       <r>    9.2909    0.0000 </r>
       <r>    9.3371    0.0000 </r>
       <r>    9.5123    0.0000 </r>
       <r>    9.6185    0.0000 </r>
       <r>    9.6798    0.0000 </r>
       <r>    9.7635    0.0000 </r>
       <r>    9.9813    0.0000 </r>
       <r>   10.0370    0.0000 </r>
       <r>   10.0587    0.0000 </r>
       <r>   10.0828    0.0000 </r>
       <r>   10.1148    0.0000 </r>
       <r>   10.1405    0.0000 </r>
       <r>   10.1424    0.0000 </r>
       <r>   10.2677    0.0000 </r>
       <r>   10.5342    0.0000 </r>
       <r>   10.5961    0.0000 </r>
       <r>   10.6368    0.0000 </r>
      </set>
      <set comment="kpoint 5">
       <r>  -31.4220    1.0000 </r>
       <r>  -31.4220    1.0000 </r>
       <r>  -31.4156    1.0000 </r>
       <r>  -31.4155    1.0000 </r>
       <r>  -30.6555    1.0000 </r>
       <r>  -30.6555    1.0000 </r>
       <r>  -30.6488    1.0000 </r>
       <r>  -30.6487    1.0000 </r>
       <r>  -14.8704    1.0000 </r>
       <r>  -14.8389    1.0000 </r>
       <r>  -14.7483    1.0000 </r>
       <r>  -14.7092    1.0000 </r>
       <r>  -14.7013    1.0000 </r>
       <r>  -14.6422    1.0000 </r>
       <r>  -14.5536    1.0000 </r>
       <r>  -14.4486    1.0000 </r>
       <r>  -14.0356    1.0000 </r>
       <r>  -14.0156    1.0000 </r>
       <r>  -13.9453    1.0000 </r>
       <r>  -13.9034    1.0000 </r>
       <r>  -13.8178    1.0000 </r>
       <r>  -13.8119    1.0000 </r>
       <r>  -13.7859    1.0000 </r>
       <r>  -13.7175    1.0000 </r>
       <r>  -13.7119    1.0000 </r>
       <r>  -13.6522    1.0000 </r>
       <r>  -13.4272    1.0000 </r>
       <r>  -13.4224    1.0000 </r>
       <r>  -13.2993    1.0000 </r>
       <r>  -13.2965    1.0000 </r>
       <r>  -13.2308    1.0000 </r>
       <r>  -13.2226    1.0000 </r>
       <r>  -13.1726    1.0000 </r>
       <r>  -13.1520    1.0000 </r>
       <r>  -13.1303    1.0000 </r>
       <r>  -13.0452    1.0000 </r>
       <r>  -12.9790    1.0000 </r>
       <r>  -12.9650    1.0000 </r>
       <r>  -12.6542    1.0000 </r>
       <r>  -12.6442    1.0000 </r>
       <r>  -12.5728    1.0000 </r>
       <r>  -12.5645    1.0000 </r>
       <r>  -12.5300    1.0000 </r>
       <r>  -12.5228    1.0000 </r>
       <r>  -12.4849    1.0000 </r>
       <r>  -12.4747    1.0000 </r>
       <r>  -12.3498    1.0000 </r>
       <r>  -12.3468    1.0000 </r>
       <r>  -12.2553    1.0000 </r>
       <r>  -12.2468    1.0000 </r>
       <r>   -2.6136    1.0000 </r>
       <r>   -2.6044    1.0000 </r>
       <r>   -2.5508    1.0000 </r>
       <r>   -2.5356    1.0000 </r>
       <r>   -2.0750    1.0000 </r>
       <r>   -2.0575    1.0000 </r>
       <r>   -1.9185    1.0000 </r>
       <r>   -1.9115    1.0000 </r>
       <r>   -1.9071    1.0000 </r>
       <r>   -1.8904    1.0000 </r>
       <r>   -1.8528    1.0000 </r>
       <r>   -1.8409    1.0000 </r>
       <r>   -1.8072    1.0000 </r>
       <r>   -1.8051    1.0000 </r>
       <r>   -1.7741    1.0000 </r>
       <r>   -1.7718    1.0000 </r>
       <r>   -1.7130    1.0000 </r>
       <r>   -1.7048    1.0000 </r>
       <r>   -1.6271    1.0000 </r>
       <r>   -1.6086    1.0000 </r>
       <r>   -1.5731    1.0000 </r>
       <r>   -1.5505    1.0000 </r>
       <r>   -1.5047    1.0000 </r>
       <r>   -1.4849    1.0000 </r>
       <r>   -1.3710    1.0000 </r>
       <r>   -1.3054    1.0000 </r>
       <r>   -1.2886    1.0000 </r>
       <r>   -1.2551    1.0000 </r>
       <r>   -1.1943    1.0000 </r>
       <r>   -1.1927    1.0000 </r>
       <r>   -1.1544    1.0000 </r>
       <r>   -1.1275    1.0000 </r>
       <r>   -1.0929    1.0000 </r>
       <r>   -1.0910    1.0000 </r>
       <r>   -1.0030    1.0000 </r>
       <r>   -0.9929    1.0000 </r>
       <r>   -0.9819    1.0000 </r>
       <r>   -0.9773    1.0000 </r>
       <r>   -0.9331    1.0000 </r>
       <r>   -0.9269    1.0000 </r>
       <r>   -0.5685    1.0000 </r>
       <r>   -0.5651    1.0000 </r>
       <r>   -0.5108    1.0000 </r>
       <r>   -0.4913    1.0000 </r>
       <r>   -0.2017    1.0000 </r>
       <r>   -0.1521    1.0000 </r>
       <r>    0.0958    1.0000 </r>
       <r>    0.1238    1.0000 </r>
       <r>    0.3352    1.0000 </r>
       <r>    0.3750    1.0000 </r>
       <r>    0.5415    1.0000 </r>
       <r>    0.5731    1.0000 </r>
       <r>    0.6267    1.0000 </r>
       <r>    0.6471    1.0000 </r>
       <r>    0.7394    1.0000 </r>
       <r>    0.8192    1.0000 </r>
       <r>    0.8858    1.0000 </r>
       <r>    0.9169    1.0000 </r>
       <r>    0.9201    1.0000 </r>
       <r>    0.9946    1.0000 </r>
       <r>    1.0248    1.0000 </r>
       <r>    1.0416    1.0000 </r>
       <r>    1.1000    1.0000 </r>
       <r>    1.1039    1.0000 </r>
       <r>    1.1243    1.0000 </r>
       <r>    1.1815    1.0000 </r>
       <r>    1.1967    1.0000 </r>
       <r>    1.2374    1.0000 </r>
       <r>    1.2517    1.0000 </r>
       <r>    1.2968    1.0000 </r>
       <r>    1.3154    1.0000 </r>
       <r>    1.3664    1.0000 </r>
       <r>    1.4610    1.0000 </r>
       <r>    1.4705    1.0000 </r>
       <r>    1.5009    1.0000 </r>
       <r>    1.5377    1.0000 </r>
       <r>    1.6270    1.0000 </r>
       <r>    1.7078    1.0000 </r>
       <r>    1.8138    1.0000 </r>
       <r>    1.8305    1.0000 </r>
       <r>    1.8920    1.0000 </r>
       <r>    1.9114    1.0000 </r>
       <r>    1.9901    1.0000 </r>
       <r>    1.9922    1.0000 </r>
       <r>    2.2355    1.0000 </r>
       <r>    2.2532    1.0000 </r>
       <r>    2.4494    0.9640 </r>
       <r>    2.4666    0.9052 </r>
       <r>    2.6269    0.0006 </r>
       <r>    2.6496    0.0001 </r>
       <r>    2.7667    0.0000 </r>
       <r>    2.9535    0.0000 </r>
       <r>    3.0784    0.0000 </r>
       <r>    3.2624    0.0000 </r>
       <r>    4.2826    0.0000 </r>
       <r>    4.2912    0.0000 </r>
       <r>    5.2743    0.0000 </r>
       <r>    5.3776    0.0000 </r>
       <r>    6.1082    0.0000 </r>
       <r>    6.1986    0.0000 </r>
       <r>    7.5236    0.0000 </r>
       <r>    7.5448    0.0000 </r>
       <r>    8.0041    0.0000 </r>
       <r>    8.0164    0.0000 </r>
       <r>    8.0590    0.0000 </r>
       <r>    8.1736    0.0000 </r>
       <r>    8.1992    0.0000 </r>
       <r>    8.3695    0.0000 </r>
       <r>    8.4856    0.0000 </r>
       <r>    8.5133    0.0000 </r>
       <r>    8.7287    0.0000 </r>
       <r>    8.8720    0.0000 </r>
       <r>    9.0023    0.0000 </r>
       <r>    9.0407    0.0000 </r>
       <r>    9.1177    0.0000 </r>
       <r>    9.2470    0.0000 </r>
       <r>    9.2851    0.0000 </r>
       <r>    9.4092    0.0000 </r>
       <r>    9.4634    0.0000 </r>
       <r>    9.5981    0.0000 </r>
       <r>    9.6662    0.0000 </r>
       <r>    9.7793    0.0000 </r>
       <r>    9.8437    0.0000 </r>
       <r>    9.8665    0.0000 </r>
       <r>    9.9467    0.0000 </r>
       <r>   10.0169    0.0000 </r>
       <r>   10.0267    0.0000 </r>
       <r>   10.1750    0.0000 </r>
       <r>   10.2051    0.0000 </r>
       <r>   10.3641    0.0000 </r>
       <r>   10.3835    0.0000 </r>
       <r>   10.4374    0.0000 </r>
       <r>   10.6565    0.0000 </r>
       <r>   10.7435    0.0000 </r>
      </set>
      <set comment="kpoint 6">
       <r>  -31.4148    1.0000 </r>
       <r>  -31.4148    1.0000 </r>
       <r>  -31.4086    1.0000 </r>
       <r>  -31.4085    1.0000 </r>
       <r>  -30.6480    1.0000 </r>
       <r>  -30.6479    1.0000 </r>
       <r>  -30.6416    1.0000 </r>
       <r>  -30.6415    1.0000 </r>
       <r>  -14.6870    1.0000 </r>
       <r>  -14.6829    1.0000 </r>
       <r>  -14.6409    1.0000 </r>
       <r>  -14.6128    1.0000 </r>
       <r>  -14.4656    1.0000 </r>
       <r>  -14.4193    1.0000 </r>
       <r>  -14.3614    1.0000 </r>
       <r>  -14.3124    1.0000 </r>
       <r>  -14.1158    1.0000 </r>
       <r>  -14.0998    1.0000 </r>
       <r>  -14.0891    1.0000 </r>
       <r>  -14.0742    1.0000 </r>
       <r>  -14.0149    1.0000 </r>
       <r>  -14.0128    1.0000 </r>
       <r>  -13.8057    1.0000 </r>
       <r>  -13.8043    1.0000 </r>
       <r>  -13.6783    1.0000 </r>
       <r>  -13.6740    1.0000 </r>
       <r>  -13.3856    1.0000 </r>
       <r>  -13.3615    1.0000 </r>
       <r>  -13.2573    1.0000 </r>
       <r>  -13.2459    1.0000 </r>
       <r>  -13.2387    1.0000 </r>
       <r>  -13.2230    1.0000 </r>
       <r>  -13.2108    1.0000 </r>
       <r>  -13.1790    1.0000 </r>
       <r>  -13.1229    1.0000 </r>
       <r>  -13.1040    1.0000 </r>
       <r>  -13.0575    1.0000 </r>
       <r>  -13.0500    1.0000 </r>
       <r>  -12.6568    1.0000 </r>
       <r>  -12.6329    1.0000 </r>
       <r>  -12.5503    1.0000 </r>
       <r>  -12.5438    1.0000 </r>
       <r>  -12.5205    1.0000 </r>
       <r>  -12.5175    1.0000 </r>
       <r>  -12.4788    1.0000 </r>
       <r>  -12.4655    1.0000 </r>
       <r>  -12.3963    1.0000 </r>
       <r>  -12.3820    1.0000 </r>
       <r>  -12.3249    1.0000 </r>
       <r>  -12.3236    1.0000 </r>
       <r>   -3.0045    1.0000 </r>
       <r>   -2.9819    1.0000 </r>
       <r>   -2.8816    1.0000 </r>
       <r>   -2.8509    1.0000 </r>
       <r>   -2.7620    1.0000 </r>
       <r>   -2.7437    1.0000 </r>
       <r>   -2.7182    1.0000 </r>
       <r>   -2.6967    1.0000 </r>
       <r>   -2.3940    1.0000 </r>
       <r>   -2.3835    1.0000 </r>
       <r>   -2.3494    1.0000 </r>
       <r>   -2.3435    1.0000 </r>
       <r>   -2.1533    1.0000 </r>
       <r>   -2.0678    1.0000 </r>
       <r>   -2.0544    1.0000 </r>
       <r>   -2.0404    1.0000 </r>
       <r>   -1.9107    1.0000 </r>
       <r>   -1.9042    1.0000 </r>
       <r>   -1.8554    1.0000 </r>
       <r>   -1.8152    1.0000 </r>
       <r>   -1.8052    1.0000 </r>
       <r>   -1.7634    1.0000 </r>
       <r>   -1.6951    1.0000 </r>
       <r>   -1.6841    1.0000 </r>
       <r>   -1.5086    1.0000 </r>
       <r>   -1.4958    1.0000 </r>
       <r>   -1.4775    1.0000 </r>
       <r>   -1.4507    1.0000 </r>
       <r>   -1.4391    1.0000 </r>
       <r>   -1.4331    1.0000 </r>
       <r>   -1.3791    1.0000 </r>
       <r>   -1.3457    1.0000 </r>
       <r>   -1.3278    1.0000 </r>
       <r>   -1.2997    1.0000 </r>
       <r>   -1.2834    1.0000 </r>
       <r>   -1.2726    1.0000 </r>
       <r>   -1.0999    1.0000 </r>
       <r>   -1.0399    1.0000 </r>
       <r>   -0.9641    1.0000 </r>
       <r>   -0.9408    1.0000 </r>
       <r>   -0.5549    1.0000 </r>
       <r>   -0.5547    1.0000 </r>
       <r>   -0.4902    1.0000 </r>
       <r>   -0.4704    1.0000 </r>
       <r>   -0.1529    1.0000 </r>
       <r>   -0.0713    1.0000 </r>
       <r>    0.4111    1.0000 </r>
       <r>    0.5078    1.0000 </r>
       <r>    0.7694    1.0000 </r>
       <r>    0.7924    1.0000 </r>
       <r>    0.8557    1.0000 </r>
       <r>    0.8584    1.0000 </r>
       <r>    0.9132    1.0000 </r>
       <r>    0.9327    1.0000 </r>
       <r>    1.0117    1.0000 </r>
       <r>    1.0230    1.0000 </r>
       <r>    1.0327    1.0000 </r>
       <r>    1.0636    1.0000 </r>
       <r>    1.1277    1.0000 </r>
       <r>    1.1643    1.0000 </r>
       <r>    1.1964    1.0000 </r>
       <r>    1.2687    1.0000 </r>
       <r>    1.2898    1.0000 </r>
       <r>    1.2955    1.0000 </r>
       <r>    1.3131    1.0000 </r>
       <r>    1.3260    1.0000 </r>
       <r>    1.3360    1.0000 </r>
       <r>    1.3784    1.0000 </r>
       <r>    1.3960    1.0000 </r>
       <r>    1.4232    1.0000 </r>
       <r>    1.4582    1.0000 </r>
       <r>    1.4934    1.0000 </r>
       <r>    1.5383    1.0000 </r>
       <r>    1.6488    1.0000 </r>
       <r>    1.6638    1.0000 </r>
       <r>    1.7142    1.0000 </r>
       <r>    1.8187    1.0000 </r>
       <r>    1.8247    1.0000 </r>
       <r>    1.9596    1.0000 </r>
       <r>    2.0410    1.0000 </r>
       <r>    2.1250    1.0000 </r>
       <r>    2.1670    1.0000 </r>
       <r>    2.2040    1.0000 </r>
       <r>    2.2537    1.0000 </r>
       <r>    2.3252    1.0000 </r>
       <r>    2.3637    1.0000 </r>
       <r>    2.4605    0.9312 </r>
       <r>    2.4665    0.9057 </r>
       <r>    2.9380    0.0000 </r>
       <r>    3.0790    0.0000 </r>
       <r>    3.7113    0.0000 </r>
       <r>    3.7389    0.0000 </r>
       <r>    3.9071    0.0000 </r>
       <r>    3.9185    0.0000 </r>
       <r>    5.0705    0.0000 </r>
       <r>    5.0889    0.0000 </r>
       <r>    5.2457    0.0000 </r>
       <r>    5.3739    0.0000 </r>
       <r>    6.3112    0.0000 </r>
       <r>    6.3240    0.0000 </r>
       <r>    7.6050    0.0000 </r>
       <r>    7.7668    0.0000 </r>
       <r>    7.9528    0.0000 </r>
       <r>    7.9815    0.0000 </r>
       <r>    8.2633    0.0000 </r>
       <r>    8.2930    0.0000 </r>
       <r>    8.3453    0.0000 </r>
       <r>    8.5231    0.0000 </r>
       <r>    8.6065    0.0000 </r>
       <r>    8.6762    0.0000 </r>
       <r>    8.8430    0.0000 </r>
       <r>    9.0508    0.0000 </r>
       <r>    9.2230    0.0000 </r>
       <r>    9.4342    0.0000 </r>
       <r>    9.6033    0.0000 </r>
       <r>    9.6218    0.0000 </r>
       <r>    9.7133    0.0000 </r>
       <r>    9.8036    0.0000 </r>
       <r>    9.8560    0.0000 </r>
       <r>    9.8863    0.0000 </r>
       <r>    9.9382    0.0000 </r>
       <r>    9.9855    0.0000 </r>
       <r>   10.1198    0.0000 </r>
       <r>   10.1935    0.0000 </r>
       <r>   10.3287    0.0000 </r>
       <r>   10.3318    0.0000 </r>
       <r>   10.3877    0.0000 </r>
       <r>   10.4973    0.0000 </r>
       <r>   10.5108    0.0000 </r>
       <r>   10.6430    0.0000 </r>
       <r>   10.8220    0.0000 </r>
       <r>   10.8890    0.0000 </r>
       <r>   10.9498    0.0000 </r>
       <r>   11.0046    0.0000 </r>
      </set>
     </set>
     <set comment="spin 2">
      <set comment="kpoint 1">
       <r>  -31.4307    1.0000 </r>
       <r>  -31.4307    1.0000 </r>
       <r>  -31.4176    1.0000 </r>
       <r>  -31.4176    1.0000 </r>
       <r>  -30.6647    1.0000 </r>
       <r>  -30.6646    1.0000 </r>
       <r>  -30.6507    1.0000 </r>
       <r>  -30.6506    1.0000 </r>
       <r>  -15.0079    1.0000 </r>
       <r>  -14.9616    1.0000 </r>
       <r>  -14.7813    1.0000 </r>
       <r>  -14.7781    1.0000 </r>
       <r>  -14.7008    1.0000 </r>
       <r>  -14.6905    1.0000 </r>
       <r>  -14.4950    1.0000 </r>
       <r>  -14.1196    1.0000 </r>
       <r>  -14.0994    1.0000 </r>
       <r>  -14.0168    1.0000 </r>
       <r>  -13.9867    1.0000 </r>
       <r>  -13.7565    1.0000 </r>
       <r>  -13.6377    1.0000 </r>
       <r>  -13.5173    1.0000 </r>
       <r>  -13.5006    1.0000 </r>
       <r>  -13.4811    1.0000 </r>
       <r>  -13.4369    1.0000 </r>
       <r>  -13.4367    1.0000 </r>
       <r>  -13.4099    1.0000 </r>
       <r>  -13.4097    1.0000 </r>
       <r>  -13.3190    1.0000 </r>
       <r>  -13.3169    1.0000 </r>
       <r>  -13.3038    1.0000 </r>
       <r>  -13.3033    1.0000 </r>
       <r>  -13.1935    1.0000 </r>
       <r>  -13.1209    1.0000 </r>
       <r>  -13.1174    1.0000 </r>
       <r>  -12.9679    1.0000 </r>
       <r>  -12.9181    1.0000 </r>
       <r>  -12.8847    1.0000 </r>
       <r>  -12.6213    1.0000 </r>
       <r>  -12.6210    1.0000 </r>
       <r>  -12.5852    1.0000 </r>
       <r>  -12.5849    1.0000 </r>
       <r>  -12.5697    1.0000 </r>
       <r>  -12.5296    1.0000 </r>
       <r>  -12.5105    1.0000 </r>
       <r>  -12.5085    1.0000 </r>
       <r>  -12.4271    1.0000 </r>
       <r>  -12.3990    1.0000 </r>
       <r>  -12.1002    1.0000 </r>
       <r>  -12.0832    1.0000 </r>
       <r>   -2.6291    1.0000 </r>
       <r>   -2.5640    1.0000 </r>
       <r>   -2.3596    1.0000 </r>
       <r>   -2.2867    1.0000 </r>
       <r>   -1.9571    1.0000 </r>
       <r>   -1.9276    1.0000 </r>
       <r>   -1.8991    1.0000 </r>
       <r>   -1.8983    1.0000 </r>
       <r>   -1.5219    1.0000 </r>
       <r>   -1.5033    1.0000 </r>
       <r>   -1.4768    1.0000 </r>
       <r>   -1.4753    1.0000 </r>
       <r>   -1.2994    1.0000 </r>
       <r>   -1.2917    1.0000 </r>
       <r>   -1.2754    1.0000 </r>
       <r>   -1.2557    1.0000 </r>
       <r>   -1.2432    1.0000 </r>
       <r>   -1.1449    1.0000 </r>
       <r>   -0.9934    1.0000 </r>
       <r>   -0.9909    1.0000 </r>
       <r>   -0.9908    1.0000 </r>
       <r>   -0.9887    1.0000 </r>
       <r>   -0.9568    1.0000 </r>
       <r>   -0.9370    1.0000 </r>
       <r>   -0.8600    1.0000 </r>
       <r>   -0.8600    1.0000 </r>
       <r>   -0.8596    1.0000 </r>
       <r>   -0.8469    1.0000 </r>
       <r>   -0.7501    1.0000 </r>
       <r>   -0.7432    1.0000 </r>
       <r>   -0.7423    1.0000 </r>
       <r>   -0.7243    1.0000 </r>
       <r>   -0.6856    1.0000 </r>
       <r>   -0.6786    1.0000 </r>
       <r>   -0.6704    1.0000 </r>
       <r>   -0.6158    1.0000 </r>
       <r>   -0.5745    1.0000 </r>
       <r>   -0.5539    1.0000 </r>
       <r>   -0.5517    1.0000 </r>
       <r>   -0.5205    1.0000 </r>
       <r>   -0.4830    1.0000 </r>
       <r>   -0.4259    1.0000 </r>
       <r>   -0.4259    1.0000 </r>
       <r>   -0.4115    1.0000 </r>
       <r>   -0.3792    1.0000 </r>
       <r>   -0.3190    1.0000 </r>
       <r>   -0.2387    1.0000 </r>
       <r>   -0.2108    1.0000 </r>
       <r>   -0.1518    1.0000 </r>
       <r>   -0.1472    1.0000 </r>
       <r>    0.1105    1.0000 </r>
       <r>    0.1945    1.0000 </r>
       <r>    0.2051    1.0000 </r>
       <r>    0.2099    1.0000 </r>
       <r>    0.3203    1.0000 </r>
       <r>    0.3362    1.0000 </r>
       <r>    0.4517    1.0000 </r>
       <r>    0.4595    1.0000 </r>
       <r>    0.5990    1.0000 </r>
       <r>    0.6103    1.0000 </r>
       <r>    0.8428    1.0000 </r>
       <r>    0.9149    1.0000 </r>
       <r>    0.9245    1.0000 </r>
       <r>    0.9908    1.0000 </r>
       <r>    1.0276    1.0000 </r>
       <r>    1.1055    1.0000 </r>
       <r>    1.1441    1.0000 </r>
       <r>    1.2542    1.0000 </r>
       <r>    1.2645    1.0000 </r>
       <r>    1.3294    1.0000 </r>
       <r>    1.4107    1.0000 </r>
       <r>    1.4575    1.0000 </r>
       <r>    1.6890    1.0000 </r>
       <r>    1.7028    1.0000 </r>
       <r>    1.7247    1.0000 </r>
       <r>    1.8127    1.0000 </r>
       <r>    1.8391    1.0000 </r>
       <r>    1.8577    1.0000 </r>
       <r>    1.8588    1.0000 </r>
       <r>    1.8876    1.0000 </r>
       <r>    1.8901    1.0000 </r>
       <r>    1.8927    1.0000 </r>
       <r>    1.9305    1.0000 </r>
       <r>    1.9452    1.0000 </r>
       <r>    1.9534    1.0000 </r>
       <r>    2.0068    1.0000 </r>
       <r>    2.0911    1.0000 </r>
       <r>    2.1181    1.0000 </r>
       <r>    2.1856    1.0000 </r>
       <r>    2.2014    1.0000 </r>
       <r>    2.2109    1.0000 </r>
       <r>    2.3070    1.0000 </r>
       <r>    3.1265    0.0000 </r>
       <r>    3.2802    0.0000 </r>
       <r>    3.4627    0.0000 </r>
       <r>    3.8823    0.0000 </r>
       <r>    5.6487    0.0000 </r>
       <r>    5.6750    0.0000 </r>
       <r>    5.7488    0.0000 </r>
       <r>    5.8521    0.0000 </r>
       <r>    7.1622    0.0000 </r>
       <r>    7.3266    0.0000 </r>
       <r>    7.3833    0.0000 </r>
       <r>    7.5841    0.0000 </r>
       <r>    7.7816    0.0000 </r>
       <r>    7.8896    0.0000 </r>
       <r>    7.9088    0.0000 </r>
       <r>    8.2826    0.0000 </r>
       <r>    8.6190    0.0000 </r>
       <r>    8.7226    0.0000 </r>
       <r>    8.7791    0.0000 </r>
       <r>    8.9494    0.0000 </r>
       <r>    8.9854    0.0000 </r>
       <r>    9.1277    0.0000 </r>
       <r>    9.2122    0.0000 </r>
[...]
       <r>     5.9431     0.5292   148.1555 </r>
       <r>     6.0992     3.0193   148.6269 </r>
       <r>     6.2554     3.7177   149.2074 </r>
       <r>     6.4115     3.3532   149.7310 </r>
       <r>     6.5677     0.8826   149.8688 </r>
       <r>     6.7238     0.8405   150.0000 </r>
       <r>     6.8799     0.0000   150.0000 </r>
       <r>     7.0361     0.0013   150.0002 </r>
       <r>     7.1922     1.8463   150.2885 </r>
       <r>     7.3484     0.8596   150.4227 </r>
       <r>     7.5045     1.8735   150.7152 </r>
       <r>     7.6606     6.1740   151.6792 </r>
       <r>     7.8168     6.1635   152.6416 </r>
       <r>     7.9729     7.1849   153.7634 </r>
       <r>     8.1290     8.9590   155.1623 </r>
       <r>     8.2852     8.7716   156.5318 </r>
       <r>     8.4413     7.0186   157.6277 </r>
       <r>     8.5975     7.5456   158.8059 </r>
       <r>     8.7536     7.8138   160.0259 </r>
       <r>     8.9097     9.1123   161.4487 </r>
       <r>     9.0659     8.7034   162.8076 </r>
       <r>     9.2220     9.7018   164.3224 </r>
       <r>     9.3782     7.7586   165.5338 </r>
       <r>     9.5343    10.7793   167.2169 </r>
       <r>     9.6904    12.7214   169.2032 </r>
       <r>     9.8466    11.1373   170.9422 </r>
       <r>    10.0027    15.3446   173.3380 </r>
       <r>    10.1588    15.3301   175.7317 </r>
       <r>    10.3150    10.7782   177.4145 </r>
       <r>    10.4711    13.9646   179.5950 </r>
       <r>    10.6273     9.5911   181.0925 </r>
       <r>    10.7834     7.8165   182.3129 </r>
       <r>    10.9395     5.3575   183.1495 </r>
       <r>    11.0957     4.3672   183.8313 </r>
       <r>    11.2518     1.0781   183.9997 </r>
       <r>    11.4080     0.0021   184.0000 </r>
       <r>    11.5641     0.0000   184.0000 </r>
       <r>    11.7202     0.0000   184.0000 </r>
       <r>    11.8764     0.0000   184.0000 </r>
       <r>    12.0325     0.0000   184.0000 </r>
       <r>    12.1886     0.0000   184.0000 </r>
       <r>    12.3448     0.0000   184.0000 </r>
       <r>    12.5009     0.0000   184.0000 </r>
       <r>    12.6571     0.0000   184.0000 </r>
       <r>    12.8132     0.0000   184.0000 </r>
       <r>    12.9693     0.0000   184.0000 </r>
       <r>    13.1255     0.0000   184.0000 </r>
       <r>    13.2816     0.0000   184.0000 </r>
      </set>
      <set comment="spin 2">
       <r>   -33.5599     0.0000     0.0000 </r>
       <r>   -33.4038     0.0000     0.0000 </r>
       <r>   -33.2476     0.0000     0.0000 </r>
       <r>   -33.0915     0.0000     0.0000 </r>
       <r>   -32.9354     0.0000     0.0000 </r>
       <r>   -32.7792     0.0000     0.0000 </r>
       <r>   -32.6231     0.0000     0.0000 </r>
       <r>   -32.4669     0.0000     0.0000 </r>
       <r>   -32.3108     0.0000     0.0000 </r>
       <r>   -32.1547     0.0000     0.0000 </r>
       <r>   -31.9985     0.0000     0.0000 </r>
       <r>   -31.8424     0.0000     0.0000 </r>
       <r>   -31.6862     0.0000     0.0000 </r>
       <r>   -31.5301     0.0227     0.0035 </r>
       <r>   -31.3740    22.7499     3.5557 </r>
       <r>   -31.2178     2.8457     4.0000 </r>
       <r>   -31.0617     0.0000     4.0000 </r>
       <r>   -30.9056     0.0000     4.0000 </r>
       <r>   -30.7494     0.0801     4.0125 </r>
       <r>   -30.5933    24.1539     7.7839 </r>
       <r>   -30.4371     1.3843     8.0000 </r>
       <r>   -30.2810     0.0000     8.0000 </r>
       <r>   -30.1249     0.0000     8.0000 </r>
       <r>   -29.9687     0.0000     8.0000 </r>
       <r>   -29.8126     0.0000     8.0000 </r>
       <r>   -29.6564     0.0000     8.0000 </r>
       <r>   -29.5003     0.0000     8.0000 </r>
       <r>   -29.3442     0.0000     8.0000 </r>
       <r>   -29.1880     0.0000     8.0000 </r>
       <r>   -29.0319     0.0000     8.0000 </r>
       <r>   -28.8758     0.0000     8.0000 </r>
       <r>   -28.7196     0.0000     8.0000 </r>
       <r>   -28.5635     0.0000     8.0000 </r>
       <r>   -28.4073     0.0000     8.0000 </r>
       <r>   -28.2512     0.0000     8.0000 </r>
       <r>   -28.0951     0.0000     8.0000 </r>
       <r>   -27.9389     0.0000     8.0000 </r>
       <r>   -27.7828     0.0000     8.0000 </r>
       <r>   -27.6266     0.0000     8.0000 </r>
       <r>   -27.4705     0.0000     8.0000 </r>
       <r>   -27.3144     0.0000     8.0000 </r>
       <r>   -27.1582     0.0000     8.0000 </r>
       <r>   -27.0021     0.0000     8.0000 </r>
       <r>   -26.8460     0.0000     8.0000 </r>
       <r>   -26.6898     0.0000     8.0000 </r>
       <r>   -26.5337     0.0000     8.0000 </r>
       <r>   -26.3775     0.0000     8.0000 </r>
       <r>   -26.2214     0.0000     8.0000 </r>
       <r>   -26.0653     0.0000     8.0000 </r>
       <r>   -25.9091     0.0000     8.0000 </r>
       <r>   -25.7530     0.0000     8.0000 </r>
       <r>   -25.5968     0.0000     8.0000 </r>
       <r>   -25.4407     0.0000     8.0000 </r>
       <r>   -25.2846     0.0000     8.0000 </r>
       <r>   -25.1284     0.0000     8.0000 </r>
       <r>   -24.9723     0.0000     8.0000 </r>
       <r>   -24.8162     0.0000     8.0000 </r>
       <r>   -24.6600     0.0000     8.0000 </r>
       <r>   -24.5039     0.0000     8.0000 </r>
       <r>   -24.3477     0.0000     8.0000 </r>
       <r>   -24.1916     0.0000     8.0000 </r>
       <r>   -24.0355     0.0000     8.0000 </r>
       <r>   -23.8793     0.0000     8.0000 </r>
       <r>   -23.7232     0.0000     8.0000 </r>
       <r>   -23.5671     0.0000     8.0000 </r>
       <r>   -23.4109     0.0000     8.0000 </r>
       <r>   -23.2548     0.0000     8.0000 </r>
       <r>   -23.0986     0.0000     8.0000 </r>
       <r>   -22.9425     0.0000     8.0000 </r>
       <r>   -22.7864     0.0000     8.0000 </r>
       <r>   -22.6302     0.0000     8.0000 </r>
       <r>   -22.4741     0.0000     8.0000 </r>
       <r>   -22.3179     0.0000     8.0000 </r>
       <r>   -22.1618     0.0000     8.0000 </r>
       <r>   -22.0057     0.0000     8.0000 </r>
       <r>   -21.8495     0.0000     8.0000 </r>
       <r>   -21.6934     0.0000     8.0000 </r>
       <r>   -21.5373     0.0000     8.0000 </r>
       <r>   -21.3811     0.0000     8.0000 </r>
       <r>   -21.2250     0.0000     8.0000 </r>
       <r>   -21.0688     0.0000     8.0000 </r>
       <r>   -20.9127     0.0000     8.0000 </r>
       <r>   -20.7566     0.0000     8.0000 </r>
       <r>   -20.6004     0.0000     8.0000 </r>
       <r>   -20.4443     0.0000     8.0000 </r>
       <r>   -20.2881     0.0000     8.0000 </r>
       <r>   -20.1320     0.0000     8.0000 </r>
       <r>   -19.9759     0.0000     8.0000 </r>
       <r>   -19.8197     0.0000     8.0000 </r>
       <r>   -19.6636     0.0000     8.0000 </r>
       <r>   -19.5075     0.0000     8.0000 </r>
       <r>   -19.3513     0.0000     8.0000 </r>
       <r>   -19.1952     0.0000     8.0000 </r>
       <r>   -19.0390     0.0000     8.0000 </r>
       <r>   -18.8829     0.0000     8.0000 </r>
       <r>   -18.7268     0.0000     8.0000 </r>
       <r>   -18.5706     0.0000     8.0000 </r>
       <r>   -18.4145     0.0000     8.0000 </r>
       <r>   -18.2583     0.0000     8.0000 </r>
       <r>   -18.1022     0.0000     8.0000 </r>
       <r>   -17.9461     0.0000     8.0000 </r>
       <r>   -17.7899     0.0000     8.0000 </r>
       <r>   -17.6338     0.0000     8.0000 </r>
       <r>   -17.4777     0.0000     8.0000 </r>
       <r>   -17.3215     0.0000     8.0000 </r>
       <r>   -17.1654     0.0000     8.0000 </r>
       <r>   -17.0092     0.0000     8.0000 </r>
       <r>   -16.8531     0.0000     8.0000 </r>
       <r>   -16.6970     0.0000     8.0000 </r>
       <r>   -16.5408     0.0000     8.0000 </r>
       <r>   -16.3847     0.0000     8.0000 </r>
       <r>   -16.2285     0.0000     8.0000 </r>
       <r>   -16.0724     0.0000     8.0000 </r>
       <r>   -15.9163     0.0000     8.0000 </r>
       <r>   -15.7601     0.0000     8.0000 </r>
       <r>   -15.6040     0.0000     8.0000 </r>
       <r>   -15.4479     0.0000     8.0000 </r>
       <r>   -15.2917     0.0000     8.0000 </r>
       <r>   -15.1356     0.0001     8.0000 </r>
       <r>   -14.9794     0.6187     8.0966 </r>
       <r>   -14.8233     5.9003     9.0179 </r>
       <r>   -14.6672    12.6937    10.9999 </r>
       <r>   -14.5110    14.9747    13.3380 </r>
       <r>   -14.3549     9.3562    14.7988 </r>
       <r>   -14.1987     4.6363    15.5227 </r>
       <r>   -14.0426     8.4089    16.8357 </r>
       <r>   -13.8865    17.3915    19.5512 </r>
       <r>   -13.7303    14.0190    21.7401 </r>
       <r>   -13.5742    14.8068    24.0520 </r>
       <r>   -13.4181    16.7349    26.6649 </r>
       <r>   -13.2619    17.2075    29.3517 </r>
       <r>   -13.1058    31.0627    34.2018 </r>
       <r>   -12.9496    18.6730    37.1174 </r>
       <r>   -12.7935     5.7259    38.0114 </r>
       <r>   -12.6374     7.9110    39.2466 </r>
       <r>   -12.4812    30.0810    43.9434 </r>
       <r>   -12.3251    25.2191    47.8811 </r>
       <r>   -12.1689    11.5415    49.6831 </r>
       <r>   -12.0128     2.0166    49.9980 </r>
       <r>   -11.8567     0.0128    50.0000 </r>
       <r>   -11.7005     0.0000    50.0000 </r>
       <r>   -11.5444     0.0000    50.0000 </r>
       <r>   -11.3883     0.0000    50.0000 </r>
       <r>   -11.2321     0.0000    50.0000 </r>
       <r>   -11.0760     0.0000    50.0000 </r>
       <r>   -10.9198     0.0000    50.0000 </r>
       <r>   -10.7637     0.0000    50.0000 </r>
       <r>   -10.6076     0.0000    50.0000 </r>
       <r>   -10.4514     0.0000    50.0000 </r>
       <r>   -10.2953     0.0000    50.0000 </r>
       <r>   -10.1391     0.0000    50.0000 </r>
       <r>    -9.9830     0.0000    50.0000 </r>
       <r>    -9.8269     0.0000    50.0000 </r>
       <r>    -9.6707     0.0000    50.0000 </r>
       <r>    -9.5146     0.0000    50.0000 </r>
       <r>    -9.3585     0.0000    50.0000 </r>
       <r>    -9.2023     0.0000    50.0000 </r>
       <r>    -9.0462     0.0000    50.0000 </r>
       <r>    -8.8900     0.0000    50.0000 </r>
       <r>    -8.7339     0.0000    50.0000 </r>
       <r>    -8.5778     0.0000    50.0000 </r>
       <r>    -8.4216     0.0000    50.0000 </r>
       <r>    -8.2655     0.0000    50.0000 </r>
       <r>    -8.1093     0.0000    50.0000 </r>
       <r>    -7.9532     0.0000    50.0000 </r>
       <r>    -7.7971     0.0000    50.0000 </r>
       <r>    -7.6409     0.0000    50.0000 </r>
       <r>    -7.4848     0.0000    50.0000 </r>
       <r>    -7.3287     0.0000    50.0000 </r>
       <r>    -7.1725     0.0000    50.0000 </r>
       <r>    -7.0164     0.0000    50.0000 </r>
       <r>    -6.8602     0.0000    50.0000 </r>
       <r>    -6.7041     0.0000    50.0000 </r>
       <r>    -6.5480     0.0000    50.0000 </r>
       <r>    -6.3918     0.0000    50.0000 </r>
       <r>    -6.2357     0.0000    50.0000 </r>
       <r>    -6.0795     0.0000    50.0000 </r>
       <r>    -5.9234     0.0000    50.0000 </r>
       <r>    -5.7673     0.0000    50.0000 </r>
       <r>    -5.6111     0.0000    50.0000 </r>
       <r>    -5.4550     0.0000    50.0000 </r>
       <r>    -5.2989     0.0000    50.0000 </r>
       <r>    -5.1427     0.0000    50.0000 </r>
       <r>    -4.9866     0.0000    50.0000 </r>
       <r>    -4.8304     0.0000    50.0000 </r>
       <r>    -4.6743     0.0000    50.0000 </r>
       <r>    -4.5182     0.0000    50.0000 </r>
       <r>    -4.3620     0.0000    50.0000 </r>
       <r>    -4.2059     0.0000    50.0000 </r>
       <r>    -4.0497     0.0000    50.0000 </r>
       <r>    -3.8936     0.0000    50.0000 </r>
       <r>    -3.7375     0.0000    50.0000 </r>
       <r>    -3.5813     0.0000    50.0000 </r>
       <r>    -3.4252     0.0000    50.0000 </r>
       <r>    -3.2691     0.0000    50.0000 </r>
       <r>    -3.1129     0.0041    50.0006 </r>
       <r>    -2.9568     3.0558    50.4778 </r>
       <r>    -2.8006     7.4228    51.6368 </r>
       <r>    -2.6445     4.4436    52.3306 </r>
       <r>    -2.4884     9.1868    53.7650 </r>
       <r>    -2.3322     6.2060    54.7340 </r>
       <r>    -2.1761     9.1021    56.1552 </r>
       <r>    -2.0200    11.4221    57.9386 </r>
       <r>    -1.8638    18.1247    60.7686 </r>
       <r>    -1.7077    31.0052    65.6097 </r>
       <r>    -1.5515    17.5224    68.3456 </r>
       <r>    -1.3954    27.8254    72.6902 </r>
       <r>    -1.2393    28.1531    77.0860 </r>
       <r>    -1.0831    25.8273    81.1186 </r>
       <r>    -0.9270    27.7969    85.4587 </r>
       <r>    -0.7708    12.3077    87.3804 </r>
       <r>    -0.6147     9.2737    88.8284 </r>
       <r>    -0.4586    24.9054    92.7171 </r>
       <r>    -0.3024     9.2673    94.1641 </r>
       <r>    -0.1463     9.2013    95.6008 </r>
       <r>     0.0098     6.9685    96.6888 </r>
       <r>     0.1660     7.2609    97.8225 </r>
       <r>     0.3221     6.6629    98.8628 </r>
       <r>     0.4783     6.8284    99.9290 </r>
       <r>     0.6344    11.7700   101.7668 </r>
       <r>     0.7905     9.6380   103.2716 </r>
       <r>     0.9467    17.7073   106.0364 </r>
       <r>     1.1028    23.9196   109.7712 </r>
       <r>     1.2590    26.5692   113.9196 </r>
       <r>     1.4151    33.0517   119.0803 </r>
       <r>     1.5712    21.4283   122.4261 </r>
       <r>     1.7274    17.1631   125.1059 </r>
       <r>     1.8835    17.4406   127.8290 </r>
       <r>     2.0396    22.7384   131.3794 </r>
       <r>     2.1958    16.8109   134.0042 </r>
       <r>     2.3519    11.9436   135.8691 </r>
       <r>     2.5081     8.8460   137.2503 </r>
       <r>     2.6642     3.1749   137.7460 </r>
       <r>     2.8203    12.0957   139.6346 </r>
       <r>     2.9765     4.9444   140.4066 </r>
       <r>     3.1326     4.6352   141.1303 </r>
       <r>     3.2888     2.7368   141.5577 </r>
       <r>     3.4449     2.4808   141.9450 </r>
       <r>     3.6010     2.3956   142.3191 </r>
       <r>     3.7572     1.0195   142.4782 </r>
       <r>     3.9133     2.3280   142.8417 </r>
       <r>     4.0694     8.0137   144.0930 </r>
       <r>     4.2256     0.5133   144.1731 </r>
       <r>     4.3817     5.2214   144.9884 </r>
       <r>     4.5379     1.3551   145.2000 </r>
       <r>     4.6940     0.0150   145.2023 </r>
       <r>     4.8501     1.0080   145.3597 </r>
       <r>     5.0063     0.7322   145.4740 </r>
       <r>     5.1624     3.3216   145.9927 </r>
       <r>     5.3186     5.6480   146.8745 </r>
       <r>     5.4747     6.2819   147.8554 </r>
       <r>     5.6308     0.2488   147.8942 </r>
       <r>     5.7870     1.0583   148.0595 </r>
       <r>     5.9431     0.5168   148.1402 </r>
       <r>     6.0992     2.5017   148.5308 </r>
       <r>     6.2554     3.9887   149.1536 </r>
       <r>     6.4115     3.6477   149.7231 </r>
       <r>     6.5677     0.6176   149.8195 </r>
       <r>     6.7238     1.1557   150.0000 </r>
       <r>     6.8799     0.0001   150.0000 </r>
       <r>     7.0361     0.0005   150.0001 </r>
       <r>     7.1922     1.7255   150.2695 </r>
       <r>     7.3484     0.8552   150.4030 </r>
       <r>     7.5045     1.8019   150.6844 </r>
       <r>     7.6606     6.2221   151.6559 </r>
       <r>     7.8168     6.1157   152.6108 </r>
       <r>     7.9729     6.6725   153.6526 </r>
       <r>     8.1290     9.4269   155.1245 </r>
       <r>     8.2852     8.5502   156.4595 </r>
       <r>     8.4413     7.3015   157.5996 </r>
       <r>     8.5975     7.3063   158.7404 </r>
       <r>     8.7536     7.7365   159.9483 </r>
       <r>     8.9097     9.2993   161.4003 </r>
       <r>     9.0659     8.5592   162.7367 </r>
       <r>     9.2220     9.6814   164.2484 </r>
       <r>     9.3782     7.8069   165.4673 </r>
       <r>     9.5343    10.5306   167.1116 </r>
       <r>     9.6904    12.8089   169.1115 </r>
       <r>     9.8466    10.8652   170.8080 </r>
       <r>    10.0027    14.7910   173.1174 </r>
       <r>    10.1588    15.9092   175.6015 </r>
       <r>    10.3150    11.1277   177.3389 </r>
       <r>    10.4711    13.7782   179.4903 </r>
       <r>    10.6273     9.1380   180.9171 </r>
       <r>    10.7834     8.6405   182.2662 </r>
       <r>    10.9395     5.4750   183.1210 </r>
       <r>    11.0957     4.6564   183.8481 </r>
       <r>    11.2518     0.9729   184.0000 </r>
       <r>    11.4080     0.0001   184.0000 </r>
       <r>    11.5641     0.0000   184.0000 </r>
       <r>    11.7202     0.0000   184.0000 </r>
       <r>    11.8764     0.0000   184.0000 </r>
       <r>    12.0325     0.0000   184.0000 </r>
       <r>    12.1886     0.0000   184.0000 </r>
       <r>    12.3448     0.0000   184.0000 </r>
       <r>    12.5009     0.0000   184.0000 </r>
       <r>    12.6571     0.0000   184.0000 </r>
       <r>    12.8132     0.0000   184.0000 </r>
       <r>    12.9693     0.0000   184.0000 </r>
       <r>    13.1255     0.0000   184.0000 </r>
       <r>    13.2816     0.0000   184.0000 </r>
      </set>
     </set>
    </array>
   </total>
  </dos>
 </calculation>
 <structure name="finalpos" >
  <crystal>
   <varray name="basis" >
    <v>       4.00000000       0.00000000       0.00000000 </v>
    <v>       0.00000000       8.00000000       0.00000000 </v>
    <v>       0.00000000       0.00000000      16.00000000 </v>
   </varray>
   <i name="volume">    512.00000000 </i>
   <varray name="rec_basis" >
    <v>       0.25000000       0.00000000       0.00000000 </v>
    <v>       0.00000000       0.12500000       0.00000000 </v>
    <v>       0.00000000       0.00000000       0.06250000 </v>
   </varray>
  </crystal>
  <varray name="positions" >
   <v>       0.00000000       0.25000000       0.25000000 </v>
   <v>       0.00000000       0.75000000       0.50000000 </v>
   <v>       0.00000000       0.75000000       0.25000000 </v>
   <v>       0.00000000       0.25000000       0.50000000 </v>
   <v>       0.00000000       0.75000000       0.75000000 </v>
   <v>       0.00000000       0.25000000       0.00000000 </v>
   <v>       0.00000000       0.25000000       0.75000000 </v>
   <v>       0.00000000       0.75000000       0.00000000 </v>
   <v>       0.50000000       0.00000000       0.62500000 </v>
   <v>       0.50000000       0.00000000       0.37500000 </v>
   <v>       0.50000000       0.50000000       0.62500000 </v>
   <v>       0.50000000       0.50000000       0.37500000 </v>
   <v>       0.50000000       0.50000000       0.12500000 </v>
   <v>       0.50000000       0.50000000       0.87500000 </v>
   <v>       0.50000000       0.00000000       0.12500000 </v>
   <v>       0.50000000       0.00000000       0.87500000 </v>
   <v>       0.50000000       0.00000000       0.50000000 </v>
   <v>       0.50000000       0.00000000       0.25000000 </v>
   <v>       0.50000000       0.50000000       0.50000000 </v>
   <v>       0.00000000       0.00000000       0.62500000 </v>
   <v>       0.00000000       0.00000000       0.37500000 </v>
   <v>       0.00000000       0.50000000       0.62500000 </v>
   <v>       0.00000000       0.50000000       0.37500000 </v>
   <v>       0.50000000       0.75000000       0.37500000 </v>
   <v>       0.50000000       0.25000000       0.37500000 </v>
   <v>       0.50000000       0.50000000       0.00000000 </v>
   <v>       0.50000000       0.50000000       0.75000000 </v>
   <v>       0.50000000       0.00000000       0.00000000 </v>
   <v>       0.00000000       0.50000000       0.12500000 </v>
   <v>       0.00000000       0.50000000       0.87500000 </v>
   <v>       0.00000000       0.00000000       0.12500000 </v>
   <v>       0.00000000       0.00000000       0.87500000 </v>
   <v>       0.50000000       0.25000000       0.87500000 </v>
   <v>       0.50000000       0.75000000       0.87500000 </v>
  </varray>
 </structure>
</modeling>
