<?xml version="1.0" encoding="ISO-8859-1"?>
<modeling>
 <generator>
  <i name="program" type="string">vasp </i>
  <i name="version" type="string">5.3.5  </i>
  <i name="subversion" type="string">31Mar14 (build Jun 20 2014 13:15:13) complex                          parallel </i>
  <i name="platform" type="string">LinuxIFC </i>
  <i name="date" type="string">2025 11 27 </i>
  <i name="time" type="string">18:13:48 </i>
 </generator>
 <incar>
  <i type="string" name="PREC">accurate</i>
  <i type="int" name="IALGO">    68</i>
  <i type="logical" name="ADDGRID"> T  </i>
  <i type="int" name="NELM">   200</i>
  <i type="int" name="NELMIN">     4</i>
  <i type="int" name="IBRION">     2</i>
  <i name="EDIFF">      0.00000100</i>
  <i name="EDIFFG">     -0.02000000</i>
  <i type="int" name="NSW">    30</i>
  <i type="int" name="ISIF">     3</i>
  <i name="ENCUT">    500.00000000</i>
  <i type="logical" name="LREAL"> F  </i>
  <i type="int" name="ISMEAR">     1</i>
  <i name="SIGMA">      0.30000000</i>
  <i type="logical" name="LWAVE"> F  </i>
  <i type="logical" name="LCHARG"> F  </i>
  <i type="int" name="NELM">   200</i>
 </incar>
 <kpoints>
  <generation param="Auto">
   <i name="subdivisionlength">     70.00000000 </i>
   <v type="int" name="divisions">      25       12       12 </v>
   <v name="usershift">      0.00000000       0.00000000       0.00000000 </v>
   <v name="genvec1">      0.04000000       0.00000000       0.00000000 </v>
   <v name="genvec2">      0.00000000       0.08333333       0.00000000 </v>
   <v name="genvec3">      0.00000000       0.00000000       0.08333333 </v>
   <v name="shift">      0.00000000       0.00000000       0.00000000 </v>
  </generation>
  <varray name="kpointlist" >
   <v>       0.00000000       0.00000000       0.00000000 </v>
   <v>       0.04000000       0.00000000       0.00000000 </v>
   <v>       0.08000000       0.00000000       0.00000000 </v>
   <v>       0.12000000       0.00000000       0.00000000 </v>
   <v>       0.16000000       0.00000000       0.00000000 </v>
   <v>       0.20000000       0.00000000       0.00000000 </v>
   <v>       0.24000000       0.00000000       0.00000000 </v>
   <v>       0.28000000       0.00000000       0.00000000 </v>
   <v>       0.32000000       0.00000000       0.00000000 </v>
   <v>       0.36000000       0.00000000       0.00000000 </v>
   <v>       0.40000000       0.00000000       0.00000000 </v>
   <v>       0.44000000       0.00000000       0.00000000 </v>
   <v>       0.48000000       0.00000000       0.00000000 </v>
   <v>       0.00000000       0.08333333       0.00000000 </v>
   <v>       0.04000000       0.08333333       0.00000000 </v>
   <v>       0.08000000       0.08333333       0.00000000 </v>
   <v>       0.12000000       0.08333333       0.00000000 </v>
   <v>       0.16000000       0.08333333       0.00000000 </v>
   <v>       0.20000000       0.08333333       0.00000000 </v>
   <v>       0.24000000       0.08333333       0.00000000 </v>
   <v>       0.28000000       0.08333333       0.00000000 </v>
   <v>       0.32000000       0.08333333       0.00000000 </v>
   <v>       0.36000000       0.08333333       0.00000000 </v>
   <v>       0.40000000       0.08333333       0.00000000 </v>
   <v>       0.44000000       0.08333333       0.00000000 </v>
   <v>       0.48000000       0.08333333       0.00000000 </v>
   <v>      -0.48000000       0.08333333       0.00000000 </v>
   <v>      -0.44000000       0.08333333       0.00000000 </v>
   <v>      -0.40000000       0.08333333       0.00000000 </v>
   <v>      -0.36000000       0.08333333       0.00000000 </v>
   <v>      -0.32000000       0.08333333       0.00000000 </v>
   <v>      -0.28000000       0.08333333       0.00000000 </v>
   <v>      -0.24000000       0.08333333       0.00000000 </v>
   <v>      -0.20000000       0.08333333       0.00000000 </v>
   <v>      -0.16000000       0.08333333       0.00000000 </v>
   <v>      -0.12000000       0.08333333       0.00000000 </v>
   <v>      -0.08000000       0.08333333       0.00000000 </v>
   <v>      -0.04000000       0.08333333       0.00000000 </v>
   <v>       0.00000000       0.16666667       0.00000000 </v>
   <v>       0.04000000       0.16666667       0.00000000 </v>
   <v>       0.08000000       0.16666667       0.00000000 </v>
   <v>       0.12000000       0.16666667       0.00000000 </v>
   <v>       0.16000000       0.16666667       0.00000000 </v>
   <v>       0.20000000       0.16666667       0.00000000 </v>
   <v>       0.24000000       0.16666667       0.00000000 </v>
   <v>       0.28000000       0.16666667       0.00000000 </v>
   <v>       0.32000000       0.16666667       0.00000000 </v>
   <v>       0.36000000       0.16666667       0.00000000 </v>
   <v>       0.40000000       0.16666667       0.00000000 </v>
   <v>       0.44000000       0.16666667       0.00000000 </v>
   <v>       0.48000000       0.16666667       0.00000000 </v>
   <v>      -0.48000000       0.16666667       0.00000000 </v>
   <v>      -0.44000000       0.16666667       0.00000000 </v>
   <v>      -0.40000000       0.16666667       0.00000000 </v>
   <v>      -0.36000000       0.16666667       0.00000000 </v>
   <v>      -0.32000000       0.16666667       0.00000000 </v>
   <v>      -0.28000000       0.16666667       0.00000000 </v>
   <v>      -0.24000000       0.16666667       0.00000000 </v>
   <v>      -0.20000000       0.16666667       0.00000000 </v>
   <v>      -0.16000000       0.16666667       0.00000000 </v>
   <v>      -0.12000000       0.16666667       0.00000000 </v>
   <v>      -0.08000000       0.16666667       0.00000000 </v>
   <v>      -0.04000000       0.16666667       0.00000000 </v>
   <v>       0.00000000       0.25000000       0.00000000 </v>
   <v>       0.04000000       0.25000000       0.00000000 </v>
   <v>       0.08000000       0.25000000       0.00000000 </v>
   <v>       0.12000000       0.25000000       0.00000000 </v>
   <v>       0.16000000       0.25000000       0.00000000 </v>
   <v>       0.20000000       0.25000000       0.00000000 </v>
   <v>       0.24000000       0.25000000       0.00000000 </v>
   <v>       0.28000000       0.25000000       0.00000000 </v>
   <v>       0.32000000       0.25000000       0.00000000 </v>
   <v>       0.36000000       0.25000000       0.00000000 </v>
   <v>       0.40000000       0.25000000       0.00000000 </v>
   <v>       0.44000000       0.25000000       0.00000000 </v>
   <v>       0.48000000       0.25000000       0.00000000 </v>
   <v>      -0.48000000       0.25000000       0.00000000 </v>
   <v>      -0.44000000       0.25000000       0.00000000 </v>
   <v>      -0.40000000       0.25000000       0.00000000 </v>
   <v>      -0.36000000       0.25000000       0.00000000 </v>
   <v>      -0.32000000       0.25000000       0.00000000 </v>
   <v>      -0.28000000       0.25000000       0.00000000 </v>
   <v>      -0.24000000       0.25000000       0.00000000 </v>
   <v>      -0.20000000       0.25000000       0.00000000 </v>
   <v>      -0.16000000       0.25000000       0.00000000 </v>
   <v>      -0.12000000       0.25000000       0.00000000 </v>
   <v>      -0.08000000       0.25000000       0.00000000 </v>
   <v>      -0.04000000       0.25000000       0.00000000 </v>
   <v>       0.00000000       0.33333333       0.00000000 </v>
   <v>       0.04000000       0.33333333       0.00000000 </v>
   <v>       0.08000000       0.33333333       0.00000000 </v>
   <v>       0.12000000       0.33333333       0.00000000 </v>
   <v>       0.16000000       0.33333333       0.00000000 </v>
   <v>       0.20000000       0.33333333       0.00000000 </v>
   <v>       0.24000000       0.33333333       0.00000000 </v>
   <v>       0.28000000       0.33333333       0.00000000 </v>
   <v>       0.32000000       0.33333333       0.00000000 </v>
   <v>       0.36000000       0.33333333       0.00000000 </v>
   <v>       0.40000000       0.33333333       0.00000000 </v>
   <v>       0.44000000       0.33333333       0.00000000 </v>
   <v>       0.48000000       0.33333333       0.00000000 </v>
   <v>      -0.48000000       0.33333333       0.00000000 </v>
   <v>      -0.44000000       0.33333333       0.00000000 </v>
   <v>      -0.40000000       0.33333333       0.00000000 </v>
   <v>      -0.36000000       0.33333333       0.00000000 </v>
   <v>      -0.32000000       0.33333333       0.00000000 </v>
   <v>      -0.28000000       0.33333333       0.00000000 </v>
   <v>      -0.24000000       0.33333333       0.00000000 </v>
   <v>      -0.20000000       0.33333333       0.00000000 </v>
   <v>      -0.16000000       0.33333333       0.00000000 </v>
   <v>      -0.12000000       0.33333333       0.00000000 </v>
   <v>      -0.08000000       0.33333333       0.00000000 </v>
   <v>      -0.04000000       0.33333333       0.00000000 </v>
   <v>       0.00000000       0.41666667       0.00000000 </v>
   <v>       0.04000000       0.41666667       0.00000000 </v>
   <v>       0.08000000       0.41666667       0.00000000 </v>
   <v>       0.12000000       0.41666667       0.00000000 </v>
   <v>       0.16000000       0.41666667       0.00000000 </v>
   <v>       0.20000000       0.41666667       0.00000000 </v>
   <v>       0.24000000       0.41666667       0.00000000 </v>
   <v>       0.28000000       0.41666667       0.00000000 </v>
   <v>       0.32000000       0.41666667       0.00000000 </v>
   <v>       0.36000000       0.41666667       0.00000000 </v>
   <v>       0.40000000       0.41666667       0.00000000 </v>
   <v>       0.44000000       0.41666667       0.00000000 </v>
   <v>       0.48000000       0.41666667       0.00000000 </v>
   <v>      -0.48000000       0.41666667       0.00000000 </v>
   <v>      -0.44000000       0.41666667       0.00000000 </v>
   <v>      -0.40000000       0.41666667       0.00000000 </v>
   <v>      -0.36000000       0.41666667       0.00000000 </v>
   <v>      -0.32000000       0.41666667       0.00000000 </v>
   <v>      -0.28000000       0.41666667       0.00000000 </v>
   <v>      -0.24000000       0.41666667       0.00000000 </v>
   <v>      -0.20000000       0.41666667       0.00000000 </v>
   <v>      -0.16000000       0.41666667       0.00000000 </v>
   <v>      -0.12000000       0.41666667       0.00000000 </v>
   <v>      -0.08000000       0.41666667       0.00000000 </v>
   <v>      -0.04000000       0.41666667       0.00000000 </v>
   <v>       0.00000000       0.50000000       0.00000000 </v>
   <v>       0.04000000       0.50000000       0.00000000 </v>
   <v>       0.08000000       0.50000000       0.00000000 </v>
   <v>       0.12000000       0.50000000       0.00000000 </v>
   <v>       0.16000000       0.50000000       0.00000000 </v>
   <v>       0.20000000       0.50000000       0.00000000 </v>
   <v>       0.24000000       0.50000000       0.00000000 </v>
   <v>       0.28000000       0.50000000       0.00000000 </v>
   <v>       0.32000000       0.50000000       0.00000000 </v>
   <v>       0.36000000       0.50000000       0.00000000 </v>
   <v>       0.40000000       0.50000000       0.00000000 </v>
   <v>       0.44000000       0.50000000       0.00000000 </v>
   <v>       0.48000000       0.50000000       0.00000000 </v>
   <v>       0.00000000       0.00000000       0.08333333 </v>
   <v>       0.04000000       0.00000000       0.08333333 </v>
   <v>       0.08000000       0.00000000       0.08333333 </v>
   <v>       0.12000000       0.00000000       0.08333333 </v>
   <v>       0.16000000       0.00000000       0.08333333 </v>
   <v>       0.20000000       0.00000000       0.08333333 </v>
   <v>       0.24000000       0.00000000       0.08333333 </v>
   <v>       0.28000000       0.00000000       0.08333333 </v>
   <v>       0.32000000       0.00000000       0.08333333 </v>
   <v>       0.36000000       0.00000000       0.08333333 </v>
   <v>       0.40000000       0.00000000       0.08333333 </v>
   <v>       0.44000000       0.00000000       0.08333333 </v>
   <v>       0.48000000       0.00000000       0.08333333 </v>
   <v>      -0.48000000       0.00000000       0.08333333 </v>
   <v>      -0.44000000       0.00000000       0.08333333 </v>
   <v>      -0.40000000       0.00000000       0.08333333 </v>
   <v>      -0.36000000       0.00000000       0.08333333 </v>
   <v>      -0.32000000       0.00000000       0.08333333 </v>
   <v>      -0.28000000       0.00000000       0.08333333 </v>
   <v>      -0.24000000       0.00000000       0.08333333 </v>
   <v>      -0.20000000       0.00000000       0.08333333 </v>
   <v>      -0.16000000       0.00000000       0.08333333 </v>
   <v>      -0.12000000       0.00000000       0.08333333 </v>
   <v>      -0.08000000       0.00000000       0.08333333 </v>
   <v>      -0.04000000       0.00000000       0.08333333 </v>
   <v>       0.00000000       0.08333333       0.08333333 </v>
   <v>       0.04000000       0.08333333       0.08333333 </v>
   <v>       0.08000000       0.08333333       0.08333333 </v>
   <v>       0.12000000       0.08333333       0.08333333 </v>
   <v>       0.16000000       0.08333333       0.08333333 </v>
   <v>       0.20000000       0.08333333       0.08333333 </v>
   <v>       0.24000000       0.08333333       0.08333333 </v>
   <v>       0.28000000       0.08333333       0.08333333 </v>
   <v>       0.32000000       0.08333333       0.08333333 </v>
   <v>       0.36000000       0.08333333       0.08333333 </v>
   <v>       0.40000000       0.08333333       0.08333333 </v>
   <v>       0.44000000       0.08333333       0.08333333 </v>
   <v>       0.48000000       0.08333333       0.08333333 </v>
   <v>      -0.48000000       0.08333333       0.08333333 </v>
   <v>      -0.44000000       0.08333333       0.08333333 </v>
   <v>      -0.40000000       0.08333333       0.08333333 </v>
   <v>      -0.36000000       0.08333333       0.08333333 </v>
   <v>      -0.32000000       0.08333333       0.08333333 </v>
   <v>      -0.28000000       0.08333333       0.08333333 </v>
   <v>      -0.24000000       0.08333333       0.08333333 </v>
   <v>      -0.20000000       0.08333333       0.08333333 </v>
   <v>      -0.16000000       0.08333333       0.08333333 </v>
   <v>      -0.12000000       0.08333333       0.08333333 </v>
   <v>      -0.08000000       0.08333333       0.08333333 </v>
   <v>      -0.04000000       0.08333333       0.08333333 </v>
   <v>       0.00000000       0.16666667       0.08333333 </v>
   <v>       0.04000000       0.16666667       0.08333333 </v>
   <v>       0.08000000       0.16666667       0.08333333 </v>
   <v>       0.12000000       0.16666667       0.08333333 </v>
   <v>       0.16000000       0.16666667       0.08333333 </v>
   <v>       0.20000000       0.16666667       0.08333333 </v>
   <v>       0.24000000       0.16666667       0.08333333 </v>
   <v>       0.28000000       0.16666667       0.08333333 </v>
   <v>       0.32000000       0.16666667       0.08333333 </v>
   <v>       0.36000000       0.16666667       0.08333333 </v>
   <v>       0.40000000       0.16666667       0.08333333 </v>
   <v>       0.44000000       0.16666667       0.08333333 </v>
   <v>       0.48000000       0.16666667       0.08333333 </v>
   <v>      -0.48000000       0.16666667       0.08333333 </v>
   <v>      -0.44000000       0.16666667       0.08333333 </v>
   <v>      -0.40000000       0.16666667       0.08333333 </v>
   <v>      -0.36000000       0.16666667       0.08333333 </v>
   <v>      -0.32000000       0.16666667       0.08333333 </v>
   <v>      -0.28000000       0.16666667       0.08333333 </v>
   <v>      -0.24000000       0.16666667       0.08333333 </v>
   <v>      -0.20000000       0.16666667       0.08333333 </v>
   <v>      -0.16000000       0.16666667       0.08333333 </v>
   <v>      -0.12000000       0.16666667       0.08333333 </v>
   <v>      -0.08000000       0.16666667       0.08333333 </v>
   <v>      -0.04000000       0.16666667       0.08333333 </v>
   <v>       0.00000000       0.25000000       0.08333333 </v>
   <v>       0.04000000       0.25000000       0.08333333 </v>
   <v>       0.08000000       0.25000000       0.08333333 </v>
   <v>       0.12000000       0.25000000       0.08333333 </v>
   <v>       0.16000000       0.25000000       0.08333333 </v>
   <v>       0.20000000       0.25000000       0.08333333 </v>
   <v>       0.24000000       0.25000000       0.08333333 </v>
   <v>       0.28000000       0.25000000       0.08333333 </v>
   <v>       0.32000000       0.25000000       0.08333333 </v>
   <v>       0.36000000       0.25000000       0.08333333 </v>
   <v>       0.40000000       0.25000000       0.08333333 </v>
   <v>       0.44000000       0.25000000       0.08333333 </v>
   <v>       0.48000000       0.25000000       0.08333333 </v>
   <v>      -0.48000000       0.25000000       0.08333333 </v>
   <v>      -0.44000000       0.25000000       0.08333333 </v>
   <v>      -0.40000000       0.25000000       0.08333333 </v>
   <v>      -0.36000000       0.25000000       0.08333333 </v>
   <v>      -0.32000000       0.25000000       0.08333333 </v>
   <v>      -0.28000000       0.25000000       0.08333333 </v>
   <v>      -0.24000000       0.25000000       0.08333333 </v>
   <v>      -0.20000000       0.25000000       0.08333333 </v>
   <v>      -0.16000000       0.25000000       0.08333333 </v>
   <v>      -0.12000000       0.25000000       0.08333333 </v>
   <v>      -0.08000000       0.25000000       0.08333333 </v>
   <v>      -0.04000000       0.25000000       0.08333333 </v>
   <v>       0.00000000       0.33333333       0.08333333 </v>
   <v>       0.04000000       0.33333333       0.08333333 </v>
   <v>       0.08000000       0.33333333       0.08333333 </v>
   <v>       0.12000000       0.33333333       0.08333333 </v>
   <v>       0.16000000       0.33333333       0.08333333 </v>
   <v>       0.20000000       0.33333333       0.08333333 </v>
   <v>       0.24000000       0.33333333       0.08333333 </v>
   <v>       0.28000000       0.33333333       0.08333333 </v>
   <v>       0.32000000       0.33333333       0.08333333 </v>
   <v>       0.36000000       0.33333333       0.08333333 </v>
   <v>       0.40000000       0.33333333       0.08333333 </v>
   <v>       0.44000000       0.33333333       0.08333333 </v>
   <v>       0.48000000       0.33333333       0.08333333 </v>
   <v>      -0.48000000       0.33333333       0.08333333 </v>
   <v>      -0.44000000       0.33333333       0.08333333 </v>
   <v>      -0.40000000       0.33333333       0.08333333 </v>
   <v>      -0.36000000       0.33333333       0.08333333 </v>
   <v>      -0.32000000       0.33333333       0.08333333 </v>
   <v>      -0.28000000       0.33333333       0.08333333 </v>
   <v>      -0.24000000       0.33333333       0.08333333 </v>
   <v>      -0.20000000       0.33333333       0.08333333 </v>
   <v>      -0.16000000       0.33333333       0.08333333 </v>
   <v>      -0.12000000       0.33333333       0.08333333 </v>
   <v>      -0.08000000       0.33333333       0.08333333 </v>
   <v>      -0.04000000       0.33333333       0.08333333 </v>
   <v>       0.00000000       0.41666667       0.08333333 </v>
   <v>       0.04000000       0.41666667       0.08333333 </v>
   <v>       0.08000000       0.41666667       0.08333333 </v>
   <v>       0.12000000       0.41666667       0.08333333 </v>
   <v>       0.16000000       0.41666667       0.08333333 </v>
   <v>       0.20000000       0.41666667       0.08333333 </v>
   <v>       0.24000000       0.41666667       0.08333333 </v>
   <v>       0.28000000       0.41666667       0.08333333 </v>
   <v>       0.32000000       0.41666667       0.08333333 </v>
   <v>       0.36000000       0.41666667       0.08333333 </v>
   <v>       0.40000000       0.41666667       0.08333333 </v>
   <v>       0.44000000       0.41666667       0.08333333 </v>
   <v>       0.48000000       0.41666667       0.08333333 </v>
   <v>      -0.48000000       0.41666667       0.08333333 </v>
   <v>      -0.44000000       0.41666667       0.08333333 </v>
   <v>      -0.40000000       0.41666667       0.08333333 </v>
   <v>      -0.36000000       0.41666667       0.08333333 </v>
   <v>      -0.32000000       0.41666667       0.08333333 </v>
   <v>      -0.28000000       0.41666667       0.08333333 </v>
   <v>      -0.24000000       0.41666667       0.08333333 </v>
   <v>      -0.20000000       0.41666667       0.08333333 </v>
   <v>      -0.16000000       0.41666667       0.08333333 </v>
   <v>      -0.12000000       0.41666667       0.08333333 </v>
   <v>      -0.08000000       0.41666667       0.08333333 </v>
   <v>      -0.04000000       0.41666667       0.08333333 </v>
   <v>       0.00000000       0.50000000       0.08333333 </v>
   <v>       0.04000000       0.50000000       0.08333333 </v>
   <v>       0.08000000       0.50000000       0.08333333 </v>
   <v>       0.12000000       0.50000000       0.08333333 </v>
   <v>       0.16000000       0.50000000       0.08333333 </v>
   <v>       0.20000000       0.50000000       0.08333333 </v>
   <v>       0.24000000       0.50000000       0.08333333 </v>
   <v>       0.28000000       0.50000000       0.08333333 </v>
   <v>       0.32000000       0.50000000       0.08333333 </v>
   <v>       0.36000000       0.50000000       0.08333333 </v>
   <v>       0.40000000       0.50000000       0.08333333 </v>
   <v>       0.44000000       0.50000000       0.08333333 </v>
   <v>       0.48000000       0.50000000       0.08333333 </v>
   <v>      -0.48000000       0.50000000       0.08333333 </v>
   <v>      -0.44000000       0.50000000       0.08333333 </v>
   <v>      -0.40000000       0.50000000       0.08333333 </v>
   <v>      -0.36000000       0.50000000       0.08333333 </v>
   <v>      -0.32000000       0.50000000       0.08333333 </v>
   <v>      -0.28000000       0.50000000       0.08333333 </v>
   <v>      -0.24000000       0.50000000       0.08333333 </v>
   <v>      -0.20000000       0.50000000       0.08333333 </v>
   <v>      -0.16000000       0.50000000       0.08333333 </v>
   <v>      -0.12000000       0.50000000       0.08333333 </v>
   <v>      -0.08000000       0.50000000       0.08333333 </v>
   <v>      -0.04000000       0.50000000       0.08333333 </v>
   <v>       0.00000000      -0.41666667       0.08333333 </v>
   <v>       0.04000000      -0.41666667       0.08333333 </v>
   <v>       0.08000000      -0.41666667       0.08333333 </v>
   <v>       0.12000000      -0.41666667       0.08333333 </v>
   <v>       0.16000000      -0.41666667       0.08333333 </v>
   <v>       0.20000000      -0.41666667       0.08333333 </v>
   <v>       0.24000000      -0.41666667       0.08333333 </v>
   <v>       0.28000000      -0.41666667       0.08333333 </v>
   <v>       0.32000000      -0.41666667       0.08333333 </v>
   <v>       0.36000000      -0.41666667       0.08333333 </v>
   <v>       0.40000000      -0.41666667       0.08333333 </v>
   <v>       0.44000000      -0.41666667       0.08333333 </v>
   <v>       0.48000000      -0.41666667       0.08333333 </v>
   <v>      -0.48000000      -0.41666667       0.08333333 </v>
   <v>      -0.44000000      -0.41666667       0.08333333 </v>
   <v>      -0.40000000      -0.41666667       0.08333333 </v>
   <v>      -0.36000000      -0.41666667       0.08333333 </v>
   <v>      -0.32000000      -0.41666667       0.08333333 </v>
   <v>      -0.28000000      -0.41666667       0.08333333 </v>
   <v>      -0.24000000      -0.41666667       0.08333333 </v>
   <v>      -0.20000000      -0.41666667       0.08333333 </v>
   <v>      -0.16000000      -0.41666667       0.08333333 </v>
   <v>      -0.12000000      -0.41666667       0.08333333 </v>
   <v>      -0.08000000      -0.41666667       0.08333333 </v>
   <v>      -0.04000000      -0.41666667       0.08333333 </v>
   <v>       0.00000000      -0.33333333       0.08333333 </v>
   <v>       0.04000000      -0.33333333       0.08333333 </v>
   <v>       0.08000000      -0.33333333       0.08333333 </v>
   <v>       0.12000000      -0.33333333       0.08333333 </v>
   <v>       0.16000000      -0.33333333       0.08333333 </v>
   <v>       0.20000000      -0.33333333       0.08333333 </v>
   <v>       0.24000000      -0.33333333       0.08333333 </v>
   <v>       0.28000000      -0.33333333       0.08333333 </v>
   <v>       0.32000000      -0.33333333       0.08333333 </v>
   <v>       0.36000000      -0.33333333       0.08333333 </v>
   <v>       0.40000000      -0.33333333       0.08333333 </v>
   <v>       0.44000000      -0.33333333       0.08333333 </v>
   <v>       0.48000000      -0.33333333       0.08333333 </v>
   <v>      -0.48000000      -0.33333333       0.08333333 </v>
   <v>      -0.44000000      -0.33333333       0.08333333 </v>
   <v>      -0.40000000      -0.33333333       0.08333333 </v>
   <v>      -0.36000000      -0.33333333       0.08333333 </v>
   <v>      -0.32000000      -0.33333333       0.08333333 </v>
   <v>      -0.28000000      -0.33333333       0.08333333 </v>
   <v>      -0.24000000      -0.33333333       0.08333333 </v>
   <v>      -0.20000000      -0.33333333       0.08333333 </v>
   <v>      -0.16000000      -0.33333333       0.08333333 </v>
   <v>      -0.12000000      -0.33333333       0.08333333 </v>
   <v>      -0.08000000      -0.33333333       0.08333333 </v>
   <v>      -0.04000000      -0.33333333       0.08333333 </v>
   <v>       0.00000000      -0.25000000       0.08333333 </v>
   <v>       0.04000000      -0.25000000       0.08333333 </v>
   <v>       0.08000000      -0.25000000       0.08333333 </v>
   <v>       0.12000000      -0.25000000       0.08333333 </v>
   <v>       0.16000000      -0.25000000       0.08333333 </v>
   <v>       0.20000000      -0.25000000       0.08333333 </v>
   <v>       0.24000000      -0.25000000       0.08333333 </v>
   <v>       0.28000000      -0.25000000       0.08333333 </v>
   <v>       0.32000000      -0.25000000       0.08333333 </v>
   <v>       0.36000000      -0.25000000       0.08333333 </v>
   <v>       0.40000000      -0.25000000       0.08333333 </v>
   <v>       0.44000000      -0.25000000       0.08333333 </v>
   <v>       0.48000000      -0.25000000       0.08333333 </v>
   <v>      -0.48000000      -0.25000000       0.08333333 </v>
   <v>      -0.44000000      -0.25000000       0.08333333 </v>
   <v>      -0.40000000      -0.25000000       0.08333333 </v>
   <v>      -0.36000000      -0.25000000       0.08333333 </v>
   <v>      -0.32000000      -0.25000000       0.08333333 </v>
   <v>      -0.28000000      -0.25000000       0.08333333 </v>
   <v>      -0.24000000      -0.25000000       0.08333333 </v>
   <v>      -0.20000000      -0.25000000       0.08333333 </v>
   <v>      -0.16000000      -0.25000000       0.08333333 </v>
   <v>      -0.12000000      -0.25000000       0.08333333 </v>
   <v>      -0.08000000      -0.25000000       0.08333333 </v>
   <v>      -0.04000000      -0.25000000       0.08333333 </v>
   <v>       0.00000000      -0.16666667       0.08333333 </v>
   <v>       0.04000000      -0.16666667       0.08333333 </v>
   <v>       0.08000000      -0.16666667       0.08333333 </v>
   <v>       0.12000000      -0.16666667       0.08333333 </v>
   <v>       0.16000000      -0.16666667       0.08333333 </v>
   <v>       0.20000000      -0.16666667       0.08333333 </v>
   <v>       0.24000000      -0.16666667       0.08333333 </v>
   <v>       0.28000000      -0.16666667       0.08333333 </v>
   <v>       0.32000000      -0.16666667       0.08333333 </v>
   <v>       0.36000000      -0.16666667       0.08333333 </v>
   <v>       0.40000000      -0.16666667       0.08333333 </v>
   <v>       0.44000000      -0.16666667       0.08333333 </v>
   <v>       0.48000000      -0.16666667       0.08333333 </v>
   <v>      -0.48000000      -0.16666667       0.08333333 </v>
   <v>      -0.44000000      -0.16666667       0.08333333 </v>
   <v>      -0.40000000      -0.16666667       0.08333333 </v>
   <v>      -0.36000000      -0.16666667       0.08333333 </v>
   <v>      -0.32000000      -0.16666667       0.08333333 </v>
   <v>      -0.28000000      -0.16666667       0.08333333 </v>
   <v>      -0.24000000      -0.16666667       0.08333333 </v>
   <v>      -0.20000000      -0.16666667       0.08333333 </v>
   <v>      -0.16000000      -0.16666667       0.08333333 </v>
   <v>      -0.12000000      -0.16666667       0.08333333 </v>
   <v>      -0.08000000      -0.16666667       0.08333333 </v>
   <v>      -0.04000000      -0.16666667       0.08333333 </v>
   <v>       0.00000000      -0.08333333       0.08333333 </v>
   <v>       0.04000000      -0.08333333       0.08333333 </v>
   <v>       0.08000000      -0.08333333       0.08333333 </v>
   <v>       0.12000000      -0.08333333       0.08333333 </v>
   <v>       0.16000000      -0.08333333       0.08333333 </v>
   <v>       0.20000000      -0.08333333       0.08333333 </v>
   <v>       0.24000000      -0.08333333       0.08333333 </v>
   <v>       0.28000000      -0.08333333       0.08333333 </v>
   <v>       0.32000000      -0.08333333       0.08333333 </v>
   <v>       0.36000000      -0.08333333       0.08333333 </v>
   <v>       0.40000000      -0.08333333       0.08333333 </v>
   <v>       0.44000000      -0.08333333       0.08333333 </v>
   <v>       0.48000000      -0.08333333       0.08333333 </v>
   <v>      -0.48000000      -0.08333333       0.08333333 </v>
   <v>      -0.44000000      -0.08333333       0.08333333 </v>
   <v>      -0.40000000      -0.08333333       0.08333333 </v>
   <v>      -0.36000000      -0.08333333       0.08333333 </v>
   <v>      -0.32000000      -0.08333333       0.08333333 </v>
   <v>      -0.28000000      -0.08333333       0.08333333 </v>
   <v>      -0.24000000      -0.08333333       0.08333333 </v>
   <v>      -0.20000000      -0.08333333       0.08333333 </v>
   <v>      -0.16000000      -0.08333333       0.08333333 </v>
   <v>      -0.12000000      -0.08333333       0.08333333 </v>
   <v>      -0.08000000      -0.08333333       0.08333333 </v>
   <v>      -0.04000000      -0.08333333       0.08333333 </v>
   <v>       0.00000000       0.00000000       0.16666667 </v>
   <v>       0.04000000       0.00000000       0.16666667 </v>
   <v>       0.08000000       0.00000000       0.16666667 </v>
   <v>       0.12000000       0.00000000       0.16666667 </v>
   <v>       0.16000000       0.00000000       0.16666667 </v>
   <v>       0.20000000       0.00000000       0.16666667 </v>
   <v>       0.24000000       0.00000000       0.16666667 </v>
   <v>       0.28000000       0.00000000       0.16666667 </v>
   <v>       0.32000000       0.00000000       0.16666667 </v>
   <v>       0.36000000       0.00000000       0.16666667 </v>
   <v>       0.40000000       0.00000000       0.16666667 </v>
   <v>       0.44000000       0.00000000       0.16666667 </v>
   <v>       0.48000000       0.00000000       0.16666667 </v>
   <v>      -0.48000000       0.00000000       0.16666667 </v>
   <v>      -0.44000000       0.00000000       0.16666667 </v>
   <v>      -0.40000000       0.00000000       0.16666667 </v>
   <v>      -0.36000000       0.00000000       0.16666667 </v>
   <v>      -0.32000000       0.00000000       0.16666667 </v>
   <v>      -0.28000000       0.00000000       0.16666667 </v>
   <v>      -0.24000000       0.00000000       0.16666667 </v>
   <v>      -0.20000000       0.00000000       0.16666667 </v>
   <v>      -0.16000000       0.00000000       0.16666667 </v>
   <v>      -0.12000000       0.00000000       0.16666667 </v>
   <v>      -0.08000000       0.00000000       0.16666667 </v>
   <v>      -0.04000000       0.00000000       0.16666667 </v>
   <v>       0.00000000       0.08333333       0.16666667 </v>
   <v>       0.04000000       0.08333333       0.16666667 </v>
   <v>       0.08000000       0.08333333       0.16666667 </v>
   <v>       0.12000000       0.08333333       0.16666667 </v>
   <v>       0.16000000       0.08333333       0.16666667 </v>
   <v>       0.20000000       0.08333333       0.16666667 </v>
   <v>       0.24000000       0.08333333       0.16666667 </v>
   <v>       0.28000000       0.08333333       0.16666667 </v>
   <v>       0.32000000       0.08333333       0.16666667 </v>
   <v>       0.36000000       0.08333333       0.16666667 </v>
   <v>       0.40000000       0.08333333       0.16666667 </v>
   <v>       0.44000000       0.08333333       0.16666667 </v>
   <v>       0.48000000       0.08333333       0.16666667 </v>
   <v>      -0.48000000       0.08333333       0.16666667 </v>
   <v>      -0.44000000       0.08333333       0.16666667 </v>
   <v>      -0.40000000       0.08333333       0.16666667 </v>
   <v>      -0.36000000       0.08333333       0.16666667 </v>
   <v>      -0.32000000       0.08333333       0.16666667 </v>
   <v>      -0.28000000       0.08333333       0.16666667 </v>
   <v>      -0.24000000       0.08333333       0.16666667 </v>
   <v>      -0.20000000       0.08333333       0.16666667 </v>
   <v>      -0.16000000       0.08333333       0.16666667 </v>
   <v>      -0.12000000       0.08333333       0.16666667 </v>
   <v>      -0.08000000       0.08333333       0.16666667 </v>
   <v>      -0.04000000       0.08333333       0.16666667 </v>
   <v>       0.00000000       0.16666667       0.16666667 </v>
   <v>       0.04000000       0.16666667       0.16666667 </v>
   <v>       0.08000000       0.16666667       0.16666667 </v>
   <v>       0.12000000       0.16666667       0.16666667 </v>
   <v>       0.16000000       0.16666667       0.16666667 </v>
   <v>       0.20000000       0.16666667       0.16666667 </v>
   <v>       0.24000000       0.16666667       0.16666667 </v>
   <v>       0.28000000       0.16666667       0.16666667 </v>
   <v>       0.32000000       0.16666667       0.16666667 </v>
   <v>       0.36000000       0.16666667       0.16666667 </v>
   <v>       0.40000000       0.16666667       0.16666667 </v>
   <v>       0.44000000       0.16666667       0.16666667 </v>
   <v>       0.48000000       0.16666667       0.16666667 </v>
   <v>      -0.48000000       0.16666667       0.16666667 </v>
   <v>      -0.44000000       0.16666667       0.16666667 </v>
   <v>      -0.40000000       0.16666667       0.16666667 </v>
   <v>      -0.36000000       0.16666667       0.16666667 </v>
   <v>      -0.32000000       0.16666667       0.16666667 </v>
   <v>      -0.28000000       0.16666667       0.16666667 </v>
   <v>      -0.24000000       0.16666667       0.16666667 </v>
   <v>      -0.20000000       0.16666667       0.16666667 </v>
   <v>      -0.16000000       0.16666667       0.16666667 </v>
   <v>      -0.12000000       0.16666667       0.16666667 </v>
   <v>      -0.08000000       0.16666667       0.16666667 </v>
   <v>      -0.04000000       0.16666667       0.16666667 </v>
   <v>       0.00000000       0.25000000       0.16666667 </v>
   <v>       0.04000000       0.25000000       0.16666667 </v>
   <v>       0.08000000       0.25000000       0.16666667 </v>
   <v>       0.12000000       0.25000000       0.16666667 </v>
   <v>       0.16000000       0.25000000       0.16666667 </v>
   <v>       0.20000000       0.25000000       0.16666667 </v>
   <v>       0.24000000       0.25000000       0.16666667 </v>
   <v>       0.28000000       0.25000000       0.16666667 </v>
   <v>       0.32000000       0.25000000       0.16666667 </v>
   <v>       0.36000000       0.25000000       0.16666667 </v>
   <v>       0.40000000       0.25000000       0.16666667 </v>
   <v>       0.44000000       0.25000000       0.16666667 </v>
   <v>       0.48000000       0.25000000       0.16666667 </v>
   <v>      -0.48000000       0.25000000       0.16666667 </v>
   <v>      -0.44000000       0.25000000       0.16666667 </v>
   <v>      -0.40000000       0.25000000       0.16666667 </v>
   <v>      -0.36000000       0.25000000       0.16666667 </v>
   <v>      -0.32000000       0.25000000       0.16666667 </v>
   <v>      -0.28000000       0.25000000       0.16666667 </v>
   <v>      -0.24000000       0.25000000       0.16666667 </v>
   <v>      -0.20000000       0.25000000       0.16666667 </v>
   <v>      -0.16000000       0.25000000       0.16666667 </v>
   <v>      -0.12000000       0.25000000       0.16666667 </v>
   <v>      -0.08000000       0.25000000       0.16666667 </v>
   <v>      -0.04000000       0.25000000       0.16666667 </v>
   <v>       0.00000000       0.33333333       0.16666667 </v>
   <v>       0.04000000       0.33333333       0.16666667 </v>
   <v>       0.08000000       0.33333333       0.16666667 </v>
   <v>       0.12000000       0.33333333       0.16666667 </v>
   <v>       0.16000000       0.33333333       0.16666667 </v>
   <v>       0.20000000       0.33333333       0.16666667 </v>
   <v>       0.24000000       0.33333333       0.16666667 </v>
   <v>       0.28000000       0.33333333       0.16666667 </v>
   <v>       0.32000000       0.33333333       0.16666667 </v>
   <v>       0.36000000       0.33333333       0.16666667 </v>
   <v>       0.40000000       0.33333333       0.16666667 </v>
   <v>       0.44000000       0.33333333       0.16666667 </v>
   <v>       0.48000000       0.33333333       0.16666667 </v>
   <v>      -0.48000000       0.33333333       0.16666667 </v>
   <v>      -0.44000000       0.33333333       0.16666667 </v>
   <v>      -0.40000000       0.33333333       0.16666667 </v>
   <v>      -0.36000000       0.33333333       0.16666667 </v>
   <v>      -0.32000000       0.33333333       0.16666667 </v>
   <v>      -0.28000000       0.33333333       0.16666667 </v>
   <v>      -0.24000000       0.33333333       0.16666667 </v>
   <v>      -0.20000000       0.33333333       0.16666667 </v>
   <v>      -0.16000000       0.33333333       0.16666667 </v>
   <v>      -0.12000000       0.33333333       0.16666667 </v>
   <v>      -0.08000000       0.33333333       0.16666667 </v>
   <v>      -0.04000000       0.33333333       0.16666667 </v>
   <v>       0.00000000       0.41666667       0.16666667 </v>
   <v>       0.04000000       0.41666667       0.16666667 </v>
   <v>       0.08000000       0.41666667       0.16666667 </v>
   <v>       0.12000000       0.41666667       0.16666667 </v>
   <v>       0.16000000       0.41666667       0.16666667 </v>
   <v>       0.20000000       0.41666667       0.16666667 </v>
   <v>       0.24000000       0.41666667       0.16666667 </v>
   <v>       0.28000000       0.41666667       0.16666667 </v>
   <v>       0.32000000       0.41666667       0.16666667 </v>
   <v>       0.36000000       0.41666667       0.16666667 </v>
   <v>       0.40000000       0.41666667       0.16666667 </v>
   <v>       0.44000000       0.41666667       0.16666667 </v>
   <v>       0.48000000       0.41666667       0.16666667 </v>
   <v>      -0.48000000       0.41666667       0.16666667 </v>
   <v>      -0.44000000       0.41666667       0.16666667 </v>
   <v>      -0.40000000       0.41666667       0.16666667 </v>
   <v>      -0.36000000       0.41666667       0.16666667 </v>
   <v>      -0.32000000       0.41666667       0.16666667 </v>
   <v>      -0.28000000       0.41666667       0.16666667 </v>
   <v>      -0.24000000       0.41666667       0.16666667 </v>
   <v>      -0.20000000       0.41666667       0.16666667 </v>
   <v>      -0.16000000       0.41666667       0.16666667 </v>
   <v>      -0.12000000       0.41666667       0.16666667 </v>
   <v>      -0.08000000       0.41666667       0.16666667 </v>
   <v>      -0.04000000       0.41666667       0.16666667 </v>
   <v>       0.00000000       0.50000000       0.16666667 </v>
   <v>       0.04000000       0.50000000       0.16666667 </v>
   <v>       0.08000000       0.50000000       0.16666667 </v>
   <v>       0.12000000       0.50000000       0.16666667 </v>
   <v>       0.16000000       0.50000000       0.16666667 </v>
   <v>       0.20000000       0.50000000       0.16666667 </v>
   <v>       0.24000000       0.50000000       0.16666667 </v>
   <v>       0.28000000       0.50000000       0.16666667 </v>
   <v>       0.32000000       0.50000000       0.16666667 </v>
   <v>       0.36000000       0.50000000       0.16666667 </v>
   <v>       0.40000000       0.50000000       0.16666667 </v>
   <v>       0.44000000       0.50000000       0.16666667 </v>
   <v>       0.48000000       0.50000000       0.16666667 </v>
   <v>      -0.48000000       0.50000000       0.16666667 </v>
   <v>      -0.44000000       0.50000000       0.16666667 </v>
   <v>      -0.40000000       0.50000000       0.16666667 </v>
   <v>      -0.36000000       0.50000000       0.16666667 </v>
   <v>      -0.32000000       0.50000000       0.16666667 </v>
   <v>      -0.28000000       0.50000000       0.16666667 </v>
   <v>      -0.24000000       0.50000000       0.16666667 </v>
   <v>      -0.20000000       0.50000000       0.16666667 </v>
   <v>      -0.16000000       0.50000000       0.16666667 </v>
   <v>      -0.12000000       0.50000000       0.16666667 </v>
   <v>      -0.08000000       0.50000000       0.16666667 </v>
   <v>      -0.04000000       0.50000000       0.16666667 </v>
   <v>       0.00000000      -0.41666667       0.16666667 </v>
   <v>       0.04000000      -0.41666667       0.16666667 </v>
   <v>       0.08000000      -0.41666667       0.16666667 </v>
   <v>       0.12000000      -0.41666667       0.16666667 </v>
   <v>       0.16000000      -0.41666667       0.16666667 </v>
   <v>       0.20000000      -0.41666667       0.16666667 </v>
   <v>       0.24000000      -0.41666667       0.16666667 </v>
   <v>       0.28000000      -0.41666667       0.16666667 </v>
   <v>       0.32000000      -0.41666667       0.16666667 </v>
   <v>       0.36000000      -0.41666667       0.16666667 </v>
   <v>       0.40000000      -0.41666667       0.16666667 </v>
   <v>       0.44000000      -0.41666667       0.16666667 </v>
   <v>       0.48000000      -0.41666667       0.16666667 </v>
   <v>      -0.48000000      -0.41666667       0.16666667 </v>
   <v>      -0.44000000      -0.41666667       0.16666667 </v>
   <v>      -0.40000000      -0.41666667       0.16666667 </v>
   <v>      -0.36000000      -0.41666667       0.16666667 </v>
   <v>      -0.32000000      -0.41666667       0.16666667 </v>
   <v>      -0.28000000      -0.41666667       0.16666667 </v>
   <v>      -0.24000000      -0.41666667       0.16666667 </v>
   <v>      -0.20000000      -0.41666667       0.16666667 </v>
   <v>      -0.16000000      -0.41666667       0.16666667 </v>
   <v>      -0.12000000      -0.41666667       0.16666667 </v>
   <v>      -0.08000000      -0.41666667       0.16666667 </v>
   <v>      -0.04000000      -0.41666667       0.16666667 </v>
   <v>       0.00000000      -0.33333333       0.16666667 </v>
   <v>       0.04000000      -0.33333333       0.16666667 </v>
   <v>       0.08000000      -0.33333333       0.16666667 </v>
   <v>       0.12000000      -0.33333333       0.16666667 </v>
   <v>       0.16000000      -0.33333333       0.16666667 </v>
   <v>       0.20000000      -0.33333333       0.16666667 </v>
   <v>       0.24000000      -0.33333333       0.16666667 </v>
   <v>       0.28000000      -0.33333333       0.16666667 </v>
   <v>       0.32000000      -0.33333333       0.16666667 </v>
   <v>       0.36000000      -0.33333333       0.16666667 </v>
   <v>       0.40000000      -0.33333333       0.16666667 </v>
   <v>       0.44000000      -0.33333333       0.16666667 </v>
   <v>       0.48000000      -0.33333333       0.16666667 </v>
   <v>      -0.48000000      -0.33333333       0.16666667 </v>
   <v>      -0.44000000      -0.33333333       0.16666667 </v>
   <v>      -0.40000000      -0.33333333       0.16666667 </v>
   <v>      -0.36000000      -0.33333333       0.16666667 </v>
   <v>      -0.32000000      -0.33333333       0.16666667 </v>
   <v>      -0.28000000      -0.33333333       0.16666667 </v>
   <v>      -0.24000000      -0.33333333       0.16666667 </v>
   <v>      -0.20000000      -0.33333333       0.16666667 </v>
   <v>      -0.16000000      -0.33333333       0.16666667 </v>
   <v>      -0.12000000      -0.33333333       0.16666667 </v>
   <v>      -0.08000000      -0.33333333       0.16666667 </v>
   <v>      -0.04000000      -0.33333333       0.16666667 </v>
   <v>       0.00000000      -0.25000000       0.16666667 </v>
   <v>       0.04000000      -0.25000000       0.16666667 </v>
   <v>       0.08000000      -0.25000000       0.16666667 </v>
   <v>       0.12000000      -0.25000000       0.16666667 </v>
   <v>       0.16000000      -0.25000000       0.16666667 </v>
   <v>       0.20000000      -0.25000000       0.16666667 </v>
   <v>       0.24000000      -0.25000000       0.16666667 </v>
   <v>       0.28000000      -0.25000000       0.16666667 </v>
   <v>       0.32000000      -0.25000000       0.16666667 </v>
   <v>       0.36000000      -0.25000000       0.16666667 </v>
   <v>       0.40000000      -0.25000000       0.16666667 </v>
   <v>       0.44000000      -0.25000000       0.16666667 </v>
   <v>       0.48000000      -0.25000000       0.16666667 </v>
   <v>      -0.48000000      -0.25000000       0.16666667 </v>
   <v>      -0.44000000      -0.25000000       0.16666667 </v>
   <v>      -0.40000000      -0.25000000       0.16666667 </v>
   <v>      -0.36000000      -0.25000000       0.16666667 </v>
   <v>      -0.32000000      -0.25000000       0.16666667 </v>
   <v>      -0.28000000      -0.25000000       0.16666667 </v>
   <v>      -0.24000000      -0.25000000       0.16666667 </v>
   <v>      -0.20000000      -0.25000000       0.16666667 </v>
   <v>      -0.16000000      -0.25000000       0.16666667 </v>
   <v>      -0.12000000      -0.25000000       0.16666667 </v>
   <v>      -0.08000000      -0.25000000       0.16666667 </v>
   <v>      -0.04000000      -0.25000000       0.16666667 </v>
   <v>       0.00000000      -0.16666667       0.16666667 </v>
   <v>       0.04000000      -0.16666667       0.16666667 </v>
   <v>       0.08000000      -0.16666667       0.16666667 </v>
   <v>       0.12000000      -0.16666667       0.16666667 </v>
   <v>       0.16000000      -0.16666667       0.16666667 </v>
   <v>       0.20000000      -0.16666667       0.16666667 </v>
   <v>       0.24000000      -0.16666667       0.16666667 </v>
   <v>       0.28000000      -0.16666667       0.16666667 </v>
   <v>       0.32000000      -0.16666667       0.16666667 </v>
   <v>       0.36000000      -0.16666667       0.16666667 </v>
   <v>       0.40000000      -0.16666667       0.16666667 </v>
   <v>       0.44000000      -0.16666667       0.16666667 </v>
   <v>       0.48000000      -0.16666667       0.16666667 </v>
   <v>      -0.48000000      -0.16666667       0.16666667 </v>
   <v>      -0.44000000      -0.16666667       0.16666667 </v>
   <v>      -0.40000000      -0.16666667       0.16666667 </v>
   <v>      -0.36000000      -0.16666667       0.16666667 </v>
   <v>      -0.32000000      -0.16666667       0.16666667 </v>
   <v>      -0.28000000      -0.16666667       0.16666667 </v>
   <v>      -0.24000000      -0.16666667       0.16666667 </v>
   <v>      -0.20000000      -0.16666667       0.16666667 </v>
   <v>      -0.16000000      -0.16666667       0.16666667 </v>
   <v>      -0.12000000      -0.16666667       0.16666667 </v>
   <v>      -0.08000000      -0.16666667       0.16666667 </v>
   <v>      -0.04000000      -0.16666667       0.16666667 </v>
   <v>       0.00000000      -0.08333333       0.16666667 </v>
   <v>       0.04000000      -0.08333333       0.16666667 </v>
   <v>       0.08000000      -0.08333333       0.16666667 </v>
   <v>       0.12000000      -0.08333333       0.16666667 </v>
   <v>       0.16000000      -0.08333333       0.16666667 </v>
   <v>       0.20000000      -0.08333333       0.16666667 </v>
   <v>       0.24000000      -0.08333333       0.16666667 </v>
   <v>       0.28000000      -0.08333333       0.16666667 </v>
   <v>       0.32000000      -0.08333333       0.16666667 </v>
   <v>       0.36000000      -0.08333333       0.16666667 </v>
   <v>       0.40000000      -0.08333333       0.16666667 </v>
   <v>       0.44000000      -0.08333333       0.16666667 </v>
   <v>       0.48000000      -0.08333333       0.16666667 </v>
   <v>      -0.48000000      -0.08333333       0.16666667 </v>
   <v>      -0.44000000      -0.08333333       0.16666667 </v>
   <v>      -0.40000000      -0.08333333       0.16666667 </v>
   <v>      -0.36000000      -0.08333333       0.16666667 </v>
   <v>      -0.32000000      -0.08333333       0.16666667 </v>
   <v>      -0.28000000      -0.08333333       0.16666667 </v>
   <v>      -0.24000000      -0.08333333       0.16666667 </v>
   <v>      -0.20000000      -0.08333333       0.16666667 </v>
   <v>      -0.16000000      -0.08333333       0.16666667 </v>
   <v>      -0.12000000      -0.08333333       0.16666667 </v>
   <v>      -0.08000000      -0.08333333       0.16666667 </v>
   <v>      -0.04000000      -0.08333333       0.16666667 </v>
   <v>       0.00000000       0.00000000       0.25000000 </v>
   <v>       0.04000000       0.00000000       0.25000000 </v>
   <v>       0.08000000       0.00000000       0.25000000 </v>
   <v>       0.12000000       0.00000000       0.25000000 </v>
   <v>       0.16000000       0.00000000       0.25000000 </v>
   <v>       0.20000000       0.00000000       0.25000000 </v>
   <v>       0.24000000       0.00000000       0.25000000 </v>
   <v>       0.28000000       0.00000000       0.25000000 </v>
   <v>       0.32000000       0.00000000       0.25000000 </v>
   <v>       0.36000000       0.00000000       0.25000000 </v>
   <v>       0.40000000       0.00000000       0.25000000 </v>
   <v>       0.44000000       0.00000000       0.25000000 </v>
   <v>       0.48000000       0.00000000       0.25000000 </v>
   <v>      -0.48000000       0.00000000       0.25000000 </v>
   <v>      -0.44000000       0.00000000       0.25000000 </v>
   <v>      -0.40000000       0.00000000       0.25000000 </v>
   <v>      -0.36000000       0.00000000       0.25000000 </v>
   <v>      -0.32000000       0.00000000       0.25000000 </v>
   <v>      -0.28000000       0.00000000       0.25000000 </v>
   <v>      -0.24000000       0.00000000       0.25000000 </v>
   <v>      -0.20000000       0.00000000       0.25000000 </v>
   <v>      -0.16000000       0.00000000       0.25000000 </v>
   <v>      -0.12000000       0.00000000       0.25000000 </v>
   <v>      -0.08000000       0.00000000       0.25000000 </v>
   <v>      -0.04000000       0.00000000       0.25000000 </v>
   <v>       0.00000000       0.08333333       0.25000000 </v>
   <v>       0.04000000       0.08333333       0.25000000 </v>
   <v>       0.08000000       0.08333333       0.25000000 </v>
   <v>       0.12000000       0.08333333       0.25000000 </v>
   <v>       0.16000000       0.08333333       0.25000000 </v>
   <v>       0.20000000       0.08333333       0.25000000 </v>
   <v>       0.24000000       0.08333333       0.25000000 </v>
   <v>       0.28000000       0.08333333       0.25000000 </v>
   <v>       0.32000000       0.08333333       0.25000000 </v>
   <v>       0.36000000       0.08333333       0.25000000 </v>
   <v>       0.40000000       0.08333333       0.25000000 </v>
   <v>       0.44000000       0.08333333       0.25000000 </v>
   <v>       0.48000000       0.08333333       0.25000000 </v>
   <v>      -0.48000000       0.08333333       0.25000000 </v>
   <v>      -0.44000000       0.08333333       0.25000000 </v>
   <v>      -0.40000000       0.08333333       0.25000000 </v>
   <v>      -0.36000000       0.08333333       0.25000000 </v>
   <v>      -0.32000000       0.08333333       0.25000000 </v>
   <v>      -0.28000000       0.08333333       0.25000000 </v>
   <v>      -0.24000000       0.08333333       0.25000000 </v>
   <v>      -0.20000000       0.08333333       0.25000000 </v>
   <v>      -0.16000000       0.08333333       0.25000000 </v>
   <v>      -0.12000000       0.08333333       0.25000000 </v>
   <v>      -0.08000000       0.08333333       0.25000000 </v>
   <v>      -0.04000000       0.08333333       0.25000000 </v>
   <v>       0.00000000       0.16666667       0.25000000 </v>
   <v>       0.04000000       0.16666667       0.25000000 </v>
   <v>       0.08000000       0.16666667       0.25000000 </v>
   <v>       0.12000000       0.16666667       0.25000000 </v>
   <v>       0.16000000       0.16666667       0.25000000 </v>
   <v>       0.20000000       0.16666667       0.25000000 </v>
   <v>       0.24000000       0.16666667       0.25000000 </v>
   <v>       0.28000000       0.16666667       0.25000000 </v>
   <v>       0.32000000       0.16666667       0.25000000 </v>
   <v>       0.36000000       0.16666667       0.25000000 </v>
   <v>       0.40000000       0.16666667       0.25000000 </v>
   <v>       0.44000000       0.16666667       0.25000000 </v>
   <v>       0.48000000       0.16666667       0.25000000 </v>
   <v>      -0.48000000       0.16666667       0.25000000 </v>
   <v>      -0.44000000       0.16666667       0.25000000 </v>
   <v>      -0.40000000       0.16666667       0.25000000 </v>
   <v>      -0.36000000       0.16666667       0.25000000 </v>
   <v>      -0.32000000       0.16666667       0.25000000 </v>
   <v>      -0.28000000       0.16666667       0.25000000 </v>
   <v>      -0.24000000       0.16666667       0.25000000 </v>
   <v>      -0.20000000       0.16666667       0.25000000 </v>
   <v>      -0.16000000       0.16666667       0.25000000 </v>
   <v>      -0.12000000       0.16666667       0.25000000 </v>
   <v>      -0.08000000       0.16666667       0.25000000 </v>
   <v>      -0.04000000       0.16666667       0.25000000 </v>
   <v>       0.00000000       0.25000000       0.25000000 </v>
   <v>       0.04000000       0.25000000       0.25000000 </v>
   <v>       0.08000000       0.25000000       0.25000000 </v>
   <v>       0.12000000       0.25000000       0.25000000 </v>
   <v>       0.16000000       0.25000000       0.25000000 </v>
   <v>       0.20000000       0.25000000       0.25000000 </v>
   <v>       0.24000000       0.25000000       0.25000000 </v>
   <v>       0.28000000       0.25000000       0.25000000 </v>
   <v>       0.32000000       0.25000000       0.25000000 </v>
   <v>       0.36000000       0.25000000       0.25000000 </v>
   <v>       0.40000000       0.25000000       0.25000000 </v>
   <v>       0.44000000       0.25000000       0.25000000 </v>
   <v>       0.48000000       0.25000000       0.25000000 </v>
   <v>      -0.48000000       0.25000000       0.25000000 </v>
   <v>      -0.44000000       0.25000000       0.25000000 </v>
   <v>      -0.40000000       0.25000000       0.25000000 </v>
   <v>      -0.36000000       0.25000000       0.25000000 </v>
   <v>      -0.32000000       0.25000000       0.25000000 </v>
   <v>      -0.28000000       0.25000000       0.25000000 </v>
   <v>      -0.24000000       0.25000000       0.25000000 </v>
   <v>      -0.20000000       0.25000000       0.25000000 </v>
   <v>      -0.16000000       0.25000000       0.25000000 </v>
   <v>      -0.12000000       0.25000000       0.25000000 </v>
   <v>      -0.08000000       0.25000000       0.25000000 </v>
   <v>      -0.04000000       0.25000000       0.25000000 </v>
   <v>       0.00000000       0.33333333       0.25000000 </v>
   <v>       0.04000000       0.33333333       0.25000000 </v>
   <v>       0.08000000       0.33333333       0.25000000 </v>
   <v>       0.12000000       0.33333333       0.25000000 </v>
   <v>       0.16000000       0.33333333       0.25000000 </v>
   <v>       0.20000000       0.33333333       0.25000000 </v>
   <v>       0.24000000       0.33333333       0.25000000 </v>
   <v>       0.28000000       0.33333333       0.25000000 </v>
   <v>       0.32000000       0.33333333       0.25000000 </v>
   <v>       0.36000000       0.33333333       0.25000000 </v>
   <v>       0.40000000       0.33333333       0.25000000 </v>
   <v>       0.44000000       0.33333333       0.25000000 </v>
   <v>       0.48000000       0.33333333       0.25000000 </v>
   <v>      -0.48000000       0.33333333       0.25000000 </v>
   <v>      -0.44000000       0.33333333       0.25000000 </v>
   <v>      -0.40000000       0.33333333       0.25000000 </v>
   <v>      -0.36000000       0.33333333       0.25000000 </v>
   <v>      -0.32000000       0.33333333       0.25000000 </v>
   <v>      -0.28000000       0.33333333       0.25000000 </v>
   <v>      -0.24000000       0.33333333       0.25000000 </v>
   <v>      -0.20000000       0.33333333       0.25000000 </v>
   <v>      -0.16000000       0.33333333       0.25000000 </v>
   <v>      -0.12000000       0.33333333       0.25000000 </v>
   <v>      -0.08000000       0.33333333       0.25000000 </v>
   <v>      -0.04000000       0.33333333       0.25000000 </v>
   <v>       0.00000000       0.41666667       0.25000000 </v>
   <v>       0.04000000       0.41666667       0.25000000 </v>
   <v>       0.08000000       0.41666667       0.25000000 </v>
   <v>       0.12000000       0.41666667       0.25000000 </v>
   <v>       0.16000000       0.41666667       0.25000000 </v>
   <v>       0.20000000       0.41666667       0.25000000 </v>
   <v>       0.24000000       0.41666667       0.25000000 </v>
   <v>       0.28000000       0.41666667       0.25000000 </v>
   <v>       0.32000000       0.41666667       0.25000000 </v>
   <v>       0.36000000       0.41666667       0.25000000 </v>
   <v>       0.40000000       0.41666667       0.25000000 </v>
   <v>       0.44000000       0.41666667       0.25000000 </v>
   <v>       0.48000000       0.41666667       0.25000000 </v>
   <v>      -0.48000000       0.41666667       0.25000000 </v>
   <v>      -0.44000000       0.41666667       0.25000000 </v>
   <v>      -0.40000000       0.41666667       0.25000000 </v>
   <v>      -0.36000000       0.41666667       0.25000000 </v>
   <v>      -0.32000000       0.41666667       0.25000000 </v>
   <v>      -0.28000000       0.41666667       0.25000000 </v>
   <v>      -0.24000000       0.41666667       0.25000000 </v>
   <v>      -0.20000000       0.41666667       0.25000000 </v>
   <v>      -0.16000000       0.41666667       0.25000000 </v>
   <v>      -0.12000000       0.41666667       0.25000000 </v>
   <v>      -0.08000000       0.41666667       0.25000000 </v>
   <v>      -0.04000000       0.41666667       0.25000000 </v>
   <v>       0.00000000       0.50000000       0.25000000 </v>
   <v>       0.04000000       0.50000000       0.25000000 </v>
   <v>       0.08000000       0.50000000       0.25000000 </v>
   <v>       0.12000000       0.50000000       0.25000000 </v>
   <v>       0.16000000       0.50000000       0.25000000 </v>
   <v>       0.20000000       0.50000000       0.25000000 </v>
   <v>       0.24000000       0.50000000       0.25000000 </v>
   <v>       0.28000000       0.50000000       0.25000000 </v>
   <v>       0.32000000       0.50000000       0.25000000 </v>
   <v>       0.36000000       0.50000000       0.25000000 </v>
   <v>       0.40000000       0.50000000       0.25000000 </v>
   <v>       0.44000000       0.50000000       0.25000000 </v>
   <v>       0.48000000       0.50000000       0.25000000 </v>
   <v>      -0.48000000       0.50000000       0.25000000 </v>
   <v>      -0.44000000       0.50000000       0.25000000 </v>
   <v>      -0.40000000       0.50000000       0.25000000 </v>
   <v>      -0.36000000       0.50000000       0.25000000 </v>
   <v>      -0.32000000       0.50000000       0.25000000 </v>
   <v>      -0.28000000       0.50000000       0.25000000 </v>
   <v>      -0.24000000       0.50000000       0.25000000 </v>
   <v>      -0.20000000       0.50000000       0.25000000 </v>
   <v>      -0.16000000       0.50000000       0.25000000 </v>
   <v>      -0.12000000       0.50000000       0.25000000 </v>
   <v>      -0.08000000       0.50000000       0.25000000 </v>
   <v>      -0.04000000       0.50000000       0.25000000 </v>
   <v>       0.00000000      -0.41666667       0.25000000 </v>
   <v>       0.04000000      -0.41666667       0.25000000 </v>
   <v>       0.08000000      -0.41666667       0.25000000 </v>
   <v>       0.12000000      -0.41666667       0.25000000 </v>
   <v>       0.16000000      -0.41666667       0.25000000 </v>
   <v>       0.20000000      -0.41666667       0.25000000 </v>
   <v>       0.24000000      -0.41666667       0.25000000 </v>
   <v>       0.28000000      -0.41666667       0.25000000 </v>
   <v>       0.32000000      -0.41666667       0.25000000 </v>
   <v>       0.36000000      -0.41666667       0.25000000 </v>
   <v>       0.40000000      -0.41666667       0.25000000 </v>
   <v>       0.44000000      -0.41666667       0.25000000 </v>
   <v>       0.48000000      -0.41666667       0.25000000 </v>
   <v>      -0.48000000      -0.41666667       0.25000000 </v>
   <v>      -0.44000000      -0.41666667       0.25000000 </v>
   <v>      -0.40000000      -0.41666667       0.25000000 </v>
   <v>      -0.36000000      -0.41666667       0.25000000 </v>
   <v>      -0.32000000      -0.41666667       0.25000000 </v>
   <v>      -0.28000000      -0.41666667       0.25000000 </v>
   <v>      -0.24000000      -0.41666667       0.25000000 </v>
   <v>      -0.20000000      -0.41666667       0.25000000 </v>
   <v>      -0.16000000      -0.41666667       0.25000000 </v>
   <v>      -0.12000000      -0.41666667       0.25000000 </v>
   <v>      -0.08000000      -0.41666667       0.25000000 </v>
   <v>      -0.04000000      -0.41666667       0.25000000 </v>
   <v>       0.00000000      -0.33333333       0.25000000 </v>
   <v>       0.04000000      -0.33333333       0.25000000 </v>
   <v>       0.08000000      -0.33333333       0.25000000 </v>
   <v>       0.12000000      -0.33333333       0.25000000 </v>
   <v>       0.16000000      -0.33333333       0.25000000 </v>
   <v>       0.20000000      -0.33333333       0.25000000 </v>
   <v>       0.24000000      -0.33333333       0.25000000 </v>
   <v>       0.28000000      -0.33333333       0.25000000 </v>
   <v>       0.32000000      -0.33333333       0.25000000 </v>
   <v>       0.36000000      -0.33333333       0.25000000 </v>
   <v>       0.40000000      -0.33333333       0.25000000 </v>
   <v>       0.44000000      -0.33333333       0.25000000 </v>
   <v>       0.48000000      -0.33333333       0.25000000 </v>
   <v>      -0.48000000      -0.33333333       0.25000000 </v>
   <v>      -0.44000000      -0.33333333       0.25000000 </v>
   <v>      -0.40000000      -0.33333333       0.25000000 </v>
   <v>      -0.36000000      -0.33333333       0.25000000 </v>
   <v>      -0.32000000      -0.33333333       0.25000000 </v>
   <v>      -0.28000000      -0.33333333       0.25000000 </v>
   <v>      -0.24000000      -0.33333333       0.25000000 </v>
   <v>      -0.20000000      -0.33333333       0.25000000 </v>
   <v>      -0.16000000      -0.33333333       0.25000000 </v>
   <v>      -0.12000000      -0.33333333       0.25000000 </v>
   <v>      -0.08000000      -0.33333333       0.25000000 </v>
   <v>      -0.04000000      -0.33333333       0.25000000 </v>
   <v>       0.00000000      -0.25000000       0.25000000 </v>
   <v>       0.04000000      -0.25000000       0.25000000 </v>
   <v>       0.08000000      -0.25000000       0.25000000 </v>
   <v>       0.12000000      -0.25000000       0.25000000 </v>
   <v>       0.16000000      -0.25000000       0.25000000 </v>
   <v>       0.20000000      -0.25000000       0.25000000 </v>
   <v>       0.24000000      -0.25000000       0.25000000 </v>
   <v>       0.28000000      -0.25000000       0.25000000 </v>
   <v>       0.32000000      -0.25000000       0.25000000 </v>
   <v>       0.36000000      -0.25000000       0.25000000 </v>
   <v>       0.40000000      -0.25000000       0.25000000 </v>
   <v>       0.44000000      -0.25000000       0.25000000 </v>
   <v>       0.48000000      -0.25000000       0.25000000 </v>
   <v>      -0.48000000      -0.25000000       0.25000000 </v>
   <v>      -0.44000000      -0.25000000       0.25000000 </v>
   <v>      -0.40000000      -0.25000000       0.25000000 </v>
   <v>      -0.36000000      -0.25000000       0.25000000 </v>
   <v>      -0.32000000      -0.25000000       0.25000000 </v>
   <v>      -0.28000000      -0.25000000       0.25000000 </v>
   <v>      -0.24000000      -0.25000000       0.25000000 </v>
   <v>      -0.20000000      -0.25000000       0.25000000 </v>
   <v>      -0.16000000      -0.25000000       0.25000000 </v>
   <v>      -0.12000000      -0.25000000       0.25000000 </v>
   <v>      -0.08000000      -0.25000000       0.25000000 </v>
   <v>      -0.04000000      -0.25000000       0.25000000 </v>
   <v>       0.00000000      -0.16666667       0.25000000 </v>
   <v>       0.04000000      -0.16666667       0.25000000 </v>
   <v>       0.08000000      -0.16666667       0.25000000 </v>
   <v>       0.12000000      -0.16666667       0.25000000 </v>
   <v>       0.16000000      -0.16666667       0.25000000 </v>
   <v>       0.20000000      -0.16666667       0.25000000 </v>
   <v>       0.24000000      -0.16666667       0.25000000 </v>
   <v>       0.28000000      -0.16666667       0.25000000 </v>
   <v>       0.32000000      -0.16666667       0.25000000 </v>
   <v>       0.36000000      -0.16666667       0.25000000 </v>
   <v>       0.40000000      -0.16666667       0.25000000 </v>
   <v>       0.44000000      -0.16666667       0.25000000 </v>
   <v>       0.48000000      -0.16666667       0.25000000 </v>
   <v>      -0.48000000      -0.16666667       0.25000000 </v>
   <v>      -0.44000000      -0.16666667       0.25000000 </v>
   <v>      -0.40000000      -0.16666667       0.25000000 </v>
   <v>      -0.36000000      -0.16666667       0.25000000 </v>
   <v>      -0.32000000      -0.16666667       0.25000000 </v>
   <v>      -0.28000000      -0.16666667       0.25000000 </v>
   <v>      -0.24000000      -0.16666667       0.25000000 </v>
   <v>      -0.20000000      -0.16666667       0.25000000 </v>
   <v>      -0.16000000      -0.16666667       0.25000000 </v>
   <v>      -0.12000000      -0.16666667       0.25000000 </v>
   <v>      -0.08000000      -0.16666667       0.25000000 </v>
   <v>      -0.04000000      -0.16666667       0.25000000 </v>
   <v>       0.00000000      -0.08333333       0.25000000 </v>
   <v>       0.04000000      -0.08333333       0.25000000 </v>
   <v>       0.08000000      -0.08333333       0.25000000 </v>
   <v>       0.12000000      -0.08333333       0.25000000 </v>
   <v>       0.16000000      -0.08333333       0.25000000 </v>
   <v>       0.20000000      -0.08333333       0.25000000 </v>
   <v>       0.24000000      -0.08333333       0.25000000 </v>
   <v>       0.28000000      -0.08333333       0.25000000 </v>
   <v>       0.32000000      -0.08333333       0.25000000 </v>
   <v>       0.36000000      -0.08333333       0.25000000 </v>
   <v>       0.40000000      -0.08333333       0.25000000 </v>
   <v>       0.44000000      -0.08333333       0.25000000 </v>
   <v>       0.48000000      -0.08333333       0.25000000 </v>
   <v>      -0.48000000      -0.08333333       0.25000000 </v>
   <v>      -0.44000000      -0.08333333       0.25000000 </v>
   <v>      -0.40000000      -0.08333333       0.25000000 </v>
   <v>      -0.36000000      -0.08333333       0.25000000 </v>
   <v>      -0.32000000      -0.08333333       0.25000000 </v>
   <v>      -0.28000000      -0.08333333       0.25000000 </v>
   <v>      -0.24000000      -0.08333333       0.25000000 </v>
   <v>      -0.20000000      -0.08333333       0.25000000 </v>
   <v>      -0.16000000      -0.08333333       0.25000000 </v>
   <v>      -0.12000000      -0.08333333       0.25000000 </v>
   <v>      -0.08000000      -0.08333333       0.25000000 </v>
   <v>      -0.04000000      -0.08333333       0.25000000 </v>
   <v>       0.00000000       0.00000000       0.33333333 </v>
   <v>       0.04000000       0.00000000       0.33333333 </v>
   <v>       0.08000000       0.00000000       0.33333333 </v>
   <v>       0.12000000       0.00000000       0.33333333 </v>
   <v>       0.16000000       0.00000000       0.33333333 </v>
   <v>       0.20000000       0.00000000       0.33333333 </v>
   <v>       0.24000000       0.00000000       0.33333333 </v>
   <v>       0.28000000       0.00000000       0.33333333 </v>
   <v>       0.32000000       0.00000000       0.33333333 </v>
   <v>       0.36000000       0.00000000       0.33333333 </v>
   <v>       0.40000000       0.00000000       0.33333333 </v>
   <v>       0.44000000       0.00000000       0.33333333 </v>
   <v>       0.48000000       0.00000000       0.33333333 </v>
   <v>      -0.48000000       0.00000000       0.33333333 </v>
   <v>      -0.44000000       0.00000000       0.33333333 </v>
   <v>      -0.40000000       0.00000000       0.33333333 </v>
   <v>      -0.36000000       0.00000000       0.33333333 </v>
   <v>      -0.32000000       0.00000000       0.33333333 </v>
   <v>      -0.28000000       0.00000000       0.33333333 </v>
   <v>      -0.24000000       0.00000000       0.33333333 </v>
   <v>      -0.20000000       0.00000000       0.33333333 </v>
   <v>      -0.16000000       0.00000000       0.33333333 </v>
   <v>      -0.12000000       0.00000000       0.33333333 </v>
   <v>      -0.08000000       0.00000000       0.33333333 </v>
   <v>      -0.04000000       0.00000000       0.33333333 </v>
   <v>       0.00000000       0.08333333       0.33333333 </v>
   <v>       0.04000000       0.08333333       0.33333333 </v>
   <v>       0.08000000       0.08333333       0.33333333 </v>
   <v>       0.12000000       0.08333333       0.33333333 </v>
   <v>       0.16000000       0.08333333       0.33333333 </v>
   <v>       0.20000000       0.08333333       0.33333333 </v>
   <v>       0.24000000       0.08333333       0.33333333 </v>
   <v>       0.28000000       0.08333333       0.33333333 </v>
   <v>       0.32000000       0.08333333       0.33333333 </v>
   <v>       0.36000000       0.08333333       0.33333333 </v>
   <v>       0.40000000       0.08333333       0.33333333 </v>
   <v>       0.44000000       0.08333333       0.33333333 </v>
   <v>       0.48000000       0.08333333       0.33333333 </v>
   <v>      -0.48000000       0.08333333       0.33333333 </v>
   <v>      -0.44000000       0.08333333       0.33333333 </v>
   <v>      -0.40000000       0.08333333       0.33333333 </v>
   <v>      -0.36000000       0.08333333       0.33333333 </v>
   <v>      -0.32000000       0.08333333       0.33333333 </v>
   <v>      -0.28000000       0.08333333       0.33333333 </v>
   <v>      -0.24000000       0.08333333       0.33333333 </v>
   <v>      -0.20000000       0.08333333       0.33333333 </v>
   <v>      -0.16000000       0.08333333       0.33333333 </v>
   <v>      -0.12000000       0.08333333       0.33333333 </v>
   <v>      -0.08000000       0.08333333       0.33333333 </v>
   <v>      -0.04000000       0.08333333       0.33333333 </v>
   <v>       0.00000000       0.16666667       0.33333333 </v>
   <v>       0.04000000       0.16666667       0.33333333 </v>
   <v>       0.08000000       0.16666667       0.33333333 </v>
   <v>       0.12000000       0.16666667       0.33333333 </v>
   <v>       0.16000000       0.16666667       0.33333333 </v>
   <v>       0.20000000       0.16666667       0.33333333 </v>
   <v>       0.24000000       0.16666667       0.33333333 </v>
   <v>       0.28000000       0.16666667       0.33333333 </v>
   <v>       0.32000000       0.16666667       0.33333333 </v>
   <v>       0.36000000       0.16666667       0.33333333 </v>
   <v>       0.40000000       0.16666667       0.33333333 </v>
   <v>       0.44000000       0.16666667       0.33333333 </v>
   <v>       0.48000000       0.16666667       0.33333333 </v>
   <v>      -0.48000000       0.16666667       0.33333333 </v>
   <v>      -0.44000000       0.16666667       0.33333333 </v>
   <v>      -0.40000000       0.16666667       0.33333333 </v>
   <v>      -0.36000000       0.16666667       0.33333333 </v>
   <v>      -0.32000000       0.16666667       0.33333333 </v>
   <v>      -0.28000000       0.16666667       0.33333333 </v>
   <v>      -0.24000000       0.16666667       0.33333333 </v>
   <v>      -0.20000000       0.16666667       0.33333333 </v>
   <v>      -0.16000000       0.16666667       0.33333333 </v>
   <v>      -0.12000000       0.16666667       0.33333333 </v>
   <v>      -0.08000000       0.16666667       0.33333333 </v>
   <v>      -0.04000000       0.16666667       0.33333333 </v>
   <v>       0.00000000       0.25000000       0.33333333 </v>
   <v>       0.04000000       0.25000000       0.33333333 </v>
   <v>       0.08000000       0.25000000       0.33333333 </v>
   <v>       0.12000000       0.25000000       0.33333333 </v>
   <v>       0.16000000       0.25000000       0.33333333 </v>
   <v>       0.20000000       0.25000000       0.33333333 </v>
   <v>       0.24000000       0.25000000       0.33333333 </v>
   <v>       0.28000000       0.25000000       0.33333333 </v>
   <v>       0.32000000       0.25000000       0.33333333 </v>
   <v>       0.36000000       0.25000000       0.33333333 </v>
   <v>       0.40000000       0.25000000       0.33333333 </v>
   <v>       0.44000000       0.25000000       0.33333333 </v>
   <v>       0.48000000       0.25000000       0.33333333 </v>
   <v>      -0.48000000       0.25000000       0.33333333 </v>
   <v>      -0.44000000       0.25000000       0.33333333 </v>
   <v>      -0.40000000       0.25000000       0.33333333 </v>
   <v>      -0.36000000       0.25000000       0.33333333 </v>
   <v>      -0.32000000       0.25000000       0.33333333 </v>
   <v>      -0.28000000       0.25000000       0.33333333 </v>
   <v>      -0.24000000       0.25000000       0.33333333 </v>
   <v>      -0.20000000       0.25000000       0.33333333 </v>
   <v>      -0.16000000       0.25000000       0.33333333 </v>
   <v>      -0.12000000       0.25000000       0.33333333 </v>
   <v>      -0.08000000       0.25000000       0.33333333 </v>
   <v>      -0.04000000       0.25000000       0.33333333 </v>
   <v>       0.00000000       0.33333333       0.33333333 </v>
   <v>       0.04000000       0.33333333       0.33333333 </v>
   <v>       0.08000000       0.33333333       0.33333333 </v>
   <v>       0.12000000       0.33333333       0.33333333 </v>
   <v>       0.16000000       0.33333333       0.33333333 </v>
   <v>       0.20000000       0.33333333       0.33333333 </v>
   <v>       0.24000000       0.33333333       0.33333333 </v>
   <v>       0.28000000       0.33333333       0.33333333 </v>
   <v>       0.32000000       0.33333333       0.33333333 </v>
   <v>       0.36000000       0.33333333       0.33333333 </v>
   <v>       0.40000000       0.33333333       0.33333333 </v>
   <v>       0.44000000       0.33333333       0.33333333 </v>
   <v>       0.48000000       0.33333333       0.33333333 </v>
   <v>      -0.48000000       0.33333333       0.33333333 </v>
   <v>      -0.44000000       0.33333333       0.33333333 </v>
   <v>      -0.40000000       0.33333333       0.33333333 </v>
   <v>      -0.36000000       0.33333333       0.33333333 </v>
   <v>      -0.32000000       0.33333333       0.33333333 </v>
   <v>      -0.28000000       0.33333333       0.33333333 </v>
   <v>      -0.24000000       0.33333333       0.33333333 </v>
   <v>      -0.20000000       0.33333333       0.33333333 </v>
   <v>      -0.16000000       0.33333333       0.33333333 </v>
   <v>      -0.12000000       0.33333333       0.33333333 </v>
   <v>      -0.08000000       0.33333333       0.33333333 </v>
   <v>      -0.04000000       0.33333333       0.33333333 </v>
   <v>       0.00000000       0.41666667       0.33333333 </v>
   <v>       0.04000000       0.41666667       0.33333333 </v>
   <v>       0.08000000       0.41666667       0.33333333 </v>
   <v>       0.12000000       0.41666667       0.33333333 </v>
   <v>       0.16000000       0.41666667       0.33333333 </v>
   <v>       0.20000000       0.41666667       0.33333333 </v>
   <v>       0.24000000       0.41666667       0.33333333 </v>
   <v>       0.28000000       0.41666667       0.33333333 </v>
   <v>       0.32000000       0.41666667       0.33333333 </v>
   <v>       0.36000000       0.41666667       0.33333333 </v>
   <v>       0.40000000       0.41666667       0.33333333 </v>
   <v>       0.44000000       0.41666667       0.33333333 </v>
   <v>       0.48000000       0.41666667       0.33333333 </v>
   <v>      -0.48000000       0.41666667       0.33333333 </v>
   <v>      -0.44000000       0.41666667       0.33333333 </v>
   <v>      -0.40000000       0.41666667       0.33333333 </v>
   <v>      -0.36000000       0.41666667       0.33333333 </v>
   <v>      -0.32000000       0.41666667       0.33333333 </v>
   <v>      -0.28000000       0.41666667       0.33333333 </v>
   <v>      -0.24000000       0.41666667       0.33333333 </v>
   <v>      -0.20000000       0.41666667       0.33333333 </v>
   <v>      -0.16000000       0.41666667       0.33333333 </v>
   <v>      -0.12000000       0.41666667       0.33333333 </v>
   <v>      -0.08000000       0.41666667       0.33333333 </v>
   <v>      -0.04000000       0.41666667       0.33333333 </v>
   <v>       0.00000000       0.50000000       0.33333333 </v>
   <v>       0.04000000       0.50000000       0.33333333 </v>
   <v>       0.08000000       0.50000000       0.33333333 </v>
   <v>       0.12000000       0.50000000       0.33333333 </v>
   <v>       0.16000000       0.50000000       0.33333333 </v>
   <v>       0.20000000       0.50000000       0.33333333 </v>
   <v>       0.24000000       0.50000000       0.33333333 </v>
   <v>       0.28000000       0.50000000       0.33333333 </v>
   <v>       0.32000000       0.50000000       0.33333333 </v>
   <v>       0.36000000       0.50000000       0.33333333 </v>
   <v>       0.40000000       0.50000000       0.33333333 </v>
   <v>       0.44000000       0.50000000       0.33333333 </v>
   <v>       0.48000000       0.50000000       0.33333333 </v>
   <v>      -0.48000000       0.50000000       0.33333333 </v>
   <v>      -0.44000000       0.50000000       0.33333333 </v>
   <v>      -0.40000000       0.50000000       0.33333333 </v>
   <v>      -0.36000000       0.50000000       0.33333333 </v>
   <v>      -0.32000000       0.50000000       0.33333333 </v>
   <v>      -0.28000000       0.50000000       0.33333333 </v>
   <v>      -0.24000000       0.50000000       0.33333333 </v>
   <v>      -0.20000000       0.50000000       0.33333333 </v>
   <v>      -0.16000000       0.50000000       0.33333333 </v>
   <v>      -0.12000000       0.50000000       0.33333333 </v>
   <v>      -0.08000000       0.50000000       0.33333333 </v>
   <v>      -0.04000000       0.50000000       0.33333333 </v>
   <v>       0.00000000      -0.41666667       0.33333333 </v>
   <v>       0.04000000      -0.41666667       0.33333333 </v>
   <v>       0.08000000      -0.41666667       0.33333333 </v>
   <v>       0.12000000      -0.41666667       0.33333333 </v>
   <v>       0.16000000      -0.41666667       0.33333333 </v>
   <v>       0.20000000      -0.41666667       0.33333333 </v>
   <v>       0.24000000      -0.41666667       0.33333333 </v>
   <v>       0.28000000      -0.41666667       0.33333333 </v>
   <v>       0.32000000      -0.41666667       0.33333333 </v>
   <v>       0.36000000      -0.41666667       0.33333333 </v>
   <v>       0.40000000      -0.41666667       0.33333333 </v>
   <v>       0.44000000      -0.41666667       0.33333333 </v>
   <v>       0.48000000      -0.41666667       0.33333333 </v>
   <v>      -0.48000000      -0.41666667       0.33333333 </v>
   <v>      -0.44000000      -0.41666667       0.33333333 </v>
   <v>      -0.40000000      -0.41666667       0.33333333 </v>
[...]
       <r>    4.7614    1.0000 </r>
       <r>    5.0176    1.0000 </r>
       <r>    5.1478    1.0000 </r>
       <r>    5.5409    1.0000 </r>
       <r>    5.7676    1.0000 </r>
       <r>    5.9110    1.0000 </r>
       <r>    5.9920    1.0000 </r>
       <r>    6.0966    1.0000 </r>
       <r>    6.3038    1.0000 </r>
       <r>    6.5745    1.0000 </r>
       <r>    7.4438    1.0053 </r>
       <r>    8.2417    0.1090 </r>
       <r>    9.5605    0.0000 </r>
       <r>   10.3273    0.0000 </r>
       <r>   11.0369    0.0000 </r>
       <r>   12.5627    0.0000 </r>
       <r>   12.9979    0.0000 </r>
       <r>   14.4237    0.0000 </r>
       <r>   15.2361    0.0000 </r>
      </set>
      <set comment="kpoint 1801">
       <r>    1.9496    1.0000 </r>
       <r>    2.2103    1.0000 </r>
       <r>    2.3053    1.0000 </r>
       <r>    2.3083    1.0000 </r>
       <r>    2.4327    1.0000 </r>
       <r>    2.4663    1.0000 </r>
       <r>    2.6312    1.0000 </r>
       <r>    2.7425    1.0000 </r>
       <r>    2.7979    1.0000 </r>
       <r>    2.8895    1.0000 </r>
       <r>    3.4366    1.0000 </r>
       <r>    3.6330    1.0000 </r>
       <r>    3.7072    1.0000 </r>
       <r>    3.7653    1.0000 </r>
       <r>    3.8615    1.0000 </r>
       <r>    4.0257    1.0000 </r>
       <r>    4.0726    1.0000 </r>
       <r>    4.1829    1.0000 </r>
       <r>    4.4396    1.0000 </r>
       <r>    4.5635    1.0000 </r>
       <r>    4.6775    1.0000 </r>
       <r>    4.8137    1.0000 </r>
       <r>    5.1187    1.0000 </r>
       <r>    5.1981    1.0000 </r>
       <r>    5.7385    1.0000 </r>
       <r>    5.7750    1.0000 </r>
       <r>    5.9152    1.0000 </r>
       <r>    6.0091    1.0000 </r>
       <r>    6.2240    1.0000 </r>
       <r>    6.3080    1.0000 </r>
       <r>    7.1373    1.0000 </r>
       <r>    7.9439    0.8433 </r>
       <r>    8.9055   -0.0003 </r>
       <r>    9.4257    0.0000 </r>
       <r>   10.0929    0.0000 </r>
       <r>   10.3378    0.0000 </r>
       <r>   11.7948    0.0000 </r>
       <r>   13.0850    0.0000 </r>
       <r>   13.5619    0.0000 </r>
       <r>   15.0119    0.0000 </r>
      </set>
      <set comment="kpoint 1802">
       <r>    1.9250    1.0000 </r>
       <r>    2.2004    1.0000 </r>
       <r>    2.2756    1.0000 </r>
       <r>    2.2856    1.0000 </r>
       <r>    2.4194    1.0000 </r>
       <r>    2.4381    1.0000 </r>
       <r>    2.6035    1.0000 </r>
       <r>    2.7261    1.0000 </r>
       <r>    2.7806    1.0000 </r>
       <r>    2.8682    1.0000 </r>
       <r>    3.4727    1.0000 </r>
       <r>    3.6862    1.0000 </r>
       <r>    3.7318    1.0000 </r>
       <r>    3.8292    1.0000 </r>
       <r>    3.9005    1.0000 </r>
       <r>    4.0366    1.0000 </r>
       <r>    4.1084    1.0000 </r>
       <r>    4.1484    1.0000 </r>
       <r>    4.4585    1.0000 </r>
       <r>    4.5551    1.0000 </r>
       <r>    4.6793    1.0000 </r>
       <r>    4.8368    1.0000 </r>
       <r>    5.1738    1.0000 </r>
       <r>    5.2242    1.0000 </r>
       <r>    5.7727    1.0000 </r>
       <r>    5.8573    1.0000 </r>
       <r>    5.9074    1.0000 </r>
       <r>    6.0113    1.0000 </r>
       <r>    6.2624    1.0000 </r>
       <r>    6.3150    1.0000 </r>
       <r>    7.8340    0.9949 </r>
       <r>    8.5281   -0.0279 </r>
       <r>    8.6215   -0.0142 </r>
       <r>    9.3780    0.0000 </r>
       <r>    9.6466    0.0000 </r>
       <r>   10.4620    0.0000 </r>
       <r>   11.4331    0.0000 </r>
       <r>   12.4311    0.0000 </r>
       <r>   13.7894    0.0000 </r>
       <r>   14.4236    0.0000 </r>
      </set>
     </set>
    </set>
   </array>
  </eigenvalues>
  <separator name="orbital magnetization" >
   <v name="MAGDIPOLOUT">      0.00000000      0.00000000      0.00000000</v>
  </separator>
  <dos>
   <i name="efermi">      8.07989747 </i>
   <total>
    <array>
     <dimension dim="1">gridpoints</dimension>
     <dimension dim="2">spin</dimension>
     <field>energy</field>
     <field>total</field>
     <field>integrated</field>
     <set>
      <set comment="spin 1">
       <r>    -3.4230     0.0000     0.0000 </r>
       <r>    -3.3455     0.0000     0.0000 </r>
       <r>    -3.2680     0.0000     0.0000 </r>
       <r>    -3.1906     0.0000     0.0000 </r>
       <r>    -3.1131     0.0000     0.0000 </r>
       <r>    -3.0356     0.0000     0.0000 </r>
       <r>    -2.9581     0.0000     0.0000 </r>
       <r>    -2.8806     0.0000     0.0000 </r>
       <r>    -2.8031     0.0000     0.0000 </r>
       <r>    -2.7256     0.0000     0.0000 </r>
       <r>    -2.6481     0.0000     0.0000 </r>
       <r>    -2.5707     0.0000     0.0000 </r>
       <r>    -2.4932     0.0000     0.0000 </r>
       <r>    -2.4157     0.0000     0.0000 </r>
       <r>    -2.3382     0.0000     0.0000 </r>
       <r>    -2.2607     0.0000     0.0000 </r>
       <r>    -2.1832     0.0000     0.0000 </r>
       <r>    -2.1057     0.0000     0.0000 </r>
       <r>    -2.0282     0.0000     0.0000 </r>
       <r>    -1.9508     0.0000     0.0000 </r>
       <r>    -1.8733     0.0000     0.0000 </r>
       <r>    -1.7958     0.0000     0.0000 </r>
       <r>    -1.7183     0.0000     0.0000 </r>
       <r>    -1.6408     0.0000     0.0000 </r>
       <r>    -1.5633     0.0000     0.0000 </r>
       <r>    -1.4858     0.0000     0.0000 </r>
       <r>    -1.4083     0.0000     0.0000 </r>
       <r>    -1.3309     0.0000     0.0000 </r>
       <r>    -1.2534     0.0000     0.0000 </r>
       <r>    -1.1759    -0.0001     0.0000 </r>
       <r>    -1.0984    -0.0003     0.0000 </r>
       <r>    -1.0209    -0.0008    -0.0001 </r>
       <r>    -0.9434    -0.0019    -0.0002 </r>
       <r>    -0.8659    -0.0039    -0.0005 </r>
       <r>    -0.7884    -0.0066    -0.0010 </r>
       <r>    -0.7110    -0.0087    -0.0017 </r>
       <r>    -0.6335    -0.0070    -0.0023 </r>
       <r>    -0.5560     0.0037    -0.0020 </r>
       <r>    -0.4785     0.0283     0.0002 </r>
       <r>    -0.4010     0.0691     0.0056 </r>
       <r>    -0.3235     0.1239     0.0152 </r>
       <r>    -0.2460     0.1867     0.0296 </r>
       <r>    -0.1685     0.2501     0.0490 </r>
       <r>    -0.0911     0.3091     0.0730 </r>
       <r>    -0.0136     0.3621     0.1010 </r>
       <r>     0.0639     0.4109     0.1329 </r>
       <r>     0.1414     0.4591     0.1685 </r>
       <r>     0.2189     0.5108     0.2080 </r>
       <r>     0.2964     0.5695     0.2522 </r>
       <r>     0.3739     0.6356     0.3014 </r>
       <r>     0.4513     0.7049     0.3560 </r>
       <r>     0.5288     0.7681     0.4155 </r>
       <r>     0.6063     0.8139     0.4786 </r>
       <r>     0.6838     0.8344     0.5433 </r>
       <r>     0.7613     0.8298     0.6076 </r>
       <r>     0.8388     0.8105     0.6704 </r>
       <r>     0.9163     0.7944     0.7319 </r>
       <r>     0.9938     0.8003     0.7939 </r>
       <r>     1.0712     0.8407     0.8591 </r>
       <r>     1.1487     0.9184     0.9303 </r>
       <r>     1.2262     1.0301     1.0101 </r>
       <r>     1.3037     1.1776     1.1013 </r>
       <r>     1.3812     1.3787     1.2082 </r>
       <r>     1.4587     1.6710     1.3376 </r>
       <r>     1.5362     2.1056     1.5008 </r>
       <r>     1.6137     2.7329     1.7126 </r>
       <r>     1.6911     3.5836     1.9902 </r>
       <r>     1.7686     4.6557     2.3510 </r>
       <r>     1.8461     5.9133     2.8092 </r>
       <r>     1.9236     7.3010     3.3749 </r>
       <r>     2.0011     8.7604     4.0538 </r>
       <r>     2.0786    10.2314     4.8466 </r>
       <r>     2.1561    11.6400     5.7485 </r>
       <r>     2.2336    12.8870     6.7471 </r>
       <r>     2.3110    13.8574     7.8209 </r>
       <r>     2.3885    14.4502     8.9406 </r>
       <r>     2.4660    14.6195    10.0734 </r>
       <r>     2.5435    14.4089    11.1899 </r>
       <r>     2.6210    13.9586    12.2715 </r>
       <r>     2.6985    13.4629    13.3147 </r>
       <r>     2.7760    13.0860    14.3287 </r>
       <r>     2.8535    12.8828    15.3270 </r>
       <r>     2.9309    12.7915    16.3181 </r>
       <r>     3.0084    12.7155    17.3034 </r>
       <r>     3.0859    12.6355    18.2825 </r>
       <r>     3.1634    12.6524    19.2629 </r>
       <r>     3.2409    12.9164    20.2638 </r>
       <r>     3.3184    13.4999    21.3098 </r>
       <r>     3.3959    14.3285    22.4201 </r>
       <r>     3.4734    15.2244    23.5998 </r>
       <r>     3.5508    16.0086    24.8403 </r>
       <r>     3.6283    16.5665    26.1240 </r>
       <r>     3.7058    16.8462    27.4293 </r>
       <r>     3.7833    16.8368    28.7340 </r>
       <r>     3.8608    16.5671    30.0177 </r>
       <r>     3.9383    16.1083    31.2659 </r>
       <r>     4.0158    15.5511    32.4709 </r>
       <r>     4.0933    14.9763    33.6314 </r>
       <r>     4.1707    14.4549    34.7514 </r>
       <r>     4.2482    14.0639    35.8412 </r>
       <r>     4.3257    13.8761    36.9164 </r>
       <r>     4.4032    13.9218    37.9952 </r>
       <r>     4.4807    14.1669    39.0930 </r>
       <r>     4.5582    14.5297    40.2188 </r>
       <r>     4.6357    14.9078    41.3740 </r>
       <r>     4.7131    15.1864    42.5507 </r>
       <r>     4.7906    15.2463    43.7321 </r>
       <r>     4.8681    14.9976    44.8943 </r>
       <r>     4.9456    14.4212    46.0117 </r>
       <r>     5.0231    13.5744    47.0636 </r>
       <r>     5.1006    12.5503    48.0361 </r>
       <r>     5.1781    11.4289    48.9217 </r>
       <r>     5.2556    10.2661    49.7171 </r>
       <r>     5.3330     9.1241    50.4241 </r>
       <r>     5.4105     8.1062    51.0523 </r>
       <r>     5.4880     7.3640    51.6229 </r>
       <r>     5.5655     7.0737    52.1710 </r>
       <r>     5.6430     7.3991    52.7443 </r>
       <r>     5.7205     8.4495    53.3991 </r>
       <r>     5.7980    10.2175    54.1908 </r>
       <r>     5.8755    12.4987    55.1593 </r>
       <r>     5.9529    14.8413    56.3093 </r>
       <r>     6.0304    16.6085    57.5962 </r>
       <r>     6.1079    17.1889    58.9282 </r>
       <r>     6.1854    16.2724    60.1891 </r>
       <r>     6.2629    14.0210    61.2755 </r>
       <r>     6.3404    11.0018    62.1280 </r>
       <r>     6.4179     7.9193    62.7417 </r>
       <r>     6.4954     5.3260    63.1544 </r>
       <r>     6.5728     3.4773    63.4238 </r>
       <r>     6.6503     2.3615    63.6068 </r>
       <r>     6.7278     1.8138    63.7473 </r>
       <r>     6.8053     1.6241    63.8732 </r>
       <r>     6.8828     1.6059    63.9976 </r>
       <r>     6.9603     1.6323    64.1241 </r>
       <r>     7.0378     1.6457    64.2516 </r>
       <r>     7.1153     1.6427    64.3789 </r>
       <r>     7.1927     1.6428    64.5062 </r>
       <r>     7.2702     1.6602    64.6348 </r>
       <r>     7.3477     1.6912    64.7659 </r>
       <r>     7.4252     1.7191    64.8991 </r>
       <r>     7.5027     1.7275    65.0330 </r>
       <r>     7.5802     1.7114    65.1656 </r>
       <r>     7.6577     1.6802    65.2958 </r>
       <r>     7.7352     1.6512    65.4237 </r>
       <r>     7.8126     1.6400    65.5508 </r>
       <r>     7.8901     1.6510    65.6787 </r>
       <r>     7.9676     1.6759    65.8086 </r>
       <r>     8.0451     1.7008    65.9404 </r>
       <r>     8.1226     1.7159    66.0733 </r>
       <r>     8.2001     1.7199    66.2066 </r>
       <r>     8.2776     1.7161    66.3396 </r>
       <r>     8.3550     1.7077    66.4719 </r>
       <r>     8.4325     1.6962    66.6033 </r>
       <r>     8.5100     1.6824    66.7337 </r>
       <r>     8.5875     1.6663    66.8628 </r>
       <r>     8.6650     1.6481    66.9905 </r>
       <r>     8.7425     1.6292    67.1168 </r>
       <r>     8.8200     1.6139    67.2418 </r>
       <r>     8.8975     1.6071    67.3664 </r>
       <r>     8.9749     1.6093    67.4911 </r>
       <r>     9.0524     1.6161    67.6163 </r>
       <r>     9.1299     1.6220    67.7420 </r>
       <r>     9.2074     1.6258    67.8679 </r>
       <r>     9.2849     1.6296    67.9942 </r>
       <r>     9.3624     1.6349    68.1209 </r>
       <r>     9.4399     1.6386    68.2479 </r>
       <r>     9.5174     1.6334    68.3744 </r>
       <r>     9.5948     1.6137    68.4995 </r>
       <r>     9.6723     1.5808    68.6220 </r>
       <r>     9.7498     1.5449    68.7417 </r>
       <r>     9.8273     1.5200    68.8595 </r>
       <r>     9.9048     1.5153    68.9769 </r>
       <r>     9.9823     1.5277    69.0953 </r>
       <r>    10.0598     1.5437    69.2149 </r>
       <r>    10.1373     1.5481    69.3348 </r>
       <r>    10.2147     1.5312    69.4535 </r>
       <r>    10.2922     1.4921    69.5691 </r>
       <r>    10.3697     1.4370    69.6804 </r>
       <r>    10.4472     1.3769    69.7871 </r>
       <r>    10.5247     1.3253    69.8898 </r>
       <r>    10.6022     1.2944    69.9901 </r>
       <r>    10.6797     1.2924    70.0903 </r>
       <r>    10.7572     1.3216    70.1927 </r>
       <r>    10.8346     1.3778    70.2994 </r>
       <r>    10.9121     1.4528    70.4120 </r>
       <r>    10.9896     1.5369    70.5311 </r>
       <r>    11.0671     1.6215    70.6568 </r>
       <r>    11.1446     1.7010    70.7886 </r>
       <r>    11.2221     1.7719    70.9259 </r>
       <r>    11.2996     1.8310    71.0677 </r>
       <r>    11.3771     1.8743    71.2130 </r>
       <r>    11.4545     1.8991    71.3601 </r>
       <r>    11.5320     1.9085    71.5080 </r>
       <r>    11.6095     1.9122    71.6562 </r>
       <r>    11.6870     1.9202    71.8050 </r>
       <r>    11.7645     1.9350    71.9549 </r>
       <r>    11.8420     1.9491    72.1059 </r>
       <r>    11.9195     1.9527    72.2573 </r>
       <r>    11.9970     1.9413    72.4077 </r>
       <r>    12.0744     1.9168    72.5562 </r>
       <r>    12.1519     1.8830    72.7021 </r>
       <r>    12.2294     1.8422    72.8449 </r>
       <r>    12.3069     1.7985    72.9842 </r>
       <r>    12.3844     1.7594    73.1206 </r>
       <r>    12.4619     1.7345    73.2550 </r>
       <r>    12.5394     1.7291    73.3889 </r>
       <r>    12.6168     1.7412    73.5239 </r>
       <r>    12.6943     1.7621    73.6604 </r>
       <r>    12.7718     1.7798    73.7983 </r>
       <r>    12.8493     1.7844    73.9366 </r>
       <r>    12.9268     1.7727    74.0739 </r>
       <r>    13.0043     1.7495    74.2095 </r>
       <r>    13.0818     1.7241    74.3431 </r>
       <r>    13.1593     1.7045    74.4752 </r>
       <r>    13.2367     1.6944    74.6065 </r>
       <r>    13.3142     1.6934    74.7377 </r>
       <r>    13.3917     1.6989    74.8693 </r>
       <r>    13.4692     1.7071    75.0016 </r>
       <r>    13.5467     1.7143    75.1344 </r>
       <r>    13.6242     1.7187    75.2676 </r>
       <r>    13.7017     1.7235    75.4012 </r>
       <r>    13.7792     1.7382    75.5359 </r>
       <r>    13.8566     1.7755    75.6734 </r>
       <r>    13.9341     1.8434    75.8163 </r>
       <r>    14.0116     1.9375    75.9664 </r>
       <r>    14.0891     2.0395    76.1244 </r>
       <r>    14.1666     2.1253    76.2891 </r>
       <r>    14.2441     2.1768    76.4578 </r>
       <r>    14.3216     2.1901    76.6275 </r>
       <r>    14.3991     2.1735    76.7959 </r>
       <r>    14.4765     2.1393    76.9617 </r>
       <r>    14.5540     2.0973    77.1242 </r>
       <r>    14.6315     2.0544    77.2834 </r>
       <r>    14.7090     2.0160    77.4396 </r>
       <r>    14.7865     1.9837    77.5933 </r>
       <r>    14.8640     1.9522    77.7446 </r>
       <r>    14.9415     1.9100    77.8926 </r>
       <r>    15.0190     1.8470    78.0357 </r>
       <r>    15.0964     1.7633    78.1724 </r>
       <r>    15.1739     1.6709    78.3018 </r>
       <r>    15.2514     1.5864    78.4248 </r>
       <r>    15.3289     1.5190    78.5425 </r>
       <r>    15.4064     1.4649    78.6560 </r>
       <r>    15.4839     1.4129    78.7655 </r>
       <r>    15.5614     1.3552    78.8705 </r>
       <r>    15.6389     1.2941    78.9707 </r>
       <r>    15.7163     1.2384    79.0667 </r>
       <r>    15.7938     1.1938    79.1592 </r>
       <r>    15.8713     1.1580    79.2489 </r>
       <r>    15.9488     1.1248    79.3361 </r>
       <r>    16.0263     1.0946    79.4209 </r>
       <r>    16.1038     1.0767    79.5043 </r>
       <r>    16.1813     1.0796    79.5880 </r>
       <r>    16.2588     1.0940    79.6728 </r>
       <r>    16.3362     1.0875    79.7570 </r>
       <r>    16.4137     1.0191    79.8360 </r>
       <r>    16.4912     0.8674    79.9032 </r>
       <r>    16.5687     0.6490    79.9535 </r>
       <r>    16.6462     0.4118    79.9854 </r>
       <r>    16.7237     0.2084    80.0015 </r>
       <r>    16.8012     0.0701    80.0070 </r>
       <r>    16.8786    -0.0018    80.0068 </r>
       <r>    16.9561    -0.0261    80.0048 </r>
       <r>    17.0336    -0.0258    80.0028 </r>
       <r>    17.1111    -0.0177    80.0014 </r>
       <r>    17.1886    -0.0100    80.0007 </r>
       <r>    17.2661    -0.0049    80.0003 </r>
       <r>    17.3436    -0.0022    80.0001 </r>
       <r>    17.4211    -0.0009    80.0000 </r>
       <r>    17.4985    -0.0003    80.0000 </r>
       <r>    17.5760    -0.0001    80.0000 </r>
       <r>    17.6535     0.0000    80.0000 </r>
       <r>    17.7310     0.0000    80.0000 </r>
       <r>    17.8085     0.0000    80.0000 </r>
       <r>    17.8860     0.0000    80.0000 </r>
       <r>    17.9635     0.0000    80.0000 </r>
       <r>    18.0410     0.0000    80.0000 </r>
       <r>    18.1184     0.0000    80.0000 </r>
       <r>    18.1959     0.0000    80.0000 </r>
       <r>    18.2734     0.0000    80.0000 </r>
       <r>    18.3509     0.0000    80.0000 </r>
       <r>    18.4284     0.0000    80.0000 </r>
       <r>    18.5059     0.0000    80.0000 </r>
       <r>    18.5834     0.0000    80.0000 </r>
       <r>    18.6609     0.0000    80.0000 </r>
       <r>    18.7383     0.0000    80.0000 </r>
       <r>    18.8158     0.0000    80.0000 </r>
       <r>    18.8933     0.0000    80.0000 </r>
       <r>    18.9708     0.0000    80.0000 </r>
       <r>    19.0483     0.0000    80.0000 </r>
       <r>    19.1258     0.0000    80.0000 </r>
       <r>    19.2033     0.0000    80.0000 </r>
       <r>    19.2808     0.0000    80.0000 </r>
       <r>    19.3582     0.0000    80.0000 </r>
       <r>    19.4357     0.0000    80.0000 </r>
       <r>    19.5132     0.0000    80.0000 </r>
       <r>    19.5907     0.0000    80.0000 </r>
       <r>    19.6682     0.0000    80.0000 </r>
       <r>    19.7457     0.0000    80.0000 </r>
       <r>    19.8232     0.0000    80.0000 </r>
      </set>
     </set>
    </array>
   </total>
  </dos>
 </calculation>
 <structure name="finalpos" >
  <crystal>
   <varray name="basis" >
    <v>       0.00000000       2.05207573       2.05207573 </v>
    <v>       0.07386054      -4.12455752       4.12455752 </v>
    <v>       5.98996278      -0.05135442      -2.00072131 </v>
   </varray>
   <i name="volume">    101.69240480 </i>
   <varray name="rec_basis" >
    <v>       0.08323045       0.24440095       0.24291050 </v>
    <v>       0.03933675      -0.12087291       0.12087291 </v>
    <v>       0.16646090       0.00149045      -0.00149045 </v>
   </varray>
  </crystal>
  <varray name="positions" >
   <v>       0.33333333       0.16666667       0.66666667 </v>
   <v>       0.66618386       0.83942265       0.33236773 </v>
   <v>       0.33333333       0.66666667       0.66666667 </v>
   <v>       0.00048280       0.49391068       0.00096560 </v>
   <v>       0.99004344       0.00628826       0.98008689 </v>
   <v>       0.67662322       0.32704507       0.35324644 </v>
  </varray>
 </structure>
</modeling>
