<?xml version="1.0" encoding="ISO-8859-1"?>
<modeling>
 <generator>
  <i name="program" type="string">vasp </i>
  <i name="version" type="string">5.3.5  </i>
  <i name="subversion" type="string">31Mar14 (build Jun 20 2014 13:15:13) complex                          parallel </i>
  <i name="platform" type="string">LinuxIFC </i>
  <i name="date" type="string">2025 12 12 </i>
  <i name="time" type="string">13:31:50 </i>
 </generator>
 <incar>
  <i type="string" name="PREC">accurate</i>
  <i type="int" name="IALGO">    38</i>
  <i type="logical" name="ADDGRID"> T  </i>
  <i type="int" name="ISPIN">     2</i>
  <i type="int" name="NELM">   100</i>
  <i type="int" name="NELMIN">     4</i>
  <i name="EDIFF">      0.00000100</i>
  <i name="ENCUT">    500.00000000</i>
  <i type="logical" name="LREAL"> F  </i>
  <i type="int" name="ISMEAR">     0</i>
  <i name="SIGMA">      0.05000000</i>
  <i type="logical" name="LWAVE"> F  </i>
  <i type="logical" name="LCHARG"> F  </i>
  <i type="int" name="NELM">   100</i>
  <i type="logical" name="LDAU"> T  </i>
  <v name="LDAUU">      0.00000000      4.00000000      0.00000000</v>
  <v name="LDAUJ">      0.00000000      0.00000000      0.00000000</v>
 </incar>
 <kpoints>
  <generation param="Auto">
   <i name="subdivisionlength">     20.00000000 </i>
   <v type="int" name="divisions">       5        3        3 </v>
   <v name="usershift">      0.00000000       0.00000000       0.00000000 </v>
   <v name="genvec1">      0.20000000       0.00000000       0.00000000 </v>
   <v name="genvec2">      0.00000000       0.33333333       0.00000000 </v>
   <v name="genvec3">      0.00000000       0.00000000       0.33333333 </v>
   <v name="shift">      0.00000000       0.00000000       0.00000000 </v>
  </generation>
  <varray name="kpointlist" >
   <v>       0.00000000       0.00000000       0.00000000 </v>
   <v>       0.20000000       0.00000000       0.00000000 </v>
   <v>       0.40000000       0.00000000       0.00000000 </v>
   <v>       0.00000000       0.33333333       0.00000000 </v>
   <v>       0.20000000       0.33333333       0.00000000 </v>
   <v>       0.40000000       0.33333333       0.00000000 </v>
   <v>       0.00000000       0.00000000       0.33333333 </v>
   <v>       0.20000000       0.00000000       0.33333333 </v>
   <v>       0.40000000       0.00000000       0.33333333 </v>
   <v>       0.00000000       0.33333333       0.33333333 </v>
   <v>       0.20000000       0.33333333       0.33333333 </v>
   <v>       0.40000000       0.33333333       0.33333333 </v>
  </varray>
  <varray name="weights" >
   <v>       0.02222222 </v>
   <v>       0.04444444 </v>
   <v>       0.04444444 </v>
   <v>       0.04444444 </v>
   <v>       0.08888889 </v>
   <v>       0.08888889 </v>
   <v>       0.04444444 </v>
   <v>       0.08888889 </v>
   <v>       0.08888889 </v>
   <v>       0.08888889 </v>
   <v>       0.17777778 </v>
   <v>       0.17777778 </v>
  </varray>
 </kpoints>
 <parameters>
  <separator name="general" >
   <i type="string" name="SYSTEM">unknown system</i>
   <i type="logical" name="LCOMPAT"> F  </i>
  </separator>
  <separator name="electronic" >
   <i type="string" name="PREC">accura</i>
   <i name="ENMAX">    500.00000000</i>
   <i name="ENAUG">    586.98000000</i>
   <i name="EDIFF">      0.00000100</i>
   <i type="int" name="IALGO">    38</i>
   <i type="int" name="IWAVPR">    10</i>
   <i type="int" name="NBANDS">    88</i>
   <i name="NELECT">    132.00000000</i>
   <i type="int" name="TURBO">     0</i>
   <i type="int" name="IRESTART">     0</i>
   <i type="int" name="NREBOOT">     0</i>
   <i type="int" name="NMIN">     0</i>
   <i name="EREF">      0.00000000</i>
   <separator name="electronic smearing" >
    <i type="int" name="ISMEAR">     0</i>
    <i name="SIGMA">      0.05000000</i>
    <i name="KSPACING">      0.50000000</i>
    <i type="logical" name="KGAMMA"> T  </i>
   </separator>
   <separator name="electronic projectors" >
    <i type="logical" name="LREAL"> F  </i>
    <v name="ROPT">      0.00000000      0.00000000      0.00000000</v>
    <i type="int" name="LMAXPAW">  -100</i>
    <i type="int" name="LMAXMIX">     2</i>
    <i type="logical" name="NLSPLINE"> F  </i>
   </separator>
   <separator name="electronic startup" >
    <i type="int" name="ISTART">     0</i>
    <i type="int" name="ICHARG">     2</i>
    <i type="int" name="INIWAV">     1</i>
   </separator>
   <separator name="electronic spin" >
    <i type="int" name="ISPIN">     2</i>
    <i type="logical" name="LNONCOLLINEAR"> F  </i>
    <v name="MAGMOM">      1.00000000      1.00000000      1.00000000      1.00000000      1.00000000      1.00000000      1.00000000      1.00000000      1.00000000      1.00000000      1.00000000      1.00000000      1.00000000      1.00000000      1.00000000      1.00000000</v>
    <i name="NUPDOWN">     -1.00000000</i>
    <i type="logical" name="LSORBIT"> F  </i>
    <v name="SAXIS">      0.00000000      0.00000000      1.00000000</v>
    <i type="logical" name="LSPIRAL"> F  </i>
    <v name="QSPIRAL">      0.00000000      0.00000000      0.00000000</v>
    <i type="logical" name="LZEROZ"> F  </i>
   </separator>
   <separator name="electronic exchange-correlation" >
    <i type="logical" name="LASPH"> F  </i>
    <i type="logical" name="LMETAGGA"> F  </i>
   </separator>
   <separator name="electronic convergence" >
    <i type="int" name="NELM">   100</i>
    <i type="int" name="NELMDL">    -5</i>
    <i type="int" name="NELMIN">     4</i>
    <i name="ENINI">    500.00000000</i>
    <separator name="electronic convergence detail" >
     <i type="logical" name="LDIAG"> T  </i>
     <i type="logical" name="LSUBROT"> F  </i>
     <i name="WEIMIN">      0.00000000</i>
     <i name="EBREAK">      0.00000000</i>
     <i name="DEPER">      0.30000000</i>
     <i type="int" name="NRMM">     4</i>
     <i name="TIME">      0.40000000</i>
    </separator>
   </separator>
   <separator name="electronic mixer" >
    <i name="AMIX">      0.40000000</i>
    <i name="BMIX">      1.00000000</i>
    <i name="AMIN">      0.10000000</i>
    <i name="AMIX_MAG">      1.60000000</i>
    <i name="BMIX_MAG">      1.00000000</i>
    <separator name="electronic mixer details" >
     <i type="int" name="IMIX">     4</i>
     <i type="int" name="MAXMIX">   -45</i>
     <i name="WC">    100.00000000</i>
     <i type="int" name="INIMIX">     1</i>
     <i type="int" name="MIXPRE">     1</i>
     <i type="int" name="MREMOVE">     5</i>
    </separator>
   </separator>
   <separator name="electronic dipolcorrection" >
    <i type="logical" name="LDIPOL"> F  </i>
    <i type="logical" name="LMONO"> F  </i>
    <i type="int" name="IDIPOL">     0</i>
    <i name="EPSILON">      1.00000000</i>
    <v name="DIPOL">   -100.00000000   -100.00000000   -100.00000000</v>
    <i name="EFIELD">      0.00000000</i>
   </separator>
  </separator>
  <separator name="grids" >
   <i type="int" name="NGX">    30</i>
   <i type="int" name="NGY">    60</i>
   <i type="int" name="NGZ">    60</i>
   <i type="int" name="NGXF">    60</i>
   <i type="int" name="NGYF">   120</i>
   <i type="int" name="NGZF">   120</i>
   <i type="logical" name="ADDGRID"> T  </i>
  </separator>
  <separator name="ionic" >
   <i type="int" name="NSW">     0</i>
   <i type="int" name="IBRION">    -1</i>
   <i type="int" name="ISIF">     2</i>
   <i name="PSTRESS">      0.00000000</i>
   <i name="EDIFFG">      0.00001000</i>
   <i type="int" name="NFREE">     0</i>
   <i name="POTIM">      0.50000000</i>
   <i name="SMASS">     -3.00000000</i>
   <i name="SCALEE">      1.00000000</i>
  </separator>
  <separator name="ionic md" >
   <i name="TEBEG">      0.00010000</i>
   <i name="TEEND">      0.00010000</i>
   <i type="int" name="NBLOCK">     1</i>
   <i type="int" name="KBLOCK">     1</i>
   <i type="int" name="NPACO">   256</i>
   <i name="APACO">     16.00000000</i>
  </separator>
  <separator name="symmetry" >
   <i type="int" name="ISYM">     2</i>
   <i name="SYMPREC">      0.00001000</i>
  </separator>
  <separator name="dos" >
   <i type="logical" name="LORBIT"> F  </i>
   <v name="RWIGS">     -1.00000000     -1.00000000     -1.00000000</v>
   <i type="int" name="NEDOS">   301</i>
   <i name="EMIN">     10.00000000</i>
   <i name="EMAX">    -10.00000000</i>
   <i name="EFERMI">      0.00000000</i>
  </separator>
  <separator name="writing" >
   <i type="int" name="NWRITE">     2</i>
   <i type="logical" name="LWAVE"> F  </i>
   <i type="logical" name="LCHARG"> F  </i>
   <i type="logical" name="LPARD"> F  </i>
   <i type="logical" name="LVTOT"> F  </i>
   <i type="logical" name="LVHAR"> F  </i>
   <i type="logical" name="LELF"> F  </i>
   <i type="logical" name="LOPTICS"> F  </i>
   <v name="STM">      0.00000000      0.00000000      0.00000000      0.00000000      0.00000000      0.00000000      0.00000000</v>
  </separator>
  <separator name="performance" >
   <i type="int" name="NPAR">     4</i>
   <i type="int" name="NSIM">     4</i>
   <i type="int" name="NBLK">    -1</i>
   <i type="logical" name="LPLANE"> T  </i>
   <i type="logical" name="LSCALAPACK"> T  </i>
   <i type="logical" name="LSCAAWARE"> F  </i>
   <i type="logical" name="LSCALU"> F  </i>
   <i type="logical" name="LASYNC"> F  </i>
   <i type="logical" name="LORBITALREAL"> F  </i>
  </separator>
  <separator name="miscellaneous" >
   <i type="int" name="IDIOT">     3</i>
   <i type="logical" name="LMUSIC"> F  </i>
   <v name="POMASS">     87.62000000     63.54600000     16.00000000</v>
   <v name="DARWINR">      0.00000000      0.00000000      0.00000000</v>
   <v name="DARWINV">      1.00000000      1.00000000      1.00000000</v>
   <i type="logical" name="LCORR"> T  </i>
  </separator>
  <i type="logical" name="GGA_COMPAT"> T  </i>
  <i type="logical" name="LBERRY"> F  </i>
  <i type="int" name="ICORELEVEL">     0</i>
  <i type="logical" name="LDAU"> T  </i>
  <v type="int" name="LDAUTYPE">     2</v>
  <v type="int" name="LDAUL">     2</v>
  <v name="LDAUU">      0.00000000</v>
  <v name="LDAUJ">      0.00000000</v>
  <i type="int" name="LDAUPRINT">     0</i>
  <i type="int" name="I_CONSTRAINED_M">     0</i>
  <separator name="electronic exchange-correlation" >
   <i type="string" name="GGA">--</i>
   <i type="int" name="VOSKOWN">     0</i>
   <i type="logical" name="LHFCALC"> F  </i>
   <i type="string" name="PRECFOCK"></i>
   <i type="logical" name="LSYMGRAD"> F  </i>
   <i type="logical" name="LHFONE"> F  </i>
   <i type="logical" name="LRHFCALC"> F  </i>
   <i type="logical" name="LTHOMAS"> F  </i>
   <i type="logical" name="LMODELHF"> F  </i>
   <i name="ENCUT4O">     -1.00000000</i>
   <i type="int" name="EXXOEP">     0</i>
   <i type="int" name="FOURORBIT">     0</i>
   <i name="AEXX">      0.00000000</i>
   <i name="HFALPHA">      0.00000000</i>
   <i name="MCALPHA">      0.00000000</i>
   <i name="ALDAX">      1.00000000</i>
   <i name="AGGAX">      1.00000000</i>
   <i name="ALDAC">      1.00000000</i>
   <i name="AGGAC">      1.00000000</i>
   <i type="int" name="NKREDX">     1</i>
   <i type="int" name="NKREDY">     1</i>
   <i type="int" name="NKREDZ">     1</i>
   <i type="logical" name="SHIFTRED"> F  </i>
   <i type="logical" name="ODDONLY"> F  </i>
   <i type="logical" name="EVENONLY"> F  </i>
   <i type="int" name="LMAXFOCK">     0</i>
   <i type="int" name="NMAXFOCKAE">     0</i>
   <i type="logical" name="LFOCKAEDFT"> F  </i>
   <i name="HFSCREEN">      0.00000000</i>
   <i name="HFSCREENC">      0.00000000</i>
   <i type="int" name="NBANDSGWLOW">     0</i>
  </separator>
  <separator name="vdW DFT" >
   <i type="logical" name="LUSE_VDW"> F  </i>
   <i name="Zab_VDW">     -0.84910000</i>
   <i name="PARAM1">      0.12340000</i>
   <i name="PARAM2">      1.00000000</i>
   <i name="PARAM3">      0.00000000</i>
  </separator>
  <separator name="model GW" >
   <i type="int" name="MODEL_GW">     0</i>
   <i name="MODEL_EPS0">      9.60000000</i>
   <i name="MODEL_ALPHA">      1.00000000</i>
  </separator>
  <separator name="linear response parameters" >
   <i type="logical" name="LEPSILON"> F  </i>
   <i type="logical" name="LRPA"> F  </i>
   <i type="logical" name="LNABLA"> F  </i>
   <i type="logical" name="LVEL"> F  </i>
   <i type="int" name="KINTER">     0</i>
   <i name="CSHIFT">      0.10000000</i>
   <i name="OMEGAMAX">     -1.00000000</i>
   <i name="DEG_THRESHOLD">      0.00200000</i>
  </separator>
  <separator name="orbital magnetization" >
   <i type="logical" name="NUCIND"> F  </i>
   <v name="MAGPOS">      0.00000000      0.00000000      0.00000000</v>
   <i type="logical" name="LNICSALL"> T  </i>
   <i type="logical" name="ORBITALMAG"> F  </i>
   <i type="logical" name="LMAGBLOCH"> F  </i>
   <i type="logical" name="LCHIMAG"> F  </i>
   <i type="logical" name="LGAUGE"> T  </i>
   <i type="int" name="MAGATOM">     0</i>
   <v name="MAGDIPOL">      0.00000000      0.00000000      0.00000000</v>
   <v name="AVECCONST">      0.00000000      0.00000000      0.00000000</v>
  </separator>
  <separator name="response functions" >
   <i type="logical" name="LADDER"> F  </i>
   <i type="logical" name="LFXC"> F  </i>
   <i type="logical" name="LHARTREE"> T  </i>
   <i type="int" name="IBSE">     0</i>
   <i type="logical" name="LTCTE"> F  </i>
   <i type="logical" name="LTETE"> F  </i>
   <i type="logical" name="LTRIPLET"> F  </i>
   <i type="logical" name="LFXCEPS"> F  </i>
   <i type="logical" name="LFXHEG"> F  </i>
   <i type="logical" name="L2ORDER"> F  </i>
   <i type="logical" name="LUSEW"> F  </i>
   <i name="ENCUTGW">     -2.00000000</i>
   <i name="ENCUTGWSOFT">     -2.00000000</i>
   <i name="ENCUTLF">     -1.00000000</i>
   <i type="int" name="LMAXMP2">    -1</i>
   <i name="SCISSOR">      0.00000000</i>
   <i type="int" name="NOMEGA">     0</i>
   <i type="int" name="NOMEGAR">     0</i>
   <i type="int" name="NBANDSGW">    -1</i>
   <i type="int" name="NBANDSO">    -1</i>
   <i type="int" name="NBANDSV">    -1</i>
   <i type="int" name="NELM">   100</i>
   <i type="int" name="DIM">     3</i>
   <i type="int" name="ANTIRES">     0</i>
   <i name="OMEGAMAX">    -30.00000000</i>
   <i name="OMEGAMIN">    -30.00000000</i>
   <i name="OMEGATL">   -200.00000000</i>
   <i type="int" name="OMEGAGRID">     0</i>
   <i name="CSHIFT">     -0.10000000</i>
   <i type="logical" name="SELFENERGY"> F  </i>
   <i type="logical" name="LSPECTRAL"> F  </i>
   <i type="logical" name="ODDONLYGW"> F  </i>
   <i type="logical" name="EVENONLYGW"> F  </i>
   <i type="int" name="NKREDLFX">     1</i>
   <i type="int" name="NKREDLFY">     1</i>
   <i type="int" name="NKREDLFZ">     1</i>
   <i type="int" name="MAXMEM">  1800</i>
   <i type="int" name="TELESCOPE">     0</i>
   <i type="int" name="TAUPAR">     1</i>
  </separator>
  <separator name="External order field" >
   <i name="OFIELD_KAPPA">      0.00000000</i>
   <v name="OFIELD_K">      0.00000000      0.00000000      0.00000000</v>
   <i name="OFIELD_Q6_NEAR">      0.00000000</i>
   <i name="OFIELD_Q6_FAR">      0.00000000</i>
   <i name="OFIELD_A">      0.00000000</i>
  </separator>
 </parameters>
 <atominfo>
  <atoms>      16 </atoms>
  <types>       3 </types>
  <array name="atoms" >
   <dimension dim="1">ion</dimension>
   <field type="string">element</field>
   <field type="int">atomtype</field>
   <set>
    <rc><c>Sr</c><c>   1</c></rc>
    <rc><c>Sr</c><c>   1</c></rc>
    <rc><c>Sr</c><c>   1</c></rc>
    <rc><c>Sr</c><c>   1</c></rc>
    <rc><c>Cu</c><c>   2</c></rc>
    <rc><c>Cu</c><c>   2</c></rc>
    <rc><c>Cu</c><c>   2</c></rc>
    <rc><c>Cu</c><c>   2</c></rc>
    <rc><c>O </c><c>   3</c></rc>
    <rc><c>O </c><c>   3</c></rc>
    <rc><c>O </c><c>   3</c></rc>
    <rc><c>O </c><c>   3</c></rc>
    <rc><c>O </c><c>   3</c></rc>
    <rc><c>O </c><c>   3</c></rc>
    <rc><c>O </c><c>   3</c></rc>
    <rc><c>O </c><c>   3</c></rc>
   </set>
  </array>
  <array name="atomtypes" >
   <dimension dim="1">type</dimension>
   <field type="int">atomspertype</field>
   <field type="string">element</field>
   <field>mass</field>
   <field>valence</field>
   <field type="string">pseudopotential</field>
   <set>
    <rc><c>   4</c><c>Sr</c><c>     87.62000000</c><c>     10.00000000</c><c>  PAW_PBE Sr_sv 07Sep2000               </c></rc>
    <rc><c>   4</c><c>Cu</c><c>     63.54600000</c><c>     11.00000000</c><c>  PAW_PBE Cu 22Jun2005                  </c></rc>
    <rc><c>   8</c><c>O </c><c>     16.00000000</c><c>      6.00000000</c><c>  PAW_PBE O_s 07Sep2000                 </c></rc>
   </set>
  </array>
 </atominfo>
 <structure name="initialpos" >
  <crystal>
   <varray name="basis" >
    <v>       4.00000000       0.00000000       0.00000000 </v>
    <v>       0.00000000       8.00000000       0.00000000 </v>
    <v>       0.00000000       0.00000000       8.00000000 </v>
   </varray>
   <i name="volume">    256.00000000 </i>
   <varray name="rec_basis" >
    <v>       0.25000000       0.00000000       0.00000000 </v>
    <v>       0.00000000       0.12500000       0.00000000 </v>
    <v>       0.00000000       0.00000000       0.12500000 </v>
   </varray>
  </crystal>
  <varray name="positions" >
   <v>       0.00000000       0.75000000       0.00000000 </v>
   <v>       0.00000000       0.75000000       0.50000000 </v>
   <v>       0.00000000       0.25000000       0.00000000 </v>
   <v>       0.00000000       0.25000000       0.50000000 </v>
   <v>       0.50000000       0.00000000       0.75000000 </v>
   <v>       0.50000000       0.00000000       0.25000000 </v>
   <v>       0.50000000       0.50000000       0.75000000 </v>
   <v>       0.50000000       0.50000000       0.25000000 </v>
   <v>       0.50000000       0.75000000       0.25000000 </v>
   <v>       0.50000000       0.25000000       0.25000000 </v>
   <v>       0.00000000       0.00000000       0.25000000 </v>
   <v>       0.00000000       0.50000000       0.75000000 </v>
   <v>       0.00000000       0.50000000       0.25000000 </v>
   <v>       0.50000000       0.00000000       0.50000000 </v>
   <v>       0.50000000       0.50000000       0.00000000 </v>
   <v>       0.50000000       0.50000000       0.50000000 </v>
  </varray>
 </structure>
 <calculation>
  <scstep>
   <time name="dav">    1.29    1.29</time>
   <time name="total">    1.39    1.40</time>
   <energy>
    <i name="alphaZ">    598.65364144 </i>
    <i name="ewald">  -8379.97731826 </i>
    <i name="hartreedc">  -4063.97887315 </i>
    <i name="XCdc">    543.20736598 </i>
    <i name="pawpsdc">  10188.96972968 </i>
    <i name="pawaedc"> -10517.73277125 </i>
    <i name="eentropy">     -0.00460100 </i>
    <i name="bandstr">    880.94960733 </i>
    <i name="atom">  12395.00728236 </i>
    <i name="e_fr_energy">   1645.09406313 </i>
    <i name="e_wo_entrp">   1645.09866412 </i>
    <i name="e_0_energy">   1645.09636362 </i>
   </energy>
  </scstep>
  <scstep>
   <time name="dav">    1.29    1.30</time>
   <time name="total">    1.30    1.31</time>
   <energy>
    <i name="e_fr_energy">    149.60170648 </i>
    <i name="e_wo_entrp">    149.60885599 </i>
    <i name="e_0_energy">    149.60528123 </i>
   </energy>
  </scstep>
  <scstep>
   <time name="dav">    1.47    1.47</time>
   <time name="total">    1.47    1.49</time>
   <energy>
    <i name="e_fr_energy">    -77.65600021 </i>
    <i name="e_wo_entrp">    -77.64030075 </i>
    <i name="e_0_energy">    -77.64815048 </i>
   </energy>
  </scstep>
  <scstep>
   <time name="dav">    1.82    1.82</time>
   <time name="total">    1.82    1.84</time>
   <energy>
    <i name="e_fr_energy">    -95.87312412 </i>
    <i name="e_wo_entrp">    -95.85790101 </i>
    <i name="e_0_energy">    -95.86551256 </i>
   </energy>
  </scstep>
  <scstep>
   <time name="dav">    2.13    2.13</time>
   <time name="total">    2.29    2.30</time>
   <energy>
    <i name="e_fr_energy">    -96.90840070 </i>
    <i name="e_wo_entrp">    -96.89371480 </i>
    <i name="e_0_energy">    -96.90105775 </i>
   </energy>
  </scstep>
  <scstep>
   <time name="dav">    1.76    1.76</time>
   <time name="total">    2.02    2.03</time>
   <energy>
    <i name="e_fr_energy">    -87.68899277 </i>
    <i name="e_wo_entrp">    -87.67375965 </i>
    <i name="e_0_energy">    -87.68137621 </i>
   </energy>
  </scstep>
  <scstep>
   <time name="dav">    1.77    1.77</time>
   <time name="total">    2.02    2.04</time>
   <energy>
    <i name="e_fr_energy">    -78.16215498 </i>
    <i name="e_wo_entrp">    -78.14800936 </i>
    <i name="e_0_energy">    -78.15508217 </i>
   </energy>
  </scstep>
  <scstep>
   <time name="dav">    1.84    1.84</time>
   <time name="total">    2.09    2.11</time>
   <energy>
    <i name="e_fr_energy">    -78.63353104 </i>
    <i name="e_wo_entrp">    -78.62445946 </i>
    <i name="e_0_energy">    -78.62899525 </i>
   </energy>
  </scstep>
  <scstep>
   <time name="dav">    1.79    1.79</time>
   <time name="total">    2.05    2.06</time>
   <energy>
    <i name="e_fr_energy">    -79.21156322 </i>
    <i name="e_wo_entrp">    -79.20322892 </i>
    <i name="e_0_energy">    -79.20739607 </i>
   </energy>
  </scstep>
  <scstep>
   <time name="dav">    1.71    1.71</time>
   <time name="total">    1.96    1.98</time>
   <energy>
    <i name="e_fr_energy">    -77.04820375 </i>
    <i name="e_wo_entrp">    -77.03454768 </i>
    <i name="e_0_energy">    -77.04137571 </i>
   </energy>
  </scstep>
  <scstep>
   <time name="dav">    1.80    1.80</time>
   <time name="total">    2.05    2.07</time>
   <energy>
    <i name="e_fr_energy">    -77.02467727 </i>
    <i name="e_wo_entrp">    -77.01319945 </i>
    <i name="e_0_energy">    -77.01893836 </i>
   </energy>
  </scstep>
  <scstep>
   <time name="dav">    1.80    1.80</time>
   <time name="total">    2.06    2.07</time>
   <energy>
    <i name="e_fr_energy">    -76.90254330 </i>
    <i name="e_wo_entrp">    -76.89022379 </i>
    <i name="e_0_energy">    -76.89638354 </i>
   </energy>
  </scstep>
  <scstep>
   <time name="dav">    1.92    1.92</time>
   <time name="total">    2.17    2.19</time>
   <energy>
    <i name="e_fr_energy">    -76.89580819 </i>
    <i name="e_wo_entrp">    -76.88673960 </i>
    <i name="e_0_energy">    -76.89127390 </i>
   </energy>
  </scstep>
  <scstep>
   <time name="dav">    1.76    1.76</time>
   <time name="total">    2.01    2.03</time>
   <energy>
    <i name="e_fr_energy">    -76.90571741 </i>
    <i name="e_wo_entrp">    -76.89474500 </i>
    <i name="e_0_energy">    -76.90023120 </i>
   </energy>
  </scstep>
  <scstep>
   <time name="dav">    1.87    1.87</time>
   <time name="total">    2.13    2.14</time>
   <energy>
    <i name="e_fr_energy">    -76.89563643 </i>
    <i name="e_wo_entrp">    -76.88825549 </i>
    <i name="e_0_energy">    -76.89194596 </i>
   </energy>
  </scstep>
  <scstep>
   <time name="dav">    1.79    1.79</time>
   <time name="total">    2.05    2.06</time>
   <energy>
    <i name="e_fr_energy">    -76.89860960 </i>
    <i name="e_wo_entrp">    -76.89202925 </i>
    <i name="e_0_energy">    -76.89531942 </i>
   </energy>
  </scstep>
  <scstep>
   <time name="dav">    1.78    1.78</time>
   <time name="total">    2.04    2.05</time>
   <energy>
    <i name="e_fr_energy">    -76.89906208 </i>
    <i name="e_wo_entrp">    -76.89282183 </i>
    <i name="e_0_energy">    -76.89594195 </i>
   </energy>
  </scstep>
  <scstep>
   <time name="dav">    1.84    1.87</time>
   <time name="total">    2.09    2.14</time>
   <energy>
    <i name="e_fr_energy">    -76.89902652 </i>
    <i name="e_wo_entrp">    -76.89185636 </i>
    <i name="e_0_energy">    -76.89544144 </i>
   </energy>
  </scstep>
  <scstep>
   <time name="dav">    1.71    1.71</time>
   <time name="total">    1.97    1.98</time>
   <energy>
    <i name="e_fr_energy">    -76.89925336 </i>
    <i name="e_wo_entrp">    -76.89205763 </i>
    <i name="e_0_energy">    -76.89565549 </i>
   </energy>
  </scstep>
  <scstep>
   <time name="dav">    1.83    1.83</time>
   <time name="total">    2.08    2.10</time>
   <energy>
    <i name="e_fr_energy">    -76.89931441 </i>
    <i name="e_wo_entrp">    -76.89216845 </i>
    <i name="e_0_energy">    -76.89574143 </i>
   </energy>
  </scstep>
  <scstep>
   <time name="dav">    1.82    1.82</time>
   <time name="total">    2.08    2.09</time>
   <energy>
    <i name="e_fr_energy">    -76.89934650 </i>
    <i name="e_wo_entrp">    -76.89216892 </i>
    <i name="e_0_energy">    -76.89575771 </i>
   </energy>
  </scstep>
  <scstep>
   <time name="dav">    1.84    1.85</time>
   <time name="total">    2.10    2.11</time>
   <energy>
    <i name="e_fr_energy">    -76.89936084 </i>
    <i name="e_wo_entrp">    -76.89214518 </i>
    <i name="e_0_energy">    -76.89575301 </i>
   </energy>
  </scstep>
  <scstep>
   <time name="dav">    1.65    1.66</time>
   <time name="total">    1.91    1.92</time>
   <energy>
    <i name="e_fr_energy">    -76.89937098 </i>
    <i name="e_wo_entrp">    -76.89216004 </i>
    <i name="e_0_energy">    -76.89576551 </i>
   </energy>
  </scstep>
  <scstep>
   <time name="dav">    1.28    1.29</time>
   <time name="total">    1.54    1.55</time>
   <energy>
    <i name="e_fr_energy">    -76.89937763 </i>
    <i name="e_wo_entrp">    -76.89217596 </i>
    <i name="e_0_energy">    -76.89577680 </i>
   </energy>
  </scstep>
  <scstep>
   <time name="dav">    1.28    1.28</time>
   <time name="total">    1.54    1.55</time>
   <energy>
    <i name="e_fr_energy">    -76.89938181 </i>
    <i name="e_wo_entrp">    -76.89217405 </i>
    <i name="e_0_energy">    -76.89577793 </i>
   </energy>
  </scstep>
  <scstep>
   <time name="dav">    1.13    1.13</time>
   <time name="total">    1.38    1.39</time>
   <energy>
    <i name="e_fr_energy">    -76.89938499 </i>
    <i name="e_wo_entrp">    -76.89218236 </i>
    <i name="e_0_energy">    -76.89578367 </i>
   </energy>
  </scstep>
  <scstep>
   <time name="dav">    1.10    1.10</time>
   <time name="total">    1.35    1.37</time>
   <energy>
    <i name="e_fr_energy">    -76.89938743 </i>
    <i name="e_wo_entrp">    -76.89218996 </i>
    <i name="e_0_energy">    -76.89578870 </i>
   </energy>
  </scstep>
  <scstep>
   <time name="dav">    1.27    1.27</time>
   <time name="total">    1.52    1.54</time>
   <energy>
    <i name="e_fr_energy">    -76.89938929 </i>
    <i name="e_wo_entrp">    -76.89219688 </i>
    <i name="e_0_energy">    -76.89579308 </i>
   </energy>
  </scstep>
  <scstep>
   <time name="dav">    1.04    1.04</time>
   <time name="total">    1.14    1.15</time>
   <energy>
    <i name="alphaZ">    598.65364144 </i>
    <i name="ewald">  -8379.97731826 </i>
    <i name="hartreedc">  -4062.65814401 </i>
    <i name="XCdc">    542.90265148 </i>
    <i name="pawpsdc">  15468.65118552 </i>
    <i name="pawaedc"> -15834.05365777 </i>
    <i name="eentropy">     -0.00719015 </i>
    <i name="bandstr">   -805.41783985 </i>
    <i name="atom">  12395.00728236 </i>
    <i name="e_fr_energy">    -76.89938924 </i>
    <i name="e_wo_entrp">    -76.89219909 </i>
    <i name="e_0_energy">    -76.89579416 </i>
   </energy>
  </scstep>
  <structure>
   <crystal>
    <varray name="basis" >
     <v>       4.00000000       0.00000000       0.00000000 </v>
     <v>       0.00000000       8.00000000       0.00000000 </v>
     <v>       0.00000000       0.00000000       8.00000000 </v>
    </varray>
    <i name="volume">    256.00000000 </i>
    <varray name="rec_basis" >
     <v>       0.25000000       0.00000000       0.00000000 </v>
     <v>       0.00000000       0.12500000       0.00000000 </v>
     <v>       0.00000000       0.00000000       0.12500000 </v>
    </varray>
   </crystal>
   <varray name="positions" >
    <v>       0.00000000       0.75000000       0.00000000 </v>
    <v>       0.00000000       0.75000000       0.50000000 </v>
    <v>       0.00000000       0.25000000       0.00000000 </v>
    <v>       0.00000000       0.25000000       0.50000000 </v>
    <v>       0.50000000       0.00000000       0.75000000 </v>
    <v>       0.50000000       0.00000000       0.25000000 </v>
    <v>       0.50000000       0.50000000       0.75000000 </v>
    <v>       0.50000000       0.50000000       0.25000000 </v>
    <v>       0.50000000       0.75000000       0.25000000 </v>
    <v>       0.50000000       0.25000000       0.25000000 </v>
    <v>       0.00000000       0.00000000       0.25000000 </v>
    <v>       0.00000000       0.50000000       0.75000000 </v>
    <v>       0.00000000       0.50000000       0.25000000 </v>
    <v>       0.50000000       0.00000000       0.50000000 </v>
    <v>       0.50000000       0.50000000       0.00000000 </v>
    <v>       0.50000000       0.50000000       0.50000000 </v>
   </varray>
  </structure>
  <varray name="forces" >
   <v>       0.00000000      -1.65951726       1.93494661 </v>
   <v>       0.00000000      -0.67581835      -1.84754486 </v>
   <v>       0.00000000       1.65951726       1.93494661 </v>
   <v>       0.00000000       0.67581835      -1.84754486 </v>
   <v>       0.00000000       0.00000000      -1.05629167 </v>
   <v>       0.00000000       0.00000000       0.38853181 </v>
   <v>       0.00000000       0.00000000      -0.08335084 </v>
   <v>       0.00000000       0.00000000      -0.03193719 </v>
   <v>       0.00000000       0.65634385      -0.56180858 </v>
   <v>       0.00000000      -0.65634385      -0.56180858 </v>
   <v>       0.00000000       0.00000000      -1.01034190 </v>
   <v>       0.00000000       0.00000000       0.08902729 </v>
   <v>       0.00000000       0.00000000      -0.08691125 </v>
   <v>       0.00000000       0.00000000       2.75863152 </v>
   <v>       0.00000000       0.00000000      -1.24371196 </v>
   <v>       0.00000000       0.00000000       1.22516783 </v>
  </varray>
  <varray name="stress" >
   <v>     -80.35327381       0.00000000       0.00000000 </v>
   <v>       0.00000000    -101.91733469       0.00000000 </v>
   <v>       0.00000000       0.00000000     -81.70822239 </v>
  </varray>
  <energy>
   <i name="e_fr_energy">    -76.89938924 </i>
   <i name="e_wo_entrp">    -76.89579416 </i>
   <i name="e_0_energy">     -0.00719015 </i>
  </energy>
  <time name="totalsc">   56.59   57.07</time>
  <eigenvalues>
   <array>
    <dimension dim="1">band</dimension>
    <dimension dim="2">kpoint</dimension>
    <dimension dim="3">spin</dimension>
    <field>eigene</field>
    <field>occ</field>
    <set>
     <set comment="spin 1">
      <set comment="kpoint 1">
       <r>  -31.6572    1.0000 </r>
       <r>  -31.6443    1.0000 </r>
       <r>  -31.1102    1.0000 </r>
       <r>  -31.0966    1.0000 </r>
       <r>  -15.0775    1.0000 </r>
       <r>  -15.0304    1.0000 </r>
       <r>  -14.5925    1.0000 </r>
       <r>  -14.2932    1.0000 </r>
       <r>  -14.2729    1.0000 </r>
       <r>  -14.0094    1.0000 </r>
       <r>  -13.6261    1.0000 </r>
       <r>  -13.6062    1.0000 </r>
       <r>  -13.5910    1.0000 </r>
       <r>  -13.5795    1.0000 </r>
       <r>  -13.5527    1.0000 </r>
       <r>  -13.4403    1.0000 </r>
       <r>  -13.3876    1.0000 </r>
       <r>  -13.1794    1.0000 </r>
       <r>  -13.0274    1.0000 </r>
       <r>  -13.0133    1.0000 </r>
       <r>  -12.9917    1.0000 </r>
       <r>  -12.9327    1.0000 </r>
       <r>  -12.8579    1.0000 </r>
       <r>  -12.5251    1.0000 </r>
       <r>   -2.8680    1.0000 </r>
       <r>   -2.7022    1.0000 </r>
       <r>   -2.3592    1.0000 </r>
       <r>   -2.0349    1.0000 </r>
       <r>   -1.5667    1.0000 </r>
       <r>   -1.5349    1.0000 </r>
       <r>   -1.2373    1.0000 </r>
       <r>   -1.1450    1.0000 </r>
       <r>   -1.0755    1.0000 </r>
       <r>   -1.0475    1.0000 </r>
       <r>   -0.9975    1.0000 </r>
       <r>   -0.9668    1.0000 </r>
       <r>   -0.9561    1.0000 </r>
       <r>   -0.9204    1.0000 </r>
       <r>   -0.8260    1.0000 </r>
       <r>   -0.7557    1.0000 </r>
       <r>   -0.6873    1.0000 </r>
       <r>   -0.5328    1.0000 </r>
       <r>   -0.5241    1.0000 </r>
       <r>   -0.4815    1.0000 </r>
       <r>   -0.4030    1.0000 </r>
       <r>   -0.3631    1.0000 </r>
       <r>   -0.3128    1.0000 </r>
       <r>   -0.2260    1.0000 </r>
       <r>   -0.1018    1.0000 </r>
       <r>   -0.0371    1.0000 </r>
       <r>    0.2153    1.0000 </r>
       <r>    0.4915    1.0000 </r>
       <r>    0.6846    1.0000 </r>
       <r>    0.8621    1.0000 </r>
       <r>    0.8791    1.0000 </r>
       <r>    1.0143    1.0000 </r>
       <r>    1.0853    1.0000 </r>
       <r>    1.2221    1.0000 </r>
       <r>    1.2391    1.0000 </r>
       <r>    1.4440    1.0000 </r>
       <r>    1.5841    1.0000 </r>
       <r>    1.6596    1.0000 </r>
       <r>    1.6971    1.0000 </r>
       <r>    1.6974    1.0000 </r>
       <r>    1.8150    1.0000 </r>
       <r>    1.8817    1.0000 </r>
       <r>    2.0115    1.0000 </r>
       <r>    2.1255    1.0000 </r>
       <r>    2.9041    0.0000 </r>
       <r>    4.2955    0.0000 </r>
       <r>    5.3693    0.0000 </r>
       <r>    5.7574    0.0000 </r>
       <r>    7.1547    0.0000 </r>
       <r>    7.3617    0.0000 </r>
       <r>    7.5218    0.0000 </r>
       <r>    7.5328    0.0000 </r>
       <r>    7.6626    0.0000 </r>
       <r>    8.5610    0.0000 </r>
       <r>    8.5744    0.0000 </r>
       <r>    9.0018    0.0000 </r>
       <r>    9.2059    0.0000 </r>
       <r>    9.2686    0.0000 </r>
       <r>    9.4478    0.0000 </r>
       <r>    9.6078    0.0000 </r>
       <r>    9.6444    0.0000 </r>
       <r>    9.7536    0.0000 </r>
       <r>    9.8186    0.0000 </r>
       <r>    9.8966    0.0000 </r>
      </set>
      <set comment="kpoint 2">
       <r>  -31.6528    1.0000 </r>
       <r>  -31.6402    1.0000 </r>
       <r>  -31.1056    1.0000 </r>
       <r>  -31.0924    1.0000 </r>
       <r>  -14.9685    1.0000 </r>
       <r>  -14.9458    1.0000 </r>
       <r>  -14.5442    1.0000 </r>
       <r>  -14.2544    1.0000 </r>
       <r>  -14.2383    1.0000 </r>
       <r>  -14.1008    1.0000 </r>
       <r>  -13.9165    1.0000 </r>
       <r>  -13.6669    1.0000 </r>
       <r>  -13.6390    1.0000 </r>
       <r>  -13.5384    1.0000 </r>
       <r>  -13.4991    1.0000 </r>
       <r>  -13.3984    1.0000 </r>
       <r>  -13.3911    1.0000 </r>
       <r>  -13.1677    1.0000 </r>
       <r>  -13.1287    1.0000 </r>
       <r>  -12.9596    1.0000 </r>
       <r>  -12.9220    1.0000 </r>
       <r>  -12.8973    1.0000 </r>
       <r>  -12.8248    1.0000 </r>
       <r>  -12.6184    1.0000 </r>
       <r>   -2.9084    1.0000 </r>
       <r>   -2.7448    1.0000 </r>
       <r>   -2.3432    1.0000 </r>
       <r>   -1.9498    1.0000 </r>
       <r>   -1.9372    1.0000 </r>
       <r>   -1.8529    1.0000 </r>
       <r>   -1.8304    1.0000 </r>
       <r>   -1.7890    1.0000 </r>
       <r>   -1.6832    1.0000 </r>
       <r>   -1.3723    1.0000 </r>
       <r>   -1.3553    1.0000 </r>
       <r>   -1.2904    1.0000 </r>
       <r>   -1.2480    1.0000 </r>
       <r>   -1.1503    1.0000 </r>
       <r>   -0.9345    1.0000 </r>
       <r>   -0.7351    1.0000 </r>
       <r>   -0.6903    1.0000 </r>
       <r>   -0.5786    1.0000 </r>
       <r>   -0.4661    1.0000 </r>
       <r>   -0.4545    1.0000 </r>
       <r>   -0.2934    1.0000 </r>
       <r>   -0.2701    1.0000 </r>
       <r>   -0.2564    1.0000 </r>
       <r>    0.0341    1.0000 </r>
       <r>    0.1299    1.0000 </r>
       <r>    0.4057    1.0000 </r>
       <r>    0.5325    1.0000 </r>
       <r>    0.8121    1.0000 </r>
       <r>    0.8876    1.0000 </r>
       <r>    0.9679    1.0000 </r>
       <r>    1.0147    1.0000 </r>
       <r>    1.0824    1.0000 </r>
       <r>    1.1098    1.0000 </r>
       <r>    1.2712    1.0000 </r>
       <r>    1.3591    1.0000 </r>
       <r>    1.4048    1.0000 </r>
       <r>    1.6614    1.0000 </r>
       <r>    1.6849    1.0000 </r>
       <r>    1.7562    1.0000 </r>
       <r>    1.8958    1.0000 </r>
       <r>    1.9187    1.0000 </r>
       <r>    2.0664    1.0000 </r>
       <r>    2.3963    0.9993 </r>
       <r>    2.8037    0.0000 </r>
       <r>    3.4436    0.0000 </r>
       <r>    4.4051    0.0000 </r>
       <r>    5.1891    0.0000 </r>
       <r>    5.8123    0.0000 </r>
       <r>    6.8547    0.0000 </r>
       <r>    7.4123    0.0000 </r>
       <r>    7.5466    0.0000 </r>
       <r>    7.8381    0.0000 </r>
       <r>    7.8784    0.0000 </r>
       <r>    8.0481    0.0000 </r>
       <r>    8.1677    0.0000 </r>
       <r>    9.0336    0.0000 </r>
       <r>    9.1550    0.0000 </r>
       <r>    9.4327    0.0000 </r>
       <r>    9.6155    0.0000 </r>
       <r>    9.8243    0.0000 </r>
       <r>    9.8949    0.0000 </r>
       <r>    9.9933    0.0000 </r>
       <r>   10.1274    0.0000 </r>
       <r>   10.2477    0.0000 </r>
      </set>
      <set comment="kpoint 3">
       <r>  -31.6456    1.0000 </r>
       <r>  -31.6334    1.0000 </r>
       <r>  -31.0980    1.0000 </r>
       <r>  -31.0855    1.0000 </r>
       <r>  -14.8936    1.0000 </r>
       <r>  -14.6710    1.0000 </r>
       <r>  -14.5007    1.0000 </r>
       <r>  -14.2746    1.0000 </r>
       <r>  -14.2654    1.0000 </r>
       <r>  -14.0674    1.0000 </r>
       <r>  -14.0395    1.0000 </r>
       <r>  -13.7613    1.0000 </r>
       <r>  -13.6938    1.0000 </r>
       <r>  -13.5381    1.0000 </r>
       <r>  -13.5113    1.0000 </r>
       <r>  -13.4897    1.0000 </r>
       <r>  -13.3648    1.0000 </r>
       <r>  -13.2045    1.0000 </r>
       <r>  -13.1619    1.0000 </r>
       <r>  -12.9889    1.0000 </r>
       <r>  -12.9506    1.0000 </r>
       <r>  -12.9224    1.0000 </r>
       <r>  -12.7154    1.0000 </r>
       <r>  -12.6420    1.0000 </r>
       <r>   -3.2030    1.0000 </r>
       <r>   -2.9967    1.0000 </r>
       <r>   -2.7639    1.0000 </r>
       <r>   -2.5265    1.0000 </r>
       <r>   -2.3850    1.0000 </r>
       <r>   -2.3099    1.0000 </r>
       <r>   -2.2043    1.0000 </r>
       <r>   -2.1955    1.0000 </r>
       <r>   -1.8391    1.0000 </r>
       <r>   -1.6654    1.0000 </r>
       <r>   -1.5658    1.0000 </r>
       <r>   -1.4919    1.0000 </r>
       <r>   -1.4342    1.0000 </r>
       <r>   -1.2978    1.0000 </r>
       <r>   -0.9277    1.0000 </r>
       <r>   -0.6399    1.0000 </r>
       <r>   -0.5585    1.0000 </r>
       <r>   -0.5259    1.0000 </r>
       <r>   -0.5139    1.0000 </r>
       <r>   -0.4151    1.0000 </r>
       <r>   -0.3018    1.0000 </r>
       <r>   -0.1865    1.0000 </r>
       <r>   -0.1334    1.0000 </r>
       <r>    0.2792    1.0000 </r>
       <r>    0.5251    1.0000 </r>
       <r>    0.6996    1.0000 </r>
       <r>    0.7427    1.0000 </r>
       <r>    0.8915    1.0000 </r>
       <r>    0.9644    1.0000 </r>
       <r>    1.0026    1.0000 </r>
       <r>    1.0983    1.0000 </r>
       <r>    1.1330    1.0000 </r>
       <r>    1.2931    1.0000 </r>
       <r>    1.3878    1.0000 </r>
       <r>    1.3879    1.0000 </r>
       <r>    1.5030    1.0000 </r>
       <r>    1.6755    1.0000 </r>
       <r>    1.6913    1.0000 </r>
       <r>    1.7764    1.0000 </r>
       <r>    1.9818    1.0000 </r>
       <r>    2.3550    1.0000 </r>
       <r>    2.3776    0.9999 </r>
       <r>    2.9346    0.0000 </r>
       <r>    3.8588    0.0000 </r>
       <r>    4.0201    0.0000 </r>
       <r>    4.2306    0.0000 </r>
       <r>    4.3766    0.0000 </r>
       <r>    6.1108    0.0000 </r>
       <r>    6.9483    0.0000 </r>
       <r>    7.1218    0.0000 </r>
       <r>    7.7360    0.0000 </r>
       <r>    7.9507    0.0000 </r>
       <r>    8.4124    0.0000 </r>
       <r>    8.4890    0.0000 </r>
       <r>    8.8762    0.0000 </r>
       <r>    9.1975    0.0000 </r>
       <r>    9.2744    0.0000 </r>
       <r>    9.6540    0.0000 </r>
       <r>    9.9776    0.0000 </r>
       <r>   10.0624    0.0000 </r>
       <r>   10.2203    0.0000 </r>
       <r>   10.2728    0.0000 </r>
       <r>   10.3140    0.0000 </r>
       <r>   10.7217    0.0000 </r>
      </set>
      <set comment="kpoint 4">
       <r>  -31.6540    1.0000 </r>
       <r>  -31.6476    1.0000 </r>
       <r>  -31.1068    1.0000 </r>
       <r>  -31.1000    1.0000 </r>
       <r>  -15.0279    1.0000 </r>
       <r>  -14.9752    1.0000 </r>
       <r>  -14.7020    1.0000 </r>
       <r>  -14.4024    1.0000 </r>
       <r>  -14.1944    1.0000 </r>
       <r>  -13.9552    1.0000 </r>
       <r>  -13.7525    1.0000 </r>
       <r>  -13.6232    1.0000 </r>
       <r>  -13.5999    1.0000 </r>
       <r>  -13.5858    1.0000 </r>
       <r>  -13.4926    1.0000 </r>
       <r>  -13.4240    1.0000 </r>
       <r>  -13.3827    1.0000 </r>
       <r>  -13.1465    1.0000 </r>
       <r>  -13.0185    1.0000 </r>
       <r>  -13.0007    1.0000 </r>
       <r>  -12.9856    1.0000 </r>
       <r>  -12.8930    1.0000 </r>
       <r>  -12.8256    1.0000 </r>
       <r>  -12.6017    1.0000 </r>
       <r>   -2.7756    1.0000 </r>
       <r>   -2.5008    1.0000 </r>
       <r>   -2.3501    1.0000 </r>
       <r>   -1.9264    1.0000 </r>
       <r>   -1.6563    1.0000 </r>
       <r>   -1.5300    1.0000 </r>
       <r>   -1.5084    1.0000 </r>
       <r>   -1.4387    1.0000 </r>
       <r>   -1.2875    1.0000 </r>
       <r>   -1.1236    1.0000 </r>
       <r>   -0.9999    1.0000 </r>
       <r>   -0.9762    1.0000 </r>
       <r>   -0.9325    1.0000 </r>
       <r>   -0.9077    1.0000 </r>
       <r>   -0.7616    1.0000 </r>
       <r>   -0.7038    1.0000 </r>
       <r>   -0.6754    1.0000 </r>
       <r>   -0.5590    1.0000 </r>
       <r>   -0.5065    1.0000 </r>
       <r>   -0.4656    1.0000 </r>
       <r>   -0.4410    1.0000 </r>
       <r>   -0.3700    1.0000 </r>
       <r>   -0.3385    1.0000 </r>
       <r>   -0.2223    1.0000 </r>
       <r>    0.0309    1.0000 </r>
       <r>    0.1256    1.0000 </r>
       <r>    0.4294    1.0000 </r>
       <r>    0.6073    1.0000 </r>
       <r>    0.6438    1.0000 </r>
       <r>    0.8258    1.0000 </r>
       <r>    0.9412    1.0000 </r>
       <r>    0.9750    1.0000 </r>
       <r>    1.1187    1.0000 </r>
       <r>    1.2359    1.0000 </r>
       <r>    1.2809    1.0000 </r>
       <r>    1.3891    1.0000 </r>
       <r>    1.5205    1.0000 </r>
       <r>    1.5602    1.0000 </r>
       <r>    1.6911    1.0000 </r>
       <r>    1.7041    1.0000 </r>
       <r>    1.7221    1.0000 </r>
       <r>    1.8503    1.0000 </r>
       <r>    2.0015    1.0000 </r>
       <r>    2.3975    0.9992 </r>
       <r>    2.7142    0.0000 </r>
       <r>    4.1143    0.0000 </r>
       <r>    5.5213    0.0000 </r>
       <r>    6.2432    0.0000 </r>
       <r>    6.8741    0.0000 </r>
       <r>    7.4447    0.0000 </r>
       <r>    7.5132    0.0000 </r>
       <r>    7.7474    0.0000 </r>
       <r>    7.9671    0.0000 </r>
       <r>    8.1591    0.0000 </r>
       <r>    8.5569    0.0000 </r>
       <r>    8.7984    0.0000 </r>
       <r>    8.9000    0.0000 </r>
       <r>    9.0416    0.0000 </r>
       <r>    9.6534    0.0000 </r>
       <r>    9.6993    0.0000 </r>
       <r>    9.7732    0.0000 </r>
       <r>    9.8230    0.0000 </r>
       <r>    9.9555    0.0000 </r>
       <r>   10.0235    0.0000 </r>
      </set>
      <set comment="kpoint 5">
       <r>  -31.6496    1.0000 </r>
       <r>  -31.6433    1.0000 </r>
       <r>  -31.1023    1.0000 </r>
       <r>  -31.0957    1.0000 </r>
       <r>  -14.9331    1.0000 </r>
       <r>  -14.8918    1.0000 </r>
       <r>  -14.6264    1.0000 </r>
       <r>  -14.3482    1.0000 </r>
       <r>  -14.2011    1.0000 </r>
       <r>  -14.0318    1.0000 </r>
       <r>  -13.9384    1.0000 </r>
       <r>  -13.7186    1.0000 </r>
       <r>  -13.6842    1.0000 </r>
       <r>  -13.5088    1.0000 </r>
       <r>  -13.4717    1.0000 </r>
       <r>  -13.3918    1.0000 </r>
       <r>  -13.3765    1.0000 </r>
       <r>  -13.1772    1.0000 </r>
       <r>  -13.0706    1.0000 </r>
       <r>  -12.9865    1.0000 </r>
       <r>  -12.9715    1.0000 </r>
       <r>  -12.8585    1.0000 </r>
       <r>  -12.7741    1.0000 </r>
       <r>  -12.6619    1.0000 </r>
       <r>   -2.8253    1.0000 </r>
       <r>   -2.5143    1.0000 </r>
       <r>   -2.3368    1.0000 </r>
       <r>   -1.9495    1.0000 </r>
       <r>   -1.8888    1.0000 </r>
       <r>   -1.8710    1.0000 </r>
       <r>   -1.8200    1.0000 </r>
       <r>   -1.7074    1.0000 </r>
       <r>   -1.6570    1.0000 </r>
       <r>   -1.6309    1.0000 </r>
       <r>   -1.4162    1.0000 </r>
       <r>   -1.3489    1.0000 </r>
       <r>   -1.2905    1.0000 </r>
       <r>   -1.2870    1.0000 </r>
       <r>   -1.1661    1.0000 </r>
       <r>   -0.9328    1.0000 </r>
       <r>   -0.6378    1.0000 </r>
       <r>   -0.5112    1.0000 </r>
       <r>   -0.4665    1.0000 </r>
       <r>   -0.4533    1.0000 </r>
       <r>   -0.2933    1.0000 </r>
       <r>   -0.2622    1.0000 </r>
       <r>   -0.2424    1.0000 </r>
       <r>   -0.1159    1.0000 </r>
       <r>    0.3681    1.0000 </r>
       <r>    0.5368    1.0000 </r>
       <r>    0.7937    1.0000 </r>
       <r>    0.8258    1.0000 </r>
       <r>    0.9126    1.0000 </r>
       <r>    0.9753    1.0000 </r>
       <r>    1.0241    1.0000 </r>
       <r>    1.0774    1.0000 </r>
       <r>    1.1369    1.0000 </r>
       <r>    1.2137    1.0000 </r>
       <r>    1.2494    1.0000 </r>
       <r>    1.4089    1.0000 </r>
       <r>    1.5322    1.0000 </r>
       <r>    1.6468    1.0000 </r>
       <r>    1.6897    1.0000 </r>
       <r>    1.9170    1.0000 </r>
       <r>    1.9409    1.0000 </r>
       <r>    2.3809    0.9999 </r>
       <r>    2.4444    0.9660 </r>
       <r>    2.8148    0.0000 </r>
       <r>    3.2552    0.0000 </r>
       <r>    4.3712    0.0000 </r>
       <r>    5.2516    0.0000 </r>
       <r>    5.8135    0.0000 </r>
       <r>    7.0651    0.0000 </r>
       <r>    7.3083    0.0000 </r>
       <r>    7.6845    0.0000 </r>
       <r>    7.8331    0.0000 </r>
       <r>    8.1070    0.0000 </r>
       <r>    8.3028    0.0000 </r>
       <r>    8.4431    0.0000 </r>
       <r>    8.5281    0.0000 </r>
       <r>    8.8809    0.0000 </r>
       <r>    9.2442    0.0000 </r>
       <r>    9.5264    0.0000 </r>
       <r>    9.6835    0.0000 </r>
       <r>    9.8749    0.0000 </r>
       <r>    9.9403    0.0000 </r>
       <r>   10.0529    0.0000 </r>
       <r>   10.1265    0.0000 </r>
      </set>
      <set comment="kpoint 6">
       <r>  -31.6426    1.0000 </r>
       <r>  -31.6365    1.0000 </r>
       <r>  -31.0949    1.0000 </r>
       <r>  -31.0887    1.0000 </r>
       <r>  -14.8219    1.0000 </r>
       <r>  -14.6777    1.0000 </r>
       <r>  -14.5108    1.0000 </r>
       <r>  -14.2746    1.0000 </r>
       <r>  -14.2576    1.0000 </r>
       <r>  -14.1838    1.0000 </r>
       <r>  -14.1122    1.0000 </r>
       <r>  -13.7485    1.0000 </r>
       <r>  -13.6983    1.0000 </r>
       <r>  -13.5156    1.0000 </r>
       <r>  -13.4661    1.0000 </r>
       <r>  -13.4150    1.0000 </r>
       <r>  -13.3625    1.0000 </r>
       <r>  -13.2018    1.0000 </r>
       <r>  -13.1441    1.0000 </r>
       <r>  -13.0067    1.0000 </r>
       <r>  -12.9034    1.0000 </r>
       <r>  -12.8810    1.0000 </r>
       <r>  -12.7737    1.0000 </r>
       <r>  -12.7092    1.0000 </r>
       <r>   -3.1298    1.0000 </r>
       <r>   -2.8606    1.0000 </r>
       <r>   -2.7694    1.0000 </r>
       <r>   -2.3964    1.0000 </r>
       <r>   -2.3745    1.0000 </r>
       <r>   -2.3042    1.0000 </r>
       <r>   -2.1694    1.0000 </r>
       <r>   -2.0537    1.0000 </r>
       <r>   -1.7846    1.0000 </r>
       <r>   -1.7458    1.0000 </r>
       <r>   -1.6641    1.0000 </r>
       <r>   -1.5045    1.0000 </r>
       <r>   -1.4898    1.0000 </r>
       <r>   -1.4726    1.0000 </r>
       <r>   -1.3652    1.0000 </r>
       <r>   -0.9422    1.0000 </r>
       <r>   -0.5498    1.0000 </r>
       <r>   -0.5358    1.0000 </r>
       <r>   -0.4558    1.0000 </r>
       <r>   -0.3774    1.0000 </r>
       <r>   -0.3073    1.0000 </r>
       <r>   -0.2050    1.0000 </r>
       <r>   -0.1389    1.0000 </r>
       <r>    0.4346    1.0000 </r>
       <r>    0.6167    1.0000 </r>
       <r>    0.6689    1.0000 </r>
       <r>    0.7999    1.0000 </r>
       <r>    0.9431    1.0000 </r>
       <r>    0.9973    1.0000 </r>
       <r>    1.0262    1.0000 </r>
       <r>    1.0768    1.0000 </r>
       <r>    1.1636    1.0000 </r>
       <r>    1.2510    1.0000 </r>
       <r>    1.3039    1.0000 </r>
       <r>    1.4690    1.0000 </r>
       <r>    1.5529    1.0000 </r>
       <r>    1.6423    1.0000 </r>
       <r>    1.7380    1.0000 </r>
       <r>    1.8729    1.0000 </r>
       <r>    2.1439    1.0000 </r>
       <r>    2.3545    1.0000 </r>
       <r>    2.5170    0.4092 </r>
       <r>    2.9348    0.0000 </r>
       <r>    3.6652    0.0000 </r>
       <r>    3.9293    0.0000 </r>
       <r>    4.1719    0.0000 </r>
       <r>    4.7831    0.0000 </r>
       <r>    5.8300    0.0000 </r>
       <r>    6.7332    0.0000 </r>
       <r>    7.1515    0.0000 </r>
       <r>    7.9132    0.0000 </r>
       <r>    8.0860    0.0000 </r>
       <r>    8.4701    0.0000 </r>
       <r>    8.5782    0.0000 </r>
       <r>    8.7932    0.0000 </r>
       <r>    9.0360    0.0000 </r>
       <r>    9.2405    0.0000 </r>
       <r>    9.5651    0.0000 </r>
       <r>    9.6697    0.0000 </r>
       <r>   10.0093    0.0000 </r>
       <r>   10.1137    0.0000 </r>
       <r>   10.2008    0.0000 </r>
       <r>   10.3521    0.0000 </r>
       <r>   10.5129    0.0000 </r>
      </set>
      <set comment="kpoint 7">
       <r>  -31.6571    1.0000 </r>
       <r>  -31.6443    1.0000 </r>
       <r>  -31.1103    1.0000 </r>
       <r>  -31.0967    1.0000 </r>
       <r>  -15.0287    1.0000 </r>
       <r>  -14.9764    1.0000 </r>
       <r>  -14.7562    1.0000 </r>
       <r>  -14.2584    1.0000 </r>
       <r>  -14.2485    1.0000 </r>
       <r>  -13.9559    1.0000 </r>
       <r>  -13.7316    1.0000 </r>
       <r>  -13.6060    1.0000 </r>
       <r>  -13.5925    1.0000 </r>
       <r>  -13.5793    1.0000 </r>
       <r>  -13.5581    1.0000 </r>
       <r>  -13.4498    1.0000 </r>
       <r>  -13.3787    1.0000 </r>
       <r>  -13.1434    1.0000 </r>
       <r>  -13.0277    1.0000 </r>
       <r>  -12.9951    1.0000 </r>
       <r>  -12.9920    1.0000 </r>
       <r>  -12.9086    1.0000 </r>
       <r>  -12.8624    1.0000 </r>
       <r>  -12.5402    1.0000 </r>
       <r>   -2.8219    1.0000 </r>
       <r>   -2.4479    1.0000 </r>
       <r>   -2.3881    1.0000 </r>
       <r>   -2.0075    1.0000 </r>
       <r>   -1.5949    1.0000 </r>
       <r>   -1.5656    1.0000 </r>
       <r>   -1.4852    1.0000 </r>
       <r>   -1.2382    1.0000 </r>
       <r>   -1.2361    1.0000 </r>
       <r>   -1.1446    1.0000 </r>
       <r>   -1.1389    1.0000 </r>
       <r>   -1.0753    1.0000 </r>
       <r>   -0.8922    1.0000 </r>
       <r>   -0.8767    1.0000 </r>
       <r>   -0.7560    1.0000 </r>
       <r>   -0.7465    1.0000 </r>
       <r>   -0.6692    1.0000 </r>
       <r>   -0.5417    1.0000 </r>
       <r>   -0.4985    1.0000 </r>
       <r>   -0.4442    1.0000 </r>
       <r>   -0.3050    1.0000 </r>
       <r>   -0.2983    1.0000 </r>
       <r>   -0.2486    1.0000 </r>
       <r>   -0.2259    1.0000 </r>
       <r>   -0.0553    1.0000 </r>
       <r>   -0.0158    1.0000 </r>
       <r>    0.3267    1.0000 </r>
       <r>    0.4102    1.0000 </r>
       <r>    0.6777    1.0000 </r>
       <r>    0.8076    1.0000 </r>
       <r>    0.8342    1.0000 </r>
       <r>    1.0932    1.0000 </r>
       <r>    1.0988    1.0000 </r>
       <r>    1.2390    1.0000 </r>
       <r>    1.3037    1.0000 </r>
       <r>    1.4895    1.0000 </r>
       <r>    1.5821    1.0000 </r>
       <r>    1.6612    1.0000 </r>
       <r>    1.6927    1.0000 </r>
       <r>    1.7067    1.0000 </r>
       <r>    1.8119    1.0000 </r>
       <r>    1.8869    1.0000 </r>
       <r>    2.0319    1.0000 </r>
       <r>    2.1216    1.0000 </r>
       <r>    2.8653    0.0000 </r>
       <r>    4.2909    0.0000 </r>
       <r>    5.1604    0.0000 </r>
       <r>    6.0021    0.0000 </r>
       <r>    7.0437    0.0000 </r>
       <r>    7.3102    0.0000 </r>
       <r>    7.4344    0.0000 </r>
       <r>    7.5953    0.0000 </r>
       <r>    7.9743    0.0000 </r>
       <r>    8.4048    0.0000 </r>
       <r>    8.5558    0.0000 </r>
       <r>    8.7289    0.0000 </r>
       <r>    9.0143    0.0000 </r>
       <r>    9.0291    0.0000 </r>
       <r>    9.2370    0.0000 </r>
       <r>    9.4518    0.0000 </r>
       <r>    9.9418    0.0000 </r>
       <r>    9.9501    0.0000 </r>
       <r>   10.0856    0.0000 </r>
       <r>   10.1132    0.0000 </r>
      </set>
      <set comment="kpoint 8">
       <r>  -31.6527    1.0000 </r>
       <r>  -31.6401    1.0000 </r>
       <r>  -31.1056    1.0000 </r>
       <r>  -31.0925    1.0000 </r>
       <r>  -14.9565    1.0000 </r>
       <r>  -14.8617    1.0000 </r>
       <r>  -14.6591    1.0000 </r>
       <r>  -14.2729    1.0000 </r>
       <r>  -14.2377    1.0000 </r>
       <r>  -14.0585    1.0000 </r>
       <r>  -13.9309    1.0000 </r>
       <r>  -13.6714    1.0000 </r>
       <r>  -13.6623    1.0000 </r>
       <r>  -13.5400    1.0000 </r>
       <r>  -13.5107    1.0000 </r>
       <r>  -13.4412    1.0000 </r>
       <r>  -13.3185    1.0000 </r>
       <r>  -13.1493    1.0000 </r>
       <r>  -13.1271    1.0000 </r>
       <r>  -12.9599    1.0000 </r>
       <r>  -12.9125    1.0000 </r>
       <r>  -12.8772    1.0000 </r>
       <r>  -12.8309    1.0000 </r>
       <r>  -12.6459    1.0000 </r>
       <r>   -2.8537    1.0000 </r>
       <r>   -2.4830    1.0000 </r>
       <r>   -2.3718    1.0000 </r>
       <r>   -1.9542    1.0000 </r>
       <r>   -1.9229    1.0000 </r>
       <r>   -1.8486    1.0000 </r>
       <r>   -1.8401    1.0000 </r>
       <r>   -1.7906    1.0000 </r>
       <r>   -1.6207    1.0000 </r>
       <r>   -1.5319    1.0000 </r>
       <r>   -1.3525    1.0000 </r>
       <r>   -1.3458    1.0000 </r>
       <r>   -1.2370    1.0000 </r>
       <r>   -1.2342    1.0000 </r>
       <r>   -1.1435    1.0000 </r>
       <r>   -1.1004    1.0000 </r>
       <r>   -0.6878    1.0000 </r>
       <r>   -0.5267    1.0000 </r>
       <r>   -0.4776    1.0000 </r>
       <r>   -0.4503    1.0000 </r>
       <r>   -0.3042    1.0000 </r>
       <r>   -0.2562    1.0000 </r>
       <r>   -0.1473    1.0000 </r>
       <r>    0.1676    1.0000 </r>
       <r>    0.2446    1.0000 </r>
       <r>    0.4018    1.0000 </r>
       <r>    0.6793    1.0000 </r>
       <r>    0.8568    1.0000 </r>
       <r>    0.8729    1.0000 </r>
       <r>    0.9550    1.0000 </r>
       <r>    1.0458    1.0000 </r>
       <r>    1.0839    1.0000 </r>
       <r>    1.1418    1.0000 </r>
       <r>    1.2195    1.0000 </r>
       <r>    1.3049    1.0000 </r>
       <r>    1.4450    1.0000 </r>
       <r>    1.5237    1.0000 </r>
       <r>    1.6849    1.0000 </r>
       <r>    1.7559    1.0000 </r>
       <r>    1.8996    1.0000 </r>
       <r>    1.9599    1.0000 </r>
       <r>    2.2496    1.0000 </r>
       <r>    2.3817    0.9998 </r>
       <r>    2.8339    0.0000 </r>
       <r>    3.2907    0.0000 </r>
       <r>    4.3455    0.0000 </r>
       <r>    5.2744    0.0000 </r>
       <r>    5.7303    0.0000 </r>
       <r>    6.9163    0.0000 </r>
       <r>    7.3968    0.0000 </r>
       <r>    7.4118    0.0000 </r>
       <r>    7.9293    0.0000 </r>
       <r>    7.9702    0.0000 </r>
       <r>    8.1715    0.0000 </r>
       <r>    8.6444    0.0000 </r>
       <r>    9.1338    0.0000 </r>
       <r>    9.1735    0.0000 </r>
       <r>    9.2695    0.0000 </r>
       <r>    9.3925    0.0000 </r>
       <r>    9.7141    0.0000 </r>
       <r>    9.7765    0.0000 </r>
       <r>    9.9165    0.0000 </r>
       <r>   10.0205    0.0000 </r>
       <r>   10.1414    0.0000 </r>
      </set>
      <set comment="kpoint 9">
       <r>  -31.6456    1.0000 </r>
       <r>  -31.6334    1.0000 </r>
       <r>  -31.0980    1.0000 </r>
       <r>  -31.0856    1.0000 </r>
       <r>  -14.8748    1.0000 </r>
       <r>  -14.6196    1.0000 </r>
       <r>  -14.4949    1.0000 </r>
       <r>  -14.2829    1.0000 </r>
       <r>  -14.2609    1.0000 </r>
       <r>  -14.2239    1.0000 </r>
       <r>  -14.0351    1.0000 </r>
       <r>  -13.7285    1.0000 </r>
       <r>  -13.6784    1.0000 </r>
       <r>  -13.5462    1.0000 </r>
       <r>  -13.5323    1.0000 </r>
       <r>  -13.4912    1.0000 </r>
       <r>  -13.2616    1.0000 </r>
       <r>  -13.2021    1.0000 </r>
       <r>  -13.1824    1.0000 </r>
       <r>  -12.9655    1.0000 </r>
       <r>  -12.9458    1.0000 </r>
       <r>  -12.9196    1.0000 </r>
       <r>  -12.7756    1.0000 </r>
       <r>  -12.6424    1.0000 </r>
       <r>   -3.1142    1.0000 </r>
       <r>   -2.8664    1.0000 </r>
       <r>   -2.7662    1.0000 </r>
       <r>   -2.5276    1.0000 </r>
       <r>   -2.3425    1.0000 </r>
       <r>   -2.2821    1.0000 </r>
       <r>   -2.1717    1.0000 </r>
       <r>   -2.0568    1.0000 </r>
       <r>   -1.8104    1.0000 </r>
       <r>   -1.7247    1.0000 </r>
       <r>   -1.6467    1.0000 </r>
       <r>   -1.5438    1.0000 </r>
       <r>   -1.4614    1.0000 </r>
       <r>   -1.3820    1.0000 </r>
       <r>   -1.2674    1.0000 </r>
       <r>   -1.0956    1.0000 </r>
       <r>   -0.6132    1.0000 </r>
       <r>   -0.5684    1.0000 </r>
       <r>   -0.4933    1.0000 </r>
       <r>   -0.3369    1.0000 </r>
       <r>   -0.3006    1.0000 </r>
       <r>   -0.1187    1.0000 </r>
       <r>   -0.0706    1.0000 </r>
       <r>    0.4422    1.0000 </r>
       <r>    0.6192    1.0000 </r>
       <r>    0.7637    1.0000 </r>
       <r>    0.8071    1.0000 </r>
       <r>    0.9272    1.0000 </r>
       <r>    0.9798    1.0000 </r>
       <r>    1.0148    1.0000 </r>
       <r>    1.0963    1.0000 </r>
       <r>    1.1461    1.0000 </r>
       <r>    1.2573    1.0000 </r>
       <r>    1.4303    1.0000 </r>
       <r>    1.4587    1.0000 </r>
       <r>    1.6422    1.0000 </r>
       <r>    1.6560    1.0000 </r>
       <r>    1.7191    1.0000 </r>
       <r>    1.8143    1.0000 </r>
       <r>    2.1227    1.0000 </r>
       <r>    2.3829    0.9998 </r>
       <r>    2.4402    0.9740 </r>
       <r>    2.6631    0.0000 </r>
       <r>    3.7909    0.0000 </r>
       <r>    3.8731    0.0000 </r>
       <r>    4.0676    0.0000 </r>
       <r>    4.4451    0.0000 </r>
       <r>    6.2373    0.0000 </r>
       <r>    7.0426    0.0000 </r>
       <r>    7.1155    0.0000 </r>
       <r>    7.8591    0.0000 </r>
       <r>    8.0778    0.0000 </r>
       <r>    8.3566    0.0000 </r>
       <r>    8.5719    0.0000 </r>
       <r>    8.7566    0.0000 </r>
       <r>    8.9246    0.0000 </r>
       <r>    9.3594    0.0000 </r>
       <r>    9.6307    0.0000 </r>
       <r>    9.7012    0.0000 </r>
       <r>   10.0053    0.0000 </r>
       <r>   10.1833    0.0000 </r>
       <r>   10.2357    0.0000 </r>
       <r>   10.2857    0.0000 </r>
       <r>   10.5815    0.0000 </r>
      </set>
      <set comment="kpoint 10">
       <r>  -31.6539    1.0000 </r>
       <r>  -31.6475    1.0000 </r>
       <r>  -31.1069    1.0000 </r>
       <r>  -31.1001    1.0000 </r>
       <r>  -14.9830    1.0000 </r>
       <r>  -14.9423    1.0000 </r>
       <r>  -14.7911    1.0000 </r>
       <r>  -14.3678    1.0000 </r>
       <r>  -14.1653    1.0000 </r>
       <r>  -13.9499    1.0000 </r>
       <r>  -13.8408    1.0000 </r>
       <r>  -13.6583    1.0000 </r>
       <r>  -13.5997    1.0000 </r>
       <r>  -13.5856    1.0000 </r>
       <r>  -13.5155    1.0000 </r>
       <r>  -13.4300    1.0000 </r>
       <r>  -13.3580    1.0000 </r>
       <r>  -13.1210    1.0000 </r>
       <r>  -13.0188    1.0000 </r>
       <r>  -13.0009    1.0000 </r>
       <r>  -12.9448    1.0000 </r>
       <r>  -12.8874    1.0000 </r>
       <r>  -12.8188    1.0000 </r>
       <r>  -12.6116    1.0000 </r>
       <r>   -2.5394    1.0000 </r>
       <r>   -2.4423    1.0000 </r>
       <r>   -2.3672    1.0000 </r>
       <r>   -1.9064    1.0000 </r>
       <r>   -1.6681    1.0000 </r>
       <r>   -1.6174    1.0000 </r>
       <r>   -1.5081    1.0000 </r>
       <r>   -1.4805    1.0000 </r>
       <r>   -1.3612    1.0000 </r>
       <r>   -1.3023    1.0000 </r>
       <r>   -1.1974    1.0000 </r>
       <r>   -1.1123    1.0000 </r>
       <r>   -1.0734    1.0000 </r>
       <r>   -0.7737    1.0000 </r>
       <r>   -0.7557    1.0000 </r>
       <r>   -0.7134    1.0000 </r>
       <r>   -0.6407    1.0000 </r>
       <r>   -0.5557    1.0000 </r>
       <r>   -0.5287    1.0000 </r>
       <r>   -0.4655    1.0000 </r>
       <r>   -0.3620    1.0000 </r>
       <r>   -0.3301    1.0000 </r>
       <r>   -0.2253    1.0000 </r>
       <r>   -0.1970    1.0000 </r>
       <r>    0.0762    1.0000 </r>
       <r>    0.1611    1.0000 </r>
       <r>    0.4494    1.0000 </r>
       <r>    0.5917    1.0000 </r>
       <r>    0.6957    1.0000 </r>
       <r>    0.7678    1.0000 </r>
       <r>    0.8971    1.0000 </r>
       <r>    1.0133    1.0000 </r>
       <r>    1.2084    1.0000 </r>
       <r>    1.2460    1.0000 </r>
       <r>    1.2539    1.0000 </r>
       <r>    1.4555    1.0000 </r>
       <r>    1.5544    1.0000 </r>
       <r>    1.6117    1.0000 </r>
       <r>    1.6807    1.0000 </r>
       <r>    1.7009    1.0000 </r>
       <r>    1.8219    1.0000 </r>
       <r>    1.8620    1.0000 </r>
       <r>    1.8984    1.0000 </r>
       <r>    2.3257    1.0000 </r>
       <r>    2.7535    0.0000 </r>
       <r>    4.1215    0.0000 </r>
       <r>    5.4119    0.0000 </r>
       <r>    6.3760    0.0000 </r>
       <r>    6.7803    0.0000 </r>
       <r>    7.3727    0.0000 </r>
       <r>    7.4720    0.0000 </r>
       <r>    7.7825    0.0000 </r>
       <r>    8.0349    0.0000 </r>
       <r>    8.2814    0.0000 </r>
       <r>    8.6263    0.0000 </r>
       <r>    8.7220    0.0000 </r>
       <r>    8.7574    0.0000 </r>
       <r>    8.9218    0.0000 </r>
       <r>    9.2060    0.0000 </r>
       <r>    9.6089    0.0000 </r>
       <r>    9.7360    0.0000 </r>
       <r>    9.9284    0.0000 </r>
       <r>   10.1013    0.0000 </r>
       <r>   10.2008    0.0000 </r>
      </set>
      <set comment="kpoint 11">
       <r>  -31.6496    1.0000 </r>
       <r>  -31.6433    1.0000 </r>
       <r>  -31.1023    1.0000 </r>
       <r>  -31.0958    1.0000 </r>
       <r>  -14.9081    1.0000 </r>
       <r>  -14.8470    1.0000 </r>
       <r>  -14.7004    1.0000 </r>
       <r>  -14.3334    1.0000 </r>
       <r>  -14.1499    1.0000 </r>
       <r>  -14.0333    1.0000 </r>
       <r>  -13.9349    1.0000 </r>
       <r>  -13.8419    1.0000 </r>
       <r>  -13.6825    1.0000 </r>
       <r>  -13.5191    1.0000 </r>
       <r>  -13.4873    1.0000 </r>
       <r>  -13.4241    1.0000 </r>
       <r>  -13.3065    1.0000 </r>
       <r>  -13.1706    1.0000 </r>
       <r>  -13.0556    1.0000 </r>
       <r>  -12.9666    1.0000 </r>
       <r>  -12.9596    1.0000 </r>
       <r>  -12.8630    1.0000 </r>
       <r>  -12.7710    1.0000 </r>
       <r>  -12.6709    1.0000 </r>
       <r>   -2.5563    1.0000 </r>
       <r>   -2.4732    1.0000 </r>
       <r>   -2.3552    1.0000 </r>
       <r>   -1.9704    1.0000 </r>
       <r>   -1.8851    1.0000 </r>
       <r>   -1.8677    1.0000 </r>
       <r>   -1.8279    1.0000 </r>
       <r>   -1.6702    1.0000 </r>
       <r>   -1.6436    1.0000 </r>
       <r>   -1.6105    1.0000 </r>
       <r>   -1.5462    1.0000 </r>
       <r>   -1.3900    1.0000 </r>
       <r>   -1.3383    1.0000 </r>
       <r>   -1.3063    1.0000 </r>
       <r>   -1.1818    1.0000 </r>
       <r>   -1.1439    1.0000 </r>
       <r>   -1.0335    1.0000 </r>
       <r>   -0.5086    1.0000 </r>
       <r>   -0.4784    1.0000 </r>
       <r>   -0.4302    1.0000 </r>
       <r>   -0.2962    1.0000 </r>
       <r>   -0.2585    1.0000 </r>
       <r>   -0.2052    1.0000 </r>
       <r>    0.1297    1.0000 </r>
       <r>    0.3881    1.0000 </r>
       <r>    0.7470    1.0000 </r>
       <r>    0.8393    1.0000 </r>
       <r>    0.8734    1.0000 </r>
       <r>    0.8944    1.0000 </r>
       <r>    0.9711    1.0000 </r>
       <r>    1.0357    1.0000 </r>
       <r>    1.0924    1.0000 </r>
       <r>    1.1370    1.0000 </r>
       <r>    1.1804    1.0000 </r>
       <r>    1.2703    1.0000 </r>
       <r>    1.3411    1.0000 </r>
       <r>    1.4769    1.0000 </r>
       <r>    1.6540    1.0000 </r>
       <r>    1.7564    1.0000 </r>
       <r>    1.8130    1.0000 </r>
       <r>    2.2391    1.0000 </r>
       <r>    2.3359    1.0000 </r>
       <r>    2.4332    0.9838 </r>
       <r>    2.8139    0.0000 </r>
       <r>    3.1134    0.0000 </r>
       <r>    4.3033    0.0000 </r>
       <r>    5.3044    0.0000 </r>
       <r>    5.7514    0.0000 </r>
       <r>    7.1170    0.0000 </r>
       <r>    7.3471    0.0000 </r>
       <r>    7.6246    0.0000 </r>
       <r>    7.8397    0.0000 </r>
       <r>    8.2934    0.0000 </r>
       <r>    8.3678    0.0000 </r>
       <r>    8.5303    0.0000 </r>
       <r>    8.9171    0.0000 </r>
       <r>    9.1108    0.0000 </r>
       <r>    9.3139    0.0000 </r>
       <r>    9.3849    0.0000 </r>
       <r>    9.4897    0.0000 </r>
       <r>    9.6985    0.0000 </r>
       <r>    9.7315    0.0000 </r>
       <r>    9.7835    0.0000 </r>
       <r>    9.8339    0.0000 </r>
      </set>
      <set comment="kpoint 12">
       <r>  -31.6425    1.0000 </r>
       <r>  -31.6364    1.0000 </r>
       <r>  -31.0949    1.0000 </r>
       <r>  -31.0887    1.0000 </r>
       <r>  -14.8032    1.0000 </r>
       <r>  -14.6564    1.0000 </r>
       <r>  -14.5088    1.0000 </r>
       <r>  -14.3015    1.0000 </r>
       <r>  -14.2521    1.0000 </r>
       <r>  -14.1929    1.0000 </r>
       <r>  -14.1198    1.0000 </r>
       <r>  -13.7602    1.0000 </r>
       <r>  -13.6896    1.0000 </r>
       <r>  -13.5303    1.0000 </r>
       <r>  -13.4857    1.0000 </r>
       <r>  -13.4373    1.0000 </r>
       <r>  -13.3295    1.0000 </r>
       <r>  -13.2210    1.0000 </r>
       <r>  -13.1380    1.0000 </r>
       <r>  -12.9814    1.0000 </r>
       <r>  -12.8956    1.0000 </r>
       <r>  -12.8707    1.0000 </r>
       <r>  -12.7870    1.0000 </r>
       <r>  -12.7084    1.0000 </r>
       <r>   -2.9291    1.0000 </r>
       <r>   -2.8425    1.0000 </r>
       <r>   -2.7729    1.0000 </r>
       <r>   -2.3958    1.0000 </r>
       <r>   -2.3266    1.0000 </r>
       <r>   -2.2832    1.0000 </r>
       <r>   -2.0562    1.0000 </r>
       <r>   -2.0159    1.0000 </r>
       <r>   -1.7802    1.0000 </r>
       <r>   -1.7563    1.0000 </r>
       <r>   -1.6742    1.0000 </r>
       <r>   -1.6709    1.0000 </r>
       <r>   -1.5283    1.0000 </r>
       <r>   -1.4511    1.0000 </r>
       <r>   -1.4145    1.0000 </r>
       <r>   -1.2478    1.0000 </r>
       <r>   -1.0200    1.0000 </r>
       <r>   -0.5633    1.0000 </r>
       <r>   -0.5005    1.0000 </r>
       <r>   -0.3975    1.0000 </r>
       <r>   -0.3053    1.0000 </r>
       <r>   -0.1809    1.0000 </r>
       <r>   -0.0198    1.0000 </r>
       <r>    0.5724    1.0000 </r>
       <r>    0.6761    1.0000 </r>
       <r>    0.7923    1.0000 </r>
       <r>    0.8686    1.0000 </r>
       <r>    0.9309    1.0000 </r>
       <r>    0.9947    1.0000 </r>
       <r>    1.0483    1.0000 </r>
       <r>    1.1274    1.0000 </r>
       <r>    1.2012    1.0000 </r>
       <r>    1.3135    1.0000 </r>
       <r>    1.3881    1.0000 </r>
       <r>    1.5917    1.0000 </r>
       <r>    1.6363    1.0000 </r>
       <r>    1.6959    1.0000 </r>
       <r>    1.7586    1.0000 </r>
       <r>    2.0925    1.0000 </r>
       <r>    2.1292    1.0000 </r>
       <r>    2.2277    1.0000 </r>
       <r>    2.4003    0.9989 </r>
       <r>    2.8496    0.0000 </r>
       <r>    3.6633    0.0000 </r>
       <r>    3.7958    0.0000 </r>
       <r>    3.8694    0.0000 </r>
       <r>    4.7856    0.0000 </r>
       <r>    6.0305    0.0000 </r>
       <r>    6.8324    0.0000 </r>
       <r>    7.2362    0.0000 </r>
       <r>    7.9913    0.0000 </r>
       <r>    8.1283    0.0000 </r>
       <r>    8.3658    0.0000 </r>
       <r>    8.6144    0.0000 </r>
       <r>    8.7223    0.0000 </r>
       <r>    9.0237    0.0000 </r>
       <r>    9.3668    0.0000 </r>
       <r>    9.5161    0.0000 </r>
       <r>    9.7209    0.0000 </r>
       <r>    9.8236    0.0000 </r>
       <r>    9.9624    0.0000 </r>
       <r>   10.0640    0.0000 </r>
       <r>   10.1797    0.0000 </r>
       <r>   10.3080    0.0000 </r>
      </set>
     </set>
     <set comment="spin 2">
      <set comment="kpoint 1">
       <r>  -31.6502    1.0000 </r>
       <r>  -31.6374    1.0000 </r>
       <r>  -31.1128    1.0000 </r>
       <r>  -31.0992    1.0000 </r>
       <r>  -14.9928    1.0000 </r>
       <r>  -14.8670    1.0000 </r>
       <r>  -14.4244    1.0000 </r>
       <r>  -14.2068    1.0000 </r>
       <r>  -14.1662    1.0000 </r>
       <r>  -13.7952    1.0000 </r>
       <r>  -13.5983    1.0000 </r>
       <r>  -13.5721    1.0000 </r>
       <r>  -13.5400    1.0000 </r>
       <r>  -13.4931    1.0000 </r>
       <r>  -13.3967    1.0000 </r>
       <r>  -13.3567    1.0000 </r>
       <r>  -13.3357    1.0000 </r>
       <r>  -13.1121    1.0000 </r>
       <r>  -13.0303    1.0000 </r>
       <r>  -12.9949    1.0000 </r>
       <r>  -12.9923    1.0000 </r>
       <r>  -12.9029    1.0000 </r>
       <r>  -12.8029    1.0000 </r>
       <r>  -12.4756    1.0000 </r>
       <r>   -2.7139    1.0000 </r>
       <r>   -2.4031    1.0000 </r>
       <r>   -1.9425    1.0000 </r>
       <r>   -1.9312    1.0000 </r>
       <r>   -1.4554    1.0000 </r>
       <r>   -1.4342    1.0000 </r>
       <r>   -1.1568    1.0000 </r>
       <r>   -1.0379    1.0000 </r>
       <r>   -0.9726    1.0000 </r>
       <r>   -0.9617    1.0000 </r>
       <r>   -0.9347    1.0000 </r>
       <r>   -0.9271    1.0000 </r>
       <r>   -0.8508    1.0000 </r>
       <r>   -0.8238    1.0000 </r>
       <r>   -0.7998    1.0000 </r>
       <r>   -0.7067    1.0000 </r>
       <r>   -0.6794    1.0000 </r>
       <r>   -0.4877    1.0000 </r>
       <r>   -0.3759    1.0000 </r>
       <r>   -0.3422    1.0000 </r>
       <r>   -0.3181    1.0000 </r>
       <r>   -0.1912    1.0000 </r>
       <r>   -0.1872    1.0000 </r>
       <r>   -0.1812    1.0000 </r>
       <r>    0.0734    1.0000 </r>
       <r>    0.2873    1.0000 </r>
       <r>    0.4723    1.0000 </r>
       <r>    0.7151    1.0000 </r>
       <r>    0.7635    1.0000 </r>
       <r>    1.0629    1.0000 </r>
       <r>    1.0689    1.0000 </r>
       <r>    1.0996    1.0000 </r>
       <r>    1.2283    1.0000 </r>
       <r>    1.3853    1.0000 </r>
       <r>    1.4535    1.0000 </r>
       <r>    1.5793    1.0000 </r>
       <r>    1.7354    1.0000 </r>
       <r>    1.8563    1.0000 </r>
       <r>    1.8606    1.0000 </r>
       <r>    1.8700    1.0000 </r>
       <r>    2.0320    1.0000 </r>
       <r>    2.1061    1.0000 </r>
       <r>    2.2360    1.0000 </r>
       <r>    2.3553    1.0000 </r>
       <r>    3.2172    0.0000 </r>
       <r>    4.3942    0.0000 </r>
       <r>    5.5431    0.0000 </r>
       <r>    5.8406    0.0000 </r>
       <r>    7.2133    0.0000 </r>
       <r>    7.4374    0.0000 </r>
       <r>    7.5642    0.0000 </r>
       <r>    7.6765    0.0000 </r>
       <r>    7.7015    0.0000 </r>
       <r>    8.6266    0.0000 </r>
       <r>    8.6275    0.0000 </r>
       <r>    9.0432    0.0000 </r>
       <r>    9.2569    0.0000 </r>
       <r>    9.3063    0.0000 </r>
       <r>    9.4721    0.0000 </r>
       <r>    9.6152    0.0000 </r>
       <r>    9.6406    0.0000 </r>
       <r>    9.8106    0.0000 </r>
       <r>    9.8188    0.0000 </r>
       <r>    9.9381    0.0000 </r>
      </set>
      <set comment="kpoint 2">
       <r>  -31.6458    1.0000 </r>
       <r>  -31.6333    1.0000 </r>
       <r>  -31.1082    1.0000 </r>
       <r>  -31.0950    1.0000 </r>
       <r>  -14.8708    1.0000 </r>
       <r>  -14.8070    1.0000 </r>
       <r>  -14.3598    1.0000 </r>
       <r>  -14.1588    1.0000 </r>
       <r>  -14.1457    1.0000 </r>
       <r>  -13.9304    1.0000 </r>
       <r>  -13.8256    1.0000 </r>
       <r>  -13.6583    1.0000 </r>
       <r>  -13.5273    1.0000 </r>
       <r>  -13.4813    1.0000 </r>
       <r>  -13.3887    1.0000 </r>
       <r>  -13.3657    1.0000 </r>
       <r>  -13.3043    1.0000 </r>
       <r>  -13.1283    1.0000 </r>
       <r>  -13.1053    1.0000 </r>
       <r>  -12.9587    1.0000 </r>
       <r>  -12.8540    1.0000 </r>
       <r>  -12.8490    1.0000 </r>
       <r>  -12.7936    1.0000 </r>
       <r>  -12.5768    1.0000 </r>
       <r>   -2.7738    1.0000 </r>
       <r>   -2.4355    1.0000 </r>
       <r>   -1.9274    1.0000 </r>
       <r>   -1.8948    1.0000 </r>
       <r>   -1.8527    1.0000 </r>
       <r>   -1.7471    1.0000 </r>
       <r>   -1.7218    1.0000 </r>
       <r>   -1.5570    1.0000 </r>
       <r>   -1.4052    1.0000 </r>
       <r>   -1.2586    1.0000 </r>
       <r>   -1.2537    1.0000 </r>
       <r>   -1.2100    1.0000 </r>
       <r>   -1.1737    1.0000 </r>
       <r>   -1.1681    1.0000 </r>
       <r>   -0.9215    1.0000 </r>
       <r>   -0.6037    1.0000 </r>
       <r>   -0.5941    1.0000 </r>
       <r>   -0.5857    1.0000 </r>
       <r>   -0.4077    1.0000 </r>
       <r>   -0.3946    1.0000 </r>
       <r>   -0.2296    1.0000 </r>
       <r>   -0.2205    1.0000 </r>
       <r>    0.0632    1.0000 </r>
       <r>    0.1621    1.0000 </r>
       <r>    0.2014    1.0000 </r>
       <r>    0.6379    1.0000 </r>
       <r>    0.7191    1.0000 </r>
       <r>    0.9546    1.0000 </r>
       <r>    0.9943    1.0000 </r>
       <r>    1.1453    1.0000 </r>
       <r>    1.1782    1.0000 </r>
       <r>    1.1998    1.0000 </r>
       <r>    1.2561    1.0000 </r>
       <r>    1.4267    1.0000 </r>
       <r>    1.5244    1.0000 </r>
       <r>    1.5809    1.0000 </r>
       <r>    1.8081    1.0000 </r>
       <r>    1.8756    1.0000 </r>
       <r>    1.9702    1.0000 </r>
       <r>    2.0989    1.0000 </r>
       <r>    2.1234    1.0000 </r>
       <r>    2.1760    1.0000 </r>
       <r>    2.7997    0.0000 </r>
       <r>    3.0999    0.0000 </r>
       <r>    3.6519    0.0000 </r>
       <r>    4.5065    0.0000 </r>
       <r>    5.3773    0.0000 </r>
       <r>    5.9373    0.0000 </r>
       <r>    6.9670    0.0000 </r>
       <r>    7.4790    0.0000 </r>
       <r>    7.5926    0.0000 </r>
       <r>    7.8987    0.0000 </r>
       <r>    7.9300    0.0000 </r>
       <r>    8.1215    0.0000 </r>
       <r>    8.1835    0.0000 </r>
       <r>    9.0626    0.0000 </r>
       <r>    9.1765    0.0000 </r>
       <r>    9.4697    0.0000 </r>
       <r>    9.6316    0.0000 </r>
       <r>    9.8515    0.0000 </r>
       <r>    9.9160    0.0000 </r>
       <r>   10.0256    0.0000 </r>
       <r>   10.1395    0.0000 </r>
       <r>   10.2757    0.0000 </r>
      </set>
      <set comment="kpoint 3">
       <r>  -31.6387    1.0000 </r>
       <r>  -31.6265    1.0000 </r>
       <r>  -31.1006    1.0000 </r>
       <r>  -31.0882    1.0000 </r>
       <r>  -14.7548    1.0000 </r>
       <r>  -14.6115    1.0000 </r>
       <r>  -14.3468    1.0000 </r>
       <r>  -14.1629    1.0000 </r>
       <r>  -14.1287    1.0000 </r>
       <r>  -13.9242    1.0000 </r>
       <r>  -13.9033    1.0000 </r>
       <r>  -13.6845    1.0000 </r>
       <r>  -13.5944    1.0000 </r>
       <r>  -13.5128    1.0000 </r>
       <r>  -13.4712    1.0000 </r>
       <r>  -13.4116    1.0000 </r>
       <r>  -13.3425    1.0000 </r>
       <r>  -13.1650    1.0000 </r>
       <r>  -13.1366    1.0000 </r>
       <r>  -12.9345    1.0000 </r>
       <r>  -12.8951    1.0000 </r>
       <r>  -12.8846    1.0000 </r>
       <r>  -12.6768    1.0000 </r>
       <r>  -12.5856    1.0000 </r>
       <r>   -3.1091    1.0000 </r>
       <r>   -2.8360    1.0000 </r>
       <r>   -2.5379    1.0000 </r>
       <r>   -2.2434    1.0000 </r>
       <r>   -2.1403    1.0000 </r>
       <r>   -2.1302    1.0000 </r>
       <r>   -2.0674    1.0000 </r>
       <r>   -1.8456    1.0000 </r>
       <r>   -1.7346    1.0000 </r>
       <r>   -1.5555    1.0000 </r>
       <r>   -1.5236    1.0000 </r>
       <r>   -1.4358    1.0000 </r>
       <r>   -1.3837    1.0000 </r>
       <r>   -1.2297    1.0000 </r>
       <r>   -0.9178    1.0000 </r>
       <r>   -0.5520    1.0000 </r>
       <r>   -0.5324    1.0000 </r>
       <r>   -0.4852    1.0000 </r>
       <r>   -0.4138    1.0000 </r>
       <r>   -0.3347    1.0000 </r>
       <r>   -0.2645    1.0000 </r>
       <r>   -0.1139    1.0000 </r>
       <r>    0.1950    1.0000 </r>
       <r>    0.4906    1.0000 </r>
       <r>    0.7388    1.0000 </r>
       <r>    0.7727    1.0000 </r>
       <r>    0.8903    1.0000 </r>
       <r>    1.0642    1.0000 </r>
       <r>    1.0881    1.0000 </r>
       <r>    1.1754    1.0000 </r>
       <r>    1.2304    1.0000 </r>
       <r>    1.2495    1.0000 </r>
       <r>    1.3535    1.0000 </r>
       <r>    1.4850    1.0000 </r>
       <r>    1.5963    1.0000 </r>
       <r>    1.6633    1.0000 </r>
       <r>    1.8355    1.0000 </r>
       <r>    1.8885    1.0000 </r>
       <r>    1.9997    1.0000 </r>
       <r>    2.0859    1.0000 </r>
       <r>    2.5523    0.1096 </r>
       <r>    2.6319    0.0002 </r>
       <r>    3.3871    0.0000 </r>
       <r>    4.0694    0.0000 </r>
       <r>    4.2837    0.0000 </r>
       <r>    4.4349    0.0000 </r>
       <r>    4.4680    0.0000 </r>
       <r>    6.2659    0.0000 </r>
       <r>    7.0425    0.0000 </r>
       <r>    7.1604    0.0000 </r>
       <r>    7.7821    0.0000 </r>
       <r>    8.0855    0.0000 </r>
       <r>    8.4659    0.0000 </r>
       <r>    8.5159    0.0000 </r>
       <r>    8.9166    0.0000 </r>
       <r>    9.2053    0.0000 </r>
       <r>    9.3104    0.0000 </r>
       <r>    9.6747    0.0000 </r>
       <r>    9.9890    0.0000 </r>
       <r>   10.1085    0.0000 </r>
       <r>   10.2420    0.0000 </r>
       <r>   10.2981    0.0000 </r>
       <r>   10.3638    0.0000 </r>
       <r>   10.6824    0.0000 </r>
      </set>
      <set comment="kpoint 4">
       <r>  -31.6470    1.0000 </r>
       <r>  -31.6406    1.0000 </r>
       <r>  -31.1094    1.0000 </r>
       <r>  -31.1026    1.0000 </r>
       <r>  -14.9347    1.0000 </r>
       <r>  -14.8118    1.0000 </r>
       <r>  -14.5828    1.0000 </r>
       <r>  -14.2357    1.0000 </r>
       <r>  -14.0935    1.0000 </r>
       <r>  -13.8211    1.0000 </r>
       <r>  -13.6447    1.0000 </r>
       <r>  -13.5922    1.0000 </r>
       <r>  -13.5783    1.0000 </r>
       <r>  -13.4295    1.0000 </r>
       <r>  -13.3979    1.0000 </r>
       <r>  -13.3751    1.0000 </r>
       <r>  -13.3259    1.0000 </r>
       <r>  -13.0790    1.0000 </r>
       <r>  -13.0216    1.0000 </r>
       <r>  -13.0038    1.0000 </r>
       <r>  -12.9333    1.0000 </r>
       <r>  -12.8474    1.0000 </r>
       <r>  -12.7921    1.0000 </r>
       <r>  -12.5582    1.0000 </r>
       <r>   -2.6388    1.0000 </r>
       <r>   -2.1838    1.0000 </r>
       <r>   -1.9573    1.0000 </r>
       <r>   -1.8045    1.0000 </r>
       <r>   -1.4505    1.0000 </r>
       <r>   -1.4398    1.0000 </r>
       <r>   -1.3686    1.0000 </r>
       <r>   -1.3310    1.0000 </r>
       <r>   -1.1607    1.0000 </r>
       <r>   -1.0200    1.0000 </r>
       <r>   -0.9726    1.0000 </r>
[...]
       <r>     1.9634     6.6659    64.0701 </r>
       <r>     2.1188     3.5879    64.6276 </r>
       <r>     2.2742     4.4980    65.3265 </r>
       <r>     2.4296     7.0372    66.4200 </r>
       <r>     2.5850     2.4374    66.7988 </r>
       <r>     2.7404     1.0405    66.9605 </r>
       <r>     2.8958     4.3683    67.6393 </r>
       <r>     3.0512     1.0786    67.8069 </r>
       <r>     3.2065     1.1482    67.9853 </r>
       <r>     3.3619     1.0854    68.1540 </r>
       <r>     3.5173     0.2911    68.1992 </r>
       <r>     3.6727     1.0315    68.3595 </r>
       <r>     3.8281     2.3684    68.7275 </r>
       <r>     3.9835     2.6226    69.1350 </r>
       <r>     4.1389     1.5463    69.3753 </r>
       <r>     4.2943     1.7400    69.6457 </r>
       <r>     4.4497     2.8377    70.0866 </r>
       <r>     4.6050     0.3006    70.1333 </r>
       <r>     4.7604     0.4217    70.1989 </r>
       <r>     4.9158     1.2942    70.4000 </r>
       <r>     5.0712     0.0020    70.4003 </r>
       <r>     5.2266     0.7236    70.5127 </r>
       <r>     5.3820     2.3232    70.8737 </r>
       <r>     5.5374     0.7199    70.9856 </r>
       <r>     5.6928     0.2359    71.0222 </r>
       <r>     5.8482     2.8302    71.4620 </r>
       <r>     6.0036     0.7186    71.5737 </r>
       <r>     6.1589     1.2986    71.7755 </r>
       <r>     6.3143     0.8814    71.9124 </r>
       <r>     6.4697     0.5612    71.9996 </r>
       <r>     6.6251     0.0029    72.0001 </r>
       <r>     6.7805     0.8946    72.1391 </r>
       <r>     6.9359     2.4597    72.5213 </r>
       <r>     7.0913     2.0833    72.8450 </r>
       <r>     7.2467     3.1657    73.3369 </r>
       <r>     7.4021     3.6689    73.9070 </r>
       <r>     7.5574     2.7596    74.3359 </r>
       <r>     7.7128     2.2671    74.6881 </r>
       <r>     7.8682     3.3003    75.2010 </r>
       <r>     8.0236     4.4852    75.8979 </r>
       <r>     8.1790     4.2763    76.5624 </r>
       <r>     8.3344     3.1047    77.0449 </r>
       <r>     8.4898     4.4621    77.7382 </r>
       <r>     8.6452     5.4394    78.5835 </r>
       <r>     8.8006     4.1668    79.2309 </r>
       <r>     8.9559     3.6382    79.7963 </r>
       <r>     9.1113     4.0691    80.4286 </r>
       <r>     9.2667     4.4362    81.1179 </r>
       <r>     9.4221     5.2566    81.9347 </r>
       <r>     9.5775     4.2071    82.5885 </r>
       <r>     9.7329     7.3073    83.7239 </r>
       <r>     9.8883     7.4948    84.8885 </r>
       <r>    10.0437     6.8607    85.9546 </r>
       <r>    10.1991     6.7556    87.0044 </r>
       <r>    10.3545     4.5438    87.7104 </r>
       <r>    10.5098     0.7116    87.8210 </r>
       <r>    10.6652     0.8764    87.9572 </r>
       <r>    10.8206     0.2747    87.9999 </r>
       <r>    10.9760     0.0007    88.0000 </r>
       <r>    11.1314     0.0000    88.0000 </r>
       <r>    11.2868     0.0000    88.0000 </r>
       <r>    11.4422     0.0000    88.0000 </r>
       <r>    11.5976     0.0000    88.0000 </r>
       <r>    11.7530     0.0000    88.0000 </r>
       <r>    11.9083     0.0000    88.0000 </r>
       <r>    12.0637     0.0000    88.0000 </r>
       <r>    12.2191     0.0000    88.0000 </r>
       <r>    12.3745     0.0000    88.0000 </r>
       <r>    12.5299     0.0000    88.0000 </r>
       <r>    12.6853     0.0000    88.0000 </r>
       <r>    12.8407     0.0000    88.0000 </r>
      </set>
      <set comment="spin 2">
       <r>   -33.7761     0.0000     0.0000 </r>
       <r>   -33.6207     0.0000     0.0000 </r>
       <r>   -33.4653     0.0000     0.0000 </r>
       <r>   -33.3100     0.0000     0.0000 </r>
       <r>   -33.1546     0.0000     0.0000 </r>
       <r>   -32.9992     0.0000     0.0000 </r>
       <r>   -32.8438     0.0000     0.0000 </r>
       <r>   -32.6884     0.0000     0.0000 </r>
       <r>   -32.5330     0.0000     0.0000 </r>
       <r>   -32.3776     0.0000     0.0000 </r>
       <r>   -32.2222     0.0000     0.0000 </r>
       <r>   -32.0668     0.0000     0.0000 </r>
       <r>   -31.9115     0.0000     0.0000 </r>
       <r>   -31.7561     0.0062     0.0010 </r>
       <r>   -31.6007    10.9083     1.6960 </r>
       <r>   -31.4453     1.9564     2.0000 </r>
       <r>   -31.2899     0.0000     2.0000 </r>
       <r>   -31.1345     2.1367     2.3320 </r>
       <r>   -30.9791    10.7291     3.9992 </r>
       <r>   -30.8237     0.0051     4.0000 </r>
       <r>   -30.6683     0.0000     4.0000 </r>
       <r>   -30.5130     0.0000     4.0000 </r>
       <r>   -30.3576     0.0000     4.0000 </r>
       <r>   -30.2022     0.0000     4.0000 </r>
       <r>   -30.0468     0.0000     4.0000 </r>
       <r>   -29.8914     0.0000     4.0000 </r>
       <r>   -29.7360     0.0000     4.0000 </r>
       <r>   -29.5806     0.0000     4.0000 </r>
       <r>   -29.4252     0.0000     4.0000 </r>
       <r>   -29.2698     0.0000     4.0000 </r>
       <r>   -29.1144     0.0000     4.0000 </r>
       <r>   -28.9591     0.0000     4.0000 </r>
       <r>   -28.8037     0.0000     4.0000 </r>
       <r>   -28.6483     0.0000     4.0000 </r>
       <r>   -28.4929     0.0000     4.0000 </r>
       <r>   -28.3375     0.0000     4.0000 </r>
       <r>   -28.1821     0.0000     4.0000 </r>
       <r>   -28.0267     0.0000     4.0000 </r>
       <r>   -27.8713     0.0000     4.0000 </r>
       <r>   -27.7159     0.0000     4.0000 </r>
       <r>   -27.5606     0.0000     4.0000 </r>
       <r>   -27.4052     0.0000     4.0000 </r>
       <r>   -27.2498     0.0000     4.0000 </r>
       <r>   -27.0944     0.0000     4.0000 </r>
       <r>   -26.9390     0.0000     4.0000 </r>
       <r>   -26.7836     0.0000     4.0000 </r>
       <r>   -26.6282     0.0000     4.0000 </r>
       <r>   -26.4728     0.0000     4.0000 </r>
       <r>   -26.3174     0.0000     4.0000 </r>
       <r>   -26.1620     0.0000     4.0000 </r>
       <r>   -26.0067     0.0000     4.0000 </r>
       <r>   -25.8513     0.0000     4.0000 </r>
       <r>   -25.6959     0.0000     4.0000 </r>
       <r>   -25.5405     0.0000     4.0000 </r>
       <r>   -25.3851     0.0000     4.0000 </r>
       <r>   -25.2297     0.0000     4.0000 </r>
       <r>   -25.0743     0.0000     4.0000 </r>
       <r>   -24.9189     0.0000     4.0000 </r>
       <r>   -24.7635     0.0000     4.0000 </r>
       <r>   -24.6082     0.0000     4.0000 </r>
       <r>   -24.4528     0.0000     4.0000 </r>
       <r>   -24.2974     0.0000     4.0000 </r>
       <r>   -24.1420     0.0000     4.0000 </r>
       <r>   -23.9866     0.0000     4.0000 </r>
       <r>   -23.8312     0.0000     4.0000 </r>
       <r>   -23.6758     0.0000     4.0000 </r>
       <r>   -23.5204     0.0000     4.0000 </r>
       <r>   -23.3650     0.0000     4.0000 </r>
       <r>   -23.2097     0.0000     4.0000 </r>
       <r>   -23.0543     0.0000     4.0000 </r>
       <r>   -22.8989     0.0000     4.0000 </r>
       <r>   -22.7435     0.0000     4.0000 </r>
       <r>   -22.5881     0.0000     4.0000 </r>
       <r>   -22.4327     0.0000     4.0000 </r>
       <r>   -22.2773     0.0000     4.0000 </r>
       <r>   -22.1219     0.0000     4.0000 </r>
       <r>   -21.9665     0.0000     4.0000 </r>
       <r>   -21.8111     0.0000     4.0000 </r>
       <r>   -21.6558     0.0000     4.0000 </r>
       <r>   -21.5004     0.0000     4.0000 </r>
       <r>   -21.3450     0.0000     4.0000 </r>
       <r>   -21.1896     0.0000     4.0000 </r>
       <r>   -21.0342     0.0000     4.0000 </r>
       <r>   -20.8788     0.0000     4.0000 </r>
       <r>   -20.7234     0.0000     4.0000 </r>
       <r>   -20.5680     0.0000     4.0000 </r>
       <r>   -20.4126     0.0000     4.0000 </r>
       <r>   -20.2573     0.0000     4.0000 </r>
       <r>   -20.1019     0.0000     4.0000 </r>
       <r>   -19.9465     0.0000     4.0000 </r>
       <r>   -19.7911     0.0000     4.0000 </r>
       <r>   -19.6357     0.0000     4.0000 </r>
       <r>   -19.4803     0.0000     4.0000 </r>
       <r>   -19.3249     0.0000     4.0000 </r>
       <r>   -19.1695     0.0000     4.0000 </r>
       <r>   -19.0141     0.0000     4.0000 </r>
       <r>   -18.8587     0.0000     4.0000 </r>
       <r>   -18.7034     0.0000     4.0000 </r>
       <r>   -18.5480     0.0000     4.0000 </r>
       <r>   -18.3926     0.0000     4.0000 </r>
       <r>   -18.2372     0.0000     4.0000 </r>
       <r>   -18.0818     0.0000     4.0000 </r>
       <r>   -17.9264     0.0000     4.0000 </r>
       <r>   -17.7710     0.0000     4.0000 </r>
       <r>   -17.6156     0.0000     4.0000 </r>
       <r>   -17.4602     0.0000     4.0000 </r>
       <r>   -17.3049     0.0000     4.0000 </r>
       <r>   -17.1495     0.0000     4.0000 </r>
       <r>   -16.9941     0.0000     4.0000 </r>
       <r>   -16.8387     0.0000     4.0000 </r>
       <r>   -16.6833     0.0000     4.0000 </r>
       <r>   -16.5279     0.0000     4.0000 </r>
       <r>   -16.3725     0.0000     4.0000 </r>
       <r>   -16.2171     0.0000     4.0000 </r>
       <r>   -16.0617     0.0000     4.0000 </r>
       <r>   -15.9064     0.0000     4.0000 </r>
       <r>   -15.7510     0.0000     4.0000 </r>
       <r>   -15.5956     0.0000     4.0000 </r>
       <r>   -15.4402     0.0000     4.0000 </r>
       <r>   -15.2848     0.0000     4.0000 </r>
       <r>   -15.1294     0.0000     4.0000 </r>
       <r>   -14.9740     0.1536     4.0239 </r>
       <r>   -14.8186     2.9739     4.4860 </r>
       <r>   -14.6632     6.8243     5.5464 </r>
       <r>   -14.5078     5.4435     6.3923 </r>
       <r>   -14.3525     3.4024     6.9210 </r>
       <r>   -14.1971     2.0253     7.2357 </r>
       <r>   -14.0417    12.6592     9.2028 </r>
       <r>   -13.8863     5.8117    10.1059 </r>
       <r>   -13.7309     5.9224    11.0261 </r>
       <r>   -13.5755     9.8691    12.5597 </r>
       <r>   -13.4201    12.1212    14.4432 </r>
       <r>   -13.2647    14.5760    16.7082 </r>
       <r>   -13.1093     8.5847    18.0421 </r>
       <r>   -12.9540     9.5843    19.5314 </r>
       <r>   -12.7986    15.8305    21.9913 </r>
       <r>   -12.6432     8.4105    23.2982 </r>
       <r>   -12.4878     4.2698    23.9617 </r>
       <r>   -12.3324     0.2464    24.0000 </r>
       <r>   -12.1770     0.0000    24.0000 </r>
       <r>   -12.0216     0.0000    24.0000 </r>
       <r>   -11.8662     0.0000    24.0000 </r>
       <r>   -11.7108     0.0000    24.0000 </r>
       <r>   -11.5554     0.0000    24.0000 </r>
       <r>   -11.4001     0.0000    24.0000 </r>
       <r>   -11.2447     0.0000    24.0000 </r>
       <r>   -11.0893     0.0000    24.0000 </r>
       <r>   -10.9339     0.0000    24.0000 </r>
       <r>   -10.7785     0.0000    24.0000 </r>
       <r>   -10.6231     0.0000    24.0000 </r>
       <r>   -10.4677     0.0000    24.0000 </r>
       <r>   -10.3123     0.0000    24.0000 </r>
       <r>   -10.1569     0.0000    24.0000 </r>
       <r>   -10.0016     0.0000    24.0000 </r>
       <r>    -9.8462     0.0000    24.0000 </r>
       <r>    -9.6908     0.0000    24.0000 </r>
       <r>    -9.5354     0.0000    24.0000 </r>
       <r>    -9.3800     0.0000    24.0000 </r>
       <r>    -9.2246     0.0000    24.0000 </r>
       <r>    -9.0692     0.0000    24.0000 </r>
       <r>    -8.9138     0.0000    24.0000 </r>
       <r>    -8.7584     0.0000    24.0000 </r>
       <r>    -8.6030     0.0000    24.0000 </r>
       <r>    -8.4477     0.0000    24.0000 </r>
       <r>    -8.2923     0.0000    24.0000 </r>
       <r>    -8.1369     0.0000    24.0000 </r>
       <r>    -7.9815     0.0000    24.0000 </r>
       <r>    -7.8261     0.0000    24.0000 </r>
       <r>    -7.6707     0.0000    24.0000 </r>
       <r>    -7.5153     0.0000    24.0000 </r>
       <r>    -7.3599     0.0000    24.0000 </r>
       <r>    -7.2045     0.0000    24.0000 </r>
       <r>    -7.0492     0.0000    24.0000 </r>
       <r>    -6.8938     0.0000    24.0000 </r>
       <r>    -6.7384     0.0000    24.0000 </r>
       <r>    -6.5830     0.0000    24.0000 </r>
       <r>    -6.4276     0.0000    24.0000 </r>
       <r>    -6.2722     0.0000    24.0000 </r>
       <r>    -6.1168     0.0000    24.0000 </r>
       <r>    -5.9614     0.0000    24.0000 </r>
       <r>    -5.8060     0.0000    24.0000 </r>
       <r>    -5.6507     0.0000    24.0000 </r>
       <r>    -5.4953     0.0000    24.0000 </r>
       <r>    -5.3399     0.0000    24.0000 </r>
       <r>    -5.1845     0.0000    24.0000 </r>
       <r>    -5.0291     0.0000    24.0000 </r>
       <r>    -4.8737     0.0000    24.0000 </r>
       <r>    -4.7183     0.0000    24.0000 </r>
       <r>    -4.5629     0.0000    24.0000 </r>
       <r>    -4.4075     0.0000    24.0000 </r>
       <r>    -4.2521     0.0000    24.0000 </r>
       <r>    -4.0968     0.0000    24.0000 </r>
       <r>    -3.9414     0.0000    24.0000 </r>
       <r>    -3.7860     0.0000    24.0000 </r>
       <r>    -3.6306     0.0000    24.0000 </r>
       <r>    -3.4752     0.0000    24.0000 </r>
       <r>    -3.3198     0.0000    24.0000 </r>
       <r>    -3.1644     0.0173    24.0027 </r>
       <r>    -3.0090     0.8263    24.1311 </r>
       <r>    -2.8536     2.0660    24.4521 </r>
       <r>    -2.6983     1.6511    24.7087 </r>
       <r>    -2.5429     3.0287    25.1793 </r>
       <r>    -2.3875     3.4503    25.7155 </r>
       <r>    -2.2321     2.3976    26.0880 </r>
       <r>    -2.0767     6.2822    27.0642 </r>
       <r>    -1.9213     8.9763    28.4590 </r>
       <r>    -1.7659     8.8811    29.8391 </r>
       <r>    -1.6105    10.9768    31.5447 </r>
       <r>    -1.4551    11.9526    33.4021 </r>
       <r>    -1.2997    12.4110    35.3306 </r>
       <r>    -1.1444    15.1844    37.6901 </r>
       <r>    -0.9890     8.3556    38.9885 </r>
       <r>    -0.8336     4.6240    39.7070 </r>
       <r>    -0.6782     2.8650    40.1522 </r>
       <r>    -0.5228     6.5801    41.1747 </r>
       <r>    -0.3674    15.3023    43.5525 </r>
       <r>    -0.2120    10.8931    45.2452 </r>
       <r>    -0.0566     7.6580    46.4351 </r>
       <r>     0.0988     1.9378    46.7362 </r>
       <r>     0.2541     4.0871    47.3713 </r>
       <r>     0.4095     3.9127    47.9793 </r>
       <r>     0.5649     2.9831    48.4429 </r>
       <r>     0.7203     4.8001    49.1887 </r>
       <r>     0.8757     7.9145    50.4186 </r>
       <r>     1.0311    11.4004    52.1901 </r>
       <r>     1.1865    14.6055    54.4596 </r>
       <r>     1.3419    14.6272    56.7325 </r>
       <r>     1.4973     9.7808    58.2524 </r>
       <r>     1.6526     8.4668    59.5680 </r>
       <r>     1.8080     7.6333    60.7542 </r>
       <r>     1.9634    13.3196    62.8239 </r>
       <r>     2.1188     7.7146    64.0227 </r>
       <r>     2.2742     2.2522    64.3726 </r>
       <r>     2.4296     3.1218    64.8577 </r>
       <r>     2.5850     4.0744    65.4908 </r>
       <r>     2.7404     4.1009    66.1281 </r>
       <r>     2.8958     4.1824    66.7780 </r>
       <r>     3.0512     2.5779    67.1785 </r>
       <r>     3.2065     2.8883    67.6273 </r>
       <r>     3.3619     1.2168    67.8164 </r>
       <r>     3.5173     1.6619    68.0747 </r>
       <r>     3.6727     0.7266    68.1876 </r>
       <r>     3.8281     0.5676    68.2758 </r>
       <r>     3.9835     1.6416    68.5309 </r>
       <r>     4.1389     3.5890    69.0885 </r>
       <r>     4.2943     1.6753    69.3489 </r>
       <r>     4.4497     2.8823    69.7968 </r>
       <r>     4.6050     2.1407    70.1294 </r>
       <r>     4.7604     0.0256    70.1334 </r>
       <r>     4.9158     1.2667    70.3302 </r>
       <r>     5.0712     0.4493    70.4000 </r>
       <r>     5.2266     0.0005    70.4001 </r>
       <r>     5.3820     0.4504    70.4701 </r>
       <r>     5.5374     2.3321    70.8324 </r>
       <r>     5.6928     0.8632    70.9666 </r>
       <r>     5.8482     0.6637    71.0697 </r>
       <r>     6.0036     2.6294    71.4783 </r>
       <r>     6.1589     0.6910    71.5856 </r>
       <r>     6.3143     1.3863    71.8011 </r>
       <r>     6.4697     1.1420    71.9785 </r>
       <r>     6.6251     0.1382    72.0000 </r>
       <r>     6.7805     0.3418    72.0531 </r>
       <r>     6.9359     2.0768    72.3758 </r>
       <r>     7.0913     1.6590    72.6336 </r>
       <r>     7.2467     3.3365    73.1521 </r>
       <r>     7.4021     2.6409    73.5624 </r>
       <r>     7.5574     3.9065    74.1695 </r>
       <r>     7.7128     2.6163    74.5760 </r>
       <r>     7.8682     2.4872    74.9625 </r>
       <r>     8.0236     4.0338    75.5893 </r>
       <r>     8.1790     3.9529    76.2035 </r>
       <r>     8.3344     3.6456    76.7700 </r>
       <r>     8.4898     5.2833    77.5910 </r>
       <r>     8.6452     5.5243    78.4494 </r>
       <r>     8.8006     4.4201    79.1363 </r>
       <r>     8.9559     3.5118    79.6820 </r>
       <r>     9.1113     4.2055    80.3354 </r>
       <r>     9.2667     4.1353    80.9780 </r>
       <r>     9.4221     5.1357    81.7761 </r>
       <r>     9.5775     4.4317    82.4647 </r>
       <r>     9.7329     6.4770    83.4711 </r>
       <r>     9.8883     8.2991    84.7607 </r>
       <r>    10.0437     6.4390    85.7613 </r>
       <r>    10.1991     6.9634    86.8433 </r>
       <r>    10.3545     4.9913    87.6189 </r>
       <r>    10.5098     1.1064    87.7908 </r>
       <r>    10.6652     1.1374    87.9676 </r>
       <r>    10.8206     0.2087    88.0000 </r>
       <r>    10.9760     0.0000    88.0000 </r>
       <r>    11.1314     0.0000    88.0000 </r>
       <r>    11.2868     0.0000    88.0000 </r>
       <r>    11.4422     0.0000    88.0000 </r>
       <r>    11.5976     0.0000    88.0000 </r>
       <r>    11.7530     0.0000    88.0000 </r>
       <r>    11.9083     0.0000    88.0000 </r>
       <r>    12.0637     0.0000    88.0000 </r>
       <r>    12.2191     0.0000    88.0000 </r>
       <r>    12.3745     0.0000    88.0000 </r>
       <r>    12.5299     0.0000    88.0000 </r>
       <r>    12.6853     0.0000    88.0000 </r>
       <r>    12.8407     0.0000    88.0000 </r>
      </set>
     </set>
    </array>
   </total>
  </dos>
 </calculation>
 <structure name="finalpos" >
  <crystal>
   <varray name="basis" >
    <v>       4.00000000       0.00000000       0.00000000 </v>
    <v>       0.00000000       8.00000000       0.00000000 </v>
    <v>       0.00000000       0.00000000       8.00000000 </v>
   </varray>
   <i name="volume">    256.00000000 </i>
   <varray name="rec_basis" >
    <v>       0.25000000       0.00000000       0.00000000 </v>
    <v>       0.00000000       0.12500000       0.00000000 </v>
    <v>       0.00000000       0.00000000       0.12500000 </v>
   </varray>
  </crystal>
  <varray name="positions" >
   <v>       0.00000000       0.75000000       0.00000000 </v>
   <v>       0.00000000       0.75000000       0.50000000 </v>
   <v>       0.00000000       0.25000000       0.00000000 </v>
   <v>       0.00000000       0.25000000       0.50000000 </v>
   <v>       0.50000000       0.00000000       0.75000000 </v>
   <v>       0.50000000       0.00000000       0.25000000 </v>
   <v>       0.50000000       0.50000000       0.75000000 </v>
   <v>       0.50000000       0.50000000       0.25000000 </v>
   <v>       0.50000000       0.75000000       0.25000000 </v>
   <v>       0.50000000       0.25000000       0.25000000 </v>
   <v>       0.00000000       0.00000000       0.25000000 </v>
   <v>       0.00000000       0.50000000       0.75000000 </v>
   <v>       0.00000000       0.50000000       0.25000000 </v>
   <v>       0.50000000       0.00000000       0.50000000 </v>
   <v>       0.50000000       0.50000000       0.00000000 </v>
   <v>       0.50000000       0.50000000       0.50000000 </v>
  </varray>
 </structure>
</modeling>
