<?xml version="1.0" encoding="ISO-8859-1"?>
<modeling>
 <generator>
  <i name="program" type="string">vasp </i>
  <i name="version" type="string">5.3.5  </i>
  <i name="subversion" type="string">31Mar14 (build Jun 20 2014 13:15:13) complex                          parallel </i>
  <i name="platform" type="string">LinuxIFC </i>
  <i name="date" type="string">2025 11 21 </i>
  <i name="time" type="string">10:26:28 </i>
 </generator>
 <incar>
  <i type="string" name="PREC">accurate</i>
  <i type="int" name="IALGO">    68</i>
  <i type="logical" name="ADDGRID"> T  </i>
  <i type="int" name="NELM">   100</i>
  <i type="int" name="NELMIN">     4</i>
  <i type="int" name="IBRION">     2</i>
  <i name="EDIFF">      0.00000100</i>
  <i name="EDIFFG">     -0.02000000</i>
  <i type="int" name="NSW">    30</i>
  <i type="int" name="ISIF">     3</i>
  <i name="ENCUT">    500.00000000</i>
  <i type="logical" name="LREAL"> F  </i>
  <i type="int" name="ISMEAR">     1</i>
  <i name="SIGMA">      0.30000000</i>
  <i type="logical" name="LWAVE"> F  </i>
  <i type="logical" name="LCHARG"> F  </i>
  <i type="int" name="NELM">   100</i>
 </incar>
 <kpoints>
  <generation param="Auto">
   <i name="subdivisionlength">     70.00000000 </i>
   <v type="int" name="divisions">      24       15       15 </v>
   <v name="usershift">      0.00000000       0.00000000       0.00000000 </v>
   <v name="genvec1">      0.04166667       0.00000000       0.00000000 </v>
   <v name="genvec2">      0.00000000       0.06666667       0.00000000 </v>
   <v name="genvec3">      0.00000000       0.00000000       0.06666667 </v>
   <v name="shift">      0.00000000       0.00000000       0.00000000 </v>
  </generation>
  <varray name="kpointlist" >
   <v>       0.00000000       0.00000000       0.00000000 </v>
   <v>       0.04166667       0.00000000       0.00000000 </v>
   <v>       0.08333333       0.00000000       0.00000000 </v>
   <v>       0.12500000       0.00000000       0.00000000 </v>
   <v>       0.16666667       0.00000000       0.00000000 </v>
   <v>       0.20833333       0.00000000       0.00000000 </v>
   <v>       0.25000000       0.00000000       0.00000000 </v>
   <v>       0.29166667       0.00000000       0.00000000 </v>
   <v>       0.33333333       0.00000000       0.00000000 </v>
   <v>       0.37500000       0.00000000       0.00000000 </v>
   <v>       0.41666667       0.00000000       0.00000000 </v>
   <v>       0.45833333       0.00000000       0.00000000 </v>
   <v>       0.50000000       0.00000000       0.00000000 </v>
   <v>       0.00000000       0.06666667       0.00000000 </v>
   <v>       0.04166667       0.06666667       0.00000000 </v>
   <v>       0.08333333       0.06666667       0.00000000 </v>
   <v>       0.12500000       0.06666667       0.00000000 </v>
   <v>       0.16666667       0.06666667       0.00000000 </v>
   <v>       0.20833333       0.06666667       0.00000000 </v>
   <v>       0.25000000       0.06666667       0.00000000 </v>
   <v>       0.29166667       0.06666667       0.00000000 </v>
   <v>       0.33333333       0.06666667       0.00000000 </v>
   <v>       0.37500000       0.06666667       0.00000000 </v>
   <v>       0.41666667       0.06666667       0.00000000 </v>
   <v>       0.45833333       0.06666667       0.00000000 </v>
   <v>       0.50000000       0.06666667       0.00000000 </v>
   <v>       0.00000000       0.13333333       0.00000000 </v>
   <v>       0.04166667       0.13333333       0.00000000 </v>
   <v>       0.08333333       0.13333333       0.00000000 </v>
   <v>       0.12500000       0.13333333       0.00000000 </v>
   <v>       0.16666667       0.13333333       0.00000000 </v>
   <v>       0.20833333       0.13333333       0.00000000 </v>
   <v>       0.25000000       0.13333333       0.00000000 </v>
   <v>       0.29166667       0.13333333       0.00000000 </v>
   <v>       0.33333333       0.13333333       0.00000000 </v>
   <v>       0.37500000       0.13333333       0.00000000 </v>
   <v>       0.41666667       0.13333333       0.00000000 </v>
   <v>       0.45833333       0.13333333       0.00000000 </v>
   <v>       0.50000000       0.13333333       0.00000000 </v>
   <v>       0.00000000       0.20000000       0.00000000 </v>
   <v>       0.04166667       0.20000000       0.00000000 </v>
   <v>       0.08333333       0.20000000       0.00000000 </v>
   <v>       0.12500000       0.20000000       0.00000000 </v>
   <v>       0.16666667       0.20000000       0.00000000 </v>
   <v>       0.20833333       0.20000000       0.00000000 </v>
   <v>       0.25000000       0.20000000       0.00000000 </v>
   <v>       0.29166667       0.20000000       0.00000000 </v>
   <v>       0.33333333       0.20000000       0.00000000 </v>
   <v>       0.37500000       0.20000000       0.00000000 </v>
   <v>       0.41666667       0.20000000       0.00000000 </v>
   <v>       0.45833333       0.20000000       0.00000000 </v>
   <v>       0.50000000       0.20000000       0.00000000 </v>
   <v>       0.00000000       0.26666667       0.00000000 </v>
   <v>       0.04166667       0.26666667       0.00000000 </v>
   <v>       0.08333333       0.26666667       0.00000000 </v>
   <v>       0.12500000       0.26666667       0.00000000 </v>
   <v>       0.16666667       0.26666667       0.00000000 </v>
   <v>       0.20833333       0.26666667       0.00000000 </v>
   <v>       0.25000000       0.26666667       0.00000000 </v>
   <v>       0.29166667       0.26666667       0.00000000 </v>
   <v>       0.33333333       0.26666667       0.00000000 </v>
   <v>       0.37500000       0.26666667       0.00000000 </v>
   <v>       0.41666667       0.26666667       0.00000000 </v>
   <v>       0.45833333       0.26666667       0.00000000 </v>
   <v>       0.50000000       0.26666667       0.00000000 </v>
   <v>       0.00000000       0.33333333       0.00000000 </v>
   <v>       0.04166667       0.33333333       0.00000000 </v>
   <v>       0.08333333       0.33333333       0.00000000 </v>
   <v>       0.12500000       0.33333333       0.00000000 </v>
   <v>       0.16666667       0.33333333       0.00000000 </v>
   <v>       0.20833333       0.33333333       0.00000000 </v>
   <v>       0.25000000       0.33333333       0.00000000 </v>
   <v>       0.29166667       0.33333333       0.00000000 </v>
   <v>       0.33333333       0.33333333       0.00000000 </v>
   <v>       0.37500000       0.33333333       0.00000000 </v>
   <v>       0.41666667       0.33333333       0.00000000 </v>
   <v>       0.45833333       0.33333333       0.00000000 </v>
   <v>       0.50000000       0.33333333       0.00000000 </v>
   <v>       0.00000000       0.40000000       0.00000000 </v>
   <v>       0.04166667       0.40000000       0.00000000 </v>
   <v>       0.08333333       0.40000000       0.00000000 </v>
   <v>       0.12500000       0.40000000       0.00000000 </v>
   <v>       0.16666667       0.40000000       0.00000000 </v>
   <v>       0.20833333       0.40000000       0.00000000 </v>
   <v>       0.25000000       0.40000000       0.00000000 </v>
   <v>       0.29166667       0.40000000       0.00000000 </v>
   <v>       0.33333333       0.40000000       0.00000000 </v>
   <v>       0.37500000       0.40000000       0.00000000 </v>
   <v>       0.41666667       0.40000000       0.00000000 </v>
   <v>       0.45833333       0.40000000       0.00000000 </v>
   <v>       0.50000000       0.40000000       0.00000000 </v>
   <v>       0.00000000       0.46666667       0.00000000 </v>
   <v>       0.04166667       0.46666667       0.00000000 </v>
   <v>       0.08333333       0.46666667       0.00000000 </v>
   <v>       0.12500000       0.46666667       0.00000000 </v>
   <v>       0.16666667       0.46666667       0.00000000 </v>
   <v>       0.20833333       0.46666667       0.00000000 </v>
   <v>       0.25000000       0.46666667       0.00000000 </v>
   <v>       0.29166667       0.46666667       0.00000000 </v>
   <v>       0.33333333       0.46666667       0.00000000 </v>
   <v>       0.37500000       0.46666667       0.00000000 </v>
   <v>       0.41666667       0.46666667       0.00000000 </v>
   <v>       0.45833333       0.46666667       0.00000000 </v>
   <v>       0.50000000       0.46666667       0.00000000 </v>
   <v>       0.00000000       0.06666667       0.06666667 </v>
   <v>       0.04166667       0.06666667       0.06666667 </v>
   <v>       0.08333333       0.06666667       0.06666667 </v>
   <v>       0.12500000       0.06666667       0.06666667 </v>
   <v>       0.16666667       0.06666667       0.06666667 </v>
   <v>       0.20833333       0.06666667       0.06666667 </v>
   <v>       0.25000000       0.06666667       0.06666667 </v>
   <v>       0.29166667       0.06666667       0.06666667 </v>
   <v>       0.33333333       0.06666667       0.06666667 </v>
   <v>       0.37500000       0.06666667       0.06666667 </v>
   <v>       0.41666667       0.06666667       0.06666667 </v>
   <v>       0.45833333       0.06666667       0.06666667 </v>
   <v>       0.50000000       0.06666667       0.06666667 </v>
   <v>       0.00000000       0.13333333       0.06666667 </v>
   <v>       0.04166667       0.13333333       0.06666667 </v>
   <v>       0.08333333       0.13333333       0.06666667 </v>
   <v>       0.12500000       0.13333333       0.06666667 </v>
   <v>       0.16666667       0.13333333       0.06666667 </v>
   <v>       0.20833333       0.13333333       0.06666667 </v>
   <v>       0.25000000       0.13333333       0.06666667 </v>
   <v>       0.29166667       0.13333333       0.06666667 </v>
   <v>       0.33333333       0.13333333       0.06666667 </v>
   <v>       0.37500000       0.13333333       0.06666667 </v>
   <v>       0.41666667       0.13333333       0.06666667 </v>
   <v>       0.45833333       0.13333333       0.06666667 </v>
   <v>       0.50000000       0.13333333       0.06666667 </v>
   <v>       0.00000000       0.20000000       0.06666667 </v>
   <v>       0.04166667       0.20000000       0.06666667 </v>
   <v>       0.08333333       0.20000000       0.06666667 </v>
   <v>       0.12500000       0.20000000       0.06666667 </v>
   <v>       0.16666667       0.20000000       0.06666667 </v>
   <v>       0.20833333       0.20000000       0.06666667 </v>
   <v>       0.25000000       0.20000000       0.06666667 </v>
   <v>       0.29166667       0.20000000       0.06666667 </v>
   <v>       0.33333333       0.20000000       0.06666667 </v>
   <v>       0.37500000       0.20000000       0.06666667 </v>
   <v>       0.41666667       0.20000000       0.06666667 </v>
   <v>       0.45833333       0.20000000       0.06666667 </v>
   <v>       0.50000000       0.20000000       0.06666667 </v>
   <v>       0.00000000       0.26666667       0.06666667 </v>
   <v>       0.04166667       0.26666667       0.06666667 </v>
   <v>       0.08333333       0.26666667       0.06666667 </v>
   <v>       0.12500000       0.26666667       0.06666667 </v>
   <v>       0.16666667       0.26666667       0.06666667 </v>
   <v>       0.20833333       0.26666667       0.06666667 </v>
   <v>       0.25000000       0.26666667       0.06666667 </v>
   <v>       0.29166667       0.26666667       0.06666667 </v>
   <v>       0.33333333       0.26666667       0.06666667 </v>
   <v>       0.37500000       0.26666667       0.06666667 </v>
   <v>       0.41666667       0.26666667       0.06666667 </v>
   <v>       0.45833333       0.26666667       0.06666667 </v>
   <v>       0.50000000       0.26666667       0.06666667 </v>
   <v>       0.00000000       0.33333333       0.06666667 </v>
   <v>       0.04166667       0.33333333       0.06666667 </v>
   <v>       0.08333333       0.33333333       0.06666667 </v>
   <v>       0.12500000       0.33333333       0.06666667 </v>
   <v>       0.16666667       0.33333333       0.06666667 </v>
   <v>       0.20833333       0.33333333       0.06666667 </v>
   <v>       0.25000000       0.33333333       0.06666667 </v>
   <v>       0.29166667       0.33333333       0.06666667 </v>
   <v>       0.33333333       0.33333333       0.06666667 </v>
   <v>       0.37500000       0.33333333       0.06666667 </v>
   <v>       0.41666667       0.33333333       0.06666667 </v>
   <v>       0.45833333       0.33333333       0.06666667 </v>
   <v>       0.50000000       0.33333333       0.06666667 </v>
   <v>       0.00000000       0.40000000       0.06666667 </v>
   <v>       0.04166667       0.40000000       0.06666667 </v>
   <v>       0.08333333       0.40000000       0.06666667 </v>
   <v>       0.12500000       0.40000000       0.06666667 </v>
   <v>       0.16666667       0.40000000       0.06666667 </v>
   <v>       0.20833333       0.40000000       0.06666667 </v>
   <v>       0.25000000       0.40000000       0.06666667 </v>
   <v>       0.29166667       0.40000000       0.06666667 </v>
   <v>       0.33333333       0.40000000       0.06666667 </v>
   <v>       0.37500000       0.40000000       0.06666667 </v>
   <v>       0.41666667       0.40000000       0.06666667 </v>
   <v>       0.45833333       0.40000000       0.06666667 </v>
   <v>       0.50000000       0.40000000       0.06666667 </v>
   <v>       0.00000000       0.46666667       0.06666667 </v>
   <v>       0.04166667       0.46666667       0.06666667 </v>
   <v>       0.08333333       0.46666667       0.06666667 </v>
   <v>       0.12500000       0.46666667       0.06666667 </v>
   <v>       0.16666667       0.46666667       0.06666667 </v>
   <v>       0.20833333       0.46666667       0.06666667 </v>
   <v>       0.25000000       0.46666667       0.06666667 </v>
   <v>       0.29166667       0.46666667       0.06666667 </v>
   <v>       0.33333333       0.46666667       0.06666667 </v>
   <v>       0.37500000       0.46666667       0.06666667 </v>
   <v>       0.41666667       0.46666667       0.06666667 </v>
   <v>       0.45833333       0.46666667       0.06666667 </v>
   <v>       0.50000000       0.46666667       0.06666667 </v>
   <v>       0.00000000      -0.46666667       0.06666667 </v>
   <v>       0.04166667      -0.46666667       0.06666667 </v>
   <v>       0.08333333      -0.46666667       0.06666667 </v>
   <v>       0.12500000      -0.46666667       0.06666667 </v>
   <v>       0.16666667      -0.46666667       0.06666667 </v>
   <v>       0.20833333      -0.46666667       0.06666667 </v>
   <v>       0.25000000      -0.46666667       0.06666667 </v>
   <v>       0.29166667      -0.46666667       0.06666667 </v>
   <v>       0.33333333      -0.46666667       0.06666667 </v>
   <v>       0.37500000      -0.46666667       0.06666667 </v>
   <v>       0.41666667      -0.46666667       0.06666667 </v>
   <v>       0.45833333      -0.46666667       0.06666667 </v>
   <v>       0.50000000      -0.46666667       0.06666667 </v>
   <v>       0.00000000      -0.40000000       0.06666667 </v>
   <v>       0.04166667      -0.40000000       0.06666667 </v>
   <v>       0.08333333      -0.40000000       0.06666667 </v>
   <v>       0.12500000      -0.40000000       0.06666667 </v>
   <v>       0.16666667      -0.40000000       0.06666667 </v>
   <v>       0.20833333      -0.40000000       0.06666667 </v>
   <v>       0.25000000      -0.40000000       0.06666667 </v>
   <v>       0.29166667      -0.40000000       0.06666667 </v>
   <v>       0.33333333      -0.40000000       0.06666667 </v>
   <v>       0.37500000      -0.40000000       0.06666667 </v>
   <v>       0.41666667      -0.40000000       0.06666667 </v>
   <v>       0.45833333      -0.40000000       0.06666667 </v>
   <v>       0.50000000      -0.40000000       0.06666667 </v>
   <v>       0.00000000      -0.33333333       0.06666667 </v>
   <v>       0.04166667      -0.33333333       0.06666667 </v>
   <v>       0.08333333      -0.33333333       0.06666667 </v>
   <v>       0.12500000      -0.33333333       0.06666667 </v>
   <v>       0.16666667      -0.33333333       0.06666667 </v>
   <v>       0.20833333      -0.33333333       0.06666667 </v>
   <v>       0.25000000      -0.33333333       0.06666667 </v>
   <v>       0.29166667      -0.33333333       0.06666667 </v>
   <v>       0.33333333      -0.33333333       0.06666667 </v>
   <v>       0.37500000      -0.33333333       0.06666667 </v>
   <v>       0.41666667      -0.33333333       0.06666667 </v>
   <v>       0.45833333      -0.33333333       0.06666667 </v>
   <v>       0.50000000      -0.33333333       0.06666667 </v>
   <v>       0.00000000      -0.26666667       0.06666667 </v>
   <v>       0.04166667      -0.26666667       0.06666667 </v>
   <v>       0.08333333      -0.26666667       0.06666667 </v>
   <v>       0.12500000      -0.26666667       0.06666667 </v>
   <v>       0.16666667      -0.26666667       0.06666667 </v>
   <v>       0.20833333      -0.26666667       0.06666667 </v>
   <v>       0.25000000      -0.26666667       0.06666667 </v>
   <v>       0.29166667      -0.26666667       0.06666667 </v>
   <v>       0.33333333      -0.26666667       0.06666667 </v>
   <v>       0.37500000      -0.26666667       0.06666667 </v>
   <v>       0.41666667      -0.26666667       0.06666667 </v>
   <v>       0.45833333      -0.26666667       0.06666667 </v>
   <v>       0.50000000      -0.26666667       0.06666667 </v>
   <v>       0.00000000      -0.20000000       0.06666667 </v>
   <v>       0.04166667      -0.20000000       0.06666667 </v>
   <v>       0.08333333      -0.20000000       0.06666667 </v>
   <v>       0.12500000      -0.20000000       0.06666667 </v>
   <v>       0.16666667      -0.20000000       0.06666667 </v>
   <v>       0.20833333      -0.20000000       0.06666667 </v>
   <v>       0.25000000      -0.20000000       0.06666667 </v>
   <v>       0.29166667      -0.20000000       0.06666667 </v>
   <v>       0.33333333      -0.20000000       0.06666667 </v>
   <v>       0.37500000      -0.20000000       0.06666667 </v>
   <v>       0.41666667      -0.20000000       0.06666667 </v>
   <v>       0.45833333      -0.20000000       0.06666667 </v>
   <v>       0.50000000      -0.20000000       0.06666667 </v>
   <v>       0.00000000      -0.13333333       0.06666667 </v>
   <v>       0.04166667      -0.13333333       0.06666667 </v>
   <v>       0.08333333      -0.13333333       0.06666667 </v>
   <v>       0.12500000      -0.13333333       0.06666667 </v>
   <v>       0.16666667      -0.13333333       0.06666667 </v>
   <v>       0.20833333      -0.13333333       0.06666667 </v>
   <v>       0.25000000      -0.13333333       0.06666667 </v>
   <v>       0.29166667      -0.13333333       0.06666667 </v>
   <v>       0.33333333      -0.13333333       0.06666667 </v>
   <v>       0.37500000      -0.13333333       0.06666667 </v>
   <v>       0.41666667      -0.13333333       0.06666667 </v>
   <v>       0.45833333      -0.13333333       0.06666667 </v>
   <v>       0.50000000      -0.13333333       0.06666667 </v>
   <v>       0.00000000      -0.06666667       0.06666667 </v>
   <v>       0.04166667      -0.06666667       0.06666667 </v>
   <v>       0.08333333      -0.06666667       0.06666667 </v>
   <v>       0.12500000      -0.06666667       0.06666667 </v>
   <v>       0.16666667      -0.06666667       0.06666667 </v>
   <v>       0.20833333      -0.06666667       0.06666667 </v>
   <v>       0.25000000      -0.06666667       0.06666667 </v>
   <v>       0.29166667      -0.06666667       0.06666667 </v>
   <v>       0.33333333      -0.06666667       0.06666667 </v>
   <v>       0.37500000      -0.06666667       0.06666667 </v>
   <v>       0.41666667      -0.06666667       0.06666667 </v>
   <v>       0.45833333      -0.06666667       0.06666667 </v>
   <v>       0.50000000      -0.06666667       0.06666667 </v>
   <v>       0.00000000       0.13333333       0.13333333 </v>
   <v>       0.04166667       0.13333333       0.13333333 </v>
   <v>       0.08333333       0.13333333       0.13333333 </v>
   <v>       0.12500000       0.13333333       0.13333333 </v>
   <v>       0.16666667       0.13333333       0.13333333 </v>
   <v>       0.20833333       0.13333333       0.13333333 </v>
   <v>       0.25000000       0.13333333       0.13333333 </v>
   <v>       0.29166667       0.13333333       0.13333333 </v>
   <v>       0.33333333       0.13333333       0.13333333 </v>
   <v>       0.37500000       0.13333333       0.13333333 </v>
   <v>       0.41666667       0.13333333       0.13333333 </v>
   <v>       0.45833333       0.13333333       0.13333333 </v>
   <v>       0.50000000       0.13333333       0.13333333 </v>
   <v>       0.00000000       0.20000000       0.13333333 </v>
   <v>       0.04166667       0.20000000       0.13333333 </v>
   <v>       0.08333333       0.20000000       0.13333333 </v>
   <v>       0.12500000       0.20000000       0.13333333 </v>
   <v>       0.16666667       0.20000000       0.13333333 </v>
   <v>       0.20833333       0.20000000       0.13333333 </v>
   <v>       0.25000000       0.20000000       0.13333333 </v>
   <v>       0.29166667       0.20000000       0.13333333 </v>
   <v>       0.33333333       0.20000000       0.13333333 </v>
   <v>       0.37500000       0.20000000       0.13333333 </v>
   <v>       0.41666667       0.20000000       0.13333333 </v>
   <v>       0.45833333       0.20000000       0.13333333 </v>
   <v>       0.50000000       0.20000000       0.13333333 </v>
   <v>       0.00000000       0.26666667       0.13333333 </v>
   <v>       0.04166667       0.26666667       0.13333333 </v>
   <v>       0.08333333       0.26666667       0.13333333 </v>
   <v>       0.12500000       0.26666667       0.13333333 </v>
   <v>       0.16666667       0.26666667       0.13333333 </v>
   <v>       0.20833333       0.26666667       0.13333333 </v>
   <v>       0.25000000       0.26666667       0.13333333 </v>
   <v>       0.29166667       0.26666667       0.13333333 </v>
   <v>       0.33333333       0.26666667       0.13333333 </v>
   <v>       0.37500000       0.26666667       0.13333333 </v>
   <v>       0.41666667       0.26666667       0.13333333 </v>
   <v>       0.45833333       0.26666667       0.13333333 </v>
   <v>       0.50000000       0.26666667       0.13333333 </v>
   <v>       0.00000000       0.33333333       0.13333333 </v>
   <v>       0.04166667       0.33333333       0.13333333 </v>
   <v>       0.08333333       0.33333333       0.13333333 </v>
   <v>       0.12500000       0.33333333       0.13333333 </v>
   <v>       0.16666667       0.33333333       0.13333333 </v>
   <v>       0.20833333       0.33333333       0.13333333 </v>
   <v>       0.25000000       0.33333333       0.13333333 </v>
   <v>       0.29166667       0.33333333       0.13333333 </v>
   <v>       0.33333333       0.33333333       0.13333333 </v>
   <v>       0.37500000       0.33333333       0.13333333 </v>
   <v>       0.41666667       0.33333333       0.13333333 </v>
   <v>       0.45833333       0.33333333       0.13333333 </v>
   <v>       0.50000000       0.33333333       0.13333333 </v>
   <v>       0.00000000       0.40000000       0.13333333 </v>
   <v>       0.04166667       0.40000000       0.13333333 </v>
   <v>       0.08333333       0.40000000       0.13333333 </v>
   <v>       0.12500000       0.40000000       0.13333333 </v>
   <v>       0.16666667       0.40000000       0.13333333 </v>
   <v>       0.20833333       0.40000000       0.13333333 </v>
   <v>       0.25000000       0.40000000       0.13333333 </v>
   <v>       0.29166667       0.40000000       0.13333333 </v>
   <v>       0.33333333       0.40000000       0.13333333 </v>
   <v>       0.37500000       0.40000000       0.13333333 </v>
   <v>       0.41666667       0.40000000       0.13333333 </v>
   <v>       0.45833333       0.40000000       0.13333333 </v>
   <v>       0.50000000       0.40000000       0.13333333 </v>
   <v>       0.00000000       0.46666667       0.13333333 </v>
   <v>       0.04166667       0.46666667       0.13333333 </v>
   <v>       0.08333333       0.46666667       0.13333333 </v>
   <v>       0.12500000       0.46666667       0.13333333 </v>
   <v>       0.16666667       0.46666667       0.13333333 </v>
   <v>       0.20833333       0.46666667       0.13333333 </v>
   <v>       0.25000000       0.46666667       0.13333333 </v>
   <v>       0.29166667       0.46666667       0.13333333 </v>
   <v>       0.33333333       0.46666667       0.13333333 </v>
   <v>       0.37500000       0.46666667       0.13333333 </v>
   <v>       0.41666667       0.46666667       0.13333333 </v>
   <v>       0.45833333       0.46666667       0.13333333 </v>
   <v>       0.50000000       0.46666667       0.13333333 </v>
   <v>       0.00000000      -0.46666667       0.13333333 </v>
   <v>       0.04166667      -0.46666667       0.13333333 </v>
   <v>       0.08333333      -0.46666667       0.13333333 </v>
   <v>       0.12500000      -0.46666667       0.13333333 </v>
   <v>       0.16666667      -0.46666667       0.13333333 </v>
   <v>       0.20833333      -0.46666667       0.13333333 </v>
   <v>       0.25000000      -0.46666667       0.13333333 </v>
   <v>       0.29166667      -0.46666667       0.13333333 </v>
   <v>       0.33333333      -0.46666667       0.13333333 </v>
   <v>       0.37500000      -0.46666667       0.13333333 </v>
   <v>       0.41666667      -0.46666667       0.13333333 </v>
   <v>       0.45833333      -0.46666667       0.13333333 </v>
   <v>       0.50000000      -0.46666667       0.13333333 </v>
   <v>       0.00000000      -0.40000000       0.13333333 </v>
   <v>       0.04166667      -0.40000000       0.13333333 </v>
   <v>       0.08333333      -0.40000000       0.13333333 </v>
   <v>       0.12500000      -0.40000000       0.13333333 </v>
   <v>       0.16666667      -0.40000000       0.13333333 </v>
   <v>       0.20833333      -0.40000000       0.13333333 </v>
   <v>       0.25000000      -0.40000000       0.13333333 </v>
   <v>       0.29166667      -0.40000000       0.13333333 </v>
   <v>       0.33333333      -0.40000000       0.13333333 </v>
   <v>       0.37500000      -0.40000000       0.13333333 </v>
   <v>       0.41666667      -0.40000000       0.13333333 </v>
   <v>       0.45833333      -0.40000000       0.13333333 </v>
   <v>       0.50000000      -0.40000000       0.13333333 </v>
   <v>       0.00000000      -0.33333333       0.13333333 </v>
   <v>       0.04166667      -0.33333333       0.13333333 </v>
   <v>       0.08333333      -0.33333333       0.13333333 </v>
   <v>       0.12500000      -0.33333333       0.13333333 </v>
   <v>       0.16666667      -0.33333333       0.13333333 </v>
   <v>       0.20833333      -0.33333333       0.13333333 </v>
   <v>       0.25000000      -0.33333333       0.13333333 </v>
   <v>       0.29166667      -0.33333333       0.13333333 </v>
   <v>       0.33333333      -0.33333333       0.13333333 </v>
   <v>       0.37500000      -0.33333333       0.13333333 </v>
   <v>       0.41666667      -0.33333333       0.13333333 </v>
   <v>       0.45833333      -0.33333333       0.13333333 </v>
   <v>       0.50000000      -0.33333333       0.13333333 </v>
   <v>       0.00000000      -0.26666667       0.13333333 </v>
   <v>       0.04166667      -0.26666667       0.13333333 </v>
   <v>       0.08333333      -0.26666667       0.13333333 </v>
   <v>       0.12500000      -0.26666667       0.13333333 </v>
   <v>       0.16666667      -0.26666667       0.13333333 </v>
   <v>       0.20833333      -0.26666667       0.13333333 </v>
   <v>       0.25000000      -0.26666667       0.13333333 </v>
   <v>       0.29166667      -0.26666667       0.13333333 </v>
   <v>       0.33333333      -0.26666667       0.13333333 </v>
   <v>       0.37500000      -0.26666667       0.13333333 </v>
   <v>       0.41666667      -0.26666667       0.13333333 </v>
   <v>       0.45833333      -0.26666667       0.13333333 </v>
   <v>       0.50000000      -0.26666667       0.13333333 </v>
   <v>       0.00000000      -0.20000000       0.13333333 </v>
   <v>       0.04166667      -0.20000000       0.13333333 </v>
   <v>       0.08333333      -0.20000000       0.13333333 </v>
   <v>       0.12500000      -0.20000000       0.13333333 </v>
   <v>       0.16666667      -0.20000000       0.13333333 </v>
   <v>       0.20833333      -0.20000000       0.13333333 </v>
   <v>       0.25000000      -0.20000000       0.13333333 </v>
   <v>       0.29166667      -0.20000000       0.13333333 </v>
   <v>       0.33333333      -0.20000000       0.13333333 </v>
   <v>       0.37500000      -0.20000000       0.13333333 </v>
   <v>       0.41666667      -0.20000000       0.13333333 </v>
   <v>       0.45833333      -0.20000000       0.13333333 </v>
   <v>       0.50000000      -0.20000000       0.13333333 </v>
   <v>       0.00000000      -0.13333333       0.13333333 </v>
   <v>       0.04166667      -0.13333333       0.13333333 </v>
   <v>       0.08333333      -0.13333333       0.13333333 </v>
   <v>       0.12500000      -0.13333333       0.13333333 </v>
   <v>       0.16666667      -0.13333333       0.13333333 </v>
   <v>       0.20833333      -0.13333333       0.13333333 </v>
   <v>       0.25000000      -0.13333333       0.13333333 </v>
   <v>       0.29166667      -0.13333333       0.13333333 </v>
   <v>       0.33333333      -0.13333333       0.13333333 </v>
   <v>       0.37500000      -0.13333333       0.13333333 </v>
   <v>       0.41666667      -0.13333333       0.13333333 </v>
   <v>       0.45833333      -0.13333333       0.13333333 </v>
   <v>       0.50000000      -0.13333333       0.13333333 </v>
   <v>       0.00000000       0.20000000       0.20000000 </v>
   <v>       0.04166667       0.20000000       0.20000000 </v>
   <v>       0.08333333       0.20000000       0.20000000 </v>
   <v>       0.12500000       0.20000000       0.20000000 </v>
   <v>       0.16666667       0.20000000       0.20000000 </v>
   <v>       0.20833333       0.20000000       0.20000000 </v>
   <v>       0.25000000       0.20000000       0.20000000 </v>
   <v>       0.29166667       0.20000000       0.20000000 </v>
   <v>       0.33333333       0.20000000       0.20000000 </v>
   <v>       0.37500000       0.20000000       0.20000000 </v>
   <v>       0.41666667       0.20000000       0.20000000 </v>
   <v>       0.45833333       0.20000000       0.20000000 </v>
   <v>       0.50000000       0.20000000       0.20000000 </v>
   <v>       0.00000000       0.26666667       0.20000000 </v>
   <v>       0.04166667       0.26666667       0.20000000 </v>
   <v>       0.08333333       0.26666667       0.20000000 </v>
   <v>       0.12500000       0.26666667       0.20000000 </v>
   <v>       0.16666667       0.26666667       0.20000000 </v>
   <v>       0.20833333       0.26666667       0.20000000 </v>
   <v>       0.25000000       0.26666667       0.20000000 </v>
   <v>       0.29166667       0.26666667       0.20000000 </v>
   <v>       0.33333333       0.26666667       0.20000000 </v>
   <v>       0.37500000       0.26666667       0.20000000 </v>
   <v>       0.41666667       0.26666667       0.20000000 </v>
   <v>       0.45833333       0.26666667       0.20000000 </v>
   <v>       0.50000000       0.26666667       0.20000000 </v>
   <v>       0.00000000       0.33333333       0.20000000 </v>
   <v>       0.04166667       0.33333333       0.20000000 </v>
   <v>       0.08333333       0.33333333       0.20000000 </v>
   <v>       0.12500000       0.33333333       0.20000000 </v>
   <v>       0.16666667       0.33333333       0.20000000 </v>
   <v>       0.20833333       0.33333333       0.20000000 </v>
   <v>       0.25000000       0.33333333       0.20000000 </v>
   <v>       0.29166667       0.33333333       0.20000000 </v>
   <v>       0.33333333       0.33333333       0.20000000 </v>
   <v>       0.37500000       0.33333333       0.20000000 </v>
   <v>       0.41666667       0.33333333       0.20000000 </v>
   <v>       0.45833333       0.33333333       0.20000000 </v>
   <v>       0.50000000       0.33333333       0.20000000 </v>
   <v>       0.00000000       0.40000000       0.20000000 </v>
   <v>       0.04166667       0.40000000       0.20000000 </v>
   <v>       0.08333333       0.40000000       0.20000000 </v>
   <v>       0.12500000       0.40000000       0.20000000 </v>
   <v>       0.16666667       0.40000000       0.20000000 </v>
   <v>       0.20833333       0.40000000       0.20000000 </v>
   <v>       0.25000000       0.40000000       0.20000000 </v>
   <v>       0.29166667       0.40000000       0.20000000 </v>
   <v>       0.33333333       0.40000000       0.20000000 </v>
   <v>       0.37500000       0.40000000       0.20000000 </v>
   <v>       0.41666667       0.40000000       0.20000000 </v>
   <v>       0.45833333       0.40000000       0.20000000 </v>
   <v>       0.50000000       0.40000000       0.20000000 </v>
   <v>       0.00000000       0.46666667       0.20000000 </v>
   <v>       0.04166667       0.46666667       0.20000000 </v>
   <v>       0.08333333       0.46666667       0.20000000 </v>
   <v>       0.12500000       0.46666667       0.20000000 </v>
   <v>       0.16666667       0.46666667       0.20000000 </v>
   <v>       0.20833333       0.46666667       0.20000000 </v>
   <v>       0.25000000       0.46666667       0.20000000 </v>
   <v>       0.29166667       0.46666667       0.20000000 </v>
   <v>       0.33333333       0.46666667       0.20000000 </v>
   <v>       0.37500000       0.46666667       0.20000000 </v>
   <v>       0.41666667       0.46666667       0.20000000 </v>
   <v>       0.45833333       0.46666667       0.20000000 </v>
   <v>       0.50000000       0.46666667       0.20000000 </v>
   <v>       0.00000000      -0.46666667       0.20000000 </v>
   <v>       0.04166667      -0.46666667       0.20000000 </v>
   <v>       0.08333333      -0.46666667       0.20000000 </v>
   <v>       0.12500000      -0.46666667       0.20000000 </v>
   <v>       0.16666667      -0.46666667       0.20000000 </v>
   <v>       0.20833333      -0.46666667       0.20000000 </v>
   <v>       0.25000000      -0.46666667       0.20000000 </v>
   <v>       0.29166667      -0.46666667       0.20000000 </v>
   <v>       0.33333333      -0.46666667       0.20000000 </v>
   <v>       0.37500000      -0.46666667       0.20000000 </v>
   <v>       0.41666667      -0.46666667       0.20000000 </v>
   <v>       0.45833333      -0.46666667       0.20000000 </v>
   <v>       0.50000000      -0.46666667       0.20000000 </v>
   <v>       0.00000000      -0.40000000       0.20000000 </v>
   <v>       0.04166667      -0.40000000       0.20000000 </v>
   <v>       0.08333333      -0.40000000       0.20000000 </v>
   <v>       0.12500000      -0.40000000       0.20000000 </v>
   <v>       0.16666667      -0.40000000       0.20000000 </v>
   <v>       0.20833333      -0.40000000       0.20000000 </v>
   <v>       0.25000000      -0.40000000       0.20000000 </v>
   <v>       0.29166667      -0.40000000       0.20000000 </v>
   <v>       0.33333333      -0.40000000       0.20000000 </v>
   <v>       0.37500000      -0.40000000       0.20000000 </v>
   <v>       0.41666667      -0.40000000       0.20000000 </v>
   <v>       0.45833333      -0.40000000       0.20000000 </v>
   <v>       0.50000000      -0.40000000       0.20000000 </v>
   <v>       0.00000000      -0.33333333       0.20000000 </v>
   <v>       0.04166667      -0.33333333       0.20000000 </v>
   <v>       0.08333333      -0.33333333       0.20000000 </v>
   <v>       0.12500000      -0.33333333       0.20000000 </v>
   <v>       0.16666667      -0.33333333       0.20000000 </v>
   <v>       0.20833333      -0.33333333       0.20000000 </v>
   <v>       0.25000000      -0.33333333       0.20000000 </v>
   <v>       0.29166667      -0.33333333       0.20000000 </v>
   <v>       0.33333333      -0.33333333       0.20000000 </v>
   <v>       0.37500000      -0.33333333       0.20000000 </v>
   <v>       0.41666667      -0.33333333       0.20000000 </v>
   <v>       0.45833333      -0.33333333       0.20000000 </v>
   <v>       0.50000000      -0.33333333       0.20000000 </v>
   <v>       0.00000000      -0.26666667       0.20000000 </v>
   <v>       0.04166667      -0.26666667       0.20000000 </v>
   <v>       0.08333333      -0.26666667       0.20000000 </v>
   <v>       0.12500000      -0.26666667       0.20000000 </v>
   <v>       0.16666667      -0.26666667       0.20000000 </v>
   <v>       0.20833333      -0.26666667       0.20000000 </v>
   <v>       0.25000000      -0.26666667       0.20000000 </v>
   <v>       0.29166667      -0.26666667       0.20000000 </v>
   <v>       0.33333333      -0.26666667       0.20000000 </v>
   <v>       0.37500000      -0.26666667       0.20000000 </v>
   <v>       0.41666667      -0.26666667       0.20000000 </v>
   <v>       0.45833333      -0.26666667       0.20000000 </v>
   <v>       0.50000000      -0.26666667       0.20000000 </v>
   <v>       0.00000000      -0.20000000       0.20000000 </v>
   <v>       0.04166667      -0.20000000       0.20000000 </v>
   <v>       0.08333333      -0.20000000       0.20000000 </v>
   <v>       0.12500000      -0.20000000       0.20000000 </v>
   <v>       0.16666667      -0.20000000       0.20000000 </v>
   <v>       0.20833333      -0.20000000       0.20000000 </v>
   <v>       0.25000000      -0.20000000       0.20000000 </v>
   <v>       0.29166667      -0.20000000       0.20000000 </v>
   <v>       0.33333333      -0.20000000       0.20000000 </v>
   <v>       0.37500000      -0.20000000       0.20000000 </v>
   <v>       0.41666667      -0.20000000       0.20000000 </v>
   <v>       0.45833333      -0.20000000       0.20000000 </v>
   <v>       0.50000000      -0.20000000       0.20000000 </v>
   <v>       0.00000000       0.26666667       0.26666667 </v>
   <v>       0.04166667       0.26666667       0.26666667 </v>
   <v>       0.08333333       0.26666667       0.26666667 </v>
   <v>       0.12500000       0.26666667       0.26666667 </v>
   <v>       0.16666667       0.26666667       0.26666667 </v>
   <v>       0.20833333       0.26666667       0.26666667 </v>
   <v>       0.25000000       0.26666667       0.26666667 </v>
   <v>       0.29166667       0.26666667       0.26666667 </v>
   <v>       0.33333333       0.26666667       0.26666667 </v>
   <v>       0.37500000       0.26666667       0.26666667 </v>
   <v>       0.41666667       0.26666667       0.26666667 </v>
   <v>       0.45833333       0.26666667       0.26666667 </v>
   <v>       0.50000000       0.26666667       0.26666667 </v>
   <v>       0.00000000       0.33333333       0.26666667 </v>
   <v>       0.04166667       0.33333333       0.26666667 </v>
   <v>       0.08333333       0.33333333       0.26666667 </v>
   <v>       0.12500000       0.33333333       0.26666667 </v>
   <v>       0.16666667       0.33333333       0.26666667 </v>
   <v>       0.20833333       0.33333333       0.26666667 </v>
   <v>       0.25000000       0.33333333       0.26666667 </v>
   <v>       0.29166667       0.33333333       0.26666667 </v>
   <v>       0.33333333       0.33333333       0.26666667 </v>
   <v>       0.37500000       0.33333333       0.26666667 </v>
   <v>       0.41666667       0.33333333       0.26666667 </v>
   <v>       0.45833333       0.33333333       0.26666667 </v>
   <v>       0.50000000       0.33333333       0.26666667 </v>
   <v>       0.00000000       0.40000000       0.26666667 </v>
   <v>       0.04166667       0.40000000       0.26666667 </v>
   <v>       0.08333333       0.40000000       0.26666667 </v>
   <v>       0.12500000       0.40000000       0.26666667 </v>
   <v>       0.16666667       0.40000000       0.26666667 </v>
   <v>       0.20833333       0.40000000       0.26666667 </v>
   <v>       0.25000000       0.40000000       0.26666667 </v>
   <v>       0.29166667       0.40000000       0.26666667 </v>
   <v>       0.33333333       0.40000000       0.26666667 </v>
   <v>       0.37500000       0.40000000       0.26666667 </v>
   <v>       0.41666667       0.40000000       0.26666667 </v>
   <v>       0.45833333       0.40000000       0.26666667 </v>
   <v>       0.50000000       0.40000000       0.26666667 </v>
   <v>       0.00000000       0.46666667       0.26666667 </v>
   <v>       0.04166667       0.46666667       0.26666667 </v>
   <v>       0.08333333       0.46666667       0.26666667 </v>
   <v>       0.12500000       0.46666667       0.26666667 </v>
   <v>       0.16666667       0.46666667       0.26666667 </v>
   <v>       0.20833333       0.46666667       0.26666667 </v>
   <v>       0.25000000       0.46666667       0.26666667 </v>
   <v>       0.29166667       0.46666667       0.26666667 </v>
   <v>       0.33333333       0.46666667       0.26666667 </v>
   <v>       0.37500000       0.46666667       0.26666667 </v>
   <v>       0.41666667       0.46666667       0.26666667 </v>
   <v>       0.45833333       0.46666667       0.26666667 </v>
   <v>       0.50000000       0.46666667       0.26666667 </v>
   <v>       0.00000000      -0.46666667       0.26666667 </v>
   <v>       0.04166667      -0.46666667       0.26666667 </v>
   <v>       0.08333333      -0.46666667       0.26666667 </v>
   <v>       0.12500000      -0.46666667       0.26666667 </v>
   <v>       0.16666667      -0.46666667       0.26666667 </v>
   <v>       0.20833333      -0.46666667       0.26666667 </v>
   <v>       0.25000000      -0.46666667       0.26666667 </v>
   <v>       0.29166667      -0.46666667       0.26666667 </v>
   <v>       0.33333333      -0.46666667       0.26666667 </v>
   <v>       0.37500000      -0.46666667       0.26666667 </v>
   <v>       0.41666667      -0.46666667       0.26666667 </v>
   <v>       0.45833333      -0.46666667       0.26666667 </v>
   <v>       0.50000000      -0.46666667       0.26666667 </v>
   <v>       0.00000000      -0.40000000       0.26666667 </v>
   <v>       0.04166667      -0.40000000       0.26666667 </v>
   <v>       0.08333333      -0.40000000       0.26666667 </v>
   <v>       0.12500000      -0.40000000       0.26666667 </v>
   <v>       0.16666667      -0.40000000       0.26666667 </v>
   <v>       0.20833333      -0.40000000       0.26666667 </v>
   <v>       0.25000000      -0.40000000       0.26666667 </v>
   <v>       0.29166667      -0.40000000       0.26666667 </v>
   <v>       0.33333333      -0.40000000       0.26666667 </v>
   <v>       0.37500000      -0.40000000       0.26666667 </v>
   <v>       0.41666667      -0.40000000       0.26666667 </v>
   <v>       0.45833333      -0.40000000       0.26666667 </v>
   <v>       0.50000000      -0.40000000       0.26666667 </v>
   <v>       0.00000000      -0.33333333       0.26666667 </v>
   <v>       0.04166667      -0.33333333       0.26666667 </v>
   <v>       0.08333333      -0.33333333       0.26666667 </v>
   <v>       0.12500000      -0.33333333       0.26666667 </v>
   <v>       0.16666667      -0.33333333       0.26666667 </v>
   <v>       0.20833333      -0.33333333       0.26666667 </v>
   <v>       0.25000000      -0.33333333       0.26666667 </v>
   <v>       0.29166667      -0.33333333       0.26666667 </v>
   <v>       0.33333333      -0.33333333       0.26666667 </v>
   <v>       0.37500000      -0.33333333       0.26666667 </v>
   <v>       0.41666667      -0.33333333       0.26666667 </v>
   <v>       0.45833333      -0.33333333       0.26666667 </v>
   <v>       0.50000000      -0.33333333       0.26666667 </v>
   <v>       0.00000000      -0.26666667       0.26666667 </v>
   <v>       0.04166667      -0.26666667       0.26666667 </v>
   <v>       0.08333333      -0.26666667       0.26666667 </v>
   <v>       0.12500000      -0.26666667       0.26666667 </v>
   <v>       0.16666667      -0.26666667       0.26666667 </v>
   <v>       0.20833333      -0.26666667       0.26666667 </v>
   <v>       0.25000000      -0.26666667       0.26666667 </v>
   <v>       0.29166667      -0.26666667       0.26666667 </v>
   <v>       0.33333333      -0.26666667       0.26666667 </v>
   <v>       0.37500000      -0.26666667       0.26666667 </v>
   <v>       0.41666667      -0.26666667       0.26666667 </v>
   <v>       0.45833333      -0.26666667       0.26666667 </v>
   <v>       0.50000000      -0.26666667       0.26666667 </v>
   <v>       0.00000000       0.33333333       0.33333333 </v>
   <v>       0.04166667       0.33333333       0.33333333 </v>
   <v>       0.08333333       0.33333333       0.33333333 </v>
   <v>       0.12500000       0.33333333       0.33333333 </v>
   <v>       0.16666667       0.33333333       0.33333333 </v>
   <v>       0.20833333       0.33333333       0.33333333 </v>
   <v>       0.25000000       0.33333333       0.33333333 </v>
   <v>       0.29166667       0.33333333       0.33333333 </v>
   <v>       0.33333333       0.33333333       0.33333333 </v>
   <v>       0.37500000       0.33333333       0.33333333 </v>
   <v>       0.41666667       0.33333333       0.33333333 </v>
   <v>       0.45833333       0.33333333       0.33333333 </v>
   <v>       0.50000000       0.33333333       0.33333333 </v>
   <v>       0.00000000       0.40000000       0.33333333 </v>
   <v>       0.04166667       0.40000000       0.33333333 </v>
   <v>       0.08333333       0.40000000       0.33333333 </v>
   <v>       0.12500000       0.40000000       0.33333333 </v>
   <v>       0.16666667       0.40000000       0.33333333 </v>
   <v>       0.20833333       0.40000000       0.33333333 </v>
   <v>       0.25000000       0.40000000       0.33333333 </v>
   <v>       0.29166667       0.40000000       0.33333333 </v>
   <v>       0.33333333       0.40000000       0.33333333 </v>
   <v>       0.37500000       0.40000000       0.33333333 </v>
   <v>       0.41666667       0.40000000       0.33333333 </v>
   <v>       0.45833333       0.40000000       0.33333333 </v>
   <v>       0.50000000       0.40000000       0.33333333 </v>
   <v>       0.00000000       0.46666667       0.33333333 </v>
   <v>       0.04166667       0.46666667       0.33333333 </v>
   <v>       0.08333333       0.46666667       0.33333333 </v>
   <v>       0.12500000       0.46666667       0.33333333 </v>
   <v>       0.16666667       0.46666667       0.33333333 </v>
   <v>       0.20833333       0.46666667       0.33333333 </v>
   <v>       0.25000000       0.46666667       0.33333333 </v>
   <v>       0.29166667       0.46666667       0.33333333 </v>
   <v>       0.33333333       0.46666667       0.33333333 </v>
   <v>       0.37500000       0.46666667       0.33333333 </v>
   <v>       0.41666667       0.46666667       0.33333333 </v>
   <v>       0.45833333       0.46666667       0.33333333 </v>
   <v>       0.50000000       0.46666667       0.33333333 </v>
   <v>       0.00000000      -0.46666667       0.33333333 </v>
   <v>       0.04166667      -0.46666667       0.33333333 </v>
   <v>       0.08333333      -0.46666667       0.33333333 </v>
   <v>       0.12500000      -0.46666667       0.33333333 </v>
   <v>       0.16666667      -0.46666667       0.33333333 </v>
   <v>       0.20833333      -0.46666667       0.33333333 </v>
   <v>       0.25000000      -0.46666667       0.33333333 </v>
   <v>       0.29166667      -0.46666667       0.33333333 </v>
   <v>       0.33333333      -0.46666667       0.33333333 </v>
   <v>       0.37500000      -0.46666667       0.33333333 </v>
   <v>       0.41666667      -0.46666667       0.33333333 </v>
   <v>       0.45833333      -0.46666667       0.33333333 </v>
   <v>       0.50000000      -0.46666667       0.33333333 </v>
   <v>       0.00000000      -0.40000000       0.33333333 </v>
   <v>       0.04166667      -0.40000000       0.33333333 </v>
   <v>       0.08333333      -0.40000000       0.33333333 </v>
   <v>       0.12500000      -0.40000000       0.33333333 </v>
   <v>       0.16666667      -0.40000000       0.33333333 </v>
   <v>       0.20833333      -0.40000000       0.33333333 </v>
   <v>       0.25000000      -0.40000000       0.33333333 </v>
   <v>       0.29166667      -0.40000000       0.33333333 </v>
   <v>       0.33333333      -0.40000000       0.33333333 </v>
   <v>       0.37500000      -0.40000000       0.33333333 </v>
   <v>       0.41666667      -0.40000000       0.33333333 </v>
   <v>       0.45833333      -0.40000000       0.33333333 </v>
   <v>       0.50000000      -0.40000000       0.33333333 </v>
   <v>       0.00000000      -0.33333333       0.33333333 </v>
   <v>       0.04166667      -0.33333333       0.33333333 </v>
   <v>       0.08333333      -0.33333333       0.33333333 </v>
   <v>       0.12500000      -0.33333333       0.33333333 </v>
   <v>       0.16666667      -0.33333333       0.33333333 </v>
   <v>       0.20833333      -0.33333333       0.33333333 </v>
   <v>       0.25000000      -0.33333333       0.33333333 </v>
   <v>       0.29166667      -0.33333333       0.33333333 </v>
   <v>       0.33333333      -0.33333333       0.33333333 </v>
   <v>       0.37500000      -0.33333333       0.33333333 </v>
   <v>       0.41666667      -0.33333333       0.33333333 </v>
   <v>       0.45833333      -0.33333333       0.33333333 </v>
   <v>       0.50000000      -0.33333333       0.33333333 </v>
   <v>       0.00000000       0.40000000       0.40000000 </v>
   <v>       0.04166667       0.40000000       0.40000000 </v>
   <v>       0.08333333       0.40000000       0.40000000 </v>
   <v>       0.12500000       0.40000000       0.40000000 </v>
   <v>       0.16666667       0.40000000       0.40000000 </v>
   <v>       0.20833333       0.40000000       0.40000000 </v>
   <v>       0.25000000       0.40000000       0.40000000 </v>
   <v>       0.29166667       0.40000000       0.40000000 </v>
   <v>       0.33333333       0.40000000       0.40000000 </v>
   <v>       0.37500000       0.40000000       0.40000000 </v>
   <v>       0.41666667       0.40000000       0.40000000 </v>
   <v>       0.45833333       0.40000000       0.40000000 </v>
   <v>       0.50000000       0.40000000       0.40000000 </v>
   <v>       0.00000000       0.46666667       0.40000000 </v>
   <v>       0.04166667       0.46666667       0.40000000 </v>
   <v>       0.08333333       0.46666667       0.40000000 </v>
   <v>       0.12500000       0.46666667       0.40000000 </v>
   <v>       0.16666667       0.46666667       0.40000000 </v>
   <v>       0.20833333       0.46666667       0.40000000 </v>
   <v>       0.25000000       0.46666667       0.40000000 </v>
   <v>       0.29166667       0.46666667       0.40000000 </v>
   <v>       0.33333333       0.46666667       0.40000000 </v>
   <v>       0.37500000       0.46666667       0.40000000 </v>
   <v>       0.41666667       0.46666667       0.40000000 </v>
   <v>       0.45833333       0.46666667       0.40000000 </v>
   <v>       0.50000000       0.46666667       0.40000000 </v>
   <v>       0.00000000      -0.46666667       0.40000000 </v>
   <v>       0.04166667      -0.46666667       0.40000000 </v>
   <v>       0.08333333      -0.46666667       0.40000000 </v>
   <v>       0.12500000      -0.46666667       0.40000000 </v>
   <v>       0.16666667      -0.46666667       0.40000000 </v>
   <v>       0.20833333      -0.46666667       0.40000000 </v>
   <v>       0.25000000      -0.46666667       0.40000000 </v>
   <v>       0.29166667      -0.46666667       0.40000000 </v>
   <v>       0.33333333      -0.46666667       0.40000000 </v>
   <v>       0.37500000      -0.46666667       0.40000000 </v>
   <v>       0.41666667      -0.46666667       0.40000000 </v>
   <v>       0.45833333      -0.46666667       0.40000000 </v>
   <v>       0.50000000      -0.46666667       0.40000000 </v>
   <v>       0.00000000      -0.40000000       0.40000000 </v>
   <v>       0.04166667      -0.40000000       0.40000000 </v>
   <v>       0.08333333      -0.40000000       0.40000000 </v>
   <v>       0.12500000      -0.40000000       0.40000000 </v>
   <v>       0.16666667      -0.40000000       0.40000000 </v>
   <v>       0.20833333      -0.40000000       0.40000000 </v>
   <v>       0.25000000      -0.40000000       0.40000000 </v>
   <v>       0.29166667      -0.40000000       0.40000000 </v>
   <v>       0.33333333      -0.40000000       0.40000000 </v>
   <v>       0.37500000      -0.40000000       0.40000000 </v>
   <v>       0.41666667      -0.40000000       0.40000000 </v>
   <v>       0.45833333      -0.40000000       0.40000000 </v>
   <v>       0.50000000      -0.40000000       0.40000000 </v>
   <v>       0.00000000       0.46666667       0.46666667 </v>
   <v>       0.04166667       0.46666667       0.46666667 </v>
   <v>       0.08333333       0.46666667       0.46666667 </v>
   <v>       0.12500000       0.46666667       0.46666667 </v>
   <v>       0.16666667       0.46666667       0.46666667 </v>
   <v>       0.20833333       0.46666667       0.46666667 </v>
   <v>       0.25000000       0.46666667       0.46666667 </v>
   <v>       0.29166667       0.46666667       0.46666667 </v>
   <v>       0.33333333       0.46666667       0.46666667 </v>
   <v>       0.37500000       0.46666667       0.46666667 </v>
   <v>       0.41666667       0.46666667       0.46666667 </v>
   <v>       0.45833333       0.46666667       0.46666667 </v>
   <v>       0.50000000       0.46666667       0.46666667 </v>
   <v>       0.00000000      -0.46666667       0.46666667 </v>
   <v>       0.04166667      -0.46666667       0.46666667 </v>
   <v>       0.08333333      -0.46666667       0.46666667 </v>
   <v>       0.12500000      -0.46666667       0.46666667 </v>
   <v>       0.16666667      -0.46666667       0.46666667 </v>
   <v>       0.20833333      -0.46666667       0.46666667 </v>
   <v>       0.25000000      -0.46666667       0.46666667 </v>
   <v>       0.29166667      -0.46666667       0.46666667 </v>
   <v>       0.33333333      -0.46666667       0.46666667 </v>
   <v>       0.37500000      -0.46666667       0.46666667 </v>
   <v>       0.41666667      -0.46666667       0.46666667 </v>
   <v>       0.45833333      -0.46666667       0.46666667 </v>
   <v>       0.50000000      -0.46666667       0.46666667 </v>
  </varray>
  <varray name="weights" >
   <v>       0.00018519 </v>
   <v>       0.00037037 </v>
   <v>       0.00037037 </v>
   <v>       0.00037037 </v>
   <v>       0.00037037 </v>
   <v>       0.00037037 </v>
   <v>       0.00037037 </v>
   <v>       0.00037037 </v>
   <v>       0.00037037 </v>
   <v>       0.00037037 </v>
   <v>       0.00037037 </v>
   <v>       0.00037037 </v>
   <v>       0.00018519 </v>
   <v>       0.00074074 </v>
   <v>       0.00148148 </v>
   <v>       0.00148148 </v>
   <v>       0.00148148 </v>
   <v>       0.00148148 </v>
   <v>       0.00148148 </v>
   <v>       0.00148148 </v>
   <v>       0.00148148 </v>
   <v>       0.00148148 </v>
   <v>       0.00148148 </v>
   <v>       0.00148148 </v>
   <v>       0.00148148 </v>
   <v>       0.00074074 </v>
   <v>       0.00074074 </v>
   <v>       0.00148148 </v>
   <v>       0.00148148 </v>
   <v>       0.00148148 </v>
   <v>       0.00148148 </v>
   <v>       0.00148148 </v>
   <v>       0.00148148 </v>
   <v>       0.00148148 </v>
   <v>       0.00148148 </v>
   <v>       0.00148148 </v>
   <v>       0.00148148 </v>
   <v>       0.00148148 </v>
   <v>       0.00074074 </v>
   <v>       0.00074074 </v>
   <v>       0.00148148 </v>
   <v>       0.00148148 </v>
   <v>       0.00148148 </v>
   <v>       0.00148148 </v>
   <v>       0.00148148 </v>
   <v>       0.00148148 </v>
   <v>       0.00148148 </v>
   <v>       0.00148148 </v>
   <v>       0.00148148 </v>
   <v>       0.00148148 </v>
   <v>       0.00148148 </v>
   <v>       0.00074074 </v>
   <v>       0.00074074 </v>
   <v>       0.00148148 </v>
   <v>       0.00148148 </v>
   <v>       0.00148148 </v>
   <v>       0.00148148 </v>
   <v>       0.00148148 </v>
   <v>       0.00148148 </v>
   <v>       0.00148148 </v>
   <v>       0.00148148 </v>
   <v>       0.00148148 </v>
   <v>       0.00148148 </v>
   <v>       0.00148148 </v>
   <v>       0.00074074 </v>
   <v>       0.00074074 </v>
   <v>       0.00148148 </v>
   <v>       0.00148148 </v>
   <v>       0.00148148 </v>
   <v>       0.00148148 </v>
   <v>       0.00148148 </v>
   <v>       0.00148148 </v>
   <v>       0.00148148 </v>
   <v>       0.00148148 </v>
   <v>       0.00148148 </v>
   <v>       0.00148148 </v>
   <v>       0.00148148 </v>
   <v>       0.00074074 </v>
   <v>       0.00074074 </v>
   <v>       0.00148148 </v>
   <v>       0.00148148 </v>
   <v>       0.00148148 </v>
   <v>       0.00148148 </v>
   <v>       0.00148148 </v>
   <v>       0.00148148 </v>
   <v>       0.00148148 </v>
   <v>       0.00148148 </v>
   <v>       0.00148148 </v>
   <v>       0.00148148 </v>
   <v>       0.00148148 </v>
   <v>       0.00074074 </v>
   <v>       0.00074074 </v>
   <v>       0.00148148 </v>
   <v>       0.00148148 </v>
   <v>       0.00148148 </v>
   <v>       0.00148148 </v>
   <v>       0.00148148 </v>
   <v>       0.00148148 </v>
   <v>       0.00148148 </v>
   <v>       0.00148148 </v>
   <v>       0.00148148 </v>
   <v>       0.00148148 </v>
   <v>       0.00148148 </v>
   <v>       0.00074074 </v>
   <v>       0.00037037 </v>
   <v>       0.00074074 </v>
   <v>       0.00074074 </v>
   <v>       0.00074074 </v>
   <v>       0.00074074 </v>
   <v>       0.00074074 </v>
   <v>       0.00074074 </v>
   <v>       0.00074074 </v>
   <v>       0.00074074 </v>
   <v>       0.00074074 </v>
   <v>       0.00074074 </v>
   <v>       0.00074074 </v>
   <v>       0.00037037 </v>
   <v>       0.00074074 </v>
   <v>       0.00148148 </v>
   <v>       0.00148148 </v>
   <v>       0.00148148 </v>
   <v>       0.00148148 </v>
   <v>       0.00148148 </v>
   <v>       0.00148148 </v>
   <v>       0.00148148 </v>
   <v>       0.00148148 </v>
   <v>       0.00148148 </v>
   <v>       0.00148148 </v>
   <v>       0.00148148 </v>
   <v>       0.00074074 </v>
   <v>       0.00074074 </v>
   <v>       0.00148148 </v>
   <v>       0.00148148 </v>
   <v>       0.00148148 </v>
   <v>       0.00148148 </v>
   <v>       0.00148148 </v>
   <v>       0.00148148 </v>
   <v>       0.00148148 </v>
   <v>       0.00148148 </v>
   <v>       0.00148148 </v>
   <v>       0.00148148 </v>
   <v>       0.00148148 </v>
   <v>       0.00074074 </v>
   <v>       0.00074074 </v>
   <v>       0.00148148 </v>
   <v>       0.00148148 </v>
   <v>       0.00148148 </v>
   <v>       0.00148148 </v>
   <v>       0.00148148 </v>
   <v>       0.00148148 </v>
   <v>       0.00148148 </v>
   <v>       0.00148148 </v>
   <v>       0.00148148 </v>
   <v>       0.00148148 </v>
   <v>       0.00148148 </v>
   <v>       0.00074074 </v>
   <v>       0.00074074 </v>
   <v>       0.00148148 </v>
   <v>       0.00148148 </v>
   <v>       0.00148148 </v>
   <v>       0.00148148 </v>
   <v>       0.00148148 </v>
   <v>       0.00148148 </v>
   <v>       0.00148148 </v>
   <v>       0.00148148 </v>
   <v>       0.00148148 </v>
   <v>       0.00148148 </v>
   <v>       0.00148148 </v>
   <v>       0.00074074 </v>
   <v>       0.00074074 </v>
   <v>       0.00148148 </v>
   <v>       0.00148148 </v>
   <v>       0.00148148 </v>
   <v>       0.00148148 </v>
   <v>       0.00148148 </v>
   <v>       0.00148148 </v>
   <v>       0.00148148 </v>
   <v>       0.00148148 </v>
   <v>       0.00148148 </v>
   <v>       0.00148148 </v>
   <v>       0.00148148 </v>
   <v>       0.00074074 </v>
   <v>       0.00074074 </v>
   <v>       0.00148148 </v>
   <v>       0.00148148 </v>
   <v>       0.00148148 </v>
   <v>       0.00148148 </v>
   <v>       0.00148148 </v>
   <v>       0.00148148 </v>
   <v>       0.00148148 </v>
   <v>       0.00148148 </v>
   <v>       0.00148148 </v>
   <v>       0.00148148 </v>
   <v>       0.00148148 </v>
   <v>       0.00074074 </v>
   <v>       0.00074074 </v>
   <v>       0.00148148 </v>
   <v>       0.00148148 </v>
   <v>       0.00148148 </v>
   <v>       0.00148148 </v>
   <v>       0.00148148 </v>
   <v>       0.00148148 </v>
   <v>       0.00148148 </v>
   <v>       0.00148148 </v>
   <v>       0.00148148 </v>
   <v>       0.00148148 </v>
   <v>       0.00148148 </v>
   <v>       0.00074074 </v>
   <v>       0.00074074 </v>
   <v>       0.00148148 </v>
   <v>       0.00148148 </v>
   <v>       0.00148148 </v>
   <v>       0.00148148 </v>
   <v>       0.00148148 </v>
   <v>       0.00148148 </v>
   <v>       0.00148148 </v>
   <v>       0.00148148 </v>
   <v>       0.00148148 </v>
   <v>       0.00148148 </v>
   <v>       0.00148148 </v>
   <v>       0.00074074 </v>
   <v>       0.00074074 </v>
   <v>       0.00148148 </v>
   <v>       0.00148148 </v>
   <v>       0.00148148 </v>
   <v>       0.00148148 </v>
   <v>       0.00148148 </v>
   <v>       0.00148148 </v>
   <v>       0.00148148 </v>
   <v>       0.00148148 </v>
   <v>       0.00148148 </v>
   <v>       0.00148148 </v>
   <v>       0.00148148 </v>
   <v>       0.00074074 </v>
   <v>       0.00074074 </v>
   <v>       0.00148148 </v>
   <v>       0.00148148 </v>
   <v>       0.00148148 </v>
   <v>       0.00148148 </v>
   <v>       0.00148148 </v>
   <v>       0.00148148 </v>
   <v>       0.00148148 </v>
   <v>       0.00148148 </v>
   <v>       0.00148148 </v>
   <v>       0.00148148 </v>
   <v>       0.00148148 </v>
   <v>       0.00074074 </v>
   <v>       0.00074074 </v>
   <v>       0.00148148 </v>
   <v>       0.00148148 </v>
   <v>       0.00148148 </v>
   <v>       0.00148148 </v>
   <v>       0.00148148 </v>
   <v>       0.00148148 </v>
   <v>       0.00148148 </v>
   <v>       0.00148148 </v>
   <v>       0.00148148 </v>
   <v>       0.00148148 </v>
   <v>       0.00148148 </v>
   <v>       0.00074074 </v>
   <v>       0.00074074 </v>
   <v>       0.00148148 </v>
   <v>       0.00148148 </v>
   <v>       0.00148148 </v>
   <v>       0.00148148 </v>
   <v>       0.00148148 </v>
   <v>       0.00148148 </v>
   <v>       0.00148148 </v>
   <v>       0.00148148 </v>
   <v>       0.00148148 </v>
   <v>       0.00148148 </v>
   <v>       0.00148148 </v>
   <v>       0.00074074 </v>
   <v>       0.00037037 </v>
   <v>       0.00074074 </v>
   <v>       0.00074074 </v>
   <v>       0.00074074 </v>
   <v>       0.00074074 </v>
   <v>       0.00074074 </v>
   <v>       0.00074074 </v>
   <v>       0.00074074 </v>
   <v>       0.00074074 </v>
   <v>       0.00074074 </v>
   <v>       0.00074074 </v>
   <v>       0.00074074 </v>
   <v>       0.00037037 </v>
   <v>       0.00037037 </v>
   <v>       0.00074074 </v>
   <v>       0.00074074 </v>
   <v>       0.00074074 </v>
   <v>       0.00074074 </v>
   <v>       0.00074074 </v>
   <v>       0.00074074 </v>
   <v>       0.00074074 </v>
   <v>       0.00074074 </v>
   <v>       0.00074074 </v>
   <v>       0.00074074 </v>
   <v>       0.00074074 </v>
   <v>       0.00037037 </v>
   <v>       0.00074074 </v>
   <v>       0.00148148 </v>
   <v>       0.00148148 </v>
   <v>       0.00148148 </v>
   <v>       0.00148148 </v>
   <v>       0.00148148 </v>
   <v>       0.00148148 </v>
   <v>       0.00148148 </v>
   <v>       0.00148148 </v>
   <v>       0.00148148 </v>
   <v>       0.00148148 </v>
   <v>       0.00148148 </v>
   <v>       0.00074074 </v>
   <v>       0.00074074 </v>
   <v>       0.00148148 </v>
   <v>       0.00148148 </v>
   <v>       0.00148148 </v>
   <v>       0.00148148 </v>
   <v>       0.00148148 </v>
   <v>       0.00148148 </v>
   <v>       0.00148148 </v>
   <v>       0.00148148 </v>
   <v>       0.00148148 </v>
   <v>       0.00148148 </v>
   <v>       0.00148148 </v>
   <v>       0.00074074 </v>
   <v>       0.00074074 </v>
   <v>       0.00148148 </v>
   <v>       0.00148148 </v>
   <v>       0.00148148 </v>
   <v>       0.00148148 </v>
   <v>       0.00148148 </v>
   <v>       0.00148148 </v>
   <v>       0.00148148 </v>
   <v>       0.00148148 </v>
   <v>       0.00148148 </v>
   <v>       0.00148148 </v>
   <v>       0.00148148 </v>
   <v>       0.00074074 </v>
   <v>       0.00074074 </v>
   <v>       0.00148148 </v>
   <v>       0.00148148 </v>
   <v>       0.00148148 </v>
   <v>       0.00148148 </v>
   <v>       0.00148148 </v>
   <v>       0.00148148 </v>
   <v>       0.00148148 </v>
   <v>       0.00148148 </v>
   <v>       0.00148148 </v>
   <v>       0.00148148 </v>
   <v>       0.00148148 </v>
   <v>       0.00074074 </v>
   <v>       0.00074074 </v>
   <v>       0.00148148 </v>
   <v>       0.00148148 </v>
   <v>       0.00148148 </v>
   <v>       0.00148148 </v>
   <v>       0.00148148 </v>
   <v>       0.00148148 </v>
   <v>       0.00148148 </v>
   <v>       0.00148148 </v>
   <v>       0.00148148 </v>
   <v>       0.00148148 </v>
   <v>       0.00148148 </v>
   <v>       0.00074074 </v>
   <v>       0.00074074 </v>
   <v>       0.00148148 </v>
   <v>       0.00148148 </v>
   <v>       0.00148148 </v>
   <v>       0.00148148 </v>
   <v>       0.00148148 </v>
   <v>       0.00148148 </v>
   <v>       0.00148148 </v>
   <v>       0.00148148 </v>
   <v>       0.00148148 </v>
   <v>       0.00148148 </v>
   <v>       0.00148148 </v>
   <v>       0.00074074 </v>
   <v>       0.00074074 </v>
   <v>       0.00148148 </v>
   <v>       0.00148148 </v>
   <v>       0.00148148 </v>
   <v>       0.00148148 </v>
   <v>       0.00148148 </v>
   <v>       0.00148148 </v>
   <v>       0.00148148 </v>
   <v>       0.00148148 </v>
   <v>       0.00148148 </v>
   <v>       0.00148148 </v>
   <v>       0.00148148 </v>
   <v>       0.00074074 </v>
   <v>       0.00074074 </v>
   <v>       0.00148148 </v>
   <v>       0.00148148 </v>
   <v>       0.00148148 </v>
   <v>       0.00148148 </v>
   <v>       0.00148148 </v>
   <v>       0.00148148 </v>
   <v>       0.00148148 </v>
   <v>       0.00148148 </v>
   <v>       0.00148148 </v>
   <v>       0.00148148 </v>
   <v>       0.00148148 </v>
   <v>       0.00074074 </v>
   <v>       0.00074074 </v>
   <v>       0.00148148 </v>
   <v>       0.00148148 </v>
   <v>       0.00148148 </v>
   <v>       0.00148148 </v>
   <v>       0.00148148 </v>
   <v>       0.00148148 </v>
   <v>       0.00148148 </v>
   <v>       0.00148148 </v>
   <v>       0.00148148 </v>
   <v>       0.00148148 </v>
   <v>       0.00148148 </v>
   <v>       0.00074074 </v>
   <v>       0.00074074 </v>
   <v>       0.00148148 </v>
   <v>       0.00148148 </v>
   <v>       0.00148148 </v>
   <v>       0.00148148 </v>
   <v>       0.00148148 </v>
   <v>       0.00148148 </v>
   <v>       0.00148148 </v>
   <v>       0.00148148 </v>
   <v>       0.00148148 </v>
   <v>       0.00148148 </v>
   <v>       0.00148148 </v>
   <v>       0.00074074 </v>
   <v>       0.00037037 </v>
   <v>       0.00074074 </v>
   <v>       0.00074074 </v>
   <v>       0.00074074 </v>
   <v>       0.00074074 </v>
   <v>       0.00074074 </v>
   <v>       0.00074074 </v>
   <v>       0.00074074 </v>
   <v>       0.00074074 </v>
   <v>       0.00074074 </v>
   <v>       0.00074074 </v>
   <v>       0.00074074 </v>
   <v>       0.00037037 </v>
   <v>       0.00037037 </v>
   <v>       0.00074074 </v>
   <v>       0.00074074 </v>
   <v>       0.00074074 </v>
   <v>       0.00074074 </v>
   <v>       0.00074074 </v>
   <v>       0.00074074 </v>
   <v>       0.00074074 </v>
   <v>       0.00074074 </v>
   <v>       0.00074074 </v>
   <v>       0.00074074 </v>
   <v>       0.00074074 </v>
   <v>       0.00037037 </v>
   <v>       0.00074074 </v>
   <v>       0.00148148 </v>
   <v>       0.00148148 </v>
   <v>       0.00148148 </v>
   <v>       0.00148148 </v>
   <v>       0.00148148 </v>
   <v>       0.00148148 </v>
   <v>       0.00148148 </v>
   <v>       0.00148148 </v>
   <v>       0.00148148 </v>
   <v>       0.00148148 </v>
   <v>       0.00148148 </v>
   <v>       0.00074074 </v>
   <v>       0.00074074 </v>
   <v>       0.00148148 </v>
   <v>       0.00148148 </v>
   <v>       0.00148148 </v>
   <v>       0.00148148 </v>
   <v>       0.00148148 </v>
   <v>       0.00148148 </v>
   <v>       0.00148148 </v>
   <v>       0.00148148 </v>
   <v>       0.00148148 </v>
   <v>       0.00148148 </v>
   <v>       0.00148148 </v>
   <v>       0.00074074 </v>
   <v>       0.00074074 </v>
   <v>       0.00148148 </v>
   <v>       0.00148148 </v>
   <v>       0.00148148 </v>
   <v>       0.00148148 </v>
   <v>       0.00148148 </v>
   <v>       0.00148148 </v>
   <v>       0.00148148 </v>
   <v>       0.00148148 </v>
   <v>       0.00148148 </v>
   <v>       0.00148148 </v>
   <v>       0.00148148 </v>
   <v>       0.00074074 </v>
   <v>       0.00074074 </v>
   <v>       0.00148148 </v>
   <v>       0.00148148 </v>
   <v>       0.00148148 </v>
   <v>       0.00148148 </v>
   <v>       0.00148148 </v>
   <v>       0.00148148 </v>
   <v>       0.00148148 </v>
   <v>       0.00148148 </v>
   <v>       0.00148148 </v>
   <v>       0.00148148 </v>
   <v>       0.00148148 </v>
   <v>       0.00074074 </v>
   <v>       0.00074074 </v>
   <v>       0.00148148 </v>
   <v>       0.00148148 </v>
   <v>       0.00148148 </v>
   <v>       0.00148148 </v>
   <v>       0.00148148 </v>
   <v>       0.00148148 </v>
   <v>       0.00148148 </v>
   <v>       0.00148148 </v>
   <v>       0.00148148 </v>
   <v>       0.00148148 </v>
   <v>       0.00148148 </v>
   <v>       0.00074074 </v>
   <v>       0.00074074 </v>
   <v>       0.00148148 </v>
   <v>       0.00148148 </v>
   <v>       0.00148148 </v>
   <v>       0.00148148 </v>
   <v>       0.00148148 </v>
   <v>       0.00148148 </v>
   <v>       0.00148148 </v>
   <v>       0.00148148 </v>
   <v>       0.00148148 </v>
   <v>       0.00148148 </v>
   <v>       0.00148148 </v>
   <v>       0.00074074 </v>
   <v>       0.00074074 </v>
   <v>       0.00148148 </v>
   <v>       0.00148148 </v>
   <v>       0.00148148 </v>
   <v>       0.00148148 </v>
   <v>       0.00148148 </v>
   <v>       0.00148148 </v>
   <v>       0.00148148 </v>
   <v>       0.00148148 </v>
   <v>       0.00148148 </v>
   <v>       0.00148148 </v>
   <v>       0.00148148 </v>
   <v>       0.00074074 </v>
   <v>       0.00074074 </v>
   <v>       0.00148148 </v>
   <v>       0.00148148 </v>
   <v>       0.00148148 </v>
   <v>       0.00148148 </v>
   <v>       0.00148148 </v>
   <v>       0.00148148 </v>
   <v>       0.00148148 </v>
   <v>       0.00148148 </v>
   <v>       0.00148148 </v>
   <v>       0.00148148 </v>
   <v>       0.00148148 </v>
   <v>       0.00074074 </v>
   <v>       0.00037037 </v>
   <v>       0.00074074 </v>
   <v>       0.00074074 </v>
   <v>       0.00074074 </v>
   <v>       0.00074074 </v>
   <v>       0.00074074 </v>
   <v>       0.00074074 </v>
   <v>       0.00074074 </v>
   <v>       0.00074074 </v>
   <v>       0.00074074 </v>
   <v>       0.00074074 </v>
   <v>       0.00074074 </v>
   <v>       0.00037037 </v>
   <v>       0.00037037 </v>
   <v>       0.00074074 </v>
   <v>       0.00074074 </v>
   <v>       0.00074074 </v>
   <v>       0.00074074 </v>
   <v>       0.00074074 </v>
   <v>       0.00074074 </v>
   <v>       0.00074074 </v>
   <v>       0.00074074 </v>
   <v>       0.00074074 </v>
   <v>       0.00074074 </v>
   <v>       0.00074074 </v>
   <v>       0.00037037 </v>
   <v>       0.00074074 </v>
   <v>       0.00148148 </v>
   <v>       0.00148148 </v>
   <v>       0.00148148 </v>
   <v>       0.00148148 </v>
   <v>       0.00148148 </v>
   <v>       0.00148148 </v>
   <v>       0.00148148 </v>
   <v>       0.00148148 </v>
   <v>       0.00148148 </v>
   <v>       0.00148148 </v>
   <v>       0.00148148 </v>
   <v>       0.00074074 </v>
   <v>       0.00074074 </v>
   <v>       0.00148148 </v>
   <v>       0.00148148 </v>
   <v>       0.00148148 </v>
   <v>       0.00148148 </v>
   <v>       0.00148148 </v>
   <v>       0.00148148 </v>
   <v>       0.00148148 </v>
   <v>       0.00148148 </v>
   <v>       0.00148148 </v>
   <v>       0.00148148 </v>
   <v>       0.00148148 </v>
   <v>       0.00074074 </v>
   <v>       0.00074074 </v>
   <v>       0.00148148 </v>
   <v>       0.00148148 </v>
   <v>       0.00148148 </v>
   <v>       0.00148148 </v>
   <v>       0.00148148 </v>
   <v>       0.00148148 </v>
   <v>       0.00148148 </v>
   <v>       0.00148148 </v>
   <v>       0.00148148 </v>
   <v>       0.00148148 </v>
   <v>       0.00148148 </v>
   <v>       0.00074074 </v>
   <v>       0.00074074 </v>
   <v>       0.00148148 </v>
   <v>       0.00148148 </v>
   <v>       0.00148148 </v>
   <v>       0.00148148 </v>
   <v>       0.00148148 </v>
   <v>       0.00148148 </v>
   <v>       0.00148148 </v>
   <v>       0.00148148 </v>
   <v>       0.00148148 </v>
   <v>       0.00148148 </v>
   <v>       0.00148148 </v>
   <v>       0.00074074 </v>
   <v>       0.00074074 </v>
   <v>       0.00148148 </v>
   <v>       0.00148148 </v>
   <v>       0.00148148 </v>
   <v>       0.00148148 </v>
   <v>       0.00148148 </v>
   <v>       0.00148148 </v>
   <v>       0.00148148 </v>
   <v>       0.00148148 </v>
   <v>       0.00148148 </v>
   <v>       0.00148148 </v>
   <v>       0.00148148 </v>
   <v>       0.00074074 </v>
   <v>       0.00074074 </v>
   <v>       0.00148148 </v>
   <v>       0.00148148 </v>
   <v>       0.00148148 </v>
   <v>       0.00148148 </v>
   <v>       0.00148148 </v>
   <v>       0.00148148 </v>
   <v>       0.00148148 </v>
   <v>       0.00148148 </v>
   <v>       0.00148148 </v>
   <v>       0.00148148 </v>
   <v>       0.00148148 </v>
   <v>       0.00074074 </v>
   <v>       0.00037037 </v>
   <v>       0.00074074 </v>
   <v>       0.00074074 </v>
   <v>       0.00074074 </v>
   <v>       0.00074074 </v>
   <v>       0.00074074 </v>
   <v>       0.00074074 </v>
   <v>       0.00074074 </v>
   <v>       0.00074074 </v>
   <v>       0.00074074 </v>
   <v>       0.00074074 </v>
   <v>       0.00074074 </v>
   <v>       0.00037037 </v>
   <v>       0.00037037 </v>
   <v>       0.00074074 </v>
   <v>       0.00074074 </v>
   <v>       0.00074074 </v>
   <v>       0.00074074 </v>
   <v>       0.00074074 </v>
   <v>       0.00074074 </v>
   <v>       0.00074074 </v>
   <v>       0.00074074 </v>
   <v>       0.00074074 </v>
   <v>       0.00074074 </v>
   <v>       0.00074074 </v>
   <v>       0.00037037 </v>
   <v>       0.00074074 </v>
   <v>       0.00148148 </v>
   <v>       0.00148148 </v>
   <v>       0.00148148 </v>
   <v>       0.00148148 </v>
   <v>       0.00148148 </v>
   <v>       0.00148148 </v>
   <v>       0.00148148 </v>
   <v>       0.00148148 </v>
   <v>       0.00148148 </v>
   <v>       0.00148148 </v>
   <v>       0.00148148 </v>
   <v>       0.00074074 </v>
   <v>       0.00074074 </v>
   <v>       0.00148148 </v>
   <v>       0.00148148 </v>
   <v>       0.00148148 </v>
   <v>       0.00148148 </v>
   <v>       0.00148148 </v>
   <v>       0.00148148 </v>
   <v>       0.00148148 </v>
   <v>       0.00148148 </v>
   <v>       0.00148148 </v>
   <v>       0.00148148 </v>
   <v>       0.00148148 </v>
   <v>       0.00074074 </v>
   <v>       0.00074074 </v>
   <v>       0.00148148 </v>
   <v>       0.00148148 </v>
   <v>       0.00148148 </v>
   <v>       0.00148148 </v>
   <v>       0.00148148 </v>
   <v>       0.00148148 </v>
   <v>       0.00148148 </v>
   <v>       0.00148148 </v>
   <v>       0.00148148 </v>
   <v>       0.00148148 </v>
   <v>       0.00148148 </v>
   <v>       0.00074074 </v>
   <v>       0.00074074 </v>
   <v>       0.00148148 </v>
   <v>       0.00148148 </v>
   <v>       0.00148148 </v>
   <v>       0.00148148 </v>
   <v>       0.00148148 </v>
   <v>       0.00148148 </v>
   <v>       0.00148148 </v>
   <v>       0.00148148 </v>
   <v>       0.00148148 </v>
   <v>       0.00148148 </v>
   <v>       0.00148148 </v>
   <v>       0.00074074 </v>
   <v>       0.00037037 </v>
   <v>       0.00074074 </v>
   <v>       0.00074074 </v>
   <v>       0.00074074 </v>
   <v>       0.00074074 </v>
   <v>       0.00074074 </v>
   <v>       0.00074074 </v>
   <v>       0.00074074 </v>
   <v>       0.00074074 </v>
   <v>       0.00074074 </v>
   <v>       0.00074074 </v>
   <v>       0.00074074 </v>
   <v>       0.00037037 </v>
   <v>       0.00037037 </v>
   <v>       0.00074074 </v>
   <v>       0.00074074 </v>
   <v>       0.00074074 </v>
   <v>       0.00074074 </v>
   <v>       0.00074074 </v>
   <v>       0.00074074 </v>
   <v>       0.00074074 </v>
   <v>       0.00074074 </v>
   <v>       0.00074074 </v>
   <v>       0.00074074 </v>
   <v>       0.00074074 </v>
   <v>       0.00037037 </v>
   <v>       0.00074074 </v>
   <v>       0.00148148 </v>
   <v>       0.00148148 </v>
   <v>       0.00148148 </v>
   <v>       0.00148148 </v>
   <v>       0.00148148 </v>
   <v>       0.00148148 </v>
   <v>       0.00148148 </v>
   <v>       0.00148148 </v>
   <v>       0.00148148 </v>
   <v>       0.00148148 </v>
   <v>       0.00148148 </v>
   <v>       0.00074074 </v>
   <v>       0.00074074 </v>
   <v>       0.00148148 </v>
   <v>       0.00148148 </v>
   <v>       0.00148148 </v>
   <v>       0.00148148 </v>
   <v>       0.00148148 </v>
   <v>       0.00148148 </v>
   <v>       0.00148148 </v>
   <v>       0.00148148 </v>
   <v>       0.00148148 </v>
   <v>       0.00148148 </v>
   <v>       0.00148148 </v>
   <v>       0.00074074 </v>
   <v>       0.00037037 </v>
   <v>       0.00074074 </v>
   <v>       0.00074074 </v>
   <v>       0.00074074 </v>
   <v>       0.00074074 </v>
   <v>       0.00074074 </v>
   <v>       0.00074074 </v>
   <v>       0.00074074 </v>
   <v>       0.00074074 </v>
   <v>       0.00074074 </v>
   <v>       0.00074074 </v>
   <v>       0.00074074 </v>
   <v>       0.00037037 </v>
   <v>       0.00037037 </v>
   <v>       0.00074074 </v>
   <v>       0.00074074 </v>
   <v>       0.00074074 </v>
   <v>       0.00074074 </v>
   <v>       0.00074074 </v>
   <v>       0.00074074 </v>
   <v>       0.00074074 </v>
   <v>       0.00074074 </v>
   <v>       0.00074074 </v>
   <v>       0.00074074 </v>
   <v>       0.00074074 </v>
   <v>       0.00037037 </v>
   <v>       0.00037037 </v>
   <v>       0.00074074 </v>
   <v>       0.00074074 </v>
   <v>       0.00074074 </v>
   <v>       0.00074074 </v>
   <v>       0.00074074 </v>
   <v>       0.00074074 </v>
   <v>       0.00074074 </v>
   <v>       0.00074074 </v>
   <v>       0.00074074 </v>
   <v>       0.00074074 </v>
   <v>       0.00074074 </v>
   <v>       0.00037037 </v>
  </varray>
 </kpoints>
 <parameters>
  <separator name="general" >
   <i type="string" name="SYSTEM">unknown system</i>
   <i type="logical" name="LCOMPAT"> F  </i>
  </separator>
  <separator name="electronic" >
   <i type="string" name="PREC">accura</i>
   <i name="ENMAX">    500.00000000</i>
   <i name="ENAUG">    412.49600000</i>
   <i name="EDIFF">      0.00000100</i>
   <i type="int" name="IALGO">    68</i>
   <i type="int" name="IWAVPR">    11</i>
   <i type="int" name="NBANDS">    28</i>
   <i name="NELECT">     44.00000000</i>
   <i type="int" name="TURBO">     0</i>
   <i type="int" name="IRESTART">     0</i>
   <i type="int" name="NREBOOT">     0</i>
   <i type="int" name="NMIN">     0</i>
   <i name="EREF">      0.00000000</i>
   <separator name="electronic smearing" >
    <i type="int" name="ISMEAR">     1</i>
    <i name="SIGMA">      0.30000000</i>
    <i name="KSPACING">      0.50000000</i>
    <i type="logical" name="KGAMMA"> T  </i>
   </separator>
   <separator name="electronic projectors" >
    <i type="logical" name="LREAL"> F  </i>
    <v name="ROPT">      0.00000000      0.00000000</v>
    <i type="int" name="LMAXPAW">  -100</i>
    <i type="int" name="LMAXMIX">     2</i>
    <i type="logical" name="NLSPLINE"> F  </i>
   </separator>
   <separator name="electronic startup" >
    <i type="int" name="ISTART">     0</i>
    <i type="int" name="ICHARG">     2</i>
    <i type="int" name="INIWAV">     1</i>
   </separator>
   <separator name="electronic spin" >
    <i type="int" name="ISPIN">     1</i>
    <i type="logical" name="LNONCOLLINEAR"> F  </i>
[...]
       <r>    5.5830    1.0000 </r>
       <r>    5.8197    1.0000 </r>
       <r>    5.9589    1.0000 </r>
       <r>    5.9842    1.0000 </r>
       <r>    6.0256    1.0000 </r>
       <r>    6.1547    1.0000 </r>
       <r>    6.2802    1.0000 </r>
       <r>    6.3857    1.0000 </r>
       <r>    6.6051    1.0000 </r>
       <r>    6.7980    1.0000 </r>
       <r>    7.5894    1.0001 </r>
       <r>    9.2109   -0.0017 </r>
       <r>    9.3148   -0.0003 </r>
       <r>   12.7198    0.0000 </r>
       <r>   13.5530    0.0000 </r>
       <r>   14.9937    0.0000 </r>
       <r>   16.1151    0.0000 </r>
      </set>
      <set comment="kpoint 830">
       <r>    1.7284    1.0000 </r>
       <r>    1.8631    1.0000 </r>
       <r>    2.0619    1.0000 </r>
       <r>    2.1559    1.0000 </r>
       <r>    2.3023    1.0000 </r>
       <r>    2.3097    1.0000 </r>
       <r>    3.9002    1.0000 </r>
       <r>    3.9768    1.0000 </r>
       <r>    3.9926    1.0000 </r>
       <r>    4.0308    1.0000 </r>
       <r>    5.4907    1.0000 </r>
       <r>    5.9811    1.0000 </r>
       <r>    6.0215    1.0000 </r>
       <r>    6.1064    1.0000 </r>
       <r>    6.1069    1.0000 </r>
       <r>    6.2424    1.0000 </r>
       <r>    6.4036    1.0000 </r>
       <r>    6.4390    1.0000 </r>
       <r>    6.4802    1.0000 </r>
       <r>    6.6668    1.0000 </r>
       <r>    7.0539    1.0000 </r>
       <r>    7.8436    1.0050 </r>
       <r>    9.4716    0.0000 </r>
       <r>    9.5416    0.0000 </r>
       <r>   11.8595    0.0000 </r>
       <r>   12.6815    0.0000 </r>
       <r>   14.3198    0.0000 </r>
       <r>   15.5921    0.0000 </r>
      </set>
      <set comment="kpoint 831">
       <r>    1.7053    1.0000 </r>
       <r>    1.8158    1.0000 </r>
       <r>    2.0097    1.0000 </r>
       <r>    2.1037    1.0000 </r>
       <r>    2.2521    1.0000 </r>
       <r>    2.2637    1.0000 </r>
       <r>    3.9124    1.0000 </r>
       <r>    3.9581    1.0000 </r>
       <r>    3.9753    1.0000 </r>
       <r>    3.9849    1.0000 </r>
       <r>    5.6552    1.0000 </r>
       <r>    6.0407    1.0000 </r>
       <r>    6.1390    1.0000 </r>
       <r>    6.1444    1.0000 </r>
       <r>    6.1973    1.0000 </r>
       <r>    6.4711    1.0000 </r>
       <r>    6.4729    1.0000 </r>
       <r>    6.5952    1.0000 </r>
       <r>    6.6491    1.0000 </r>
       <r>    6.7500    1.0000 </r>
       <r>    7.4709    1.0000 </r>
       <r>    7.9910    1.0209 </r>
       <r>    9.7074    0.0000 </r>
       <r>    9.7294    0.0000 </r>
       <r>   11.2405    0.0000 </r>
       <r>   12.0052    0.0000 </r>
       <r>   13.7996    0.0000 </r>
       <r>   15.2167    0.0000 </r>
      </set>
      <set comment="kpoint 832">
       <r>    1.6973    1.0000 </r>
       <r>    1.7993    1.0000 </r>
       <r>    1.9922    1.0000 </r>
       <r>    2.0862    1.0000 </r>
       <r>    2.2353    1.0000 </r>
       <r>    2.2483    1.0000 </r>
       <r>    3.9173    1.0000 </r>
       <r>    3.9470    1.0000 </r>
       <r>    3.9687    1.0000 </r>
       <r>    3.9745    1.0000 </r>
       <r>    5.7092    1.0000 </r>
       <r>    6.0467    1.0000 </r>
       <r>    6.1553    1.0000 </r>
       <r>    6.1755    1.0000 </r>
       <r>    6.2246    1.0000 </r>
       <r>    6.4880    1.0000 </r>
       <r>    6.5864    1.0000 </r>
       <r>    6.6119    1.0000 </r>
       <r>    6.6786    1.0000 </r>
       <r>    6.8184    1.0000 </r>
       <r>    7.8423    1.0049 </r>
       <r>    7.8917    1.0086 </r>
       <r>    9.8094    0.0000 </r>
       <r>    9.8098    0.0000 </r>
       <r>   11.0169    0.0000 </r>
       <r>   11.7227    0.0000 </r>
       <r>   13.5971    0.0000 </r>
       <r>   15.0799    0.0000 </r>
      </set>
     </set>
    </set>
   </array>
  </eigenvalues>
  <separator name="orbital magnetization" >
   <v name="MAGDIPOLOUT">      0.00000000      0.00000000      0.00000000</v>
  </separator>
  <dos>
   <i name="efermi">      8.48527078 </i>
   <total>
    <array>
     <dimension dim="1">gridpoints</dimension>
     <dimension dim="2">spin</dimension>
     <field>energy</field>
     <field>total</field>
     <field>integrated</field>
     <set>
      <set comment="spin 1">
       <r>    -3.4952     0.0000     0.0000 </r>
       <r>    -3.4048     0.0000     0.0000 </r>
       <r>    -3.3143     0.0000     0.0000 </r>
       <r>    -3.2239     0.0000     0.0000 </r>
       <r>    -3.1334     0.0000     0.0000 </r>
       <r>    -3.0430     0.0000     0.0000 </r>
       <r>    -2.9525     0.0000     0.0000 </r>
       <r>    -2.8621     0.0000     0.0000 </r>
       <r>    -2.7716     0.0000     0.0000 </r>
       <r>    -2.6812     0.0000     0.0000 </r>
       <r>    -2.5907     0.0000     0.0000 </r>
       <r>    -2.5003     0.0000     0.0000 </r>
       <r>    -2.4098     0.0000     0.0000 </r>
       <r>    -2.3194     0.0000     0.0000 </r>
       <r>    -2.2289     0.0000     0.0000 </r>
       <r>    -2.1385     0.0000     0.0000 </r>
       <r>    -2.0480     0.0000     0.0000 </r>
       <r>    -1.9576     0.0000     0.0000 </r>
       <r>    -1.8671     0.0000     0.0000 </r>
       <r>    -1.7767     0.0000     0.0000 </r>
       <r>    -1.6862     0.0000     0.0000 </r>
       <r>    -1.5958     0.0000     0.0000 </r>
       <r>    -1.5053     0.0000     0.0000 </r>
       <r>    -1.4149     0.0000     0.0000 </r>
       <r>    -1.3244     0.0000     0.0000 </r>
       <r>    -1.2340    -0.0001     0.0000 </r>
       <r>    -1.1435    -0.0002     0.0000 </r>
       <r>    -1.0531    -0.0007    -0.0001 </r>
       <r>    -0.9626    -0.0019    -0.0003 </r>
       <r>    -0.8722    -0.0037    -0.0006 </r>
       <r>    -0.7817    -0.0054    -0.0011 </r>
       <r>    -0.6913    -0.0038    -0.0014 </r>
       <r>    -0.6008     0.0059    -0.0009 </r>
       <r>    -0.5104     0.0282     0.0017 </r>
       <r>    -0.4199     0.0637     0.0074 </r>
       <r>    -0.3295     0.1080     0.0172 </r>
       <r>    -0.2390     0.1539     0.0311 </r>
       <r>    -0.1485     0.1959     0.0488 </r>
       <r>    -0.0581     0.2320     0.0698 </r>
       <r>     0.0324     0.2635     0.0936 </r>
       <r>     0.1228     0.2923     0.1201 </r>
       <r>     0.2133     0.3202     0.1490 </r>
       <r>     0.3037     0.3480     0.1805 </r>
       <r>     0.3942     0.3768     0.2146 </r>
       <r>     0.4846     0.4075     0.2515 </r>
       <r>     0.5751     0.4416     0.2914 </r>
       <r>     0.6655     0.4806     0.3349 </r>
       <r>     0.7560     0.5252     0.3824 </r>
       <r>     0.8464     0.5715     0.4341 </r>
       <r>     0.9369     0.6118     0.4894 </r>
       <r>     1.0273     0.6388     0.5472 </r>
       <r>     1.1178     0.6508     0.6061 </r>
       <r>     1.2082     0.6512     0.6650 </r>
       <r>     1.2987     0.6497     0.7237 </r>
       <r>     1.3891     0.6692     0.7842 </r>
       <r>     1.4796     0.7512     0.8522 </r>
       <r>     1.5700     0.9445     0.9376 </r>
       <r>     1.6605     1.2733     1.0528 </r>
       <r>     1.7509     1.7114     1.2076 </r>
       <r>     1.8414     2.1977     1.4064 </r>
       <r>     1.9318     2.6939     1.6501 </r>
       <r>     2.0223     3.2342     1.9426 </r>
       <r>     2.1127     3.9100     2.2963 </r>
       <r>     2.2032     4.7902     2.7295 </r>
       <r>     2.2936     5.8404     3.2578 </r>
       <r>     2.3841     6.9117     3.8830 </r>
       <r>     2.4745     7.8131     4.5897 </r>
       <r>     2.5650     8.4091     5.3503 </r>
       <r>     2.6554     8.6652     6.1341 </r>
       <r>     2.7459     8.6197     6.9138 </r>
       <r>     2.8363     8.3339     7.6676 </r>
       <r>     2.9268     7.8758     8.3799 </r>
       <r>     3.0172     7.3488     9.0447 </r>
       <r>     3.1077     6.9189     9.6705 </r>
       <r>     3.1981     6.7771    10.2835 </r>
       <r>     3.2886     7.0291    10.9193 </r>
       <r>     3.3791     7.6019    11.6069 </r>
       <r>     3.4695     8.2706    12.3549 </r>
       <r>     3.5600     8.8017    13.1511 </r>
       <r>     3.6504     9.1003    13.9742 </r>
       <r>     3.7409     9.2648    14.8122 </r>
       <r>     3.8313     9.5292    15.6742 </r>
       <r>     3.9218    10.1318    16.5906 </r>
       <r>     4.0122    11.1520    17.5993 </r>
       <r>     4.1027    12.3746    18.7186 </r>
       <r>     4.1931    13.3056    19.9221 </r>
       <r>     4.2836    13.4295    21.1368 </r>
       <r>     4.3740    12.5835    22.2750 </r>
       <r>     4.4645    11.1151    23.2804 </r>
       <r>     4.5549     9.6434    24.1526 </r>
       <r>     4.6454     8.6417    24.9343 </r>
       <r>     4.7358     8.2148    25.6773 </r>
       <r>     4.8263     8.1931    26.4184 </r>
       <r>     4.9167     8.3655    27.1751 </r>
       <r>     5.0072     8.6207    27.9548 </r>
       <r>     5.0976     8.9190    28.7616 </r>
       <r>     5.1881     9.1828    29.5922 </r>
       <r>     5.2785     9.2664    30.4303 </r>
       <r>     5.3690     9.0663    31.2504 </r>
       <r>     5.4594     8.6557    32.0333 </r>
       <r>     5.5499     8.2704    32.7814 </r>
       <r>     5.6403     8.1441    33.5180 </r>
       <r>     5.7308     8.3602    34.2742 </r>
       <r>     5.8212     8.8439    35.0741 </r>
       <r>     5.9117     9.4340    35.9275 </r>
       <r>     6.0021     9.9283    36.8255 </r>
       <r>     6.0926    10.1118    37.7401 </r>
       <r>     6.1830     9.8381    38.6300 </r>
       <r>     6.2735     9.1199    39.4549 </r>
       <r>     6.3639     8.1010    40.1876 </r>
       <r>     6.4544     6.9159    40.8132 </r>
       <r>     6.5448     5.6157    41.3211 </r>
       <r>     6.6353     4.2475    41.7053 </r>
       <r>     6.7257     2.9553    41.9726 </r>
       <r>     6.8162     1.9405    42.1482 </r>
       <r>     6.9067     1.3231    42.2678 </r>
       <r>     6.9971     1.0628    42.3640 </r>
       <r>     7.0876     1.0114    42.4554 </r>
       <r>     7.1780     1.0249    42.5481 </r>
       <r>     7.2685     1.0361    42.6419 </r>
       <r>     7.3589     1.0469    42.7365 </r>
       <r>     7.4494     1.0748    42.8338 </r>
       <r>     7.5398     1.1130    42.9344 </r>
       <r>     7.6303     1.1345    43.0371 </r>
       <r>     7.7207     1.1231    43.1386 </r>
       <r>     7.8112     1.0934    43.2375 </r>
       <r>     7.9016     1.0792    43.3352 </r>
       <r>     7.9921     1.1022    43.4349 </r>
       <r>     8.0825     1.1506    43.5389 </r>
       <r>     8.1730     1.1883    43.6464 </r>
       <r>     8.2634     1.1860    43.7537 </r>
       <r>     8.3539     1.1448    43.8572 </r>
       <r>     8.4443     1.0940    43.9562 </r>
       <r>     8.5348     1.0685    44.0528 </r>
       <r>     8.6252     1.0861    44.1511 </r>
       <r>     8.7157     1.1348    44.2537 </r>
       <r>     8.8061     1.1811    44.3605 </r>
       <r>     8.8966     1.1940    44.4685 </r>
       <r>     8.9870     1.1677    44.5742 </r>
       <r>     9.0775     1.1209    44.6756 </r>
       <r>     9.1679     1.0790    44.7731 </r>
       <r>     9.2584     1.0574    44.8688 </r>
       <r>     9.3488     1.0597    44.9647 </r>
       <r>     9.4393     1.0833    45.0626 </r>
       <r>     9.5297     1.1207    45.1640 </r>
       <r>     9.6202     1.1581    45.2688 </r>
       <r>     9.7106     1.1773    45.3752 </r>
       <r>     9.8011     1.1668    45.4808 </r>
       <r>     9.8915     1.1319    45.5832 </r>
       <r>     9.9820     1.0934    45.6821 </r>
       <r>    10.0724     1.0711    45.7789 </r>
       <r>    10.1629     1.0680    45.8755 </r>
       <r>    10.2533     1.0713    45.9724 </r>
       <r>    10.3438     1.0701    46.0692 </r>
       <r>    10.4343     1.0642    46.1655 </r>
       <r>    10.5247     1.0552    46.2609 </r>
       <r>    10.6152     1.0389    46.3549 </r>
       <r>    10.7056     1.0116    46.4464 </r>
       <r>    10.7961     0.9805    46.5351 </r>
       <r>    10.8865     0.9597    46.6219 </r>
       <r>    10.9770     0.9593    46.7087 </r>
       <r>    11.0674     0.9826    46.7976 </r>
       <r>    11.1579     1.0295    46.8907 </r>
       <r>    11.2483     1.0966    46.9899 </r>
       <r>    11.3388     1.1771    47.0963 </r>
       <r>    11.4292     1.2630    47.2106 </r>
       <r>    11.5197     1.3473    47.3324 </r>
       <r>    11.6101     1.4190    47.4608 </r>
       <r>    11.7006     1.4614    47.5930 </r>
       <r>    11.7910     1.4597    47.7250 </r>
       <r>    11.8815     1.4142    47.8529 </r>
       <r>    11.9719     1.3428    47.9744 </r>
       <r>    12.0624     1.2734    48.0896 </r>
       <r>    12.1528     1.2306    48.2009 </r>
       <r>    12.2433     1.2237    48.3116 </r>
       <r>    12.3337     1.2412    48.4238 </r>
       <r>    12.4242     1.2590    48.5377 </r>
       <r>    12.5146     1.2589    48.6516 </r>
       <r>    12.6051     1.2399    48.7637 </r>
       <r>    12.6955     1.2096    48.8731 </r>
       <r>    12.7860     1.1715    48.9791 </r>
       <r>    12.8764     1.1280    49.0811 </r>
       <r>    12.9669     1.0928    49.1800 </r>
       <r>    13.0573     1.0908    49.2786 </r>
       <r>    13.1478     1.1377    49.3815 </r>
       <r>    13.2382     1.2232    49.4922 </r>
       <r>    13.3287     1.3164    49.6112 </r>
       <r>    13.4191     1.3899    49.7370 </r>
       <r>    13.5096     1.4369    49.8669 </r>
       <r>    13.6000     1.4628    49.9992 </r>
       <r>    13.6905     1.4661    50.1318 </r>
       <r>    13.7809     1.4372    50.2618 </r>
       <r>    13.8714     1.3780    50.3865 </r>
       <r>    13.9619     1.3118    50.5051 </r>
       <r>    14.0523     1.2662    50.6197 </r>
       <r>    14.1428     1.2508    50.7328 </r>
       <r>    14.2332     1.2545    50.8463 </r>
       <r>    14.3237     1.2628    50.9605 </r>
       <r>    14.4141     1.2705    51.0754 </r>
       <r>    14.5046     1.2787    51.1911 </r>
       <r>    14.5950     1.2842    51.3072 </r>
       <r>    14.6855     1.2776    51.4228 </r>
       <r>    14.7759     1.2519    51.5360 </r>
       <r>    14.8664     1.2111    51.6456 </r>
       <r>    14.9568     1.1698    51.7514 </r>
       <r>    15.0473     1.1477    51.8552 </r>
       <r>    15.1377     1.1637    51.9605 </r>
       <r>    15.2282     1.2324    52.0719 </r>
       <r>    15.3186     1.3529    52.1943 </r>
       <r>    15.4091     1.4945    52.3295 </r>
       <r>    15.4995     1.6009    52.4743 </r>
       <r>    15.5900     1.6233    52.6211 </r>
       <r>    15.6804     1.5584    52.7621 </r>
       <r>    15.7709     1.4513    52.8933 </r>
       <r>    15.8613     1.3610    53.0164 </r>
       <r>    15.9518     1.3177    53.1356 </r>
       <r>    16.0422     1.3100    53.2541 </r>
       <r>    16.1327     1.3087    53.3725 </r>
       <r>    16.2231     1.3013    53.4902 </r>
       <r>    16.3136     1.2955    53.6074 </r>
       <r>    16.4040     1.2932    53.7244 </r>
       <r>    16.4945     1.2743    53.8396 </r>
       <r>    16.5849     1.2163    53.9496 </r>
       <r>    16.6754     1.1248    54.0514 </r>
       <r>    16.7658     1.0372    54.1452 </r>
       <r>    16.8563     0.9951    54.2352 </r>
       <r>    16.9467     1.0118    54.3267 </r>
       <r>    17.0372     1.0628    54.4229 </r>
       <r>    17.1276     1.1024    54.5226 </r>
       <r>    17.2181     1.0920    54.6213 </r>
       <r>    17.3085     1.0240    54.7140 </r>
       <r>    17.3990     0.9233    54.7975 </r>
       <r>    17.4895     0.8250    54.8721 </r>
       <r>    17.5799     0.7477    54.9397 </r>
       <r>    17.6704     0.6878    55.0019 </r>
       <r>    17.7608     0.6379    55.0596 </r>
       <r>    17.8513     0.6018    55.1141 </r>
       <r>    17.9417     0.5884    55.1673 </r>
       <r>    18.0322     0.5996    55.2215 </r>
       <r>    18.1226     0.6281    55.2784 </r>
       <r>    18.2131     0.6600    55.3381 </r>
       <r>    18.3035     0.6741    55.3990 </r>
       <r>    18.3940     0.6484    55.4577 </r>
       <r>    18.4844     0.5785    55.5100 </r>
       <r>    18.5749     0.4878    55.5541 </r>
       <r>    18.6653     0.4130    55.5915 </r>
       <r>    18.7558     0.3775    55.6256 </r>
       <r>    18.8462     0.3779    55.6598 </r>
       <r>    18.9367     0.3920    55.6953 </r>
       <r>    19.0271     0.3959    55.7311 </r>
       <r>    19.1176     0.3784    55.7653 </r>
       <r>    19.2080     0.3450    55.7965 </r>
       <r>    19.2985     0.3121    55.8247 </r>
       <r>    19.3889     0.2934    55.8513 </r>
       <r>    19.4794     0.2868    55.8772 </r>
       <r>    19.5698     0.2761    55.9022 </r>
       <r>    19.6603     0.2469    55.9245 </r>
       <r>    19.7507     0.1993    55.9425 </r>
       <r>    19.8412     0.1463    55.9558 </r>
       <r>    19.9316     0.1021    55.9650 </r>
       <r>    20.0221     0.0735    55.9717 </r>
       <r>    20.1125     0.0589    55.9770 </r>
       <r>    20.2030     0.0525    55.9818 </r>
       <r>    20.2934     0.0487    55.9862 </r>
       <r>    20.3839     0.0443    55.9902 </r>
       <r>    20.4743     0.0385    55.9936 </r>
       <r>    20.5648     0.0311    55.9965 </r>
       <r>    20.6552     0.0225    55.9985 </r>
       <r>    20.7457     0.0134    55.9997 </r>
       <r>    20.8361     0.0058    56.0002 </r>
       <r>    20.9266     0.0010    56.0003 </r>
       <r>    21.0171    -0.0010    56.0002 </r>
       <r>    21.1075    -0.0012    56.0001 </r>
       <r>    21.1980    -0.0008    56.0000 </r>
       <r>    21.2884    -0.0004    56.0000 </r>
       <r>    21.3789    -0.0001    56.0000 </r>
       <r>    21.4693     0.0000    56.0000 </r>
       <r>    21.5598     0.0000    56.0000 </r>
       <r>    21.6502     0.0000    56.0000 </r>
       <r>    21.7407     0.0000    56.0000 </r>
       <r>    21.8311     0.0000    56.0000 </r>
       <r>    21.9216     0.0000    56.0000 </r>
       <r>    22.0120     0.0000    56.0000 </r>
       <r>    22.1025     0.0000    56.0000 </r>
       <r>    22.1929     0.0000    56.0000 </r>
       <r>    22.2834     0.0000    56.0000 </r>
       <r>    22.3738     0.0000    56.0000 </r>
       <r>    22.4643     0.0000    56.0000 </r>
       <r>    22.5547     0.0000    56.0000 </r>
       <r>    22.6452     0.0000    56.0000 </r>
       <r>    22.7356     0.0000    56.0000 </r>
       <r>    22.8261     0.0000    56.0000 </r>
       <r>    22.9165     0.0000    56.0000 </r>
       <r>    23.0070     0.0000    56.0000 </r>
       <r>    23.0974     0.0000    56.0000 </r>
       <r>    23.1879     0.0000    56.0000 </r>
       <r>    23.2783     0.0000    56.0000 </r>
       <r>    23.3688     0.0000    56.0000 </r>
       <r>    23.4592     0.0000    56.0000 </r>
       <r>    23.5497     0.0000    56.0000 </r>
       <r>    23.6401     0.0000    56.0000 </r>
      </set>
     </set>
    </array>
   </total>
  </dos>
 </calculation>
 <structure name="finalpos" >
  <crystal>
   <varray name="basis" >
    <v>       0.00000000      -2.07449405      -2.07449405 </v>
    <v>       4.15185495      -2.07407619       2.07407619 </v>
    <v>      -4.15185495      -2.07407619       2.07407619 </v>
   </varray>
   <i name="volume">     71.45605951 </i>
   <varray name="rec_basis" >
    <v>       0.00000000      -0.24102262      -0.24102262 </v>
    <v>       0.12042810      -0.12053559       0.12053559 </v>
    <v>      -0.12042810      -0.12053559       0.12053559 </v>
   </varray>
  </crystal>
  <varray name="positions" >
   <v>       0.00000000       0.50000000       0.50000000 </v>
   <v>       0.00000000       0.00000000       0.00000000 </v>
   <v>       0.50000000       0.50000000       0.00000000 </v>
   <v>       0.50000000       0.00000000       0.50000000 </v>
  </varray>
 </structure>
</modeling>
