<?xml version="1.0" encoding="ISO-8859-1"?>
<modeling>
 <generator>
  <i name="program" type="string">vasp </i>
  <i name="version" type="string">5.3.5  </i>
  <i name="subversion" type="string">31Mar14 (build Jun 20 2014 13:15:13) complex                          parallel </i>
  <i name="platform" type="string">LinuxIFC </i>
  <i name="date" type="string">2025 12 16 </i>
  <i name="time" type="string">17:03:23 </i>
 </generator>
 <incar>
  <i type="string" name="PREC">accurate</i>
  <i type="int" name="IALGO">    68</i>
  <i type="logical" name="ADDGRID"> T  </i>
  <i type="int" name="NELM">   100</i>
  <i type="int" name="NELMIN">     4</i>
  <i type="int" name="IBRION">     2</i>
  <i name="EDIFF">      0.00000100</i>
  <i name="EDIFFG">     -0.02000000</i>
  <i type="int" name="NSW">    30</i>
  <i type="int" name="ISIF">     3</i>
  <i name="ENCUT">    600.00000000</i>
  <i type="logical" name="LREAL"> F  </i>
  <i type="int" name="ISMEAR">     0</i>
  <i name="SIGMA">      0.10000000</i>
  <i type="logical" name="LWAVE"> F  </i>
  <i type="logical" name="LCHARG"> F  </i>
  <i type="int" name="NELM">   100</i>
 </incar>
 <kpoints>
  <generation param="Auto">
   <i name="subdivisionlength">     20.00000000 </i>
   <v type="int" name="divisions">       2        3        4 </v>
   <v name="usershift">      0.00000000       0.00000000       0.00000000 </v>
   <v name="genvec1">      0.50000000       0.00000000       0.00000000 </v>
   <v name="genvec2">      0.00000000       0.33333333       0.00000000 </v>
   <v name="genvec3">      0.00000000       0.00000000       0.25000000 </v>
   <v name="shift">      0.00000000       0.00000000       0.00000000 </v>
  </generation>
  <varray name="kpointlist" >
   <v>       0.00000000       0.00000000       0.00000000 </v>
   <v>       0.50000000       0.00000000       0.00000000 </v>
   <v>       0.00000000       0.33333333       0.00000000 </v>
   <v>       0.50000000       0.33333333       0.00000000 </v>
   <v>       0.00000000       0.00000000       0.25000000 </v>
   <v>       0.50000000       0.00000000       0.25000000 </v>
   <v>       0.00000000       0.33333333       0.25000000 </v>
   <v>       0.50000000       0.33333333       0.25000000 </v>
   <v>       0.00000000       0.00000000       0.50000000 </v>
   <v>       0.50000000       0.00000000       0.50000000 </v>
   <v>       0.00000000       0.33333333       0.50000000 </v>
   <v>       0.50000000       0.33333333       0.50000000 </v>
  </varray>
  <varray name="weights" >
   <v>       0.04166667 </v>
   <v>       0.04166667 </v>
   <v>       0.08333333 </v>
   <v>       0.08333333 </v>
   <v>       0.08333333 </v>
   <v>       0.08333333 </v>
   <v>       0.16666667 </v>
   <v>       0.16666667 </v>
   <v>       0.04166667 </v>
   <v>       0.04166667 </v>
   <v>       0.08333333 </v>
   <v>       0.08333333 </v>
  </varray>
 </kpoints>
 <parameters>
  <separator name="general" >
   <i type="string" name="SYSTEM">unknown system</i>
   <i type="logical" name="LCOMPAT"> F  </i>
  </separator>
  <separator name="electronic" >
   <i type="string" name="PREC">accura</i>
   <i name="ENMAX">    600.00000000</i>
   <i name="ENAUG">    644.87300000</i>
   <i name="EDIFF">      0.00000100</i>
   <i type="int" name="IALGO">    68</i>
   <i type="int" name="IWAVPR">    11</i>
   <i type="int" name="NBANDS">    84</i>
   <i name="NELECT">    128.00000000</i>
   <i type="int" name="TURBO">     0</i>
   <i type="int" name="IRESTART">     0</i>
   <i type="int" name="NREBOOT">     0</i>
   <i type="int" name="NMIN">     0</i>
   <i name="EREF">      0.00000000</i>
   <separator name="electronic smearing" >
    <i type="int" name="ISMEAR">     0</i>
    <i name="SIGMA">      0.10000000</i>
    <i name="KSPACING">      0.50000000</i>
    <i type="logical" name="KGAMMA"> T  </i>
   </separator>
   <separator name="electronic projectors" >
    <i type="logical" name="LREAL"> F  </i>
    <v name="ROPT">      0.00000000      0.00000000      0.00000000      0.00000000</v>
    <i type="int" name="LMAXPAW">  -100</i>
    <i type="int" name="LMAXMIX">     2</i>
    <i type="logical" name="NLSPLINE"> F  </i>
   </separator>
   <separator name="electronic startup" >
    <i type="int" name="ISTART">     0</i>
    <i type="int" name="ICHARG">     2</i>
    <i type="int" name="INIWAV">     1</i>
   </separator>
   <separator name="electronic spin" >
    <i type="int" name="ISPIN">     1</i>
    <i type="logical" name="LNONCOLLINEAR"> F  </i>
    <v name="MAGMOM">      1.00000000      1.00000000      1.00000000      1.00000000      1.00000000      1.00000000      1.00000000      1.00000000      1.00000000      1.00000000      1.00000000      1.00000000      1.00000000      1.00000000      1.00000000      1.00000000      1.00000000      1.00000000      1.00000000      1.00000000
      1.00000000      1.00000000      1.00000000      1.00000000      1.00000000      1.00000000      1.00000000      1.00000000      1.00000000      1.00000000      1.00000000      1.00000000</v>
    <i name="NUPDOWN">     -1.00000000</i>
    <i type="logical" name="LSORBIT"> F  </i>
    <v name="SAXIS">      0.00000000      0.00000000      1.00000000</v>
    <i type="logical" name="LSPIRAL"> F  </i>
    <v name="QSPIRAL">      0.00000000      0.00000000      0.00000000</v>
    <i type="logical" name="LZEROZ"> F  </i>
   </separator>
   <separator name="electronic exchange-correlation" >
    <i type="logical" name="LASPH"> F  </i>
    <i type="logical" name="LMETAGGA"> F  </i>
   </separator>
   <separator name="electronic convergence" >
    <i type="int" name="NELM">   100</i>
    <i type="int" name="NELMDL">     0</i>
    <i type="int" name="NELMIN">     4</i>
    <i name="ENINI">    600.00000000</i>
    <separator name="electronic convergence detail" >
     <i type="logical" name="LDIAG"> T  </i>
     <i type="logical" name="LSUBROT"> F  </i>
     <i name="WEIMIN">      0.00100000</i>
     <i name="EBREAK">      0.00000000</i>
     <i name="DEPER">      0.30000000</i>
     <i type="int" name="NRMM">     4</i>
     <i name="TIME">      0.40000000</i>
    </separator>
   </separator>
   <separator name="electronic mixer" >
    <i name="AMIX">      0.40000000</i>
    <i name="BMIX">      1.00000000</i>
    <i name="AMIN">      0.10000000</i>
    <i name="AMIX_MAG">      1.60000000</i>
    <i name="BMIX_MAG">      1.00000000</i>
    <separator name="electronic mixer details" >
     <i type="int" name="IMIX">     4</i>
     <i type="int" name="MAXMIX">   -45</i>
     <i name="WC">    100.00000000</i>
     <i type="int" name="INIMIX">     1</i>
     <i type="int" name="MIXPRE">     1</i>
     <i type="int" name="MREMOVE">     5</i>
    </separator>
   </separator>
   <separator name="electronic dipolcorrection" >
    <i type="logical" name="LDIPOL"> F  </i>
    <i type="logical" name="LMONO"> F  </i>
    <i type="int" name="IDIPOL">     0</i>
    <i name="EPSILON">      1.00000000</i>
    <v name="DIPOL">   -100.00000000   -100.00000000   -100.00000000</v>
    <i name="EFIELD">      0.00000000</i>
   </separator>
  </separator>
  <separator name="grids" >
   <i type="int" name="NGX">    90</i>
   <i type="int" name="NGY">    50</i>
   <i type="int" name="NGZ">    40</i>
   <i type="int" name="NGXF">   180</i>
   <i type="int" name="NGYF">   100</i>
   <i type="int" name="NGZF">    80</i>
   <i type="logical" name="ADDGRID"> T  </i>
  </separator>
  <separator name="ionic" >
   <i type="int" name="NSW">    30</i>
   <i type="int" name="IBRION">     2</i>
   <i type="int" name="ISIF">     3</i>
   <i name="PSTRESS">      0.00000000</i>
   <i name="EDIFFG">     -0.02000000</i>
   <i type="int" name="NFREE">     1</i>
   <i name="POTIM">      0.50000000</i>
   <i name="SMASS">     -3.00000000</i>
   <i name="SCALEE">      1.00000000</i>
  </separator>
  <separator name="ionic md" >
   <i name="TEBEG">      0.00010000</i>
   <i name="TEEND">      0.00010000</i>
   <i type="int" name="NBLOCK">     1</i>
   <i type="int" name="KBLOCK">    30</i>
   <i type="int" name="NPACO">   256</i>
   <i name="APACO">     16.00000000</i>
  </separator>
  <separator name="symmetry" >
   <i type="int" name="ISYM">     2</i>
   <i name="SYMPREC">      0.00001000</i>
  </separator>
  <separator name="dos" >
   <i type="logical" name="LORBIT"> F  </i>
   <v name="RWIGS">     -1.00000000     -1.00000000     -1.00000000     -1.00000000</v>
   <i type="int" name="NEDOS">   301</i>
   <i name="EMIN">     10.00000000</i>
   <i name="EMAX">    -10.00000000</i>
   <i name="EFERMI">      0.00000000</i>
  </separator>
  <separator name="writing" >
   <i type="int" name="NWRITE">     2</i>
   <i type="logical" name="LWAVE"> F  </i>
   <i type="logical" name="LCHARG"> F  </i>
   <i type="logical" name="LPARD"> F  </i>
   <i type="logical" name="LVTOT"> F  </i>
   <i type="logical" name="LVHAR"> F  </i>
   <i type="logical" name="LELF"> F  </i>
   <i type="logical" name="LOPTICS"> F  </i>
   <v name="STM">      0.00000000      0.00000000      0.00000000      0.00000000      0.00000000      0.00000000      0.00000000</v>
  </separator>
  <separator name="performance" >
   <i type="int" name="NPAR">     4</i>
   <i type="int" name="NSIM">     4</i>
   <i type="int" name="NBLK">    -1</i>
   <i type="logical" name="LPLANE"> T  </i>
   <i type="logical" name="LSCALAPACK"> T  </i>
   <i type="logical" name="LSCAAWARE"> F  </i>
   <i type="logical" name="LSCALU"> F  </i>
   <i type="logical" name="LASYNC"> F  </i>
   <i type="logical" name="LORBITALREAL"> F  </i>
  </separator>
  <separator name="miscellaneous" >
   <i type="int" name="IDIOT">     3</i>
   <i type="logical" name="LMUSIC"> F  </i>
   <v name="POMASS">     28.08500000     26.98100000     12.01100000     14.00100000</v>
   <v name="DARWINR">      0.00000000      0.00000000      0.00000000      0.00000000</v>
   <v name="DARWINV">      1.00000000      1.00000000      1.00000000      1.00000000</v>
   <i type="logical" name="LCORR"> T  </i>
  </separator>
  <i type="logical" name="GGA_COMPAT"> T  </i>
  <i type="logical" name="LBERRY"> F  </i>
  <i type="int" name="ICORELEVEL">     0</i>
  <i type="logical" name="LDAU"> F  </i>
  <i type="int" name="I_CONSTRAINED_M">     0</i>
  <separator name="electronic exchange-correlation" >
   <i type="string" name="GGA">--</i>
   <i type="int" name="VOSKOWN">     0</i>
   <i type="logical" name="LHFCALC"> F  </i>
   <i type="string" name="PRECFOCK"></i>
   <i type="logical" name="LSYMGRAD"> F  </i>
   <i type="logical" name="LHFONE"> F  </i>
   <i type="logical" name="LRHFCALC"> F  </i>
   <i type="logical" name="LTHOMAS"> F  </i>
   <i type="logical" name="LMODELHF"> F  </i>
   <i name="ENCUT4O">     -1.00000000</i>
   <i type="int" name="EXXOEP">     0</i>
   <i type="int" name="FOURORBIT">     0</i>
   <i name="AEXX">      0.00000000</i>
   <i name="HFALPHA">      0.00000000</i>
   <i name="MCALPHA">      0.00000000</i>
   <i name="ALDAX">      1.00000000</i>
   <i name="AGGAX">      1.00000000</i>
   <i name="ALDAC">      1.00000000</i>
   <i name="AGGAC">      1.00000000</i>
   <i type="int" name="NKREDX">     1</i>
   <i type="int" name="NKREDY">     1</i>
   <i type="int" name="NKREDZ">     1</i>
   <i type="logical" name="SHIFTRED"> F  </i>
   <i type="logical" name="ODDONLY"> F  </i>
   <i type="logical" name="EVENONLY"> F  </i>
   <i type="int" name="LMAXFOCK">     0</i>
   <i type="int" name="NMAXFOCKAE">     0</i>
   <i type="logical" name="LFOCKAEDFT"> F  </i>
   <i name="HFSCREEN">      0.00000000</i>
   <i name="HFSCREENC">      0.00000000</i>
   <i type="int" name="NBANDSGWLOW">     0</i>
  </separator>
  <separator name="vdW DFT" >
   <i type="logical" name="LUSE_VDW"> F  </i>
   <i name="Zab_VDW">     -0.84910000</i>
   <i name="PARAM1">      0.12340000</i>
   <i name="PARAM2">      1.00000000</i>
   <i name="PARAM3">      0.00000000</i>
  </separator>
  <separator name="model GW" >
   <i type="int" name="MODEL_GW">     0</i>
   <i name="MODEL_EPS0">      6.38027761</i>
   <i name="MODEL_ALPHA">      1.00000000</i>
  </separator>
  <separator name="linear response parameters" >
   <i type="logical" name="LEPSILON"> F  </i>
   <i type="logical" name="LRPA"> F  </i>
   <i type="logical" name="LNABLA"> F  </i>
   <i type="logical" name="LVEL"> F  </i>
   <i type="int" name="KINTER">     0</i>
   <i name="CSHIFT">      0.10000000</i>
   <i name="OMEGAMAX">     -1.00000000</i>
   <i name="DEG_THRESHOLD">      0.00200000</i>
  </separator>
  <separator name="orbital magnetization" >
   <i type="logical" name="NUCIND"> F  </i>
   <v name="MAGPOS">      0.00000000      0.00000000      0.00000000</v>
   <i type="logical" name="LNICSALL"> T  </i>
   <i type="logical" name="ORBITALMAG"> F  </i>
   <i type="logical" name="LMAGBLOCH"> F  </i>
   <i type="logical" name="LCHIMAG"> F  </i>
   <i type="logical" name="LGAUGE"> T  </i>
   <i type="int" name="MAGATOM">     0</i>
   <v name="MAGDIPOL">      0.00000000      0.00000000      0.00000000</v>
   <v name="AVECCONST">      0.00000000      0.00000000      0.00000000</v>
  </separator>
  <separator name="response functions" >
   <i type="logical" name="LADDER"> F  </i>
   <i type="logical" name="LFXC"> F  </i>
   <i type="logical" name="LHARTREE"> T  </i>
   <i type="int" name="IBSE">     0</i>
   <i type="logical" name="LTCTE"> F  </i>
   <i type="logical" name="LTETE"> F  </i>
   <i type="logical" name="LTRIPLET"> F  </i>
   <i type="logical" name="LFXCEPS"> F  </i>
   <i type="logical" name="LFXHEG"> F  </i>
   <i type="logical" name="L2ORDER"> F  </i>
   <i type="logical" name="LUSEW"> F  </i>
   <i name="ENCUTGW">     -2.00000000</i>
   <i name="ENCUTGWSOFT">     -2.00000000</i>
   <i name="ENCUTLF">     -1.00000000</i>
   <i type="int" name="LMAXMP2">    -1</i>
   <i name="SCISSOR">      0.00000000</i>
   <i type="int" name="NOMEGA">     0</i>
   <i type="int" name="NOMEGAR">     0</i>
   <i type="int" name="NBANDSGW">    -1</i>
   <i type="int" name="NBANDSO">    -1</i>
   <i type="int" name="NBANDSV">    -1</i>
   <i type="int" name="NELM">   100</i>
   <i type="int" name="DIM">     3</i>
   <i type="int" name="ANTIRES">     0</i>
   <i name="OMEGAMAX">    -30.00000000</i>
   <i name="OMEGAMIN">    -30.00000000</i>
   <i name="OMEGATL">   -200.00000000</i>
   <i type="int" name="OMEGAGRID">     0</i>
   <i name="CSHIFT">     -0.10000000</i>
   <i type="logical" name="SELFENERGY"> F  </i>
   <i type="logical" name="LSPECTRAL"> F  </i>
   <i type="logical" name="ODDONLYGW"> F  </i>
   <i type="logical" name="EVENONLYGW"> F  </i>
   <i type="int" name="NKREDLFX">     1</i>
   <i type="int" name="NKREDLFY">     1</i>
   <i type="int" name="NKREDLFZ">     1</i>
   <i type="int" name="MAXMEM">  1800</i>
   <i type="int" name="TELESCOPE">     0</i>
   <i type="int" name="TAUPAR">     1</i>
  </separator>
  <separator name="External order field" >
   <i name="OFIELD_KAPPA">      0.00000000</i>
   <v name="OFIELD_K">      0.00000000      0.00000000      0.00000000</v>
   <i name="OFIELD_Q6_NEAR">      0.00000000</i>
   <i name="OFIELD_Q6_FAR">      0.00000000</i>
   <i name="OFIELD_A">      0.00000000</i>
  </separator>
 </parameters>
 <atominfo>
  <atoms>      32 </atoms>
  <types>       4 </types>
  <array name="atoms" >
   <dimension dim="1">ion</dimension>
   <field type="string">element</field>
   <field type="int">atomtype</field>
   <set>
    <rc><c>Si</c><c>   1</c></rc>
    <rc><c>Si</c><c>   1</c></rc>
    <rc><c>Si</c><c>   1</c></rc>
    <rc><c>Si</c><c>   1</c></rc>
    <rc><c>Si</c><c>   1</c></rc>
    <rc><c>Si</c><c>   1</c></rc>
    <rc><c>Si</c><c>   1</c></rc>
    <rc><c>Si</c><c>   1</c></rc>
    <rc><c>Al</c><c>   2</c></rc>
    <rc><c>Al</c><c>   2</c></rc>
    <rc><c>Al</c><c>   2</c></rc>
    <rc><c>Al</c><c>   2</c></rc>
    <rc><c>Al</c><c>   2</c></rc>
    <rc><c>Al</c><c>   2</c></rc>
    <rc><c>Al</c><c>   2</c></rc>
    <rc><c>Al</c><c>   2</c></rc>
    <rc><c>C </c><c>   3</c></rc>
    <rc><c>C </c><c>   3</c></rc>
    <rc><c>C </c><c>   3</c></rc>
    <rc><c>C </c><c>   3</c></rc>
    <rc><c>C </c><c>   3</c></rc>
    <rc><c>C </c><c>   3</c></rc>
    <rc><c>C </c><c>   3</c></rc>
    <rc><c>C </c><c>   3</c></rc>
    <rc><c>N </c><c>   4</c></rc>
    <rc><c>N </c><c>   4</c></rc>
    <rc><c>N </c><c>   4</c></rc>
    <rc><c>N </c><c>   4</c></rc>
    <rc><c>N </c><c>   4</c></rc>
    <rc><c>N </c><c>   4</c></rc>
    <rc><c>N </c><c>   4</c></rc>
    <rc><c>N </c><c>   4</c></rc>
   </set>
  </array>
  <array name="atomtypes" >
   <dimension dim="1">type</dimension>
   <field type="int">atomspertype</field>
   <field type="string">element</field>
   <field>mass</field>
   <field>valence</field>
   <field type="string">pseudopotential</field>
   <set>
    <rc><c>   8</c><c>Si</c><c>     28.08500000</c><c>      4.00000000</c><c>  PAW_PBE Si 05Jan2001                  </c></rc>
    <rc><c>   8</c><c>Al</c><c>     26.98100000</c><c>      3.00000000</c><c>  PAW_PBE Al 04Jan2001                  </c></rc>
    <rc><c>   8</c><c>C </c><c>     12.01100000</c><c>      4.00000000</c><c>  PAW_PBE C 08Apr2002                   </c></rc>
    <rc><c>   8</c><c>N </c><c>     14.00100000</c><c>      5.00000000</c><c>  PAW_PBE N_s 07Sep2000                 </c></rc>
   </set>
  </array>
 </atominfo>
 <structure name="initialpos" >
  <crystal>
   <varray name="basis" >
    <v>      10.73573411       0.00000000      -0.03401958 </v>
    <v>       0.00000000       6.27109361       0.00000000 </v>
    <v>      -0.01604258       0.00000000       5.05437710 </v>
   </varray>
   <i name="volume">    340.28147265 </i>
   <varray name="rec_basis" >
    <v>       0.09314780       0.00000000       0.00029565 </v>
    <v>       0.00000000       0.15946182       0.00000000 </v>
    <v>       0.00062695       0.00000000       0.19785031 </v>
   </varray>
  </crystal>
  <varray name="positions" >
   <v>       0.67009660       0.50000000       0.99108586 </v>
   <v>       0.33385866       0.50000000       0.51160411 </v>
   <v>       0.58255977       0.74425474       0.50126170 </v>
   <v>       0.58255977       0.25574526       0.50126170 </v>
   <v>       0.17009660       0.00000000       0.99108586 </v>
   <v>       0.83385866       0.00000000       0.51160411 </v>
   <v>       0.08255977       0.24425474       0.50126170 </v>
   <v>       0.08255977       0.75574526       0.50126170 </v>
   <v>       0.41609202       0.74536974       0.99870613 </v>
   <v>       0.41609202       0.25463026       0.99870613 </v>
   <v>       0.66720308       0.00000000       0.98620828 </v>
   <v>       0.33372235       0.00000000       0.50155272 </v>
   <v>       0.91609202       0.24536974       0.99870613 </v>
   <v>       0.91609202       0.75463026       0.99870613 </v>
   <v>       0.16720308       0.50000000       0.98620828 </v>
   <v>       0.83372235       0.50000000       0.50155272 </v>
   <v>       0.66069632       0.00000000       0.38847105 </v>
   <v>       0.65714549       0.50000000       0.36450054 </v>
   <v>       0.33442052       0.50000000       0.86475130 </v>
   <v>       0.33087272       0.00000000       0.88969510 </v>
   <v>       0.16069632       0.50000000       0.38847105 </v>
   <v>       0.15714549       0.00000000       0.36450054 </v>
   <v>       0.83442052       0.00000000       0.86475130 </v>
   <v>       0.83087272       0.50000000       0.88969510 </v>
   <v>       0.42138059       0.73748265       0.38923938 </v>
   <v>       0.42138059       0.26251735       0.38923938 </v>
   <v>       0.58595974       0.73568221       0.86185831 </v>
   <v>       0.58595974       0.26431779       0.86185831 </v>
   <v>       0.92138059       0.23748265       0.38923938 </v>
   <v>       0.92138059       0.76251735       0.38923938 </v>
   <v>       0.08595974       0.23568221       0.86185831 </v>
   <v>       0.08595974       0.76431779       0.86185831 </v>
  </varray>
 </structure>
 <calculation>
  <scstep>
   <time name="dav">    1.82    1.82</time>
   <time name="total">    1.93    1.94</time>
   <energy>
    <i name="alphaZ">    127.85410536 </i>
    <i name="ewald">  -4540.77117202 </i>
    <i name="hartreedc">   -720.49005488 </i>
    <i name="XCdc">    -10.88272129 </i>
    <i name="pawpsdc">   3742.27521622 </i>
    <i name="pawaedc">  -3359.93045151 </i>
    <i name="eentropy">     -0.02940278 </i>
    <i name="bandstr">    917.72371126 </i>
    <i name="atom">   4546.41956982 </i>
    <i name="e_fr_energy">    702.16880018 </i>
    <i name="e_wo_entrp">    702.19820296 </i>
    <i name="e_0_energy">    702.18350157 </i>
   </energy>
  </scstep>
  <scstep>
   <time name="dav">    2.04    2.04</time>
   <time name="total">    2.04    2.05</time>
   <energy>
    <i name="e_fr_energy">   -190.95658212 </i>
    <i name="e_wo_entrp">   -190.95658212 </i>
    <i name="e_0_energy">   -190.95658212 </i>
   </energy>
  </scstep>
  <scstep>
   <time name="dav">    2.10    2.11</time>
   <time name="total">    2.11    2.12</time>
   <energy>
    <i name="e_fr_energy">   -267.63954350 </i>
    <i name="e_wo_entrp">   -267.63954350 </i>
    <i name="e_0_energy">   -267.63954350 </i>
   </energy>
  </scstep>
  <scstep>
   <time name="dav">    2.07    2.07</time>
   <time name="total">    2.07    2.08</time>
   <energy>
    <i name="e_fr_energy">   -269.91586328 </i>
    <i name="e_wo_entrp">   -269.91586328 </i>
    <i name="e_0_energy">   -269.91586328 </i>
   </energy>
  </scstep>
  <scstep>
   <time name="dav">    2.07    2.07</time>
   <time name="total">    2.26    2.27</time>
   <energy>
    <i name="e_fr_energy">   -269.99996586 </i>
    <i name="e_wo_entrp">   -269.99996586 </i>
    <i name="e_0_energy">   -269.99996586 </i>
   </energy>
  </scstep>
  <scstep>
   <time name="diag">    0.28    0.28</time>
   <time name="diis">    1.19    1.19</time>
   <time name="orth">    0.05    0.05</time>
   <time name="total">    1.82    1.83</time>
   <energy>
    <i name="e_fr_energy">   -234.28173906 </i>
    <i name="e_wo_entrp">   -234.28173906 </i>
    <i name="e_0_energy">   -234.28173906 </i>
   </energy>
  </scstep>
  <scstep>
   <time name="diag">    0.27    0.27</time>
   <time name="diis">    1.25    1.25</time>
   <time name="orth">    0.05    0.05</time>
   <time name="total">    1.87    1.88</time>
   <energy>
    <i name="e_fr_energy">   -234.20441961 </i>
    <i name="e_wo_entrp">   -234.20441961 </i>
    <i name="e_0_energy">   -234.20441961 </i>
   </energy>
  </scstep>
  <scstep>
   <time name="diag">    0.27    0.27</time>
   <time name="diis">    1.18    1.18</time>
   <time name="orth">    0.06    0.06</time>
   <time name="total">    1.79    1.81</time>
   <energy>
    <i name="e_fr_energy">   -235.90644150 </i>
    <i name="e_wo_entrp">   -235.90644150 </i>
    <i name="e_0_energy">   -235.90644150 </i>
   </energy>
  </scstep>
  <scstep>
   <time name="diag">    0.27    0.27</time>
   <time name="diis">    1.19    1.19</time>
   <time name="orth">    0.06    0.06</time>
   <time name="total">    1.80    1.82</time>
   <energy>
    <i name="e_fr_energy">   -234.01169138 </i>
    <i name="e_wo_entrp">   -234.01169138 </i>
    <i name="e_0_energy">   -234.01169138 </i>
   </energy>
  </scstep>
  <scstep>
   <time name="diag">    0.27    0.27</time>
   <time name="diis">    1.20    1.20</time>
   <time name="orth">    0.05    0.05</time>
   <time name="total">    1.82    1.83</time>
   <energy>
    <i name="e_fr_energy">   -234.02233117 </i>
    <i name="e_wo_entrp">   -234.02233117 </i>
    <i name="e_0_energy">   -234.02233117 </i>
   </energy>
  </scstep>
  <scstep>
   <time name="diag">    0.27    0.27</time>
   <time name="diis">    1.21    1.21</time>
   <time name="orth">    0.05    0.05</time>
   <time name="total">    1.82    1.84</time>
   <energy>
    <i name="e_fr_energy">   -234.02735410 </i>
    <i name="e_wo_entrp">   -234.02735410 </i>
    <i name="e_0_energy">   -234.02735410 </i>
   </energy>
  </scstep>
  <scstep>
   <time name="diag">    0.27    0.27</time>
   <time name="diis">    1.16    1.16</time>
   <time name="orth">    0.05    0.05</time>
   <time name="total">    1.77    1.78</time>
   <energy>
    <i name="e_fr_energy">   -234.02735868 </i>
    <i name="e_wo_entrp">   -234.02735868 </i>
    <i name="e_0_energy">   -234.02735868 </i>
   </energy>
  </scstep>
  <scstep>
   <time name="diag">    0.27    0.27</time>
   <time name="diis">    1.21    1.21</time>
   <time name="orth">    0.05    0.05</time>
   <time name="total">    1.82    1.83</time>
   <energy>
    <i name="e_fr_energy">   -234.02746418 </i>
    <i name="e_wo_entrp">   -234.02746418 </i>
    <i name="e_0_energy">   -234.02746418 </i>
   </energy>
  </scstep>
  <scstep>
   <time name="diag">    0.27    0.27</time>
   <time name="diis">    1.20    1.20</time>
   <time name="orth">    0.05    0.05</time>
   <time name="total">    1.81    1.83</time>
   <energy>
    <i name="e_fr_energy">   -234.02736825 </i>
    <i name="e_wo_entrp">   -234.02736825 </i>
    <i name="e_0_energy">   -234.02736825 </i>
   </energy>
  </scstep>
  <scstep>
   <time name="diag">    0.27    0.27</time>
   <time name="diis">    1.19    1.19</time>
   <time name="orth">    0.06    0.06</time>
   <time name="total">    1.82    1.83</time>
   <energy>
    <i name="e_fr_energy">   -234.02736510 </i>
    <i name="e_wo_entrp">   -234.02736510 </i>
    <i name="e_0_energy">   -234.02736510 </i>
   </energy>
  </scstep>
  <scstep>
   <time name="diag">    0.28    0.28</time>
   <time name="diis">    0.84    0.84</time>
   <time name="orth">    0.05    0.05</time>
   <time name="total">    1.47    1.48</time>
   <energy>
    <i name="e_fr_energy">   -234.02736633 </i>
    <i name="e_wo_entrp">   -234.02736633 </i>
    <i name="e_0_energy">   -234.02736633 </i>
   </energy>
  </scstep>
  <scstep>
   <time name="diag">    0.27    0.27</time>
   <time name="diis">    0.79    0.79</time>
   <time name="orth">    0.05    0.05</time>
   <time name="total">    1.23    1.24</time>
   <energy>
    <i name="alphaZ">    127.85410536 </i>
    <i name="ewald">  -4540.77117202 </i>
    <i name="hartreedc">   -937.17160642 </i>
    <i name="XCdc">      8.32208374 </i>
    <i name="pawpsdc">  20596.23421094 </i>
    <i name="pawaedc"> -20222.37201520 </i>
    <i name="eentropy">      0.00000000 </i>
    <i name="bandstr">    187.45745760 </i>
    <i name="atom">   4546.41956982 </i>
    <i name="e_fr_energy">   -234.02736619 </i>
    <i name="e_wo_entrp">   -234.02736619 </i>
    <i name="e_0_energy">   -234.02736619 </i>
   </energy>
  </scstep>
  <structure>
   <crystal>
    <varray name="basis" >
     <v>      10.73573411       0.00000000      -0.03401958 </v>
     <v>       0.00000000       6.27109361       0.00000000 </v>
     <v>      -0.01604258       0.00000000       5.05437710 </v>
    </varray>
    <i name="volume">    340.28147265 </i>
    <varray name="rec_basis" >
     <v>       0.09314780       0.00000000       0.00029565 </v>
     <v>       0.00000000       0.15946182       0.00000000 </v>
     <v>       0.00062695       0.00000000       0.19785031 </v>
    </varray>
   </crystal>
   <varray name="positions" >
    <v>       0.67009660       0.50000000       0.99108586 </v>
    <v>       0.33385866       0.50000000       0.51160411 </v>
    <v>       0.58255977       0.74425474       0.50126170 </v>
    <v>       0.58255977       0.25574526       0.50126170 </v>
    <v>       0.17009660       0.00000000       0.99108586 </v>
    <v>       0.83385866       0.00000000       0.51160411 </v>
    <v>       0.08255977       0.24425474       0.50126170 </v>
    <v>       0.08255977       0.75574526       0.50126170 </v>
    <v>       0.41609202       0.74536974       0.99870613 </v>
    <v>       0.41609202       0.25463026       0.99870613 </v>
    <v>       0.66720308       0.00000000       0.98620828 </v>
    <v>       0.33372235       0.00000000       0.50155272 </v>
    <v>       0.91609202       0.24536974       0.99870613 </v>
    <v>       0.91609202       0.75463026       0.99870613 </v>
    <v>       0.16720308       0.50000000       0.98620828 </v>
    <v>       0.83372235       0.50000000       0.50155272 </v>
    <v>       0.66069632       0.00000000       0.38847105 </v>
    <v>       0.65714549       0.50000000       0.36450054 </v>
    <v>       0.33442052       0.50000000       0.86475130 </v>
    <v>       0.33087272       0.00000000       0.88969510 </v>
    <v>       0.16069632       0.50000000       0.38847105 </v>
    <v>       0.15714549       0.00000000       0.36450054 </v>
    <v>       0.83442052       0.00000000       0.86475130 </v>
    <v>       0.83087272       0.50000000       0.88969510 </v>
    <v>       0.42138059       0.73748265       0.38923938 </v>
    <v>       0.42138059       0.26251735       0.38923938 </v>
    <v>       0.58595974       0.73568221       0.86185831 </v>
    <v>       0.58595974       0.26431779       0.86185831 </v>
    <v>       0.92138059       0.23748265       0.38923938 </v>
    <v>       0.92138059       0.76251735       0.38923938 </v>
    <v>       0.08595974       0.23568221       0.86185831 </v>
    <v>       0.08595974       0.76431779       0.86185831 </v>
   </varray>
  </structure>
  <varray name="forces" >
   <v>       0.00152768       0.00000000      -0.00305047 </v>
   <v>      -0.00191602       0.00000000       0.00563665 </v>
   <v>       0.00007213       0.00213854       0.00054832 </v>
   <v>       0.00007213      -0.00213854       0.00054832 </v>
   <v>       0.00152768       0.00000000      -0.00305047 </v>
   <v>      -0.00191602       0.00000000       0.00563665 </v>
   <v>       0.00007213       0.00213854       0.00054832 </v>
   <v>       0.00007213      -0.00213854       0.00054832 </v>
   <v>      -0.00014377       0.00074785      -0.00177424 </v>
   <v>      -0.00014377      -0.00074785      -0.00177424 </v>
   <v>      -0.00077870       0.00000000      -0.00047868 </v>
   <v>       0.00660579       0.00000000      -0.00451506 </v>
   <v>      -0.00014377       0.00074785      -0.00177424 </v>
   <v>      -0.00014377      -0.00074785      -0.00177424 </v>
   <v>      -0.00077870       0.00000000      -0.00047868 </v>
   <v>       0.00660579       0.00000000      -0.00451506 </v>
   <v>       0.00095324       0.00000000       0.00084203 </v>
   <v>       0.00258410       0.00000000       0.00043918 </v>
   <v>      -0.00482388       0.00000000      -0.00343330 </v>
   <v>      -0.00497162       0.00000000       0.00203813 </v>
   <v>       0.00095324       0.00000000       0.00084203 </v>
   <v>       0.00258410       0.00000000       0.00043918 </v>
   <v>      -0.00482388       0.00000000      -0.00343330 </v>
   <v>      -0.00497162       0.00000000       0.00203813 </v>
   <v>       0.00179232      -0.00162683       0.00247850 </v>
   <v>       0.00179232       0.00162683       0.00247850 </v>
   <v>      -0.00131098      -0.00133144       0.00000818 </v>
   <v>      -0.00131098       0.00133144       0.00000818 </v>
   <v>       0.00179232      -0.00162683       0.00247850 </v>
   <v>       0.00179232       0.00162683       0.00247850 </v>
   <v>      -0.00131098      -0.00133144       0.00000818 </v>
   <v>      -0.00131098       0.00133144       0.00000818 </v>
  </varray>
  <varray name="stress" >
   <v>      -0.40935801       0.00000000      -0.01852304 </v>
   <v>       0.00000000      -0.28557510       0.00000000 </v>
   <v>      -0.01852237       0.00000000      -0.00529403 </v>
  </varray>
  <energy>
   <i name="e_fr_energy">   -234.02736619 </i>
   <i name="e_wo_entrp">   -234.02736619 </i>
   <i name="e_0_energy">      0.00000000 </i>
  </energy>
  <time name="totalsc">   34.94   35.20</time>
  <eigenvalues>
   <array>
    <dimension dim="1">band</dimension>
    <dimension dim="2">kpoint</dimension>
    <dimension dim="3">spin</dimension>
    <field>eigene</field>
    <field>occ</field>
    <set>
     <set comment="spin 1">
      <set comment="kpoint 1">
       <r>   -9.1278    1.0000 </r>
       <r>   -8.8556    1.0000 </r>
       <r>   -7.9497    1.0000 </r>
       <r>   -7.8696    1.0000 </r>
       <r>   -7.7840    1.0000 </r>
       <r>   -7.6775    1.0000 </r>
       <r>   -6.8997    1.0000 </r>
       <r>   -6.8283    1.0000 </r>
       <r>   -4.7816    1.0000 </r>
       <r>   -4.0894    1.0000 </r>
       <r>   -4.0493    1.0000 </r>
       <r>   -3.7480    1.0000 </r>
       <r>   -3.1335    1.0000 </r>
       <r>   -2.8572    1.0000 </r>
       <r>   -2.2419    1.0000 </r>
       <r>   -1.7312    1.0000 </r>
       <r>   -0.5968    1.0000 </r>
       <r>   -0.2618    1.0000 </r>
       <r>   -0.2061    1.0000 </r>
       <r>   -0.0061    1.0000 </r>
       <r>    0.5476    1.0000 </r>
       <r>    1.0057    1.0000 </r>
       <r>    1.0353    1.0000 </r>
       <r>    1.3932    1.0000 </r>
       <r>    1.5171    1.0000 </r>
       <r>    1.5838    1.0000 </r>
       <r>    1.5943    1.0000 </r>
       <r>    1.6171    1.0000 </r>
       <r>    1.9748    1.0000 </r>
       <r>    2.0939    1.0000 </r>
       <r>    2.2796    1.0000 </r>
       <r>    2.4647    1.0000 </r>
       <r>    2.4655    1.0000 </r>
       <r>    3.0580    1.0000 </r>
       <r>    3.3674    1.0000 </r>
       <r>    3.5238    1.0000 </r>
       <r>    3.5907    1.0000 </r>
       <r>    3.6686    1.0000 </r>
       <r>    3.6994    1.0000 </r>
       <r>    3.9115    1.0000 </r>
       <r>    4.0032    1.0000 </r>
       <r>    4.2657    1.0000 </r>
       <r>    4.2745    1.0000 </r>
       <r>    4.3129    1.0000 </r>
       <r>    4.4591    1.0000 </r>
       <r>    4.4822    1.0000 </r>
       <r>    4.8384    1.0000 </r>
       <r>    4.9384    1.0000 </r>
       <r>    5.0074    1.0000 </r>
       <r>    5.1390    1.0000 </r>
       <r>    5.4904    1.0000 </r>
       <r>    5.7246    1.0000 </r>
       <r>    5.9166    1.0000 </r>
       <r>    5.9908    1.0000 </r>
       <r>    6.0610    1.0000 </r>
       <r>    6.2561    1.0000 </r>
       <r>    6.2990    1.0000 </r>
       <r>    6.4838    1.0000 </r>
       <r>    6.9441    1.0000 </r>
       <r>    7.0991    1.0000 </r>
       <r>    7.1107    1.0000 </r>
       <r>    7.4300    1.0000 </r>
       <r>    8.1219    1.0000 </r>
       <r>    8.1667    1.0000 </r>
       <r>   10.3507    0.0000 </r>
       <r>   10.7614    0.0000 </r>
       <r>   11.2892    0.0000 </r>
       <r>   11.4138    0.0000 </r>
       <r>   11.5789    0.0000 </r>
       <r>   11.6446    0.0000 </r>
       <r>   11.7232    0.0000 </r>
       <r>   11.7308    0.0000 </r>
       <r>   12.1094    0.0000 </r>
       <r>   12.5208    0.0000 </r>
       <r>   12.7339    0.0000 </r>
       <r>   12.9317    0.0000 </r>
       <r>   13.0123    0.0000 </r>
       <r>   13.6944    0.0000 </r>
       <r>   13.7949    0.0000 </r>
       <r>   13.9642    0.0000 </r>
       <r>   14.4282    0.0000 </r>
       <r>   14.7189    0.0000 </r>
       <r>   14.8901    0.0000 </r>
       <r>   15.0915    0.0000 </r>
      </set>
      <set comment="kpoint 2">
       <r>   -9.0101    1.0000 </r>
       <r>   -9.0101    1.0000 </r>
       <r>   -7.8287    1.0000 </r>
       <r>   -7.8287    1.0000 </r>
       <r>   -7.7919    1.0000 </r>
       <r>   -7.7919    1.0000 </r>
       <r>   -6.8620    1.0000 </r>
       <r>   -6.8620    1.0000 </r>
       <r>   -4.5249    1.0000 </r>
       <r>   -4.5249    1.0000 </r>
       <r>   -3.9117    1.0000 </r>
       <r>   -3.9117    1.0000 </r>
       <r>   -2.8913    1.0000 </r>
       <r>   -2.8913    1.0000 </r>
       <r>   -1.9661    1.0000 </r>
       <r>   -1.9661    1.0000 </r>
       <r>   -0.4507    1.0000 </r>
       <r>   -0.4507    1.0000 </r>
       <r>    0.0859    1.0000 </r>
       <r>    0.0859    1.0000 </r>
       <r>    0.3797    1.0000 </r>
       <r>    0.3797    1.0000 </r>
       <r>    1.1113    1.0000 </r>
       <r>    1.1113    1.0000 </r>
       <r>    1.5934    1.0000 </r>
       <r>    1.5934    1.0000 </r>
       <r>    1.8109    1.0000 </r>
       <r>    1.8109    1.0000 </r>
       <r>    2.0125    1.0000 </r>
       <r>    2.0125    1.0000 </r>
       <r>    2.5029    1.0000 </r>
       <r>    2.5029    1.0000 </r>
       <r>    2.9100    1.0000 </r>
       <r>    2.9100    1.0000 </r>
       <r>    3.2776    1.0000 </r>
       <r>    3.2776    1.0000 </r>
       <r>    3.3873    1.0000 </r>
       <r>    3.3873    1.0000 </r>
       <r>    3.7412    1.0000 </r>
       <r>    3.7412    1.0000 </r>
       <r>    4.1832    1.0000 </r>
       <r>    4.1832    1.0000 </r>
       <r>    4.3022    1.0000 </r>
       <r>    4.3022    1.0000 </r>
       <r>    4.7147    1.0000 </r>
       <r>    4.7147    1.0000 </r>
       <r>    4.9552    1.0000 </r>
       <r>    4.9552    1.0000 </r>
       <r>    5.4250    1.0000 </r>
       <r>    5.4250    1.0000 </r>
       <r>    5.4967    1.0000 </r>
       <r>    5.4967    1.0000 </r>
       <r>    5.8256    1.0000 </r>
       <r>    5.8256    1.0000 </r>
       <r>    6.1813    1.0000 </r>
       <r>    6.1813    1.0000 </r>
       <r>    6.3639    1.0000 </r>
       <r>    6.3639    1.0000 </r>
       <r>    6.7115    1.0000 </r>
       <r>    6.7115    1.0000 </r>
       <r>    7.1327    1.0000 </r>
       <r>    7.1327    1.0000 </r>
       <r>    8.1509    1.0000 </r>
       <r>    8.1509    1.0000 </r>
       <r>   10.9706    0.0000 </r>
       <r>   10.9707    0.0000 </r>
       <r>   11.3929    0.0000 </r>
       <r>   11.3929    0.0000 </r>
       <r>   11.9798    0.0000 </r>
       <r>   11.9798    0.0000 </r>
       <r>   12.1753    0.0000 </r>
       <r>   12.1753    0.0000 </r>
       <r>   12.1907    0.0000 </r>
       <r>   12.1907    0.0000 </r>
       <r>   12.3842    0.0000 </r>
       <r>   12.3842    0.0000 </r>
       <r>   13.0704    0.0000 </r>
       <r>   13.0711    0.0000 </r>
       <r>   13.2798    0.0000 </r>
       <r>   13.2800    0.0000 </r>
       <r>   14.4795    0.0000 </r>
       <r>   14.5587    0.0000 </r>
       <r>   14.8873    0.0000 </r>
       <r>   15.1897    0.0000 </r>
      </set>
      <set comment="kpoint 3">
       <r>   -8.9195    1.0000 </r>
       <r>   -8.7155    1.0000 </r>
       <r>   -8.1703    1.0000 </r>
       <r>   -8.0509    1.0000 </r>
       <r>   -7.7819    1.0000 </r>
       <r>   -7.5985    1.0000 </r>
       <r>   -7.0906    1.0000 </r>
       <r>   -7.0036    1.0000 </r>
       <r>   -4.5532    1.0000 </r>
       <r>   -4.0419    1.0000 </r>
       <r>   -3.9628    1.0000 </r>
       <r>   -3.8996    1.0000 </r>
       <r>   -2.9078    1.0000 </r>
       <r>   -2.6839    1.0000 </r>
       <r>   -2.3198    1.0000 </r>
       <r>   -2.2638    1.0000 </r>
       <r>   -0.5126    1.0000 </r>
       <r>   -0.2041    1.0000 </r>
       <r>    0.2560    1.0000 </r>
       <r>    0.4061    1.0000 </r>
       <r>    0.6809    1.0000 </r>
       <r>    0.9926    1.0000 </r>
       <r>    1.1607    1.0000 </r>
       <r>    1.3069    1.0000 </r>
       <r>    1.5421    1.0000 </r>
       <r>    1.6757    1.0000 </r>
       <r>    1.7305    1.0000 </r>
       <r>    1.8650    1.0000 </r>
       <r>    1.8843    1.0000 </r>
       <r>    2.2646    1.0000 </r>
       <r>    2.5866    1.0000 </r>
       <r>    2.6097    1.0000 </r>
       <r>    2.7214    1.0000 </r>
       <r>    2.9591    1.0000 </r>
       <r>    3.0224    1.0000 </r>
       <r>    3.0940    1.0000 </r>
       <r>    3.2967    1.0000 </r>
       <r>    3.4810    1.0000 </r>
       <r>    3.6533    1.0000 </r>
       <r>    3.7354    1.0000 </r>
       <r>    3.7841    1.0000 </r>
       <r>    3.9941    1.0000 </r>
       <r>    4.2175    1.0000 </r>
       <r>    4.2383    1.0000 </r>
       <r>    4.2560    1.0000 </r>
       <r>    4.6913    1.0000 </r>
       <r>    4.7635    1.0000 </r>
       <r>    4.9584    1.0000 </r>
       <r>    5.1044    1.0000 </r>
       <r>    5.1758    1.0000 </r>
       <r>    5.3924    1.0000 </r>
       <r>    5.6030    1.0000 </r>
       <r>    5.6500    1.0000 </r>
       <r>    5.9264    1.0000 </r>
       <r>    6.0860    1.0000 </r>
       <r>    6.1445    1.0000 </r>
       <r>    6.4907    1.0000 </r>
       <r>    6.6831    1.0000 </r>
       <r>    6.6867    1.0000 </r>
       <r>    6.8796    1.0000 </r>
       <r>    6.8826    1.0000 </r>
       <r>    7.1223    1.0000 </r>
       <r>    7.1548    1.0000 </r>
       <r>    7.2319    1.0000 </r>
       <r>   10.7284    0.0000 </r>
       <r>   11.2164    0.0000 </r>
       <r>   11.4936    0.0000 </r>
       <r>   11.6479    0.0000 </r>
       <r>   12.2874    0.0000 </r>
       <r>   12.4618    0.0000 </r>
       <r>   12.7817    0.0000 </r>
       <r>   12.9390    0.0000 </r>
       <r>   12.9555    0.0000 </r>
       <r>   13.0728    0.0000 </r>
       <r>   13.2714    0.0000 </r>
       <r>   13.4655    0.0000 </r>
       <r>   13.5606    0.0000 </r>
       <r>   13.5646    0.0000 </r>
       <r>   13.8560    0.0000 </r>
       <r>   13.9871    0.0000 </r>
       <r>   14.0938    0.0000 </r>
       <r>   14.2169    0.0000 </r>
       <r>   14.3513    0.0000 </r>
       <r>   14.9046    0.0000 </r>
      </set>
      <set comment="kpoint 4">
       <r>   -8.8248    1.0000 </r>
       <r>   -8.8248    1.0000 </r>
       <r>   -8.1304    1.0000 </r>
       <r>   -8.1304    1.0000 </r>
       <r>   -7.6593    1.0000 </r>
       <r>   -7.6593    1.0000 </r>
       <r>   -7.0476    1.0000 </r>
       <r>   -7.0476    1.0000 </r>
       <r>   -4.3289    1.0000 </r>
       <r>   -4.3289    1.0000 </r>
       <r>   -3.9550    1.0000 </r>
       <r>   -3.9550    1.0000 </r>
       <r>   -2.7294    1.0000 </r>
       <r>   -2.7294    1.0000 </r>
       <r>   -2.3087    1.0000 </r>
       <r>   -2.3087    1.0000 </r>
       <r>   -0.3698    1.0000 </r>
       <r>   -0.3698    1.0000 </r>
       <r>    0.4628    1.0000 </r>
       <r>    0.4628    1.0000 </r>
       <r>    0.7269    1.0000 </r>
       <r>    0.7269    1.0000 </r>
       <r>    1.2226    1.0000 </r>
       <r>    1.2226    1.0000 </r>
       <r>    1.5677    1.0000 </r>
       <r>    1.5677    1.0000 </r>
       <r>    1.9305    1.0000 </r>
       <r>    1.9305    1.0000 </r>
       <r>    2.1199    1.0000 </r>
       <r>    2.1199    1.0000 </r>
       <r>    2.3704    1.0000 </r>
       <r>    2.3704    1.0000 </r>
       <r>    2.7603    1.0000 </r>
       <r>    2.7603    1.0000 </r>
       <r>    3.1046    1.0000 </r>
       <r>    3.1046    1.0000 </r>
       <r>    3.4011    1.0000 </r>
       <r>    3.4011    1.0000 </r>
       <r>    3.5601    1.0000 </r>
       <r>    3.5601    1.0000 </r>
       <r>    3.9485    1.0000 </r>
       <r>    3.9485    1.0000 </r>
       <r>    4.3918    1.0000 </r>
       <r>    4.3918    1.0000 </r>
       <r>    4.5931    1.0000 </r>
       <r>    4.5931    1.0000 </r>
       <r>    4.9929    1.0000 </r>
       <r>    4.9929    1.0000 </r>
       <r>    5.1264    1.0000 </r>
       <r>    5.1264    1.0000 </r>
       <r>    5.3215    1.0000 </r>
       <r>    5.3215    1.0000 </r>
       <r>    5.5927    1.0000 </r>
       <r>    5.5927    1.0000 </r>
       <r>    6.3259    1.0000 </r>
       <r>    6.3259    1.0000 </r>
       <r>    6.4080    1.0000 </r>
       <r>    6.4080    1.0000 </r>
       <r>    6.8322    1.0000 </r>
       <r>    6.8322    1.0000 </r>
       <r>    6.9909    1.0000 </r>
       <r>    6.9909    1.0000 </r>
       <r>    7.3301    1.0000 </r>
       <r>    7.3301    1.0000 </r>
       <r>   11.2502    0.0000 </r>
       <r>   11.2502    0.0000 </r>
       <r>   11.6663    0.0000 </r>
       <r>   11.6663    0.0000 </r>
       <r>   11.8901    0.0000 </r>
       <r>   11.8901    0.0000 </r>
       <r>   12.4079    0.0000 </r>
       <r>   12.4079    0.0000 </r>
       <r>   12.9311    0.0000 </r>
       <r>   12.9313    0.0000 </r>
       <r>   13.1978    0.0000 </r>
       <r>   13.1978    0.0000 </r>
       <r>   13.7981    0.0000 </r>
       <r>   13.8015    0.0000 </r>
       <r>   13.8791    0.0000 </r>
       <r>   13.8805    0.0000 </r>
       <r>   14.3358    0.0000 </r>
       <r>   14.3564    0.0000 </r>
       <r>   14.6172    0.0000 </r>
       <r>   14.7724    0.0000 </r>
      </set>
      <set comment="kpoint 5">
       <r>   -8.9500    1.0000 </r>
       <r>   -8.7088    1.0000 </r>
       <r>   -7.9796    1.0000 </r>
       <r>   -7.8420    1.0000 </r>
       <r>   -7.7523    1.0000 </r>
       <r>   -7.6797    1.0000 </r>
       <r>   -6.9876    1.0000 </r>
       <r>   -6.9484    1.0000 </r>
       <r>   -5.0563    1.0000 </r>
       <r>   -4.3854    1.0000 </r>
       <r>   -3.9023    1.0000 </r>
       <r>   -3.6086    1.0000 </r>
       <r>   -3.2402    1.0000 </r>
       <r>   -3.1359    1.0000 </r>
       <r>   -2.2392    1.0000 </r>
       <r>   -2.0113    1.0000 </r>
       <r>   -0.6872    1.0000 </r>
       <r>   -0.6254    1.0000 </r>
       <r>    0.0062    1.0000 </r>
       <r>    0.3382    1.0000 </r>
       <r>    0.3969    1.0000 </r>
       <r>    0.6085    1.0000 </r>
       <r>    0.8875    1.0000 </r>
       <r>    1.1275    1.0000 </r>
       <r>    1.3305    1.0000 </r>
       <r>    1.5708    1.0000 </r>
       <r>    1.6263    1.0000 </r>
       <r>    1.8997    1.0000 </r>
       <r>    1.9318    1.0000 </r>
       <r>    2.2937    1.0000 </r>
       <r>    2.5236    1.0000 </r>
       <r>    2.7601    1.0000 </r>
       <r>    3.1439    1.0000 </r>
       <r>    3.2374    1.0000 </r>
       <r>    3.4212    1.0000 </r>
       <r>    3.5263    1.0000 </r>
       <r>    3.6474    1.0000 </r>
       <r>    3.8922    1.0000 </r>
       <r>    3.9551    1.0000 </r>
       <r>    4.0678    1.0000 </r>
       <r>    4.1414    1.0000 </r>
       <r>    4.2502    1.0000 </r>
       <r>    4.4119    1.0000 </r>
       <r>    4.5357    1.0000 </r>
       <r>    4.6507    1.0000 </r>
       <r>    4.8216    1.0000 </r>
       <r>    4.8888    1.0000 </r>
       <r>    4.9174    1.0000 </r>
       <r>    5.3139    1.0000 </r>
       <r>    5.3291    1.0000 </r>
       <r>    5.4501    1.0000 </r>
       <r>    5.8573    1.0000 </r>
       <r>    5.9603    1.0000 </r>
       <r>    6.0204    1.0000 </r>
       <r>    6.0837    1.0000 </r>
       <r>    6.1393    1.0000 </r>
       <r>    6.3493    1.0000 </r>
       <r>    6.4203    1.0000 </r>
       <r>    6.6698    1.0000 </r>
       <r>    6.8092    1.0000 </r>
       <r>    7.0327    1.0000 </r>
       <r>    7.3971    1.0000 </r>
       <r>    7.9921    1.0000 </r>
       <r>    8.0853    1.0000 </r>
       <r>   10.3094    0.0000 </r>
       <r>   10.4873    0.0000 </r>
       <r>   10.9463    0.0000 </r>
       <r>   11.4429    0.0000 </r>
       <r>   11.4968    0.0000 </r>
       <r>   11.5624    0.0000 </r>
       <r>   11.7868    0.0000 </r>
       <r>   12.2152    0.0000 </r>
       <r>   12.2287    0.0000 </r>
       <r>   12.4690    0.0000 </r>
       <r>   12.7699    0.0000 </r>
       <r>   12.9151    0.0000 </r>
       <r>   13.0058    0.0000 </r>
       <r>   13.4360    0.0000 </r>
       <r>   13.7886    0.0000 </r>
       <r>   13.9527    0.0000 </r>
       <r>   14.0553    0.0000 </r>
       <r>   14.4775    0.0000 </r>
       <r>   14.5553    0.0000 </r>
       <r>   14.6528    0.0000 </r>
      </set>
      <set comment="kpoint 6">
       <r>   -8.8516    1.0000 </r>
       <r>   -8.8362    1.0000 </r>
       <r>   -7.9110    1.0000 </r>
       <r>   -7.8777    1.0000 </r>
       <r>   -7.7205    1.0000 </r>
       <r>   -7.7142    1.0000 </r>
       <r>   -6.9717    1.0000 </r>
       <r>   -6.9615    1.0000 </r>
       <r>   -4.8112    1.0000 </r>
       <r>   -4.7489    1.0000 </r>
       <r>   -3.7776    1.0000 </r>
       <r>   -3.7322    1.0000 </r>
       <r>   -3.2018    1.0000 </r>
       <r>   -3.1006    1.0000 </r>
       <r>   -2.0993    1.0000 </r>
       <r>   -2.0933    1.0000 </r>
       <r>   -0.3863    1.0000 </r>
       <r>   -0.3343    1.0000 </r>
       <r>   -0.2438    1.0000 </r>
       <r>   -0.1703    1.0000 </r>
       <r>    0.4541    1.0000 </r>
       <r>    0.4710    1.0000 </r>
       <r>    0.8899    1.0000 </r>
       <r>    1.0047    1.0000 </r>
       <r>    1.5363    1.0000 </r>
       <r>    1.6034    1.0000 </r>
       <r>    1.7781    1.0000 </r>
       <r>    1.8652    1.0000 </r>
       <r>    2.1279    1.0000 </r>
       <r>    2.2630    1.0000 </r>
       <r>    2.4226    1.0000 </r>
       <r>    2.6204    1.0000 </r>
       <r>    3.0112    1.0000 </r>
       <r>    3.1944    1.0000 </r>
       <r>    3.2268    1.0000 </r>
       <r>    3.3686    1.0000 </r>
       <r>    3.8784    1.0000 </r>
       <r>    4.0201    1.0000 </r>
       <r>    4.0256    1.0000 </r>
       <r>    4.0551    1.0000 </r>
       <r>    4.4067    1.0000 </r>
       <r>    4.4425    1.0000 </r>
       <r>    4.4556    1.0000 </r>
       <r>    4.5209    1.0000 </r>
       <r>    4.8133    1.0000 </r>
       <r>    4.8978    1.0000 </r>
       <r>    4.9744    1.0000 </r>
       <r>    5.0138    1.0000 </r>
       <r>    5.2116    1.0000 </r>
       <r>    5.2220    1.0000 </r>
       <r>    5.4927    1.0000 </r>
       <r>    5.6083    1.0000 </r>
       <r>    5.8211    1.0000 </r>
       <r>    5.9621    1.0000 </r>
       <r>    6.2071    1.0000 </r>
       <r>    6.2222    1.0000 </r>
       <r>    6.2554    1.0000 </r>
       <r>    6.3302    1.0000 </r>
       <r>    6.6180    1.0000 </r>
       <r>    6.7218    1.0000 </r>
       <r>    6.9889    1.0000 </r>
       <r>    7.0354    1.0000 </r>
       <r>    8.0424    1.0000 </r>
       <r>    8.0496    1.0000 </r>
       <r>   10.8595    0.0000 </r>
       <r>   10.9815    0.0000 </r>
       <r>   11.0053    0.0000 </r>
       <r>   11.0437    0.0000 </r>
       <r>   11.4357    0.0000 </r>
       <r>   11.6751    0.0000 </r>
       <r>   12.0675    0.0000 </r>
       <r>   12.2091    0.0000 </r>
       <r>   12.2470    0.0000 </r>
       <r>   12.2792    0.0000 </r>
       <r>   12.6197    0.0000 </r>
       <r>   12.8203    0.0000 </r>
       <r>   13.3091    0.0000 </r>
       <r>   13.3766    0.0000 </r>
       <r>   13.7801    0.0000 </r>
       <r>   14.0129    0.0000 </r>
       <r>   14.2370    0.0000 </r>
       <r>   14.4261    0.0000 </r>
       <r>   14.5206    0.0000 </r>
       <r>   14.8615    0.0000 </r>
      </set>
      <set comment="kpoint 7">
       <r>   -8.7509    1.0000 </r>
       <r>   -8.5716    1.0000 </r>
       <r>   -8.0335    1.0000 </r>
       <r>   -7.9319    1.0000 </r>
       <r>   -7.8272    1.0000 </r>
       <r>   -7.7325    1.0000 </r>
       <r>   -7.1805    1.0000 </r>
       <r>   -7.1332    1.0000 </r>
       <r>   -4.7758    1.0000 </r>
       <r>   -4.2216    1.0000 </r>
       <r>   -4.0186    1.0000 </r>
       <r>   -3.8644    1.0000 </r>
       <r>   -3.0703    1.0000 </r>
       <r>   -3.0111    1.0000 </r>
       <r>   -2.5461    1.0000 </r>
       <r>   -2.4996    1.0000 </r>
       <r>   -0.3864    1.0000 </r>
       <r>    0.0529    1.0000 </r>
       <r>    0.2216    1.0000 </r>
       <r>    0.4797    1.0000 </r>
       <r>    0.7424    1.0000 </r>
       <r>    1.0829    1.0000 </r>
       <r>    1.1012    1.0000 </r>
       <r>    1.3152    1.0000 </r>
       <r>    1.3355    1.0000 </r>
       <r>    1.5529    1.0000 </r>
       <r>    1.9051    1.0000 </r>
       <r>    2.0228    1.0000 </r>
       <r>    2.1778    1.0000 </r>
       <r>    2.4939    1.0000 </r>
       <r>    2.6126    1.0000 </r>
       <r>    2.7073    1.0000 </r>
       <r>    2.7230    1.0000 </r>
       <r>    2.8709    1.0000 </r>
       <r>    3.0616    1.0000 </r>
       <r>    3.3921    1.0000 </r>
       <r>    3.4843    1.0000 </r>
       <r>    3.5440    1.0000 </r>
       <r>    3.5488    1.0000 </r>
       <r>    3.9011    1.0000 </r>
       <r>    3.9516    1.0000 </r>
       <r>    4.1436    1.0000 </r>
       <r>    4.2149    1.0000 </r>
       <r>    4.3772    1.0000 </r>
       <r>    4.6621    1.0000 </r>
       <r>    4.7614    1.0000 </r>
       <r>    4.8033    1.0000 </r>
       <r>    5.0466    1.0000 </r>
       <r>    5.0754    1.0000 </r>
       <r>    5.2683    1.0000 </r>
       <r>    5.3338    1.0000 </r>
       <r>    5.5212    1.0000 </r>
       <r>    5.7743    1.0000 </r>
       <r>    5.9977    1.0000 </r>
       <r>    6.0948    1.0000 </r>
       <r>    6.1849    1.0000 </r>
       <r>    6.3923    1.0000 </r>
       <r>    6.4291    1.0000 </r>
       <r>    6.7186    1.0000 </r>
       <r>    6.7269    1.0000 </r>
       <r>    6.9208    1.0000 </r>
       <r>    7.1059    1.0000 </r>
       <r>    7.1543    1.0000 </r>
       <r>    7.2019    1.0000 </r>
       <r>   11.1711    0.0000 </r>
       <r>   11.2342    0.0000 </r>
       <r>   11.6531    0.0000 </r>
       <r>   11.7207    0.0000 </r>
       <r>   12.0338    0.0000 </r>
       <r>   12.4186    0.0000 </r>
       <r>   12.5534    0.0000 </r>
       <r>   12.7677    0.0000 </r>
       <r>   12.9022    0.0000 </r>
       <r>   13.1170    0.0000 </r>
       <r>   13.1641    0.0000 </r>
       <r>   13.2942    0.0000 </r>
       <r>   13.3208    0.0000 </r>
       <r>   13.3931    0.0000 </r>
       <r>   13.6524    0.0000 </r>
       <r>   13.8659    0.0000 </r>
       <r>   14.0224    0.0000 </r>
       <r>   14.1816    0.0000 </r>
       <r>   14.4056    0.0000 </r>
       <r>   14.5817    0.0000 </r>
      </set>
      <set comment="kpoint 8">
       <r>   -8.6728    1.0000 </r>
       <r>   -8.6607    1.0000 </r>
       <r>   -8.0056    1.0000 </r>
       <r>   -7.9973    1.0000 </r>
       <r>   -7.7691    1.0000 </r>
       <r>   -7.7451    1.0000 </r>
       <r>   -7.1606    1.0000 </r>
       <r>   -7.1470    1.0000 </r>
       <r>   -4.5613    1.0000 </r>
       <r>   -4.5053    1.0000 </r>
       <r>   -3.9479    1.0000 </r>
       <r>   -3.9392    1.0000 </r>
       <r>   -3.0552    1.0000 </r>
       <r>   -2.9590    1.0000 </r>
       <r>   -2.5569    1.0000 </r>
       <r>   -2.5019    1.0000 </r>
       <r>   -0.2106    1.0000 </r>
       <r>   -0.0908    1.0000 </r>
       <r>    0.3634    1.0000 </r>
       <r>    0.4485    1.0000 </r>
       <r>    0.7187    1.0000 </r>
       <r>    0.7494    1.0000 </r>
       <r>    1.2057    1.0000 </r>
       <r>    1.2066    1.0000 </r>
       <r>    1.6299    1.0000 </r>
       <r>    1.6375    1.0000 </r>
       <r>    2.0016    1.0000 </r>
       <r>    2.0518    1.0000 </r>
       <r>    2.2059    1.0000 </r>
       <r>    2.2963    1.0000 </r>
       <r>    2.4141    1.0000 </r>
       <r>    2.6450    1.0000 </r>
       <r>    2.9168    1.0000 </r>
       <r>    3.0114    1.0000 </r>
       <r>    3.1229    1.0000 </r>
       <r>    3.2303    1.0000 </r>
       <r>    3.3053    1.0000 </r>
       <r>    3.3209    1.0000 </r>
       <r>    3.7628    1.0000 </r>
       <r>    3.8348    1.0000 </r>
       <r>    4.0573    1.0000 </r>
       <r>    4.1221    1.0000 </r>
       <r>    4.2418    1.0000 </r>
       <r>    4.3829    1.0000 </r>
       <r>    4.6425    1.0000 </r>
       <r>    4.6938    1.0000 </r>
       <r>    4.8061    1.0000 </r>
       <r>    4.9063    1.0000 </r>
       <r>    5.2302    1.0000 </r>
       <r>    5.2924    1.0000 </r>
       <r>    5.4484    1.0000 </r>
       <r>    5.4998    1.0000 </r>
       <r>    5.6688    1.0000 </r>
       <r>    5.8165    1.0000 </r>
       <r>    6.2054    1.0000 </r>
       <r>    6.3423    1.0000 </r>
       <r>    6.3780    1.0000 </r>
       <r>    6.4308    1.0000 </r>
       <r>    6.7572    1.0000 </r>
       <r>    6.8108    1.0000 </r>
       <r>    6.9296    1.0000 </r>
       <r>    6.9341    1.0000 </r>
       <r>    7.2571    1.0000 </r>
       <r>    7.3215    1.0000 </r>
       <r>   11.3678    0.0000 </r>
       <r>   11.3796    0.0000 </r>
       <r>   11.7403    0.0000 </r>
       <r>   11.7453    0.0000 </r>
       <r>   11.8892    0.0000 </r>
       <r>   11.9571    0.0000 </r>
       <r>   12.3251    0.0000 </r>
       <r>   12.4819    0.0000 </r>
       <r>   12.6793    0.0000 </r>
       <r>   12.7847    0.0000 </r>
       <r>   13.0320    0.0000 </r>
       <r>   13.1891    0.0000 </r>
       <r>   13.6074    0.0000 </r>
       <r>   13.6989    0.0000 </r>
       <r>   13.8383    0.0000 </r>
       <r>   13.9328    0.0000 </r>
       <r>   14.1484    0.0000 </r>
       <r>   14.2396    0.0000 </r>
       <r>   14.5163    0.0000 </r>
       <r>   14.7200    0.0000 </r>
      </set>
      <set comment="kpoint 9">
       <r>   -8.6544    1.0000 </r>
       <r>   -8.4894    1.0000 </r>
       <r>   -8.1357    1.0000 </r>
       <r>   -8.0847    1.0000 </r>
       <r>   -7.5754    1.0000 </r>
       <r>   -7.5285    1.0000 </r>
       <r>   -7.1291    1.0000 </r>
       <r>   -7.1237    1.0000 </r>
       <r>   -5.2761    1.0000 </r>
       <r>   -4.6047    1.0000 </r>
       <r>   -3.9173    1.0000 </r>
       <r>   -3.4817    1.0000 </r>
       <r>   -3.2655    1.0000 </r>
       <r>   -3.0102    1.0000 </r>
       <r>   -2.4603    1.0000 </r>
       <r>   -2.3724    1.0000 </r>
       <r>   -0.8940    1.0000 </r>
       <r>   -0.7738    1.0000 </r>
       <r>   -0.2874    1.0000 </r>
       <r>   -0.0614    1.0000 </r>
       <r>    0.4107    1.0000 </r>
       <r>    0.6772    1.0000 </r>
       <r>    0.8729    1.0000 </r>
       <r>    1.0786    1.0000 </r>
       <r>    1.2023    1.0000 </r>
       <r>    1.8878    1.0000 </r>
       <r>    2.0346    1.0000 </r>
       <r>    2.1377    1.0000 </r>
       <r>    2.2380    1.0000 </r>
       <r>    2.4923    1.0000 </r>
       <r>    2.6956    1.0000 </r>
       <r>    3.1491    1.0000 </r>
       <r>    3.1903    1.0000 </r>
       <r>    3.2821    1.0000 </r>
       <r>    3.3659    1.0000 </r>
       <r>    3.4417    1.0000 </r>
       <r>    3.7965    1.0000 </r>
       <r>    3.9522    1.0000 </r>
       <r>    4.1928    1.0000 </r>
       <r>    4.3487    1.0000 </r>
       <r>    4.4096    1.0000 </r>
       <r>    4.5570    1.0000 </r>
       <r>    4.5864    1.0000 </r>
       <r>    4.6905    1.0000 </r>
       <r>    4.7692    1.0000 </r>
       <r>    4.7703    1.0000 </r>
       <r>    4.8451    1.0000 </r>
       <r>    5.0079    1.0000 </r>
       <r>    5.4877    1.0000 </r>
       <r>    5.4899    1.0000 </r>
       <r>    5.6679    1.0000 </r>
       <r>    5.6888    1.0000 </r>
       <r>    5.7320    1.0000 </r>
       <r>    5.8935    1.0000 </r>
       <r>    5.9476    1.0000 </r>
       <r>    6.2075    1.0000 </r>
       <r>    6.2466    1.0000 </r>
       <r>    6.3207    1.0000 </r>
       <r>    6.7052    1.0000 </r>
       <r>    6.9440    1.0000 </r>
       <r>    7.0387    1.0000 </r>
       <r>    7.3575    1.0000 </r>
       <r>    7.8597    1.0000 </r>
       <r>    8.0200    1.0000 </r>
       <r>   10.2906    0.0000 </r>
       <r>   10.6694    0.0000 </r>
       <r>   11.0296    0.0000 </r>
       <r>   11.0603    0.0000 </r>
       <r>   11.5794    0.0000 </r>
       <r>   11.6696    0.0000 </r>
       <r>   11.7033    0.0000 </r>
       <r>   12.1654    0.0000 </r>
       <r>   12.2427    0.0000 </r>
       <r>   12.4944    0.0000 </r>
       <r>   12.5960    0.0000 </r>
       <r>   12.8054    0.0000 </r>
       <r>   12.9420    0.0000 </r>
       <r>   13.1972    0.0000 </r>
       <r>   13.4433    0.0000 </r>
       <r>   13.6867    0.0000 </r>
       <r>   13.7325    0.0000 </r>
       <r>   13.8993    0.0000 </r>
       <r>   14.4967    0.0000 </r>
       <r>   14.7478    0.0000 </r>
      </set>
      <set comment="kpoint 10">
       <r>   -8.5775    1.0000 </r>
       <r>   -8.5775    1.0000 </r>
       <r>   -8.1082    1.0000 </r>
       <r>   -8.1082    1.0000 </r>
       <r>   -7.5524    1.0000 </r>
       <r>   -7.5524    1.0000 </r>
       <r>   -7.1261    1.0000 </r>
       <r>   -7.1261    1.0000 </r>
       <r>   -4.9703    1.0000 </r>
       <r>   -4.9703    1.0000 </r>
       <r>   -3.7050    1.0000 </r>
       <r>   -3.7050    1.0000 </r>
       <r>   -3.1494    1.0000 </r>
       <r>   -3.1494    1.0000 </r>
       <r>   -2.4044    1.0000 </r>
       <r>   -2.4044    1.0000 </r>
       <r>   -0.6307    1.0000 </r>
       <r>   -0.6307    1.0000 </r>
       <r>   -0.1760    1.0000 </r>
       <r>   -0.1760    1.0000 </r>
       <r>    0.4096    1.0000 </r>
       <r>    0.4096    1.0000 </r>
       <r>    0.9266    1.0000 </r>
       <r>    0.9266    1.0000 </r>
       <r>    1.5125    1.0000 </r>
       <r>    1.5125    1.0000 </r>
       <r>    1.6562    1.0000 </r>
       <r>    1.6562    1.0000 </r>
       <r>    2.6844    1.0000 </r>
       <r>    2.6844    1.0000 </r>
       <r>    2.8585    1.0000 </r>
       <r>    2.8585    1.0000 </r>
       <r>    3.3012    1.0000 </r>
       <r>    3.3012    1.0000 </r>
       <r>    3.7401    1.0000 </r>
       <r>    3.7401    1.0000 </r>
       <r>    4.0825    1.0000 </r>
       <r>    4.0825    1.0000 </r>
       <r>    4.2658    1.0000 </r>
       <r>    4.2658    1.0000 </r>
       <r>    4.4053    1.0000 </r>
       <r>    4.4053    1.0000 </r>
       <r>    4.5406    1.0000 </r>
       <r>    4.5406    1.0000 </r>
       <r>    4.7519    1.0000 </r>
       <r>    4.7519    1.0000 </r>
       <r>    5.0295    1.0000 </r>
       <r>    5.0295    1.0000 </r>
       <r>    5.1938    1.0000 </r>
       <r>    5.1938    1.0000 </r>
       <r>    5.7809    1.0000 </r>
       <r>    5.7809    1.0000 </r>
       <r>    5.8853    1.0000 </r>
       <r>    5.8853    1.0000 </r>
       <r>    5.9702    1.0000 </r>
       <r>    5.9702    1.0000 </r>
       <r>    6.0946    1.0000 </r>
       <r>    6.0946    1.0000 </r>
       <r>    6.9311    1.0000 </r>
       <r>    6.9311    1.0000 </r>
       <r>    7.0595    1.0000 </r>
       <r>    7.0595    1.0000 </r>
       <r>    7.9445    1.0000 </r>
       <r>    7.9445    1.0000 </r>
       <r>   11.0924    0.0000 </r>
       <r>   11.0924    0.0000 </r>
       <r>   11.1396    0.0000 </r>
       <r>   11.1396    0.0000 </r>
       <r>   11.4334    0.0000 </r>
       <r>   11.4334    0.0000 </r>
       <r>   11.5357    0.0000 </r>
       <r>   11.5357    0.0000 </r>
       <r>   12.1811    0.0000 </r>
       <r>   12.1811    0.0000 </r>
       <r>   12.7307    0.0000 </r>
       <r>   12.7309    0.0000 </r>
       <r>   13.3326    0.0000 </r>
       <r>   13.3360    0.0000 </r>
       <r>   13.8308    0.0000 </r>
       <r>   13.8979    0.0000 </r>
       <r>   14.2213    0.0000 </r>
       <r>   14.3322    0.0000 </r>
       <r>   14.4347    0.0000 </r>
       <r>   14.6399    0.0000 </r>
      </set>
      <set comment="kpoint 11">
       <r>   -8.4749    1.0000 </r>
       <r>   -8.3536    1.0000 </r>
       <r>   -7.9900    1.0000 </r>
       <r>   -7.9557    1.0000 </r>
       <r>   -7.8193    1.0000 </r>
       <r>   -7.7538    1.0000 </r>
       <r>   -7.3382    1.0000 </r>
       <r>   -7.3253    1.0000 </r>
       <r>   -4.9548    1.0000 </r>
       <r>   -4.4033    1.0000 </r>
       <r>   -4.0242    1.0000 </r>
       <r>   -3.8697    1.0000 </r>
       <r>   -3.3716    1.0000 </r>
       <r>   -3.0295    1.0000 </r>
       <r>   -2.8044    1.0000 </r>
       <r>   -2.6506    1.0000 </r>
       <r>   -0.4347    1.0000 </r>
       <r>   -0.1024    1.0000 </r>
       <r>    0.1794    1.0000 </r>
       <r>    0.3470    1.0000 </r>
       <r>    0.8203    1.0000 </r>
       <r>    0.9210    1.0000 </r>
       <r>    1.3325    1.0000 </r>
       <r>    1.4676    1.0000 </r>
       <r>    1.5848    1.0000 </r>
       <r>    1.8076    1.0000 </r>
       <r>    1.9100    1.0000 </r>
       <r>    2.0274    1.0000 </r>
       <r>    2.3293    1.0000 </r>
       <r>    2.3808    1.0000 </r>
       <r>    2.6091    1.0000 </r>
       <r>    2.8615    1.0000 </r>
       <r>    2.9575    1.0000 </r>
       <r>    2.9932    1.0000 </r>
       <r>    3.2589    1.0000 </r>
       <r>    3.4096    1.0000 </r>
       <r>    3.5222    1.0000 </r>
       <r>    3.7311    1.0000 </r>
       <r>    3.8751    1.0000 </r>
       <r>    4.0706    1.0000 </r>
       <r>    4.1426    1.0000 </r>
       <r>    4.1745    1.0000 </r>
       <r>    4.2759    1.0000 </r>
       <r>    4.5768    1.0000 </r>
       <r>    4.7201    1.0000 </r>
       <r>    4.8938    1.0000 </r>
       <r>    4.9073    1.0000 </r>
       <r>    4.9962    1.0000 </r>
       <r>    5.1746    1.0000 </r>
       <r>    5.4341    1.0000 </r>
       <r>    5.5826    1.0000 </r>
       <r>    5.6805    1.0000 </r>
       <r>    5.7870    1.0000 </r>
       <r>    5.8114    1.0000 </r>
       <r>    5.9457    1.0000 </r>
       <r>    6.0237    1.0000 </r>
       <r>    6.0368    1.0000 </r>
       <r>    6.1646    1.0000 </r>
       <r>    6.7348    1.0000 </r>
       <r>    6.8714    1.0000 </r>
       <r>    6.9083    1.0000 </r>
       <r>    7.0371    1.0000 </r>
       <r>    7.0376    1.0000 </r>
       <r>    7.1979    1.0000 </r>
       <r>   11.1512    0.0000 </r>
       <r>   11.5523    0.0000 </r>
       <r>   11.7086    0.0000 </r>
       <r>   11.8281    0.0000 </r>
       <r>   12.2124    0.0000 </r>
       <r>   12.3653    0.0000 </r>
       <r>   12.4400    0.0000 </r>
       <r>   12.6346    0.0000 </r>
       <r>   12.6389    0.0000 </r>
       <r>   12.7084    0.0000 </r>
       <r>   12.8992    0.0000 </r>
       <r>   13.1048    0.0000 </r>
       <r>   13.4795    0.0000 </r>
       <r>   13.5869    0.0000 </r>
       <r>   13.7115    0.0000 </r>
       <r>   13.7962    0.0000 </r>
       <r>   13.8059    0.0000 </r>
       <r>   14.0050    0.0000 </r>
       <r>   14.2775    0.0000 </r>
       <r>   14.3536    0.0000 </r>
      </set>
      <set comment="kpoint 12">
       <r>   -8.4160    1.0000 </r>
       <r>   -8.4160    1.0000 </r>
       <r>   -7.9718    1.0000 </r>
       <r>   -7.9718    1.0000 </r>
       <r>   -7.7902    1.0000 </r>
       <r>   -7.7902    1.0000 </r>
       <r>   -7.3309    1.0000 </r>
       <r>   -7.3309    1.0000 </r>
       <r>   -4.6960    1.0000 </r>
       <r>   -4.6960    1.0000 </r>
       <r>   -3.9296    1.0000 </r>
       <r>   -3.9296    1.0000 </r>
       <r>   -3.2408    1.0000 </r>
       <r>   -3.2408    1.0000 </r>
       <r>   -2.7110    1.0000 </r>
       <r>   -2.7110    1.0000 </r>
       <r>   -0.2179    1.0000 </r>
       <r>   -0.2179    1.0000 </r>
       <r>    0.4093    1.0000 </r>
       <r>    0.4093    1.0000 </r>
       <r>    0.6387    1.0000 </r>
       <r>    0.6387    1.0000 </r>
       <r>    1.3709    1.0000 </r>
       <r>    1.3709    1.0000 </r>
       <r>    1.7885    1.0000 </r>
       <r>    1.7885    1.0000 </r>
       <r>    2.0488    1.0000 </r>
       <r>    2.0488    1.0000 </r>
       <r>    2.3790    1.0000 </r>
       <r>    2.3790    1.0000 </r>
       <r>    2.6828    1.0000 </r>
       <r>    2.6828    1.0000 </r>
       <r>    2.9639    1.0000 </r>
       <r>    2.9639    1.0000 </r>
       <r>    3.3571    1.0000 </r>
       <r>    3.3571    1.0000 </r>
       <r>    3.6880    1.0000 </r>
       <r>    3.6880    1.0000 </r>
       <r>    3.8229    1.0000 </r>
       <r>    3.8229    1.0000 </r>
       <r>    4.0276    1.0000 </r>
       <r>    4.0276    1.0000 </r>
       <r>    4.3936    1.0000 </r>
       <r>    4.3936    1.0000 </r>
       <r>    4.7194    1.0000 </r>
       <r>    4.7194    1.0000 </r>
       <r>    5.0271    1.0000 </r>
       <r>    5.0271    1.0000 </r>
       <r>    5.4270    1.0000 </r>
       <r>    5.4270    1.0000 </r>
       <r>    5.6217    1.0000 </r>
       <r>    5.6217    1.0000 </r>
       <r>    5.8500    1.0000 </r>
       <r>    5.8500    1.0000 </r>
       <r>    6.0309    1.0000 </r>
       <r>    6.0309    1.0000 </r>
       <r>    6.0792    1.0000 </r>
       <r>    6.0792    1.0000 </r>
       <r>    6.7053    1.0000 </r>
       <r>    6.7053    1.0000 </r>
       <r>    7.0164    1.0000 </r>
       <r>    7.0164    1.0000 </r>
       <r>    7.2639    1.0000 </r>
       <r>    7.2639    1.0000 </r>
       <r>   11.4472    0.0000 </r>
       <r>   11.4472    0.0000 </r>
       <r>   11.9183    0.0000 </r>
       <r>   11.9184    0.0000 </r>
       <r>   12.0359    0.0000 </r>
       <r>   12.0360    0.0000 </r>
       <r>   12.1999    0.0000 </r>
       <r>   12.1999    0.0000 </r>
       <r>   12.7048    0.0000 </r>
       <r>   12.7048    0.0000 </r>
       <r>   12.9912    0.0000 </r>
       <r>   12.9913    0.0000 </r>
       <r>   13.1920    0.0000 </r>
       <r>   13.1966    0.0000 </r>
       <r>   13.7243    0.0000 </r>
       <r>   13.7299    0.0000 </r>
       <r>   14.1579    0.0000 </r>
       <r>   14.1924    0.0000 </r>
       <r>   14.2350    0.0000 </r>
       <r>   14.4882    0.0000 </r>
      </set>
     </set>
    </set>
   </array>
  </eigenvalues>
  <separator name="orbital magnetization" >
   <v name="MAGDIPOLOUT">      0.00000000      0.00000000      0.00000000</v>
  </separator>
  <dos>
   <i name="efermi">      8.64968807 </i>
   <total>
    <array>
     <dimension dim="1">gridpoints</dimension>
     <dimension dim="2">spin</dimension>
     <field>energy</field>
     <field>total</field>
     <field>integrated</field>
     <set>
      <set comment="spin 1">
       <r>   -10.3437     0.0000     0.0000 </r>
       <r>   -10.2545     0.0000     0.0000 </r>
       <r>   -10.1654     0.0000     0.0000 </r>
       <r>   -10.0762     0.0000     0.0000 </r>
       <r>    -9.9870     0.0000     0.0000 </r>
       <r>    -9.8979     0.0000     0.0000 </r>
       <r>    -9.8087     0.0000     0.0000 </r>
       <r>    -9.7195     0.0000     0.0000 </r>
       <r>    -9.6304     0.0000     0.0000 </r>
       <r>    -9.5412     0.0000     0.0000 </r>
       <r>    -9.4520     0.0000     0.0000 </r>
       <r>    -9.3629     0.0004     0.0000 </r>
       <r>    -9.2737     0.0180     0.0016 </r>
       <r>    -9.1845     0.1926     0.0188 </r>
       <r>    -9.0954     0.6847     0.0799 </r>
       <r>    -9.0062     1.6558     0.2275 </r>
       <r>    -8.9171     3.4553     0.5356 </r>
       <r>    -8.8279     5.6823     1.0423 </r>
       <r>    -8.7387     7.3010     1.6932 </r>
       <r>    -8.6496     8.1811     2.4227 </r>
       <r>    -8.5604     6.6676     3.0172 </r>
       <r>    -8.4712     4.6047     3.4278 </r>
       <r>    -8.3821     3.7568     3.7628 </r>
       <r>    -8.2929     2.2714     3.9653 </r>
       <r>    -8.2037     1.9528     4.1394 </r>
       <r>    -8.1146     5.3494     4.6164 </r>
       <r>    -8.0254    10.5127     5.5537 </r>
       <r>    -7.9362    14.1257     6.8133 </r>
       <r>    -7.8471    14.1861     8.0781 </r>
       <r>    -7.7579    17.2053     9.6122 </r>
       <r>    -7.6688    14.9994    10.9497 </r>
       <r>    -7.5796     7.6705    11.6336 </r>
       <r>    -7.4904     3.2980    11.9276 </r>
       <r>    -7.4013     1.9515    12.1017 </r>
       <r>    -7.3121     3.6501    12.4271 </r>
       <r>    -7.2229     5.2643    12.8965 </r>
       <r>    -7.1338     9.3911    13.7339 </r>
       <r>    -7.0446    10.2353    14.6465 </r>
       <r>    -6.9554     7.6496    15.3286 </r>
       <r>    -6.8663     4.9203    15.7673 </r>
       <r>    -6.7771     2.1042    15.9549 </r>
       <r>    -6.6879     0.4693    15.9967 </r>
       <r>    -6.5988     0.0360    15.9999 </r>
       <r>    -6.5096     0.0007    16.0000 </r>
       <r>    -6.4205     0.0000    16.0000 </r>
       <r>    -6.3313     0.0000    16.0000 </r>
       <r>    -6.2421     0.0000    16.0000 </r>
       <r>    -6.1530     0.0000    16.0000 </r>
       <r>    -6.0638     0.0000    16.0000 </r>
       <r>    -5.9746     0.0000    16.0000 </r>
       <r>    -5.8855     0.0000    16.0000 </r>
       <r>    -5.7963     0.0000    16.0000 </r>
       <r>    -5.7071     0.0000    16.0000 </r>
       <r>    -5.6180     0.0000    16.0000 </r>
       <r>    -5.5288     0.0002    16.0000 </r>
       <r>    -5.4396     0.0095    16.0009 </r>
       <r>    -5.3505     0.1272    16.0122 </r>
       <r>    -5.2613     0.4114    16.0489 </r>
       <r>    -5.1722     0.4210    16.0864 </r>
       <r>    -5.0830     0.7917    16.1570 </r>
       <r>    -4.9938     1.9397    16.3300 </r>
       <r>    -4.9047     2.4064    16.5445 </r>
       <r>    -4.8155     3.1164    16.8224 </r>
       <r>    -4.7263     5.0500    17.2727 </r>
       <r>    -4.6372     4.7012    17.6919 </r>
       <r>    -4.5480     5.2929    18.1638 </r>
       <r>    -4.4588     5.6339    18.6662 </r>
       <r>    -4.3697     4.2867    19.0484 </r>
       <r>    -4.2805     3.7597    19.3836 </r>
       <r>    -4.1914     2.9262    19.6445 </r>
       <r>    -4.1022     2.9446    19.9071 </r>
       <r>    -4.0130     7.3823    20.5653 </r>
       <r>    -3.9239    13.8111    21.7968 </r>
       <r>    -3.8347    12.1336    22.8787 </r>
       <r>    -3.7455     5.9768    23.4116 </r>
       <r>    -3.6564     3.3622    23.7114 </r>
       <r>    -3.5672     1.8182    23.8735 </r>
       <r>    -3.4780     1.0359    23.9658 </r>
       <r>    -3.3889     1.1950    24.0724 </r>
       <r>    -3.2997     2.4109    24.2874 </r>
       <r>    -3.2105     4.9628    24.7299 </r>
       <r>    -3.1214     7.1705    25.3692 </r>
       <r>    -3.0322     9.1897    26.1886 </r>
       <r>    -2.9431     8.2912    26.9279 </r>
       <r>    -2.8539     5.3476    27.4047 </r>
       <r>    -2.7647     4.5263    27.8083 </r>
       <r>    -2.6756     5.8795    28.3325 </r>
       <r>    -2.5864     6.2386    28.8888 </r>
       <r>    -2.4972     7.6898    29.5744 </r>
       <r>    -2.4081     6.3629    30.1418 </r>
       <r>    -2.3189     5.0447    30.5916 </r>
       <r>    -2.2297     4.9524    31.0332 </r>
       <r>    -2.1406     3.1572    31.3147 </r>
       <r>    -2.0514     2.7612    31.5609 </r>
       <r>    -1.9622     2.5316    31.7866 </r>
       <r>    -1.8731     1.2532    31.8984 </r>
       <r>    -1.7839     0.4080    31.9347 </r>
       <r>    -1.6948     0.4487    31.9747 </r>
       <r>    -1.6056     0.2480    31.9968 </r>
       <r>    -1.5164     0.0342    31.9999 </r>
       <r>    -1.4273     0.0011    32.0000 </r>
       <r>    -1.3381     0.0000    32.0000 </r>
       <r>    -1.2489     0.0000    32.0000 </r>
       <r>    -1.1598     0.0001    32.0000 </r>
       <r>    -1.0706     0.0058    32.0005 </r>
       <r>    -0.9814     0.0969    32.0092 </r>
       <r>    -0.8923     0.4216    32.0468 </r>
       <r>    -0.8031     0.7560    32.1142 </r>
       <r>    -0.7139     1.5275    32.2504 </r>
       <r>    -0.6248     2.9502    32.5134 </r>
       <r>    -0.5356     3.2761    32.8055 </r>
       <r>    -0.4465     4.4337    33.2009 </r>
       <r>    -0.3573     7.1790    33.8410 </r>
       <r>    -0.2681     7.9393    34.5489 </r>
       <r>    -0.1790     9.2634    35.3748 </r>
       <r>    -0.0898     7.8631    36.0759 </r>
       <r>    -0.0006     5.4962    36.5660 </r>
       <r>     0.0885     4.6402    36.9797 </r>
       <r>     0.1777     3.9803    37.3346 </r>
       <r>     0.2669     4.8321    37.7655 </r>
       <r>     0.3560     8.4981    38.5232 </r>
       <r>     0.4452    13.8761    39.7605 </r>
       <r>     0.5344    11.1514    40.7548 </r>
       <r>     0.6235     6.5790    41.3414 </r>
       <r>     0.7127     8.8507    42.1305 </r>
       <r>     0.8018     9.3998    42.9687 </r>
       <r>     0.8910     6.6534    43.5619 </r>
       <r>     0.9802     6.3121    44.1247 </r>
       <r>     1.0693     7.6397    44.8059 </r>
       <r>     1.1585     9.9493    45.6930 </r>
       <r>     1.2477    10.6795    46.6453 </r>
       <r>     1.3368    10.5322    47.5844 </r>
       <r>     1.4260     8.5595    48.3476 </r>
       <r>     1.5152     8.7974    49.1320 </r>
       <r>     1.6043    14.8351    50.4547 </r>
       <r>     1.6935    13.5396    51.6620 </r>
       <r>     1.7827     9.0338    52.4675 </r>
       <r>     1.8718    10.7591    53.4268 </r>
       <r>     1.9610    13.5362    54.6337 </r>
       <r>     2.0501    14.1340    55.8940 </r>
       <r>     2.1393    12.0432    56.9678 </r>
       <r>     2.2285     9.9565    57.8556 </r>
       <r>     2.3176    10.5548    58.7967 </r>
       <r>     2.4068    11.4828    59.8205 </r>
       <r>     2.4960    10.4655    60.7537 </r>
       <r>     2.5851    10.1427    61.6580 </r>
       <r>     2.6743    13.1510    62.8306 </r>
       <r>     2.7635    13.0996    63.9987 </r>
       <r>     2.8526     9.6370    64.8579 </r>
       <r>     2.9418    10.8469    65.8251 </r>
       <r>     3.0309    12.9255    66.9776 </r>
       <r>     3.1201    12.3840    68.0818 </r>
       <r>     3.2093    11.6411    69.1197 </r>
       <r>     3.2984    14.0884    70.3759 </r>
       <r>     3.3876    16.4778    71.8452 </r>
       <r>     3.4768    14.8594    73.1701 </r>
       <r>     3.5659    12.9176    74.3219 </r>
       <r>     3.6551    10.6283    75.2695 </r>
       <r>     3.7443    11.1888    76.2672 </r>
       <r>     3.8334    12.7471    77.4038 </r>
       <r>     3.9226    13.7094    78.6261 </r>
       <r>     4.0118    15.1340    79.9756 </r>
       <r>     4.1009    15.8863    81.3920 </r>
       <r>     4.1901    15.9632    82.8154 </r>
       <r>     4.2792    15.9542    84.2379 </r>
       <r>     4.3684    15.2338    85.5963 </r>
       <r>     4.4576    14.7155    86.9083 </r>
       <r>     4.5467    11.1369    87.9014 </r>
       <r>     4.6359    12.0287    88.9739 </r>
       <r>     4.7251    16.1349    90.4125 </r>
       <r>     4.8142    17.2021    91.9463 </r>
       <r>     4.9034    15.6042    93.3377 </r>
       <r>     4.9926    16.0846    94.7719 </r>
       <r>     5.0817    15.2770    96.1340 </r>
       <r>     5.1709    12.2409    97.2255 </r>
       <r>     5.2601    12.3808    98.3294 </r>
       <r>     5.3492    13.2863    99.5141 </r>
       <r>     5.4384    13.6369   100.7300 </r>
       <r>     5.5275    14.5801   102.0300 </r>
       <r>     5.6167    13.3733   103.2224 </r>
       <r>     5.7059    11.9818   104.2908 </r>
       <r>     5.7950    12.0532   105.3655 </r>
       <r>     5.8842    13.5343   106.5723 </r>
       <r>     5.9734    13.8937   107.8111 </r>
       <r>     6.0625    16.0672   109.2437 </r>
       <r>     6.1517    16.0604   110.6757 </r>
       <r>     6.2409    14.2913   111.9500 </r>
       <r>     6.3300    14.1074   113.2079 </r>
       <r>     6.4192    16.0316   114.6373 </r>
       <r>     6.5084    10.5773   115.5804 </r>
       <r>     6.5975     4.8354   116.0116 </r>
       <r>     6.6867     9.3468   116.8450 </r>
       <r>     6.7758    15.1674   118.1973 </r>
       <r>     6.8650    14.6778   119.5061 </r>
       <r>     6.9542    16.1836   120.9491 </r>
       <r>     7.0433    16.4167   122.4129 </r>
       <r>     7.1325    14.3377   123.6913 </r>
       <r>     7.2217    12.5865   124.8135 </r>
       <r>     7.3108    10.7006   125.7676 </r>
       <r>     7.4000     6.9850   126.3905 </r>
       <r>     7.4892     2.6159   126.6237 </r>
       <r>     7.5783     0.4531   126.6641 </r>
       <r>     7.6675     0.0314   126.6669 </r>
       <r>     7.7567     0.0736   126.6735 </r>
       <r>     7.8458     0.5229   126.7201 </r>
       <r>     7.9350     1.7920   126.8799 </r>
       <r>     8.0241     3.8565   127.2237 </r>
       <r>     8.1133     4.6870   127.6416 </r>
       <r>     8.2025     3.0292   127.9117 </r>
       <r>     8.2916     0.8983   127.9918 </r>
       <r>     8.3808     0.0892   127.9998 </r>
       <r>     8.4700     0.0024   128.0000 </r>
       <r>     8.5591     0.0000   128.0000 </r>
       <r>     8.6483     0.0000   128.0000 </r>
       <r>     8.7375     0.0000   128.0000 </r>
       <r>     8.8266     0.0000   128.0000 </r>
       <r>     8.9158     0.0000   128.0000 </r>
       <r>     9.0050     0.0000   128.0000 </r>
       <r>     9.0941     0.0000   128.0000 </r>
       <r>     9.1833     0.0000   128.0000 </r>
       <r>     9.2724     0.0000   128.0000 </r>
       <r>     9.3616     0.0000   128.0000 </r>
       <r>     9.4508     0.0000   128.0000 </r>
       <r>     9.5399     0.0000   128.0000 </r>
       <r>     9.6291     0.0000   128.0000 </r>
       <r>     9.7183     0.0000   128.0000 </r>
       <r>     9.8074     0.0000   128.0000 </r>
       <r>     9.8966     0.0000   128.0000 </r>
       <r>     9.9858     0.0000   128.0000 </r>
       <r>    10.0749     0.0020   128.0002 </r>
       <r>    10.1641     0.0736   128.0067 </r>
       <r>    10.2533     0.6822   128.0676 </r>
       <r>    10.3424     1.6922   128.2185 </r>
       <r>    10.4316     1.4733   128.3498 </r>
       <r>    10.5207     1.0991   128.4478 </r>
       <r>    10.6099     0.7976   128.5189 </r>
       <r>    10.6991     1.2374   128.6293 </r>
       <r>    10.7882     1.8792   128.7968 </r>
       <r>    10.8774     2.1692   128.9902 </r>
       <r>    10.9666     3.9639   129.3437 </r>
       <r>    11.0557     5.8728   129.8673 </r>
       <r>    11.1449     6.6915   130.4640 </r>
       <r>    11.2341     7.9376   131.1717 </r>
       <r>    11.3232     7.6928   131.8576 </r>
       <r>    11.4124     9.3898   132.6949 </r>
       <r>    11.5015    10.5342   133.6341 </r>
       <r>    11.5907     9.4033   134.4726 </r>
       <r>    11.6799    12.0131   135.5437 </r>
       <r>    11.7690    13.3376   136.7330 </r>
       <r>    11.8582     9.7523   137.6025 </r>
       <r>    11.9474     9.3555   138.4367 </r>
       <r>    12.0365     8.9770   139.2371 </r>
       <r>    12.1257     8.0494   139.9548 </r>
       <r>    12.2149    10.7043   140.9093 </r>
       <r>    12.3040    11.4895   141.9337 </r>
       <r>    12.3932    10.2587   142.8484 </r>
       <r>    12.4824    10.7922   143.8107 </r>
       <r>    12.5715     8.8833   144.6028 </r>
       <r>    12.6607     8.8978   145.3962 </r>
       <r>    12.7498    11.6456   146.4345 </r>
       <r>    12.8390    11.5125   147.4610 </r>
       <r>    12.9282    11.2835   148.4671 </r>
       <r>    13.0173    12.2075   149.5556 </r>
       <r>    13.1065    11.2352   150.5574 </r>
       <r>    13.1957    12.0105   151.6283 </r>
       <r>    13.2848    12.0347   152.7013 </r>
       <r>    13.3740    10.5237   153.6397 </r>
       <r>    13.4632     7.8740   154.3418 </r>
       <r>    13.5523     6.4652   154.9182 </r>
       <r>    13.6415     8.3043   155.6587 </r>
       <r>    13.7307    11.4224   156.6771 </r>
       <r>    13.8198    14.3075   157.9528 </r>
       <r>    13.9090    14.3389   159.2314 </r>
       <r>    13.9981    11.3444   160.2429 </r>
       <r>    14.0873     8.9789   161.0435 </r>
       <r>    14.1765     9.5126   161.8917 </r>
       <r>    14.2656    11.0294   162.8751 </r>
       <r>    14.3548     9.6964   163.7396 </r>
       <r>    14.4440     9.6725   164.6021 </r>
       <r>    14.5331    10.1443   165.5066 </r>
       <r>    14.6223     8.6789   166.2805 </r>
       <r>    14.7115     6.2633   166.8389 </r>
       <r>    14.8006     4.7336   167.2610 </r>
       <r>    14.8898     3.6145   167.5833 </r>
       <r>    14.9790     2.3011   167.7884 </r>
       <r>    15.0681     0.8567   167.8648 </r>
       <r>    15.1573     0.7185   167.9289 </r>
       <r>    15.2464     0.5869   167.9812 </r>
       <r>    15.3356     0.1921   167.9983 </r>
       <r>    15.4248     0.0181   168.0000 </r>
       <r>    15.5139     0.0004   168.0000 </r>
       <r>    15.6031     0.0000   168.0000 </r>
       <r>    15.6923     0.0000   168.0000 </r>
       <r>    15.7814     0.0000   168.0000 </r>
       <r>    15.8706     0.0000   168.0000 </r>
       <r>    15.9598     0.0000   168.0000 </r>
       <r>    16.0489     0.0000   168.0000 </r>
       <r>    16.1381     0.0000   168.0000 </r>
       <r>    16.2273     0.0000   168.0000 </r>
       <r>    16.3164     0.0000   168.0000 </r>
       <r>    16.4056     0.0000   168.0000 </r>
      </set>
     </set>
    </array>
   </total>
  </dos>
 </calculation>
 <structure name="finalpos" >
  <crystal>
   <varray name="basis" >
    <v>      10.73573411       0.00000000      -0.03401958 </v>
    <v>       0.00000000       6.27109361       0.00000000 </v>
    <v>      -0.01604258       0.00000000       5.05437710 </v>
   </varray>
   <i name="volume">    340.28147265 </i>
   <varray name="rec_basis" >
    <v>       0.09314780       0.00000000       0.00029565 </v>
    <v>       0.00000000       0.15946182       0.00000000 </v>
    <v>       0.00062695       0.00000000       0.19785031 </v>
   </varray>
  </crystal>
  <varray name="positions" >
   <v>       0.67009660       0.50000000       0.99108586 </v>
   <v>       0.33385866       0.50000000       0.51160411 </v>
   <v>       0.58255977       0.74425474       0.50126170 </v>
   <v>       0.58255977       0.25574526       0.50126170 </v>
   <v>       0.17009660       0.00000000       0.99108586 </v>
   <v>       0.83385866       0.00000000       0.51160411 </v>
   <v>       0.08255977       0.24425474       0.50126170 </v>
   <v>       0.08255977       0.75574526       0.50126170 </v>
   <v>       0.41609202       0.74536974       0.99870613 </v>
   <v>       0.41609202       0.25463026       0.99870613 </v>
   <v>       0.66720308       0.00000000       0.98620828 </v>
   <v>       0.33372235       0.00000000       0.50155272 </v>
   <v>       0.91609202       0.24536974       0.99870613 </v>
   <v>       0.91609202       0.75463026       0.99870613 </v>
   <v>       0.16720308       0.50000000       0.98620828 </v>
   <v>       0.83372235       0.50000000       0.50155272 </v>
   <v>       0.66069632       0.00000000       0.38847105 </v>
   <v>       0.65714549       0.50000000       0.36450054 </v>
   <v>       0.33442052       0.50000000       0.86475130 </v>
   <v>       0.33087272       0.00000000       0.88969510 </v>
   <v>       0.16069632       0.50000000       0.38847105 </v>
   <v>       0.15714549       0.00000000       0.36450054 </v>
   <v>       0.83442052       0.00000000       0.86475130 </v>
   <v>       0.83087272       0.50000000       0.88969510 </v>
   <v>       0.42138059       0.73748265       0.38923938 </v>
   <v>       0.42138059       0.26251735       0.38923938 </v>
   <v>       0.58595974       0.73568221       0.86185831 </v>
   <v>       0.58595974       0.26431779       0.86185831 </v>
   <v>       0.92138059       0.23748265       0.38923938 </v>
   <v>       0.92138059       0.76251735       0.38923938 </v>
   <v>       0.08595974       0.23568221       0.86185831 </v>
   <v>       0.08595974       0.76431779       0.86185831 </v>
  </varray>
 </structure>
</modeling>
