<?xml version="1.0" encoding="ISO-8859-1"?>
<modeling>
 <generator>
  <i name="program" type="string">vasp </i>
  <i name="version" type="string">5.3.5  </i>
  <i name="subversion" type="string">31Mar14 (build Jun 20 2014 13:15:13) complex                          parallel </i>
  <i name="platform" type="string">LinuxIFC </i>
  <i name="date" type="string">2025 12 12 </i>
  <i name="time" type="string">11:27:00 </i>
 </generator>
 <incar>
  <i type="string" name="PREC">accurate</i>
  <i type="int" name="IALGO">    38</i>
  <i type="logical" name="ADDGRID"> T  </i>
  <i type="int" name="ISPIN">     2</i>
  <i type="int" name="NELM">   100</i>
  <i type="int" name="NELMIN">     4</i>
  <i name="EDIFF">      0.00000100</i>
  <i name="ENCUT">    500.00000000</i>
  <i type="logical" name="LREAL"> F  </i>
  <i type="int" name="ISMEAR">     0</i>
  <i name="SIGMA">      0.05000000</i>
  <i type="logical" name="LWAVE"> F  </i>
  <i type="logical" name="LCHARG"> F  </i>
  <i type="int" name="NELM">   100</i>
  <i type="logical" name="LDAU"> T  </i>
  <v name="LDAUU">      0.00000000      4.00000000      0.00000000</v>
  <v name="LDAUJ">      0.00000000      0.00000000      0.00000000</v>
 </incar>
 <kpoints>
  <generation param="Auto">
   <i name="subdivisionlength">     20.00000000 </i>
   <v type="int" name="divisions">       4        1        5 </v>
   <v name="usershift">      0.00000000       0.00000000       0.00000000 </v>
   <v name="genvec1">      0.25000000       0.00000000       0.00000000 </v>
   <v name="genvec2">      0.00000000       1.00000000       0.00000000 </v>
   <v name="genvec3">      0.00000000       0.00000000       0.20000000 </v>
   <v name="shift">      0.00000000       0.00000000       0.00000000 </v>
  </generation>
  <varray name="kpointlist" >
   <v>       0.00000000       0.00000000       0.00000000 </v>
   <v>       0.25000000       0.00000000       0.00000000 </v>
   <v>       0.50000000       0.00000000       0.00000000 </v>
   <v>       0.00000000       0.00000000       0.20000000 </v>
   <v>       0.25000000       0.00000000       0.20000000 </v>
   <v>       0.50000000       0.00000000       0.20000000 </v>
   <v>       0.00000000       0.00000000       0.40000000 </v>
   <v>       0.25000000       0.00000000       0.40000000 </v>
   <v>       0.50000000       0.00000000       0.40000000 </v>
  </varray>
  <varray name="weights" >
   <v>       0.05000000 </v>
   <v>       0.10000000 </v>
   <v>       0.05000000 </v>
   <v>       0.10000000 </v>
   <v>       0.20000000 </v>
   <v>       0.10000000 </v>
   <v>       0.10000000 </v>
   <v>       0.20000000 </v>
   <v>       0.10000000 </v>
  </varray>
 </kpoints>
 <parameters>
  <separator name="general" >
   <i type="string" name="SYSTEM">unknown system</i>
   <i type="logical" name="LCOMPAT"> F  </i>
  </separator>
  <separator name="electronic" >
   <i type="string" name="PREC">accura</i>
   <i name="ENMAX">    500.00000000</i>
   <i name="ENAUG">    586.98000000</i>
   <i name="EDIFF">      0.00000100</i>
   <i type="int" name="IALGO">    38</i>
   <i type="int" name="IWAVPR">    10</i>
   <i type="int" name="NBANDS">   148</i>
   <i name="NELECT">    222.00000000</i>
   <i type="int" name="TURBO">     0</i>
   <i type="int" name="IRESTART">     0</i>
   <i type="int" name="NREBOOT">     0</i>
   <i type="int" name="NMIN">     0</i>
   <i name="EREF">      0.00000000</i>
   <separator name="electronic smearing" >
    <i type="int" name="ISMEAR">     0</i>
    <i name="SIGMA">      0.05000000</i>
    <i name="KSPACING">      0.50000000</i>
    <i type="logical" name="KGAMMA"> T  </i>
   </separator>
   <separator name="electronic projectors" >
    <i type="logical" name="LREAL"> F  </i>
    <v name="ROPT">      0.00000000      0.00000000      0.00000000</v>
    <i type="int" name="LMAXPAW">  -100</i>
    <i type="int" name="LMAXMIX">     2</i>
    <i type="logical" name="NLSPLINE"> F  </i>
   </separator>
   <separator name="electronic startup" >
    <i type="int" name="ISTART">     0</i>
    <i type="int" name="ICHARG">     2</i>
    <i type="int" name="INIWAV">     1</i>
   </separator>
   <separator name="electronic spin" >
    <i type="int" name="ISPIN">     2</i>
    <i type="logical" name="LNONCOLLINEAR"> F  </i>
    <v name="MAGMOM">      1.00000000      1.00000000      1.00000000      1.00000000      1.00000000      1.00000000      1.00000000      1.00000000      1.00000000      1.00000000      1.00000000      1.00000000      1.00000000      1.00000000      1.00000000      1.00000000      1.00000000      1.00000000      1.00000000      1.00000000
      1.00000000      1.00000000      1.00000000      1.00000000      1.00000000      1.00000000      1.00000000      1.00000000</v>
    <i name="NUPDOWN">     -1.00000000</i>
    <i type="logical" name="LSORBIT"> F  </i>
    <v name="SAXIS">      0.00000000      0.00000000      1.00000000</v>
    <i type="logical" name="LSPIRAL"> F  </i>
    <v name="QSPIRAL">      0.00000000      0.00000000      0.00000000</v>
    <i type="logical" name="LZEROZ"> F  </i>
   </separator>
   <separator name="electronic exchange-correlation" >
    <i type="logical" name="LASPH"> F  </i>
    <i type="logical" name="LMETAGGA"> F  </i>
   </separator>
   <separator name="electronic convergence" >
    <i type="int" name="NELM">   100</i>
    <i type="int" name="NELMDL">    -5</i>
    <i type="int" name="NELMIN">     4</i>
    <i name="ENINI">    500.00000000</i>
    <separator name="electronic convergence detail" >
     <i type="logical" name="LDIAG"> T  </i>
     <i type="logical" name="LSUBROT"> F  </i>
     <i name="WEIMIN">      0.00000000</i>
     <i name="EBREAK">      0.00000000</i>
     <i name="DEPER">      0.30000000</i>
     <i type="int" name="NRMM">     4</i>
     <i name="TIME">      0.40000000</i>
    </separator>
   </separator>
   <separator name="electronic mixer" >
    <i name="AMIX">      0.40000000</i>
    <i name="BMIX">      1.00000000</i>
    <i name="AMIN">      0.10000000</i>
    <i name="AMIX_MAG">      1.60000000</i>
    <i name="BMIX_MAG">      1.00000000</i>
    <separator name="electronic mixer details" >
     <i type="int" name="IMIX">     4</i>
     <i type="int" name="MAXMIX">   -45</i>
     <i name="WC">    100.00000000</i>
     <i type="int" name="INIMIX">     1</i>
     <i type="int" name="MIXPRE">     1</i>
     <i type="int" name="MREMOVE">     5</i>
    </separator>
   </separator>
   <separator name="electronic dipolcorrection" >
    <i type="logical" name="LDIPOL"> F  </i>
    <i type="logical" name="LMONO"> F  </i>
    <i type="int" name="IDIPOL">     0</i>
    <i name="EPSILON">      1.00000000</i>
    <v name="DIPOL">   -100.00000000   -100.00000000   -100.00000000</v>
    <i name="EFIELD">      0.00000000</i>
   </separator>
  </separator>
  <separator name="grids" >
   <i type="int" name="NGX">    42</i>
   <i type="int" name="NGY">   126</i>
   <i type="int" name="NGZ">    30</i>
   <i type="int" name="NGXF">    84</i>
   <i type="int" name="NGYF">   252</i>
   <i type="int" name="NGZF">    60</i>
   <i type="logical" name="ADDGRID"> T  </i>
  </separator>
  <separator name="ionic" >
   <i type="int" name="NSW">     0</i>
   <i type="int" name="IBRION">    -1</i>
   <i type="int" name="ISIF">     2</i>
   <i name="PSTRESS">      0.00000000</i>
   <i name="EDIFFG">      0.00001000</i>
   <i type="int" name="NFREE">     0</i>
   <i name="POTIM">      0.50000000</i>
   <i name="SMASS">     -3.00000000</i>
   <i name="SCALEE">      1.00000000</i>
  </separator>
  <separator name="ionic md" >
   <i name="TEBEG">      0.00010000</i>
   <i name="TEEND">      0.00010000</i>
   <i type="int" name="NBLOCK">     1</i>
   <i type="int" name="KBLOCK">     1</i>
   <i type="int" name="NPACO">   256</i>
   <i name="APACO">     16.00000000</i>
  </separator>
  <separator name="symmetry" >
   <i type="int" name="ISYM">     2</i>
   <i name="SYMPREC">      0.00001000</i>
  </separator>
  <separator name="dos" >
   <i type="logical" name="LORBIT"> F  </i>
   <v name="RWIGS">     -1.00000000     -1.00000000     -1.00000000</v>
   <i type="int" name="NEDOS">   301</i>
   <i name="EMIN">     10.00000000</i>
   <i name="EMAX">    -10.00000000</i>
   <i name="EFERMI">      0.00000000</i>
  </separator>
  <separator name="writing" >
   <i type="int" name="NWRITE">     2</i>
   <i type="logical" name="LWAVE"> F  </i>
   <i type="logical" name="LCHARG"> F  </i>
   <i type="logical" name="LPARD"> F  </i>
   <i type="logical" name="LVTOT"> F  </i>
   <i type="logical" name="LVHAR"> F  </i>
   <i type="logical" name="LELF"> F  </i>
   <i type="logical" name="LOPTICS"> F  </i>
   <v name="STM">      0.00000000      0.00000000      0.00000000      0.00000000      0.00000000      0.00000000      0.00000000</v>
  </separator>
  <separator name="performance" >
   <i type="int" name="NPAR">     4</i>
   <i type="int" name="NSIM">     4</i>
   <i type="int" name="NBLK">    -1</i>
   <i type="logical" name="LPLANE"> T  </i>
   <i type="logical" name="LSCALAPACK"> T  </i>
   <i type="logical" name="LSCAAWARE"> F  </i>
   <i type="logical" name="LSCALU"> F  </i>
   <i type="logical" name="LASYNC"> F  </i>
   <i type="logical" name="LORBITALREAL"> F  </i>
  </separator>
  <separator name="miscellaneous" >
   <i type="int" name="IDIOT">     3</i>
   <i type="logical" name="LMUSIC"> F  </i>
   <v name="POMASS">     87.62000000     63.54600000     16.00000000</v>
   <v name="DARWINR">      0.00000000      0.00000000      0.00000000</v>
   <v name="DARWINV">      1.00000000      1.00000000      1.00000000</v>
   <i type="logical" name="LCORR"> T  </i>
  </separator>
  <i type="logical" name="GGA_COMPAT"> T  </i>
  <i type="logical" name="LBERRY"> F  </i>
  <i type="int" name="ICORELEVEL">     0</i>
  <i type="logical" name="LDAU"> T  </i>
  <v type="int" name="LDAUTYPE">     2</v>
  <v type="int" name="LDAUL">     2</v>
  <v name="LDAUU">      0.00000000</v>
  <v name="LDAUJ">      0.00000000</v>
  <i type="int" name="LDAUPRINT">     0</i>
  <i type="int" name="I_CONSTRAINED_M">     0</i>
  <separator name="electronic exchange-correlation" >
   <i type="string" name="GGA">--</i>
   <i type="int" name="VOSKOWN">     0</i>
   <i type="logical" name="LHFCALC"> F  </i>
   <i type="string" name="PRECFOCK"></i>
   <i type="logical" name="LSYMGRAD"> F  </i>
   <i type="logical" name="LHFONE"> F  </i>
   <i type="logical" name="LRHFCALC"> F  </i>
   <i type="logical" name="LTHOMAS"> F  </i>
   <i type="logical" name="LMODELHF"> F  </i>
   <i name="ENCUT4O">     -1.00000000</i>
   <i type="int" name="EXXOEP">     0</i>
   <i type="int" name="FOURORBIT">     0</i>
   <i name="AEXX">      0.00000000</i>
   <i name="HFALPHA">      0.00000000</i>
   <i name="MCALPHA">      0.00000000</i>
   <i name="ALDAX">      1.00000000</i>
   <i name="AGGAX">      1.00000000</i>
   <i name="ALDAC">      1.00000000</i>
   <i name="AGGAC">      1.00000000</i>
   <i type="int" name="NKREDX">     1</i>
   <i type="int" name="NKREDY">     1</i>
   <i type="int" name="NKREDZ">     1</i>
   <i type="logical" name="SHIFTRED"> F  </i>
   <i type="logical" name="ODDONLY"> F  </i>
   <i type="logical" name="EVENONLY"> F  </i>
   <i type="int" name="LMAXFOCK">     0</i>
   <i type="int" name="NMAXFOCKAE">     0</i>
   <i type="logical" name="LFOCKAEDFT"> F  </i>
   <i name="HFSCREEN">      0.00000000</i>
   <i name="HFSCREENC">      0.00000000</i>
   <i type="int" name="NBANDSGWLOW">     0</i>
  </separator>
  <separator name="vdW DFT" >
   <i type="logical" name="LUSE_VDW"> F  </i>
   <i name="Zab_VDW">     -0.84910000</i>
   <i name="PARAM1">      0.12340000</i>
   <i name="PARAM2">      1.00000000</i>
   <i name="PARAM3">      0.00000000</i>
  </separator>
  <separator name="model GW" >
   <i type="int" name="MODEL_GW">     0</i>
   <i name="MODEL_EPS0">      8.22857143</i>
   <i name="MODEL_ALPHA">      1.00000000</i>
  </separator>
  <separator name="linear response parameters" >
   <i type="logical" name="LEPSILON"> F  </i>
   <i type="logical" name="LRPA"> F  </i>
   <i type="logical" name="LNABLA"> F  </i>
   <i type="logical" name="LVEL"> F  </i>
   <i type="int" name="KINTER">     0</i>
   <i name="CSHIFT">      0.10000000</i>
   <i name="OMEGAMAX">     -1.00000000</i>
   <i name="DEG_THRESHOLD">      0.00200000</i>
  </separator>
  <separator name="orbital magnetization" >
   <i type="logical" name="NUCIND"> F  </i>
   <v name="MAGPOS">      0.00000000      0.00000000      0.00000000</v>
   <i type="logical" name="LNICSALL"> T  </i>
   <i type="logical" name="ORBITALMAG"> F  </i>
   <i type="logical" name="LMAGBLOCH"> F  </i>
   <i type="logical" name="LCHIMAG"> F  </i>
   <i type="logical" name="LGAUGE"> T  </i>
   <i type="int" name="MAGATOM">     0</i>
   <v name="MAGDIPOL">      0.00000000      0.00000000      0.00000000</v>
   <v name="AVECCONST">      0.00000000      0.00000000      0.00000000</v>
  </separator>
  <separator name="response functions" >
   <i type="logical" name="LADDER"> F  </i>
   <i type="logical" name="LFXC"> F  </i>
   <i type="logical" name="LHARTREE"> T  </i>
   <i type="int" name="IBSE">     0</i>
   <i type="logical" name="LTCTE"> F  </i>
   <i type="logical" name="LTETE"> F  </i>
   <i type="logical" name="LTRIPLET"> F  </i>
   <i type="logical" name="LFXCEPS"> F  </i>
   <i type="logical" name="LFXHEG"> F  </i>
   <i type="logical" name="L2ORDER"> F  </i>
   <i type="logical" name="LUSEW"> F  </i>
   <i name="ENCUTGW">     -2.00000000</i>
   <i name="ENCUTGWSOFT">     -2.00000000</i>
   <i name="ENCUTLF">     -1.00000000</i>
   <i type="int" name="LMAXMP2">    -1</i>
   <i name="SCISSOR">      0.00000000</i>
   <i type="int" name="NOMEGA">     0</i>
   <i type="int" name="NOMEGAR">     0</i>
   <i type="int" name="NBANDSGW">    -1</i>
   <i type="int" name="NBANDSO">    -1</i>
   <i type="int" name="NBANDSV">    -1</i>
   <i type="int" name="NELM">   100</i>
   <i type="int" name="DIM">     3</i>
   <i type="int" name="ANTIRES">     0</i>
   <i name="OMEGAMAX">    -30.00000000</i>
   <i name="OMEGAMIN">    -30.00000000</i>
   <i name="OMEGATL">   -200.00000000</i>
   <i type="int" name="OMEGAGRID">     0</i>
   <i name="CSHIFT">     -0.10000000</i>
   <i type="logical" name="SELFENERGY"> F  </i>
   <i type="logical" name="LSPECTRAL"> F  </i>
   <i type="logical" name="ODDONLYGW"> F  </i>
   <i type="logical" name="EVENONLYGW"> F  </i>
   <i type="int" name="NKREDLFX">     1</i>
   <i type="int" name="NKREDLFY">     1</i>
   <i type="int" name="NKREDLFZ">     1</i>
   <i type="int" name="MAXMEM">  1800</i>
   <i type="int" name="TELESCOPE">     0</i>
   <i type="int" name="TAUPAR">     1</i>
  </separator>
  <separator name="External order field" >
   <i name="OFIELD_KAPPA">      0.00000000</i>
   <v name="OFIELD_K">      0.00000000      0.00000000      0.00000000</v>
   <i name="OFIELD_Q6_NEAR">      0.00000000</i>
   <i name="OFIELD_Q6_FAR">      0.00000000</i>
   <i name="OFIELD_A">      0.00000000</i>
  </separator>
 </parameters>
 <atominfo>
  <atoms>      28 </atoms>
  <types>       3 </types>
  <array name="atoms" >
   <dimension dim="1">ion</dimension>
   <field type="string">element</field>
   <field type="int">atomtype</field>
   <set>
    <rc><c>Sr</c><c>   1</c></rc>
    <rc><c>Sr</c><c>   1</c></rc>
    <rc><c>Sr</c><c>   1</c></rc>
    <rc><c>Sr</c><c>   1</c></rc>
    <rc><c>Sr</c><c>   1</c></rc>
    <rc><c>Sr</c><c>   1</c></rc>
    <rc><c>Cu</c><c>   2</c></rc>
    <rc><c>Cu</c><c>   2</c></rc>
    <rc><c>Cu</c><c>   2</c></rc>
    <rc><c>Cu</c><c>   2</c></rc>
    <rc><c>Cu</c><c>   2</c></rc>
    <rc><c>Cu</c><c>   2</c></rc>
    <rc><c>O </c><c>   3</c></rc>
    <rc><c>O </c><c>   3</c></rc>
    <rc><c>O </c><c>   3</c></rc>
    <rc><c>O </c><c>   3</c></rc>
    <rc><c>O </c><c>   3</c></rc>
    <rc><c>O </c><c>   3</c></rc>
    <rc><c>O </c><c>   3</c></rc>
    <rc><c>O </c><c>   3</c></rc>
    <rc><c>O </c><c>   3</c></rc>
    <rc><c>O </c><c>   3</c></rc>
    <rc><c>O </c><c>   3</c></rc>
    <rc><c>O </c><c>   3</c></rc>
    <rc><c>O </c><c>   3</c></rc>
    <rc><c>O </c><c>   3</c></rc>
    <rc><c>O </c><c>   3</c></rc>
    <rc><c>O </c><c>   3</c></rc>
   </set>
  </array>
  <array name="atomtypes" >
   <dimension dim="1">type</dimension>
   <field type="int">atomspertype</field>
   <field type="string">element</field>
   <field>mass</field>
   <field>valence</field>
   <field type="string">pseudopotential</field>
   <set>
    <rc><c>   6</c><c>Sr</c><c>     87.62000000</c><c>     10.00000000</c><c>  PAW_PBE Sr_sv 07Sep2000               </c></rc>
    <rc><c>   6</c><c>Cu</c><c>     63.54600000</c><c>     11.00000000</c><c>  PAW_PBE Cu 22Jun2005                  </c></rc>
    <rc><c>  16</c><c>O </c><c>     16.00000000</c><c>      6.00000000</c><c>  PAW_PBE O_s 07Sep2000                 </c></rc>
   </set>
  </array>
 </atominfo>
 <structure name="initialpos" >
  <crystal>
   <varray name="basis" >
    <v>       5.65685425       0.00000000       0.00000000 </v>
    <v>       0.00000000      16.97056275       0.00000000 </v>
    <v>       0.00000000       0.00000000       4.00000000 </v>
   </varray>
   <i name="volume">    384.00000000 </i>
   <varray name="rec_basis" >
    <v>       0.17677670       0.00000000       0.00000000 </v>
    <v>       0.00000000       0.05892557       0.00000000 </v>
    <v>       0.00000000       0.00000000       0.25000000 </v>
   </varray>
  </crystal>
  <varray name="positions" >
   <v>       0.00000000       0.00000000       0.00000000 </v>
   <v>       0.50000000       0.83333333       0.00000000 </v>
   <v>       0.00000000       0.66666667       0.00000000 </v>
   <v>       0.50000000       0.50000000       0.00000000 </v>
   <v>       0.00000000       0.33333333       0.00000000 </v>
   <v>       0.50000000       0.16666667       0.00000000 </v>
   <v>       0.50000000       0.00000000       0.50000000 </v>
   <v>       0.00000000       0.83333333       0.50000000 </v>
   <v>       0.50000000       0.66666667       0.50000000 </v>
   <v>       0.00000000       0.50000000       0.50000000 </v>
   <v>       0.50000000       0.33333333       0.50000000 </v>
   <v>       0.00000000       0.16666667       0.50000000 </v>
   <v>       0.75000000       0.58333333       0.50000000 </v>
   <v>       0.75000000       0.91666667       0.50000000 </v>
   <v>       0.25000000       0.75000000       0.50000000 </v>
   <v>       0.00000000       0.83333333       0.00000000 </v>
   <v>       0.50000000       0.66666667       0.00000000 </v>
   <v>       0.25000000       0.91666667       0.50000000 </v>
   <v>       0.75000000       0.75000000       0.50000000 </v>
   <v>       0.25000000       0.58333333       0.50000000 </v>
   <v>       0.25000000       0.08333333       0.50000000 </v>
   <v>       0.25000000       0.41666667       0.50000000 </v>
   <v>       0.75000000       0.25000000       0.50000000 </v>
   <v>       0.50000000       0.33333333       0.00000000 </v>
   <v>       0.00000000       0.16666667       0.00000000 </v>
   <v>       0.75000000       0.41666667       0.50000000 </v>
   <v>       0.25000000       0.25000000       0.50000000 </v>
   <v>       0.75000000       0.08333333       0.50000000 </v>
  </varray>
 </structure>
 <calculation>
  <scstep>
   <time name="dav">    5.75    5.75</time>
   <time name="total">    6.06    6.08</time>
   <energy>
    <i name="alphaZ">   1048.79850466 </i>
    <i name="ewald"> -14899.05867393 </i>
    <i name="hartreedc">  -5750.77470224 </i>
    <i name="XCdc">    927.01424742 </i>
    <i name="pawpsdc">  16659.52835768 </i>
    <i name="pawaedc"> -17169.39881545 </i>
    <i name="eentropy">     -0.00875679 </i>
    <i name="bandstr">   1795.22703487 </i>
    <i name="atom">  20322.00004644 </i>
    <i name="e_fr_energy">   2933.32724267 </i>
    <i name="e_wo_entrp">   2933.33599945 </i>
    <i name="e_0_energy">   2933.33162106 </i>
   </energy>
  </scstep>
  <scstep>
   <time name="dav">    6.03    6.03</time>
   <time name="total">    6.03    6.05</time>
   <energy>
    <i name="e_fr_energy">    298.58625407 </i>
    <i name="e_wo_entrp">    298.59873232 </i>
    <i name="e_0_energy">    298.59249319 </i>
   </energy>
  </scstep>
  <scstep>
   <time name="dav">    5.81    5.81</time>
   <time name="total">    5.81    5.83</time>
   <energy>
    <i name="e_fr_energy">   -146.55877853 </i>
    <i name="e_wo_entrp">   -146.52380971 </i>
    <i name="e_0_energy">   -146.54129412 </i>
   </energy>
  </scstep>
  <scstep>
   <time name="dav">    7.62    7.62</time>
   <time name="total">    7.62    7.64</time>
   <energy>
    <i name="e_fr_energy">   -182.39980721 </i>
    <i name="e_wo_entrp">   -182.35174526 </i>
    <i name="e_0_energy">   -182.37577624 </i>
   </energy>
  </scstep>
  <scstep>
   <time name="dav">    9.39    9.40</time>
   <time name="total">    9.95    9.97</time>
   <energy>
    <i name="e_fr_energy">   -184.58637557 </i>
    <i name="e_wo_entrp">   -184.53800440 </i>
    <i name="e_0_energy">   -184.56218999 </i>
   </energy>
  </scstep>
  <scstep>
   <time name="dav">    8.16    8.16</time>
   <time name="total">    9.03    9.04</time>
   <energy>
    <i name="e_fr_energy">   -180.52191561 </i>
    <i name="e_wo_entrp">   -180.48541802 </i>
    <i name="e_0_energy">   -180.50366681 </i>
   </energy>
  </scstep>
  <scstep>
   <time name="dav">    7.42    7.42</time>
   <time name="total">    8.28    8.30</time>
   <energy>
    <i name="e_fr_energy">   -147.87885201 </i>
    <i name="e_wo_entrp">   -147.84718148 </i>
    <i name="e_0_energy">   -147.86301675 </i>
   </energy>
  </scstep>
  <scstep>
   <time name="dav">    8.08    8.08</time>
   <time name="total">    8.94    8.96</time>
   <energy>
    <i name="e_fr_energy">   -146.09386481 </i>
    <i name="e_wo_entrp">   -146.07586278 </i>
    <i name="e_0_energy">   -146.08486379 </i>
   </energy>
  </scstep>
  <scstep>
   <time name="dav">    8.48    8.48</time>
   <time name="total">    9.34    9.35</time>
   <energy>
    <i name="e_fr_energy">   -153.71998862 </i>
    <i name="e_wo_entrp">   -153.68781117 </i>
    <i name="e_0_energy">   -153.70389990 </i>
   </energy>
  </scstep>
  <scstep>
   <time name="dav">    7.85    7.86</time>
   <time name="total">    8.71    8.73</time>
   <energy>
    <i name="e_fr_energy">   -144.13080928 </i>
    <i name="e_wo_entrp">   -144.10927144 </i>
    <i name="e_0_energy">   -144.12004036 </i>
   </energy>
  </scstep>
  <scstep>
   <time name="dav">    8.09    8.09</time>
   <time name="total">    8.95    8.97</time>
   <energy>
    <i name="e_fr_energy">   -138.58752387 </i>
    <i name="e_wo_entrp">   -138.57420895 </i>
    <i name="e_0_energy">   -138.58086641 </i>
   </energy>
  </scstep>
  <scstep>
   <time name="dav">    7.73    7.73</time>
   <time name="total">    8.60    8.63</time>
   <energy>
    <i name="e_fr_energy">   -139.97411132 </i>
    <i name="e_wo_entrp">   -139.95022558 </i>
    <i name="e_0_energy">   -139.96216845 </i>
   </energy>
  </scstep>
  <scstep>
   <time name="dav">    7.54    7.54</time>
   <time name="total">    8.40    8.41</time>
   <energy>
    <i name="e_fr_energy">   -140.19871912 </i>
    <i name="e_wo_entrp">   -140.18123446 </i>
    <i name="e_0_energy">   -140.18997679 </i>
   </energy>
  </scstep>
  <scstep>
   <time name="dav">    7.69    7.69</time>
   <time name="total">    8.55    8.57</time>
   <energy>
    <i name="e_fr_energy">   -140.75488759 </i>
    <i name="e_wo_entrp">   -140.73380702 </i>
    <i name="e_0_energy">   -140.74434731 </i>
   </energy>
  </scstep>
  <scstep>
   <time name="dav">    8.06    8.06</time>
   <time name="total">    8.91    8.97</time>
   <energy>
    <i name="e_fr_energy">   -140.83721446 </i>
    <i name="e_wo_entrp">   -140.81341590 </i>
    <i name="e_0_energy">   -140.82531518 </i>
   </energy>
  </scstep>
  <scstep>
   <time name="dav">    8.11    8.13</time>
   <time name="total">    8.98    9.01</time>
   <energy>
    <i name="e_fr_energy">   -140.93469950 </i>
    <i name="e_wo_entrp">   -140.90817326 </i>
    <i name="e_0_energy">   -140.92143638 </i>
   </energy>
  </scstep>
  <scstep>
   <time name="dav">    7.84    7.84</time>
   <time name="total">    8.70    8.72</time>
   <energy>
    <i name="e_fr_energy">   -141.03367538 </i>
    <i name="e_wo_entrp">   -141.00952531 </i>
    <i name="e_0_energy">   -141.02160034 </i>
   </energy>
  </scstep>
  <scstep>
   <time name="dav">    7.50    7.50</time>
   <time name="total">    8.36    8.38</time>
   <energy>
    <i name="e_fr_energy">   -141.20633743 </i>
    <i name="e_wo_entrp">   -141.18571268 </i>
    <i name="e_0_energy">   -141.19602506 </i>
   </energy>
  </scstep>
  <scstep>
   <time name="dav">    7.93    7.93</time>
   <time name="total">    8.80    8.81</time>
   <energy>
    <i name="e_fr_energy">   -141.22278310 </i>
    <i name="e_wo_entrp">   -141.20135063 </i>
    <i name="e_0_energy">   -141.21206686 </i>
   </energy>
  </scstep>
  <scstep>
   <time name="dav">    7.96    7.96</time>
   <time name="total">    8.82    8.83</time>
   <energy>
    <i name="e_fr_energy">   -141.22845236 </i>
    <i name="e_wo_entrp">   -141.20743878 </i>
    <i name="e_0_energy">   -141.21794557 </i>
   </energy>
  </scstep>
  <scstep>
   <time name="dav">    7.88    7.88</time>
   <time name="total">    8.74    8.76</time>
   <energy>
    <i name="e_fr_energy">   -141.22983188 </i>
    <i name="e_wo_entrp">   -141.20876912 </i>
    <i name="e_0_energy">   -141.21930050 </i>
   </energy>
  </scstep>
  <scstep>
   <time name="dav">    8.16    8.17</time>
   <time name="total">    9.05    9.08</time>
   <energy>
    <i name="e_fr_energy">   -141.23025303 </i>
    <i name="e_wo_entrp">   -141.20914909 </i>
    <i name="e_0_energy">   -141.21970106 </i>
   </energy>
  </scstep>
  <scstep>
   <time name="dav">    7.60    7.60</time>
   <time name="total">    8.47    8.48</time>
   <energy>
    <i name="e_fr_energy">   -141.23075369 </i>
    <i name="e_wo_entrp">   -141.21012319 </i>
    <i name="e_0_energy">   -141.22043844 </i>
   </energy>
  </scstep>
  <scstep>
   <time name="dav">    8.51    8.52</time>
   <time name="total">    9.38    9.40</time>
   <energy>
    <i name="e_fr_energy">   -141.23093079 </i>
    <i name="e_wo_entrp">   -141.21046806 </i>
    <i name="e_0_energy">   -141.22069942 </i>
   </energy>
  </scstep>
  <scstep>
   <time name="dav">    8.37    8.37</time>
   <time name="total">    9.23    9.25</time>
   <energy>
    <i name="e_fr_energy">   -141.23105522 </i>
    <i name="e_wo_entrp">   -141.21075356 </i>
    <i name="e_0_energy">   -141.22090439 </i>
   </energy>
  </scstep>
  <scstep>
   <time name="dav">    8.47    8.47</time>
   <time name="total">    9.33    9.35</time>
   <energy>
    <i name="e_fr_energy">   -141.23113447 </i>
    <i name="e_wo_entrp">   -141.21095116 </i>
    <i name="e_0_energy">   -141.22104281 </i>
   </energy>
  </scstep>
  <scstep>
   <time name="dav">    7.81    7.82</time>
   <time name="total">    8.68    8.69</time>
   <energy>
    <i name="e_fr_energy">   -141.23117491 </i>
    <i name="e_wo_entrp">   -141.21103889 </i>
    <i name="e_0_energy">   -141.22110690 </i>
   </energy>
  </scstep>
  <scstep>
   <time name="dav">    7.49    7.49</time>
   <time name="total">    8.36    8.37</time>
   <energy>
    <i name="e_fr_energy">   -141.23120560 </i>
    <i name="e_wo_entrp">   -141.21111603 </i>
    <i name="e_0_energy">   -141.22116081 </i>
   </energy>
  </scstep>
  <scstep>
   <time name="dav">    7.30    7.30</time>
   <time name="total">    8.17    8.18</time>
   <energy>
    <i name="e_fr_energy">   -141.23121542 </i>
    <i name="e_wo_entrp">   -141.21114313 </i>
    <i name="e_0_energy">   -141.22117927 </i>
   </energy>
  </scstep>
  <scstep>
   <time name="dav">    6.04    6.05</time>
   <time name="total">    6.91    6.93</time>
   <energy>
    <i name="e_fr_energy">   -141.23122072 </i>
    <i name="e_wo_entrp">   -141.21116503 </i>
    <i name="e_0_energy">   -141.22119288 </i>
   </energy>
  </scstep>
  <scstep>
   <time name="dav">    5.15    5.22</time>
   <time name="total">    6.01    6.10</time>
   <energy>
    <i name="e_fr_energy">   -141.23122512 </i>
    <i name="e_wo_entrp">   -141.21118363 </i>
    <i name="e_0_energy">   -141.22120437 </i>
   </energy>
  </scstep>
  <scstep>
   <time name="dav">    4.53    4.53</time>
   <time name="total">    5.40    5.42</time>
   <energy>
    <i name="e_fr_energy">   -141.23122820 </i>
    <i name="e_wo_entrp">   -141.21119701 </i>
    <i name="e_0_energy">   -141.22121261 </i>
   </energy>
  </scstep>
  <scstep>
   <time name="dav">    4.54    4.54</time>
   <time name="total">    5.40    5.42</time>
   <energy>
    <i name="e_fr_energy">   -141.23123054 </i>
    <i name="e_wo_entrp">   -141.21120892 </i>
    <i name="e_0_energy">   -141.22121973 </i>
   </energy>
  </scstep>
  <scstep>
   <time name="dav">    5.31    5.31</time>
   <time name="total">    6.17    6.19</time>
   <energy>
    <i name="e_fr_energy">   -141.23123240 </i>
    <i name="e_wo_entrp">   -141.21121864 </i>
    <i name="e_0_energy">   -141.22122552 </i>
   </energy>
  </scstep>
  <scstep>
   <time name="dav">    4.79    4.79</time>
   <time name="total">    5.10    5.11</time>
   <energy>
    <i name="alphaZ">   1048.79850466 </i>
    <i name="ewald"> -14899.05867393 </i>
    <i name="hartreedc">  -5677.58193176 </i>
    <i name="XCdc">    926.28052903 </i>
    <i name="pawpsdc">  26309.12630990 </i>
    <i name="pawaedc"> -26879.78133602 </i>
    <i name="eentropy">     -0.02001060 </i>
    <i name="bandstr">  -1290.99467094 </i>
    <i name="atom">  20322.00004644 </i>
    <i name="e_fr_energy">   -141.23123323 </i>
    <i name="e_wo_entrp">   -141.21122263 </i>
    <i name="e_0_energy">   -141.22122793 </i>
   </energy>
  </scstep>
  <structure>
   <crystal>
    <varray name="basis" >
     <v>       5.65685425       0.00000000       0.00000000 </v>
     <v>       0.00000000      16.97056275       0.00000000 </v>
     <v>       0.00000000       0.00000000       4.00000000 </v>
    </varray>
    <i name="volume">    384.00000000 </i>
    <varray name="rec_basis" >
     <v>       0.17677670       0.00000000       0.00000000 </v>
     <v>       0.00000000       0.05892557       0.00000000 </v>
     <v>       0.00000000       0.00000000       0.25000000 </v>
    </varray>
   </crystal>
   <varray name="positions" >
    <v>       0.00000000       0.00000000       0.00000000 </v>
    <v>       0.50000000       0.83333333       0.00000000 </v>
    <v>       0.00000000       0.66666667       0.00000000 </v>
    <v>       0.50000000       0.50000000       0.00000000 </v>
    <v>       0.00000000       0.33333333       0.00000000 </v>
    <v>       0.50000000       0.16666667       0.00000000 </v>
    <v>       0.50000000       0.00000000       0.50000000 </v>
    <v>       0.00000000       0.83333333       0.50000000 </v>
    <v>       0.50000000       0.66666667       0.50000000 </v>
    <v>       0.00000000       0.50000000       0.50000000 </v>
    <v>       0.50000000       0.33333333       0.50000000 </v>
    <v>       0.00000000       0.16666667       0.50000000 </v>
    <v>       0.75000000       0.58333333       0.50000000 </v>
    <v>       0.75000000       0.91666667       0.50000000 </v>
    <v>       0.25000000       0.75000000       0.50000000 </v>
    <v>       0.00000000       0.83333333       0.00000000 </v>
    <v>       0.50000000       0.66666667       0.00000000 </v>
    <v>       0.25000000       0.91666667       0.50000000 </v>
    <v>       0.75000000       0.75000000       0.50000000 </v>
    <v>       0.25000000       0.58333333       0.50000000 </v>
    <v>       0.25000000       0.08333333       0.50000000 </v>
    <v>       0.25000000       0.41666667       0.50000000 </v>
    <v>       0.75000000       0.25000000       0.50000000 </v>
    <v>       0.50000000       0.33333333       0.00000000 </v>
    <v>       0.00000000       0.16666667       0.00000000 </v>
    <v>       0.75000000       0.41666667       0.50000000 </v>
    <v>       0.25000000       0.25000000       0.50000000 </v>
    <v>       0.75000000       0.08333333       0.50000000 </v>
   </varray>
  </structure>
  <varray name="forces" >
   <v>       0.00000000       0.00000000       0.00000000 </v>
   <v>       0.00000000      -0.75140677       0.00000000 </v>
   <v>       0.00000000       0.75140677       0.00000000 </v>
   <v>       0.00000000       0.00000000       0.00000000 </v>
   <v>       0.00000000      -0.75140677       0.00000000 </v>
   <v>       0.00000000       0.75140677       0.00000000 </v>
   <v>       0.00000000       0.00000000       0.00000000 </v>
   <v>       0.00000000      -0.34358785       0.00000000 </v>
   <v>       0.00000000       0.34358785       0.00000000 </v>
   <v>       0.00000000       0.00000000       0.00000000 </v>
   <v>       0.00000000      -0.34358785       0.00000000 </v>
   <v>       0.00000000       0.34358785       0.00000000 </v>
   <v>       0.88808802      -0.96062144       0.00000000 </v>
   <v>      -0.88808802       0.96062144       0.00000000 </v>
   <v>       0.00000000       0.00000000       0.00000000 </v>
   <v>       0.00000000      -0.01041661       0.00000000 </v>
   <v>       0.00000000       0.01041661       0.00000000 </v>
   <v>       0.88808802       0.96062144       0.00000000 </v>
   <v>       0.00000000       0.00000000       0.00000000 </v>
   <v>      -0.88808802      -0.96062144       0.00000000 </v>
   <v>       0.88808802      -0.96062144       0.00000000 </v>
   <v>      -0.88808802       0.96062144       0.00000000 </v>
   <v>       0.00000000       0.00000000       0.00000000 </v>
   <v>       0.00000000      -0.01041661       0.00000000 </v>
   <v>       0.00000000       0.01041661       0.00000000 </v>
   <v>       0.88808802       0.96062144       0.00000000 </v>
   <v>       0.00000000       0.00000000       0.00000000 </v>
   <v>      -0.88808802      -0.96062144       0.00000000 </v>
  </varray>
  <varray name="stress" >
   <v>     -90.29414258       0.00000000       0.00000000 </v>
   <v>       0.00000000     -90.47941277       0.00000000 </v>
   <v>       0.00000000       0.00000000    -111.84117239 </v>
  </varray>
  <energy>
   <i name="e_fr_energy">   -141.23123323 </i>
   <i name="e_wo_entrp">   -141.22122793 </i>
   <i name="e_0_energy">     -0.02001060 </i>
  </energy>
  <time name="totalsc">  292.58  293.36</time>
  <eigenvalues>
   <array>
    <dimension dim="1">band</dimension>
    <dimension dim="2">kpoint</dimension>
    <dimension dim="3">spin</dimension>
    <field>eigene</field>
    <field>occ</field>
    <set>
     <set comment="spin 1">
      <set comment="kpoint 1">
       <r>  -30.7141    1.0000 </r>
       <r>  -30.7141    1.0000 </r>
       <r>  -30.4001    1.0000 </r>
       <r>  -30.3998    1.0000 </r>
       <r>  -30.3858    1.0000 </r>
       <r>  -30.3855    1.0000 </r>
       <r>  -14.9856    1.0000 </r>
       <r>  -14.9579    1.0000 </r>
       <r>  -14.7461    1.0000 </r>
       <r>  -14.7322    1.0000 </r>
       <r>  -14.4015    1.0000 </r>
       <r>  -14.2858    1.0000 </r>
       <r>  -14.2829    1.0000 </r>
       <r>  -14.1707    1.0000 </r>
       <r>  -14.1478    1.0000 </r>
       <r>  -13.9823    1.0000 </r>
       <r>  -13.8972    1.0000 </r>
       <r>  -13.8192    1.0000 </r>
       <r>  -13.8189    1.0000 </r>
       <r>  -13.7774    1.0000 </r>
       <r>  -13.7547    1.0000 </r>
       <r>  -13.6662    1.0000 </r>
       <r>  -12.6344    1.0000 </r>
       <r>  -12.6056    1.0000 </r>
       <r>  -12.5585    1.0000 </r>
       <r>  -12.5581    1.0000 </r>
       <r>  -12.5134    1.0000 </r>
       <r>  -12.4084    1.0000 </r>
       <r>  -12.3406    1.0000 </r>
       <r>  -12.2993    1.0000 </r>
       <r>  -12.2962    1.0000 </r>
       <r>  -12.2608    1.0000 </r>
       <r>  -12.2580    1.0000 </r>
       <r>  -12.2324    1.0000 </r>
       <r>  -12.2301    1.0000 </r>
       <r>  -12.2138    1.0000 </r>
       <r>  -12.2098    1.0000 </r>
       <r>  -12.1673    1.0000 </r>
       <r>  -12.1114    1.0000 </r>
       <r>  -12.1069    1.0000 </r>
       <r>   -3.1653    1.0000 </r>
       <r>   -2.7466    1.0000 </r>
       <r>   -2.6730    1.0000 </r>
       <r>   -2.5851    1.0000 </r>
       <r>   -2.4155    1.0000 </r>
       <r>   -2.4150    1.0000 </r>
       <r>   -2.2440    1.0000 </r>
       <r>   -2.0706    1.0000 </r>
       <r>   -2.0366    1.0000 </r>
       <r>   -1.8195    1.0000 </r>
       <r>   -1.7347    1.0000 </r>
       <r>   -1.6945    1.0000 </r>
       <r>   -1.6944    1.0000 </r>
       <r>   -1.6811    1.0000 </r>
       <r>   -1.6448    1.0000 </r>
       <r>   -1.6342    1.0000 </r>
       <r>   -1.6143    1.0000 </r>
       <r>   -1.5367    1.0000 </r>
       <r>   -1.4925    1.0000 </r>
       <r>   -1.4002    1.0000 </r>
       <r>   -1.3891    1.0000 </r>
       <r>   -1.3313    1.0000 </r>
       <r>   -1.2889    1.0000 </r>
       <r>   -1.2697    1.0000 </r>
       <r>   -1.1381    1.0000 </r>
       <r>   -1.0734    1.0000 </r>
       <r>   -1.0621    1.0000 </r>
       <r>   -1.0351    1.0000 </r>
       <r>   -1.0297    1.0000 </r>
       <r>   -1.0008    1.0000 </r>
       <r>   -1.0003    1.0000 </r>
       <r>   -0.7808    1.0000 </r>
       <r>   -0.6826    1.0000 </r>
       <r>   -0.6348    1.0000 </r>
       <r>   -0.6198    1.0000 </r>
       <r>   -0.5134    1.0000 </r>
       <r>    0.0687    1.0000 </r>
       <r>    0.1185    1.0000 </r>
       <r>    0.2241    1.0000 </r>
       <r>    0.4625    1.0000 </r>
       <r>    0.6107    1.0000 </r>
       <r>    0.6848    1.0000 </r>
       <r>    0.7093    1.0000 </r>
       <r>    0.7332    1.0000 </r>
       <r>    0.7580    1.0000 </r>
       <r>    0.8597    1.0000 </r>
       <r>    0.9537    1.0000 </r>
       <r>    0.9634    1.0000 </r>
       <r>    1.0210    1.0000 </r>
       <r>    1.0566    1.0000 </r>
       <r>    1.1498    1.0000 </r>
       <r>    1.1564    1.0000 </r>
       <r>    1.2563    1.0000 </r>
       <r>    1.2955    1.0000 </r>
       <r>    1.3027    1.0000 </r>
       <r>    1.3286    1.0000 </r>
       <r>    1.3386    1.0000 </r>
       <r>    1.3953    1.0000 </r>
       <r>    1.3986    1.0000 </r>
       <r>    1.4380    1.0000 </r>
       <r>    1.4428    1.0000 </r>
       <r>    1.4535    1.0000 </r>
       <r>    1.4807    1.0000 </r>
       <r>    1.4870    1.0000 </r>
       <r>    1.5249    1.0000 </r>
       <r>    1.6455    1.0000 </r>
       <r>    1.7505    1.0000 </r>
       <r>    1.8436    1.0000 </r>
       <r>    1.8503    1.0000 </r>
       <r>    1.8884    1.0000 </r>
       <r>    2.0262    1.0000 </r>
       <r>    2.0612    1.0000 </r>
       <r>    2.2727    0.9574 </r>
       <r>    2.3817    0.0870 </r>
       <r>    2.4478    0.0006 </r>
       <r>    3.3888    0.0000 </r>
       <r>    3.6335    0.0000 </r>
       <r>    4.2181    0.0000 </r>
       <r>    5.3128    0.0000 </r>
       <r>    5.6074    0.0000 </r>
       <r>    7.9147    0.0000 </r>
       <r>    8.0518    0.0000 </r>
       <r>    8.1607    0.0000 </r>
       <r>    8.4688    0.0000 </r>
       <r>    8.5920    0.0000 </r>
       <r>    8.7242    0.0000 </r>
       <r>    8.8880    0.0000 </r>
       <r>    9.1178    0.0000 </r>
       <r>    9.1836    0.0000 </r>
       <r>    9.6984    0.0000 </r>
       <r>    9.8666    0.0000 </r>
       <r>    9.9740    0.0000 </r>
       <r>    9.9795    0.0000 </r>
       <r>   10.0277    0.0000 </r>
       <r>   10.2730    0.0000 </r>
       <r>   10.2806    0.0000 </r>
       <r>   10.2965    0.0000 </r>
       <r>   10.3022    0.0000 </r>
       <r>   10.4539    0.0000 </r>
       <r>   10.4786    0.0000 </r>
       <r>   10.4879    0.0000 </r>
       <r>   10.5757    0.0000 </r>
       <r>   10.6243    0.0000 </r>
       <r>   10.6740    0.0000 </r>
       <r>   10.7439    0.0000 </r>
       <r>   10.7753    0.0000 </r>
       <r>   11.2096    0.0000 </r>
       <r>   11.2915    0.0000 </r>
      </set>
      <set comment="kpoint 2">
       <r>  -30.7139    1.0000 </r>
       <r>  -30.7139    1.0000 </r>
       <r>  -30.3978    1.0000 </r>
       <r>  -30.3977    1.0000 </r>
       <r>  -30.3877    1.0000 </r>
       <r>  -30.3876    1.0000 </r>
       <r>  -15.0096    1.0000 </r>
       <r>  -14.9606    1.0000 </r>
       <r>  -14.8656    1.0000 </r>
       <r>  -14.8075    1.0000 </r>
       <r>  -14.4528    1.0000 </r>
       <r>  -14.4043    1.0000 </r>
       <r>  -14.2106    1.0000 </r>
       <r>  -14.0928    1.0000 </r>
       <r>  -14.0826    1.0000 </r>
       <r>  -13.9174    1.0000 </r>
       <r>  -13.8941    1.0000 </r>
       <r>  -13.8299    1.0000 </r>
       <r>  -13.7863    1.0000 </r>
       <r>  -13.7587    1.0000 </r>
       <r>  -13.7451    1.0000 </r>
       <r>  -13.6877    1.0000 </r>
       <r>  -12.6444    1.0000 </r>
       <r>  -12.6364    1.0000 </r>
       <r>  -12.5572    1.0000 </r>
       <r>  -12.5571    1.0000 </r>
       <r>  -12.4623    1.0000 </r>
       <r>  -12.4555    1.0000 </r>
       <r>  -12.3137    1.0000 </r>
       <r>  -12.2935    1.0000 </r>
       <r>  -12.2918    1.0000 </r>
       <r>  -12.2885    1.0000 </r>
       <r>  -12.2737    1.0000 </r>
       <r>  -12.2662    1.0000 </r>
       <r>  -12.2648    1.0000 </r>
       <r>  -12.2086    1.0000 </r>
       <r>  -12.1143    1.0000 </r>
       <r>  -12.0939    1.0000 </r>
       <r>  -12.0801    1.0000 </r>
       <r>  -12.0402    1.0000 </r>
       <r>   -2.8886    1.0000 </r>
       <r>   -2.8754    1.0000 </r>
       <r>   -2.7649    1.0000 </r>
       <r>   -2.4755    1.0000 </r>
       <r>   -2.3733    1.0000 </r>
       <r>   -2.2328    1.0000 </r>
       <r>   -2.2130    1.0000 </r>
       <r>   -1.9479    1.0000 </r>
       <r>   -1.9448    1.0000 </r>
       <r>   -1.8602    1.0000 </r>
       <r>   -1.8016    1.0000 </r>
       <r>   -1.6486    1.0000 </r>
       <r>   -1.6407    1.0000 </r>
       <r>   -1.6378    1.0000 </r>
       <r>   -1.6336    1.0000 </r>
       <r>   -1.5166    1.0000 </r>
       <r>   -1.5004    1.0000 </r>
       <r>   -1.4663    1.0000 </r>
       <r>   -1.4584    1.0000 </r>
       <r>   -1.4574    1.0000 </r>
       <r>   -1.4558    1.0000 </r>
       <r>   -1.4330    1.0000 </r>
       <r>   -1.4179    1.0000 </r>
       <r>   -1.2148    1.0000 </r>
       <r>   -1.1899    1.0000 </r>
       <r>   -1.1360    1.0000 </r>
       <r>   -1.1160    1.0000 </r>
       <r>   -1.0332    1.0000 </r>
       <r>   -0.9441    1.0000 </r>
       <r>   -0.9046    1.0000 </r>
       <r>   -0.8900    1.0000 </r>
       <r>   -0.8091    1.0000 </r>
       <r>   -0.6926    1.0000 </r>
       <r>   -0.6399    1.0000 </r>
       <r>   -0.6350    1.0000 </r>
       <r>   -0.6145    1.0000 </r>
       <r>    0.0305    1.0000 </r>
       <r>    0.2095    1.0000 </r>
       <r>    0.3315    1.0000 </r>
       <r>    0.4445    1.0000 </r>
       <r>    0.4757    1.0000 </r>
       <r>    0.5064    1.0000 </r>
       <r>    0.5219    1.0000 </r>
       <r>    0.6166    1.0000 </r>
       <r>    0.6548    1.0000 </r>
       <r>    0.7523    1.0000 </r>
       <r>    0.8163    1.0000 </r>
       <r>    0.8917    1.0000 </r>
       <r>    0.9298    1.0000 </r>
       <r>    0.9853    1.0000 </r>
       <r>    0.9969    1.0000 </r>
       <r>    1.0587    1.0000 </r>
       <r>    1.1568    1.0000 </r>
       <r>    1.3009    1.0000 </r>
       <r>    1.3388    1.0000 </r>
       <r>    1.3592    1.0000 </r>
       <r>    1.4319    1.0000 </r>
       <r>    1.4400    1.0000 </r>
       <r>    1.4522    1.0000 </r>
       <r>    1.4732    1.0000 </r>
       <r>    1.4797    1.0000 </r>
       <r>    1.4826    1.0000 </r>
       <r>    1.5831    1.0000 </r>
       <r>    1.6255    1.0000 </r>
       <r>    1.6589    1.0000 </r>
       <r>    1.6778    1.0000 </r>
       <r>    1.7382    1.0000 </r>
       <r>    1.7521    1.0000 </r>
       <r>    1.8230    1.0000 </r>
       <r>    1.9030    1.0000 </r>
       <r>    1.9531    1.0000 </r>
       <r>    1.9716    1.0000 </r>
       <r>    2.1407    1.0000 </r>
       <r>    2.1565    1.0000 </r>
       <r>    2.1864    1.0000 </r>
       <r>    2.9198    0.0000 </r>
       <r>    3.2125    0.0000 </r>
       <r>    3.7978    0.0000 </r>
       <r>    5.7836    0.0000 </r>
       <r>    6.0055    0.0000 </r>
       <r>    8.0427    0.0000 </r>
       <r>    8.0897    0.0000 </r>
       <r>    8.3049    0.0000 </r>
       <r>    8.4469    0.0000 </r>
       <r>    8.7705    0.0000 </r>
       <r>    9.0272    0.0000 </r>
       <r>    9.0579    0.0000 </r>
       <r>    9.0866    0.0000 </r>
       <r>    9.4536    0.0000 </r>
       <r>    9.5751    0.0000 </r>
       <r>    9.9263    0.0000 </r>
       <r>    9.9773    0.0000 </r>
       <r>   10.0573    0.0000 </r>
       <r>   10.1871    0.0000 </r>
       <r>   10.1922    0.0000 </r>
       <r>   10.2638    0.0000 </r>
       <r>   10.3395    0.0000 </r>
       <r>   10.3792    0.0000 </r>
       <r>   10.4045    0.0000 </r>
       <r>   10.4980    0.0000 </r>
       <r>   10.5030    0.0000 </r>
       <r>   10.5234    0.0000 </r>
       <r>   10.5941    0.0000 </r>
       <r>   10.8008    0.0000 </r>
       <r>   10.9697    0.0000 </r>
       <r>   10.9987    0.0000 </r>
       <r>   11.1240    0.0000 </r>
       <r>   11.1757    0.0000 </r>
      </set>
      <set comment="kpoint 3">
       <r>  -30.7137    1.0000 </r>
       <r>  -30.7137    1.0000 </r>
       <r>  -30.3926    1.0000 </r>
       <r>  -30.3926    1.0000 </r>
       <r>  -30.3925    1.0000 </r>
       <r>  -30.3925    1.0000 </r>
       <r>  -14.9993    1.0000 </r>
       <r>  -14.9993    1.0000 </r>
       <r>  -14.9263    1.0000 </r>
       <r>  -14.9263    1.0000 </r>
       <r>  -14.4733    1.0000 </r>
       <r>  -14.4733    1.0000 </r>
       <r>  -14.0262    1.0000 </r>
       <r>  -14.0262    1.0000 </r>
       <r>  -13.9759    1.0000 </r>
       <r>  -13.9759    1.0000 </r>
       <r>  -13.9592    1.0000 </r>
       <r>  -13.9592    1.0000 </r>
       <r>  -13.7461    1.0000 </r>
       <r>  -13.7461    1.0000 </r>
       <r>  -13.6887    1.0000 </r>
       <r>  -13.6887    1.0000 </r>
       <r>  -12.6656    1.0000 </r>
       <r>  -12.6656    1.0000 </r>
       <r>  -12.5560    1.0000 </r>
       <r>  -12.5560    1.0000 </r>
       <r>  -12.4447    1.0000 </r>
       <r>  -12.4447    1.0000 </r>
       <r>  -12.2907    1.0000 </r>
       <r>  -12.2907    1.0000 </r>
       <r>  -12.2796    1.0000 </r>
       <r>  -12.2796    1.0000 </r>
       <r>  -12.2795    1.0000 </r>
       <r>  -12.2795    1.0000 </r>
       <r>  -12.2709    1.0000 </r>
       <r>  -12.2709    1.0000 </r>
       <r>  -12.0497    1.0000 </r>
       <r>  -12.0497    1.0000 </r>
       <r>  -11.9988    1.0000 </r>
       <r>  -11.9988    1.0000 </r>
       <r>   -2.7743    1.0000 </r>
       <r>   -2.7743    1.0000 </r>
       <r>   -2.6715    1.0000 </r>
       <r>   -2.6715    1.0000 </r>
       <r>   -2.2417    1.0000 </r>
       <r>   -2.2417    1.0000 </r>
       <r>   -2.0294    1.0000 </r>
       <r>   -2.0294    1.0000 </r>
       <r>   -1.6997    1.0000 </r>
       <r>   -1.6997    1.0000 </r>
       <r>   -1.6422    1.0000 </r>
       <r>   -1.6422    1.0000 </r>
       <r>   -1.6046    1.0000 </r>
       <r>   -1.6046    1.0000 </r>
       <r>   -1.6000    1.0000 </r>
       <r>   -1.6000    1.0000 </r>
       <r>   -1.5546    1.0000 </r>
       <r>   -1.5546    1.0000 </r>
       <r>   -1.4625    1.0000 </r>
       <r>   -1.4625    1.0000 </r>
       <r>   -1.4409    1.0000 </r>
       <r>   -1.4409    1.0000 </r>
       <r>   -1.1505    1.0000 </r>
       <r>   -1.1505    1.0000 </r>
       <r>   -1.1158    1.0000 </r>
       <r>   -1.1158    1.0000 </r>
       <r>   -1.1026    1.0000 </r>
       <r>   -1.1026    1.0000 </r>
       <r>   -1.0948    1.0000 </r>
       <r>   -1.0948    1.0000 </r>
       <r>   -0.8974    1.0000 </r>
       <r>   -0.8974    1.0000 </r>
       <r>   -0.7044    1.0000 </r>
       <r>   -0.7044    1.0000 </r>
       <r>   -0.6075    1.0000 </r>
       <r>   -0.6075    1.0000 </r>
       <r>    0.1023    1.0000 </r>
       <r>    0.1023    1.0000 </r>
       <r>    0.2442    1.0000 </r>
       <r>    0.2442    1.0000 </r>
       <r>    0.4572    1.0000 </r>
       <r>    0.4572    1.0000 </r>
       <r>    0.5025    1.0000 </r>
       <r>    0.5025    1.0000 </r>
       <r>    0.6811    1.0000 </r>
       <r>    0.6811    1.0000 </r>
       <r>    0.8278    1.0000 </r>
       <r>    0.8278    1.0000 </r>
       <r>    0.8656    1.0000 </r>
       <r>    0.8656    1.0000 </r>
       <r>    0.9665    1.0000 </r>
       <r>    0.9665    1.0000 </r>
       <r>    1.1373    1.0000 </r>
       <r>    1.1373    1.0000 </r>
       <r>    1.2431    1.0000 </r>
       <r>    1.2431    1.0000 </r>
       <r>    1.4341    1.0000 </r>
       <r>    1.4341    1.0000 </r>
       <r>    1.5252    1.0000 </r>
       <r>    1.5252    1.0000 </r>
       <r>    1.6042    1.0000 </r>
       <r>    1.6042    1.0000 </r>
       <r>    1.6718    1.0000 </r>
       <r>    1.6718    1.0000 </r>
       <r>    1.7444    1.0000 </r>
       <r>    1.7444    1.0000 </r>
       <r>    1.7596    1.0000 </r>
       <r>    1.7596    1.0000 </r>
       <r>    1.7815    1.0000 </r>
       <r>    1.7815    1.0000 </r>
       <r>    1.7900    1.0000 </r>
       <r>    1.7900    1.0000 </r>
       <r>    2.1067    1.0000 </r>
       <r>    2.1067    1.0000 </r>
       <r>    2.3942    0.0433 </r>
       <r>    2.3942    0.0433 </r>
       <r>    2.9527    0.0000 </r>
       <r>    2.9527    0.0000 </r>
       <r>    6.5397    0.0000 </r>
       <r>    6.5397    0.0000 </r>
       <r>    7.7010    0.0000 </r>
       <r>    7.7010    0.0000 </r>
       <r>    8.0786    0.0000 </r>
       <r>    8.0786    0.0000 </r>
       <r>    9.3968    0.0000 </r>
       <r>    9.3968    0.0000 </r>
       <r>    9.6213    0.0000 </r>
       <r>    9.6213    0.0000 </r>
       <r>    9.6426    0.0000 </r>
       <r>    9.6426    0.0000 </r>
       <r>    9.6903    0.0000 </r>
       <r>    9.6903    0.0000 </r>
       <r>   10.1367    0.0000 </r>
       <r>   10.1367    0.0000 </r>
       <r>   10.1950    0.0000 </r>
       <r>   10.1950    0.0000 </r>
       <r>   10.2322    0.0000 </r>
       <r>   10.2322    0.0000 </r>
       <r>   10.5892    0.0000 </r>
       <r>   10.5892    0.0000 </r>
       <r>   10.6305    0.0000 </r>
       <r>   10.6305    0.0000 </r>
       <r>   10.6622    0.0000 </r>
       <r>   10.6622    0.0000 </r>
       <r>   10.9718    0.0000 </r>
       <r>   10.9719    0.0000 </r>
       <r>   11.2351    0.0000 </r>
       <r>   11.2580    0.0000 </r>
      </set>
      <set comment="kpoint 4">
       <r>  -30.7095    1.0000 </r>
       <r>  -30.7094    1.0000 </r>
       <r>  -30.3951    1.0000 </r>
       <r>  -30.3948    1.0000 </r>
       <r>  -30.3813    1.0000 </r>
       <r>  -30.3810    1.0000 </r>
       <r>  -14.9450    1.0000 </r>
       <r>  -14.9180    1.0000 </r>
       <r>  -14.7307    1.0000 </r>
       <r>  -14.6324    1.0000 </r>
       <r>  -14.4048    1.0000 </r>
       <r>  -14.1815    1.0000 </r>
       <r>  -14.1797    1.0000 </r>
       <r>  -14.0742    1.0000 </r>
       <r>  -14.0655    1.0000 </r>
       <r>  -14.0390    1.0000 </r>
       <r>  -13.9107    1.0000 </r>
       <r>  -13.8888    1.0000 </r>
       <r>  -13.8674    1.0000 </r>
       <r>  -13.8478    1.0000 </r>
       <r>  -13.7743    1.0000 </r>
       <r>  -13.6549    1.0000 </r>
       <r>  -12.6848    1.0000 </r>
       <r>  -12.6755    1.0000 </r>
       <r>  -12.5735    1.0000 </r>
       <r>  -12.5443    1.0000 </r>
       <r>  -12.5268    1.0000 </r>
       <r>  -12.4523    1.0000 </r>
       <r>  -12.3841    1.0000 </r>
       <r>  -12.3829    1.0000 </r>
       <r>  -12.2896    1.0000 </r>
       <r>  -12.2721    1.0000 </r>
       <r>  -12.2676    1.0000 </r>
       <r>  -12.2492    1.0000 </r>
       <r>  -12.2245    1.0000 </r>
       <r>  -12.2195    1.0000 </r>
       <r>  -12.2077    1.0000 </r>
       <r>  -12.1708    1.0000 </r>
       <r>  -12.1670    1.0000 </r>
       <r>  -12.1514    1.0000 </r>
       <r>   -3.1797    1.0000 </r>
       <r>   -2.7242    1.0000 </r>
       <r>   -2.6886    1.0000 </r>
       <r>   -2.5824    1.0000 </r>
       <r>   -2.4133    1.0000 </r>
       <r>   -2.2835    1.0000 </r>
       <r>   -2.2391    1.0000 </r>
       <r>   -2.0317    1.0000 </r>
       <r>   -2.0216    1.0000 </r>
       <r>   -2.0000    1.0000 </r>
       <r>   -1.9355    1.0000 </r>
       <r>   -1.9308    1.0000 </r>
       <r>   -1.8750    1.0000 </r>
       <r>   -1.8614    1.0000 </r>
       <r>   -1.8550    1.0000 </r>
       <r>   -1.8062    1.0000 </r>
       <r>   -1.8009    1.0000 </r>
       <r>   -1.7791    1.0000 </r>
       <r>   -1.6953    1.0000 </r>
       <r>   -1.6656    1.0000 </r>
       <r>   -1.6642    1.0000 </r>
       <r>   -1.6429    1.0000 </r>
       <r>   -1.5716    1.0000 </r>
       <r>   -1.4852    1.0000 </r>
       <r>   -1.4759    1.0000 </r>
       <r>   -1.2925    1.0000 </r>
       <r>   -1.2317    1.0000 </r>
       <r>   -1.1337    1.0000 </r>
       <r>   -1.0978    1.0000 </r>
       <r>   -1.0706    1.0000 </r>
       <r>   -1.0580    1.0000 </r>
       <r>   -1.0461    1.0000 </r>
       <r>   -0.9591    1.0000 </r>
       <r>   -0.9320    1.0000 </r>
       <r>   -0.5890    1.0000 </r>
       <r>   -0.5011    1.0000 </r>
       <r>    0.0702    1.0000 </r>
       <r>    0.4073    1.0000 </r>
       <r>    0.4891    1.0000 </r>
       <r>    0.7637    1.0000 </r>
       <r>    0.7650    1.0000 </r>
       <r>    0.8050    1.0000 </r>
       <r>    0.8211    1.0000 </r>
       <r>    0.8519    1.0000 </r>
       <r>    0.9023    1.0000 </r>
       <r>    1.0057    1.0000 </r>
       <r>    1.0329    1.0000 </r>
       <r>    1.0471    1.0000 </r>
       <r>    1.0989    1.0000 </r>
       <r>    1.1271    1.0000 </r>
       <r>    1.1472    1.0000 </r>
       <r>    1.1911    1.0000 </r>
       <r>    1.2009    1.0000 </r>
       <r>    1.2049    1.0000 </r>
       <r>    1.2189    1.0000 </r>
       <r>    1.2262    1.0000 </r>
       <r>    1.2821    1.0000 </r>
       <r>    1.4106    1.0000 </r>
       <r>    1.4122    1.0000 </r>
       <r>    1.5530    1.0000 </r>
       <r>    1.5853    1.0000 </r>
       <r>    1.6575    1.0000 </r>
       <r>    1.7133    1.0000 </r>
       <r>    1.7225    1.0000 </r>
       <r>    1.8045    1.0000 </r>
       <r>    1.8177    1.0000 </r>
       <r>    1.9855    1.0000 </r>
       <r>    2.0577    1.0000 </r>
       <r>    2.1068    1.0000 </r>
       <r>    2.2566    0.9852 </r>
       <r>    2.3445    0.3792 </r>
       <r>    2.3548    0.2744 </r>
       <r>    2.3883    0.0610 </r>
       <r>    2.4168    0.0093 </r>
       <r>    2.5021    0.0000 </r>
       <r>    3.3831    0.0000 </r>
       <r>    3.6141    0.0000 </r>
       <r>    4.2207    0.0000 </r>
       <r>    5.6172    0.0000 </r>
       <r>    5.6978    0.0000 </r>
       <r>    8.4644    0.0000 </r>
       <r>    8.6340    0.0000 </r>
       <r>    8.6429    0.0000 </r>
       <r>    8.8576    0.0000 </r>
       <r>    8.9324    0.0000 </r>
       <r>    8.9371    0.0000 </r>
       <r>    9.0053    0.0000 </r>
       <r>    9.3146    0.0000 </r>
       <r>    9.3591    0.0000 </r>
       <r>    9.3965    0.0000 </r>
       <r>    9.6754    0.0000 </r>
       <r>    9.9229    0.0000 </r>
       <r>    9.9637    0.0000 </r>
       <r>   10.0832    0.0000 </r>
       <r>   10.1674    0.0000 </r>
       <r>   10.2966    0.0000 </r>
       <r>   10.3651    0.0000 </r>
       <r>   10.3979    0.0000 </r>
       <r>   10.5145    0.0000 </r>
       <r>   10.6033    0.0000 </r>
       <r>   10.6697    0.0000 </r>
       <r>   10.6744    0.0000 </r>
       <r>   10.7377    0.0000 </r>
       <r>   10.7730    0.0000 </r>
       <r>   10.8490    0.0000 </r>
       <r>   10.9828    0.0000 </r>
       <r>   11.0328    0.0000 </r>
       <r>   11.0667    0.0000 </r>
      </set>
      <set comment="kpoint 5">
       <r>  -30.7093    1.0000 </r>
       <r>  -30.7093    1.0000 </r>
       <r>  -30.3929    1.0000 </r>
       <r>  -30.3928    1.0000 </r>
       <r>  -30.3831    1.0000 </r>
       <r>  -30.3830    1.0000 </r>
       <r>  -14.9092    1.0000 </r>
       <r>  -14.9061    1.0000 </r>
       <r>  -14.7337    1.0000 </r>
       <r>  -14.7244    1.0000 </r>
       <r>  -14.4152    1.0000 </r>
       <r>  -14.3721    1.0000 </r>
       <r>  -14.1176    1.0000 </r>
       <r>  -14.1084    1.0000 </r>
       <r>  -14.0962    1.0000 </r>
       <r>  -14.0028    1.0000 </r>
       <r>  -13.9737    1.0000 </r>
       <r>  -13.8654    1.0000 </r>
       <r>  -13.8422    1.0000 </r>
       <r>  -13.7903    1.0000 </r>
       <r>  -13.7389    1.0000 </r>
       <r>  -13.7227    1.0000 </r>
       <r>  -12.7171    1.0000 </r>
       <r>  -12.7150    1.0000 </r>
       <r>  -12.5429    1.0000 </r>
       <r>  -12.5143    1.0000 </r>
       <r>  -12.5019    1.0000 </r>
       <r>  -12.4729    1.0000 </r>
       <r>  -12.3912    1.0000 </r>
       <r>  -12.3866    1.0000 </r>
       <r>  -12.3103    1.0000 </r>
       <r>  -12.2734    1.0000 </r>
       <r>  -12.2155    1.0000 </r>
       <r>  -12.1950    1.0000 </r>
       <r>  -12.1879    1.0000 </r>
       <r>  -12.1794    1.0000 </r>
       <r>  -12.1523    1.0000 </r>
       <r>  -12.1307    1.0000 </r>
       <r>  -12.1281    1.0000 </r>
       <r>  -12.1237    1.0000 </r>
       <r>   -2.8905    1.0000 </r>
       <r>   -2.8737    1.0000 </r>
       <r>   -2.7882    1.0000 </r>
       <r>   -2.4764    1.0000 </r>
       <r>   -2.3786    1.0000 </r>
       <r>   -2.2517    1.0000 </r>
       <r>   -2.1366    1.0000 </r>
       <r>   -2.0181    1.0000 </r>
       <r>   -1.9754    1.0000 </r>
       <r>   -1.9688    1.0000 </r>
       <r>   -1.9500    1.0000 </r>
       <r>   -1.9052    1.0000 </r>
       <r>   -1.9006    1.0000 </r>
       <r>   -1.8615    1.0000 </r>
       <r>   -1.8329    1.0000 </r>
       <r>   -1.8290    1.0000 </r>
       <r>   -1.7937    1.0000 </r>
       <r>   -1.7800    1.0000 </r>
       <r>   -1.7468    1.0000 </r>
       <r>   -1.6389    1.0000 </r>
       <r>   -1.6302    1.0000 </r>
       <r>   -1.6252    1.0000 </r>
       <r>   -1.5370    1.0000 </r>
       <r>   -1.5223    1.0000 </r>
       <r>   -1.4461    1.0000 </r>
       <r>   -1.4424    1.0000 </r>
       <r>   -1.3693    1.0000 </r>
       <r>   -1.1589    1.0000 </r>
       <r>   -1.0771    1.0000 </r>
       <r>   -1.0730    1.0000 </r>
       <r>   -1.0723    1.0000 </r>
       <r>   -1.0300    1.0000 </r>
       <r>   -0.7720    1.0000 </r>
       <r>   -0.7241    1.0000 </r>
       <r>   -0.5197    1.0000 </r>
       <r>   -0.4923    1.0000 </r>
       <r>    0.3707    1.0000 </r>
       <r>    0.3879    1.0000 </r>
       <r>    0.5186    1.0000 </r>
       <r>    0.5414    1.0000 </r>
       <r>    0.7173    1.0000 </r>
       <r>    0.7348    1.0000 </r>
       <r>    0.7836    1.0000 </r>
       <r>    0.7964    1.0000 </r>
       <r>    0.8445    1.0000 </r>
       <r>    0.8771    1.0000 </r>
       <r>    0.9679    1.0000 </r>
       <r>    0.9993    1.0000 </r>
       <r>    1.0089    1.0000 </r>
       <r>    1.0134    1.0000 </r>
       <r>    1.0501    1.0000 </r>
       <r>    1.1092    1.0000 </r>
       <r>    1.1458    1.0000 </r>
       <r>    1.1690    1.0000 </r>
       <r>    1.2299    1.0000 </r>
       <r>    1.2439    1.0000 </r>
       <r>    1.3433    1.0000 </r>
       <r>    1.3699    1.0000 </r>
       <r>    1.4386    1.0000 </r>
       <r>    1.5190    1.0000 </r>
       <r>    1.6005    1.0000 </r>
       <r>    1.6689    1.0000 </r>
       <r>    1.6719    1.0000 </r>
       <r>    1.6807    1.0000 </r>
       <r>    1.7022    1.0000 </r>
       <r>    1.7979    1.0000 </r>
       <r>    1.8436    1.0000 </r>
       <r>    1.9395    1.0000 </r>
       <r>    1.9919    1.0000 </r>
       <r>    2.1068    1.0000 </r>
       <r>    2.2003    0.9999 </r>
       <r>    2.2529    0.9887 </r>
       <r>    2.3589    0.2369 </r>
       <r>    2.5785    0.0000 </r>
       <r>    2.7999    0.0000 </r>
       <r>    2.9405    0.0000 </r>
       <r>    3.3478    0.0000 </r>
       <r>    3.7948    0.0000 </r>
       <r>    5.9415    0.0000 </r>
       <r>    6.0101    0.0000 </r>
       <r>    8.4704    0.0000 </r>
       <r>    8.5274    0.0000 </r>
       <r>    8.6328    0.0000 </r>
       <r>    8.8158    0.0000 </r>
       <r>    9.0782    0.0000 </r>
       <r>    9.2612    0.0000 </r>
       <r>    9.3046    0.0000 </r>
       <r>    9.4458    0.0000 </r>
       <r>    9.5731    0.0000 </r>
       <r>    9.6850    0.0000 </r>
       <r>    9.6900    0.0000 </r>
       <r>   10.0350    0.0000 </r>
       <r>   10.1021    0.0000 </r>
       <r>   10.1570    0.0000 </r>
       <r>   10.2350    0.0000 </r>
       <r>   10.2846    0.0000 </r>
       <r>   10.3046    0.0000 </r>
       <r>   10.4708    0.0000 </r>
       <r>   10.5420    0.0000 </r>
       <r>   10.6486    0.0000 </r>
       <r>   10.6754    0.0000 </r>
       <r>   10.6888    0.0000 </r>
       <r>   10.8335    0.0000 </r>
       <r>   10.8508    0.0000 </r>
       <r>   10.9033    0.0000 </r>
       <r>   10.9048    0.0000 </r>
       <r>   11.0607    0.0000 </r>
       <r>   11.3028    0.0000 </r>
      </set>
      <set comment="kpoint 6">
       <r>  -30.7091    1.0000 </r>
       <r>  -30.7091    1.0000 </r>
       <r>  -30.3879    1.0000 </r>
       <r>  -30.3879    1.0000 </r>
       <r>  -30.3878    1.0000 </r>
       <r>  -30.3878    1.0000 </r>
       <r>  -14.8579    1.0000 </r>
       <r>  -14.8579    1.0000 </r>
       <r>  -14.8135    1.0000 </r>
       <r>  -14.8135    1.0000 </r>
       <r>  -14.4397    1.0000 </r>
       <r>  -14.4397    1.0000 </r>
       <r>  -14.0678    1.0000 </r>
       <r>  -14.0678    1.0000 </r>
       <r>  -14.0616    1.0000 </r>
       <r>  -14.0616    1.0000 </r>
       <r>  -13.9402    1.0000 </r>
       <r>  -13.9402    1.0000 </r>
       <r>  -13.8490    1.0000 </r>
       <r>  -13.8490    1.0000 </r>
       <r>  -13.7403    1.0000 </r>
       <r>  -13.7403    1.0000 </r>
       <r>  -12.7460    1.0000 </r>
       <r>  -12.7460    1.0000 </r>
       <r>  -12.4883    1.0000 </r>
       <r>  -12.4883    1.0000 </r>
       <r>  -12.4838    1.0000 </r>
       <r>  -12.4838    1.0000 </r>
       <r>  -12.3374    1.0000 </r>
       <r>  -12.3374    1.0000 </r>
       <r>  -12.3307    1.0000 </r>
       <r>  -12.3307    1.0000 </r>
       <r>  -12.2065    1.0000 </r>
       <r>  -12.2065    1.0000 </r>
       <r>  -12.1946    1.0000 </r>
       <r>  -12.1946    1.0000 </r>
       <r>  -12.0691    1.0000 </r>
       <r>  -12.0691    1.0000 </r>
       <r>  -12.0504    1.0000 </r>
       <r>  -12.0504    1.0000 </r>
       <r>   -2.7785    1.0000 </r>
       <r>   -2.7785    1.0000 </r>
       <r>   -2.6956    1.0000 </r>
       <r>   -2.6956    1.0000 </r>
       <r>   -2.2579    1.0000 </r>
       <r>   -2.2579    1.0000 </r>
       <r>   -2.0383    1.0000 </r>
       <r>   -2.0383    1.0000 </r>
       <r>   -1.9652    1.0000 </r>
       <r>   -1.9652    1.0000 </r>
       <r>   -1.9507    1.0000 </r>
       <r>   -1.9507    1.0000 </r>
       <r>   -1.8778    1.0000 </r>
       <r>   -1.8778    1.0000 </r>
       <r>   -1.8310    1.0000 </r>
       <r>   -1.8310    1.0000 </r>
       <r>   -1.6725    1.0000 </r>
       <r>   -1.6725    1.0000 </r>
       <r>   -1.6585    1.0000 </r>
       <r>   -1.6585    1.0000 </r>
       <r>   -1.6168    1.0000 </r>
       <r>   -1.6168    1.0000 </r>
       <r>   -1.5922    1.0000 </r>
       <r>   -1.5922    1.0000 </r>
       <r>   -1.5627    1.0000 </r>
       <r>   -1.5627    1.0000 </r>
       <r>   -1.1002    1.0000 </r>
       <r>   -1.1002    1.0000 </r>
       <r>   -1.0959    1.0000 </r>
       <r>   -1.0959    1.0000 </r>
       <r>   -0.9139    1.0000 </r>
       <r>   -0.9139    1.0000 </r>
       <r>   -0.8721    1.0000 </r>
       <r>   -0.8721    1.0000 </r>
       <r>   -0.4715    1.0000 </r>
       <r>   -0.4715    1.0000 </r>
       <r>    0.4321    1.0000 </r>
       <r>    0.4321    1.0000 </r>
       <r>    0.5862    1.0000 </r>
       <r>    0.5862    1.0000 </r>
       <r>    0.6318    1.0000 </r>
       <r>    0.6318    1.0000 </r>
       <r>    0.6706    1.0000 </r>
       <r>    0.6706    1.0000 </r>
       <r>    0.8398    1.0000 </r>
       <r>    0.8398    1.0000 </r>
       <r>    0.9296    1.0000 </r>
       <r>    0.9296    1.0000 </r>
       <r>    0.9534    1.0000 </r>
       <r>    0.9534    1.0000 </r>
       <r>    1.0336    1.0000 </r>
       <r>    1.0336    1.0000 </r>
       <r>    1.1053    1.0000 </r>
       <r>    1.1053    1.0000 </r>
       <r>    1.2964    1.0000 </r>
       <r>    1.2964    1.0000 </r>
       <r>    1.3180    1.0000 </r>
       <r>    1.3180    1.0000 </r>
       <r>    1.4904    1.0000 </r>
       <r>    1.4904    1.0000 </r>
       <r>    1.5253    1.0000 </r>
       <r>    1.5253    1.0000 </r>
       <r>    1.6421    1.0000 </r>
       <r>    1.6421    1.0000 </r>
       <r>    1.7983    1.0000 </r>
       <r>    1.7983    1.0000 </r>
       <r>    1.8544    1.0000 </r>
       <r>    1.8544    1.0000 </r>
       <r>    1.8911    1.0000 </r>
       <r>    1.8911    1.0000 </r>
       <r>    1.9343    1.0000 </r>
       <r>    1.9343    1.0000 </r>
       <r>    2.6747    0.0000 </r>
       <r>    2.6747    0.0000 </r>
       <r>    2.8579    0.0000 </r>
       <r>    2.8579    0.0000 </r>
       <r>    3.0981    0.0000 </r>
       <r>    3.0981    0.0000 </r>
       <r>    6.4496    0.0000 </r>
       <r>    6.4496    0.0000 </r>
       <r>    8.0649    0.0000 </r>
       <r>    8.0649    0.0000 </r>
       <r>    8.4578    0.0000 </r>
       <r>    8.4578    0.0000 </r>
       <r>    9.4124    0.0000 </r>
       <r>    9.4124    0.0000 </r>
       <r>    9.7404    0.0000 </r>
       <r>    9.7404    0.0000 </r>
       <r>    9.8871    0.0000 </r>
       <r>    9.8871    0.0000 </r>
       <r>   10.1711    0.0000 </r>
       <r>   10.1711    0.0000 </r>
       <r>   10.1778    0.0000 </r>
       <r>   10.1778    0.0000 </r>
       <r>   10.2308    0.0000 </r>
       <r>   10.2308    0.0000 </r>
       <r>   10.3202    0.0000 </r>
       <r>   10.3202    0.0000 </r>
       <r>   10.5122    0.0000 </r>
       <r>   10.5122    0.0000 </r>
       <r>   10.9376    0.0000 </r>
       <r>   10.9376    0.0000 </r>
       <r>   10.9674    0.0000 </r>
       <r>   10.9674    0.0000 </r>
       <r>   11.0304    0.0000 </r>
       <r>   11.0304    0.0000 </r>
       <r>   11.1039    0.0000 </r>
       <r>   11.1039    0.0000 </r>
      </set>
      <set comment="kpoint 7">
       <r>  -30.7019    1.0000 </r>
       <r>  -30.7019    1.0000 </r>
       <r>  -30.3870    1.0000 </r>
       <r>  -30.3867    1.0000 </r>
       <r>  -30.3740    1.0000 </r>
       <r>  -30.3737    1.0000 </r>
       <r>  -14.9836    1.0000 </r>
       <r>  -14.8054    1.0000 </r>
       <r>  -14.7737    1.0000 </r>
       <r>  -14.3591    1.0000 </r>
       <r>  -14.3321    1.0000 </r>
       <r>  -14.1273    1.0000 </r>
       <r>  -14.0566    1.0000 </r>
       <r>  -14.0497    1.0000 </r>
       <r>  -14.0377    1.0000 </r>
       <r>  -13.9698    1.0000 </r>
       <r>  -13.9652    1.0000 </r>
       <r>  -13.9089    1.0000 </r>
       <r>  -13.8754    1.0000 </r>
       <r>  -13.7543    1.0000 </r>
       <r>  -13.6960    1.0000 </r>
       <r>  -13.6351    1.0000 </r>
       <r>  -12.8466    1.0000 </r>
       <r>  -12.8455    1.0000 </r>
       <r>  -12.6391    1.0000 </r>
       <r>  -12.6026    1.0000 </r>
       <r>  -12.5546    1.0000 </r>
       <r>  -12.5468    1.0000 </r>
       <r>  -12.4193    1.0000 </r>
       <r>  -12.4124    1.0000 </r>
       <r>  -12.3889    1.0000 </r>
       <r>  -12.3881    1.0000 </r>
       <r>  -12.3855    1.0000 </r>
       <r>  -12.3500    1.0000 </r>
       <r>  -12.3346    1.0000 </r>
       <r>  -12.3295    1.0000 </r>
       <r>  -12.2479    1.0000 </r>
       <r>  -12.1283    1.0000 </r>
       <r>  -12.0206    1.0000 </r>
       <r>  -11.9767    1.0000 </r>
       <r>   -3.3426    1.0000 </r>
       <r>   -3.0080    1.0000 </r>
       <r>   -2.8693    1.0000 </r>
       <r>   -2.7776    1.0000 </r>
       <r>   -2.6431    1.0000 </r>
       <r>   -2.5782    1.0000 </r>
       <r>   -2.5502    1.0000 </r>
       <r>   -2.4916    1.0000 </r>
       <r>   -2.4090    1.0000 </r>
       <r>   -2.2261    1.0000 </r>
       <r>   -2.1491    1.0000 </r>
       <r>   -2.0934    1.0000 </r>
       <r>   -2.0765    1.0000 </r>
       <r>   -2.0414    1.0000 </r>
       <r>   -2.0264    1.0000 </r>
       <r>   -2.0033    1.0000 </r>
       <r>   -1.9284    1.0000 </r>
       <r>   -1.8643    1.0000 </r>
       <r>   -1.8572    1.0000 </r>
       <r>   -1.8234    1.0000 </r>
       <r>   -1.8004    1.0000 </r>
       <r>   -1.7241    1.0000 </r>
       <r>   -1.6822    1.0000 </r>
       <r>   -1.6790    1.0000 </r>
       <r>   -1.5371    1.0000 </r>
       <r>   -1.2590    1.0000 </r>
       <r>   -1.2144    1.0000 </r>
       <r>   -1.1835    1.0000 </r>
       <r>   -1.1268    1.0000 </r>
       <r>   -1.1235    1.0000 </r>
       <r>   -1.1037    1.0000 </r>
       <r>   -1.0863    1.0000 </r>
       <r>   -0.9782    1.0000 </r>
       <r>   -0.9455    1.0000 </r>
       <r>   -0.3840    1.0000 </r>
       <r>   -0.2465    1.0000 </r>
       <r>   -0.0733    1.0000 </r>
       <r>    0.0723    1.0000 </r>
       <r>    0.0996    1.0000 </r>
       <r>    0.6100    1.0000 </r>
       <r>    0.7907    1.0000 </r>
       <r>    0.8272    1.0000 </r>
       <r>    0.8335    1.0000 </r>
       <r>    0.8912    1.0000 </r>
       <r>    0.9284    1.0000 </r>
       <r>    0.9952    1.0000 </r>
       <r>    1.0472    1.0000 </r>
       <r>    1.0606    1.0000 </r>
       <r>    1.1299    1.0000 </r>
       <r>    1.1649    1.0000 </r>
       <r>    1.1786    1.0000 </r>
       <r>    1.1903    1.0000 </r>
       <r>    1.2129    1.0000 </r>
       <r>    1.2595    1.0000 </r>
       <r>    1.2670    1.0000 </r>
       <r>    1.3040    1.0000 </r>
       <r>    1.5429    1.0000 </r>
       <r>    1.5900    1.0000 </r>
       <r>    1.6198    1.0000 </r>
       <r>    1.7667    1.0000 </r>
       <r>    1.8408    1.0000 </r>
       <r>    1.8490    1.0000 </r>
       <r>    1.8541    1.0000 </r>
       <r>    1.9156    1.0000 </r>
       <r>    2.0165    1.0000 </r>
       <r>    2.1072    1.0000 </r>
       <r>    2.1256    1.0000 </r>
       <r>    2.1997    0.9999 </r>
       <r>    2.2467    0.9930 </r>
       <r>    2.2557    0.9862 </r>
       <r>    2.4548    0.0003 </r>
       <r>    2.5301    0.0000 </r>
       <r>    2.9170    0.0000 </r>
       <r>    3.3720    0.0000 </r>
       <r>    3.4542    0.0000 </r>
       <r>    3.5627    0.0000 </r>
       <r>    3.6248    0.0000 </r>
       <r>    4.2248    0.0000 </r>
       <r>    5.5681    0.0000 </r>
       <r>    5.6395    0.0000 </r>
       <r>    8.8231    0.0000 </r>
       <r>    8.9169    0.0000 </r>
       <r>    9.3053    0.0000 </r>
       <r>    9.3617    0.0000 </r>
       <r>    9.3799    0.0000 </r>
       <r>    9.4194    0.0000 </r>
       <r>    9.6198    0.0000 </r>
       <r>    9.6841    0.0000 </r>
       <r>    9.6891    0.0000 </r>
       <r>    9.7556    0.0000 </r>
       <r>    9.7601    0.0000 </r>
       <r>    9.7820    0.0000 </r>
       <r>    9.8007    0.0000 </r>
       <r>   10.1033    0.0000 </r>
       <r>   10.1593    0.0000 </r>
       <r>   10.2075    0.0000 </r>
       <r>   10.5018    0.0000 </r>
       <r>   10.5306    0.0000 </r>
       <r>   10.6823    0.0000 </r>
       <r>   10.8598    0.0000 </r>
       <r>   10.9621    0.0000 </r>
       <r>   11.0150    0.0000 </r>
       <r>   11.0687    0.0000 </r>
       <r>   11.2152    0.0000 </r>
       <r>   11.4383    0.0000 </r>
       <r>   11.4647    0.0000 </r>
       <r>   11.4868    0.0000 </r>
       <r>   11.4971    0.0000 </r>
      </set>
      <set comment="kpoint 8">
       <r>  -30.7017    1.0000 </r>
       <r>  -30.7017    1.0000 </r>
       <r>  -30.3849    1.0000 </r>
       <r>  -30.3848    1.0000 </r>
       <r>  -30.3757    1.0000 </r>
       <r>  -30.3756    1.0000 </r>
       <r>  -14.8729    1.0000 </r>
       <r>  -14.7176    1.0000 </r>
       <r>  -14.6750    1.0000 </r>
       <r>  -14.3774    1.0000 </r>
       <r>  -14.2827    1.0000 </r>
       <r>  -14.2442    1.0000 </r>
       <r>  -14.2002    1.0000 </r>
       <r>  -14.1399    1.0000 </r>
       <r>  -14.1383    1.0000 </r>
       <r>  -14.0539    1.0000 </r>
       <r>  -13.9834    1.0000 </r>
       <r>  -13.9515    1.0000 </r>
       <r>  -13.9207    1.0000 </r>
       <r>  -13.8376    1.0000 </r>
       <r>  -13.7627    1.0000 </r>
       <r>  -13.6872    1.0000 </r>
       <r>  -12.8642    1.0000 </r>
       <r>  -12.8590    1.0000 </r>
       <r>  -12.6205    1.0000 </r>
       <r>  -12.5611    1.0000 </r>
       <r>  -12.5016    1.0000 </r>
       <r>  -12.4865    1.0000 </r>
       <r>  -12.4111    1.0000 </r>
       <r>  -12.3991    1.0000 </r>
       <r>  -12.3843    1.0000 </r>
       <r>  -12.3518    1.0000 </r>
       <r>  -12.2680    1.0000 </r>
       <r>  -12.2669    1.0000 </r>
       <r>  -12.2222    1.0000 </r>
       <r>  -12.2082    1.0000 </r>
       <r>  -12.1828    1.0000 </r>
       <r>  -12.1335    1.0000 </r>
       <r>  -12.0322    1.0000 </r>
       <r>  -12.0207    1.0000 </r>
       <r>   -3.0890    1.0000 </r>
       <r>   -3.0338    1.0000 </r>
       <r>   -2.9566    1.0000 </r>
       <r>   -2.8146    1.0000 </r>
       <r>   -2.6825    1.0000 </r>
       <r>   -2.6018    1.0000 </r>
       <r>   -2.5786    1.0000 </r>
       <r>   -2.4640    1.0000 </r>
       <r>   -2.3524    1.0000 </r>
       <r>   -2.2190    1.0000 </r>
       <r>   -2.2187    1.0000 </r>
       <r>   -2.1845    1.0000 </r>
       <r>   -2.1771    1.0000 </r>
       <r>   -2.1064    1.0000 </r>
       <r>   -1.9918    1.0000 </r>
       <r>   -1.9322    1.0000 </r>
       <r>   -1.8994    1.0000 </r>
       <r>   -1.8883    1.0000 </r>
       <r>   -1.8660    1.0000 </r>
       <r>   -1.8236    1.0000 </r>
       <r>   -1.8137    1.0000 </r>
       <r>   -1.7388    1.0000 </r>
       <r>   -1.6781    1.0000 </r>
       <r>   -1.5688    1.0000 </r>
       <r>   -1.5016    1.0000 </r>
       <r>   -1.4920    1.0000 </r>
       <r>   -1.3989    1.0000 </r>
       <r>   -1.1722    1.0000 </r>
       <r>   -1.1412    1.0000 </r>
       <r>   -1.1348    1.0000 </r>
       <r>   -1.1292    1.0000 </r>
       <r>   -1.0705    1.0000 </r>
       <r>   -0.6374    1.0000 </r>
       <r>   -0.5909    1.0000 </r>
       <r>   -0.3017    1.0000 </r>
       <r>   -0.2371    1.0000 </r>
       <r>    0.1349    1.0000 </r>
       <r>    0.2156    1.0000 </r>
       <r>    0.5627    1.0000 </r>
       <r>    0.5724    1.0000 </r>
       <r>    0.7572    1.0000 </r>
       <r>    0.8198    1.0000 </r>
       <r>    0.8521    1.0000 </r>
       <r>    0.8612    1.0000 </r>
       <r>    0.9104    1.0000 </r>
       <r>    0.9408    1.0000 </r>
       <r>    0.9459    1.0000 </r>
       <r>    1.0787    1.0000 </r>
       <r>    1.0846    1.0000 </r>
       <r>    1.1116    1.0000 </r>
       <r>    1.1547    1.0000 </r>
       <r>    1.1732    1.0000 </r>
       <r>    1.1871    1.0000 </r>
       <r>    1.1929    1.0000 </r>
       <r>    1.2035    1.0000 </r>
       <r>    1.2577    1.0000 </r>
       <r>    1.4058    1.0000 </r>
       <r>    1.5656    1.0000 </r>
       <r>    1.5986    1.0000 </r>
       <r>    1.6455    1.0000 </r>
       <r>    1.6864    1.0000 </r>
       <r>    1.7608    1.0000 </r>
       <r>    1.7876    1.0000 </r>
       <r>    1.8067    1.0000 </r>
       <r>    1.8256    1.0000 </r>
       <r>    1.9897    1.0000 </r>
       <r>    2.0021    1.0000 </r>
       <r>    2.0565    1.0000 </r>
       <r>    2.0663    1.0000 </r>
       <r>    2.1715    1.0000 </r>
       <r>    2.2041    0.9999 </r>
       <r>    2.5937    0.0000 </r>
       <r>    2.6745    0.0000 </r>
       <r>    3.1783    0.0000 </r>
       <r>    3.4555    0.0000 </r>
       <r>    3.5976    0.0000 </r>
       <r>    3.7846    0.0000 </r>
       <r>    3.9876    0.0000 </r>
       <r>    5.8559    0.0000 </r>
       <r>    5.9200    0.0000 </r>
       <r>    8.8961    0.0000 </r>
       <r>    8.9035    0.0000 </r>
       <r>    9.2317    0.0000 </r>
       <r>    9.2757    0.0000 </r>
       <r>    9.4333    0.0000 </r>
       <r>    9.5275    0.0000 </r>
       <r>    9.7620    0.0000 </r>
       <r>    9.8024    0.0000 </r>
       <r>    9.8318    0.0000 </r>
       <r>    9.9809    0.0000 </r>
       <r>    9.9855    0.0000 </r>
       <r>   10.1732    0.0000 </r>
       <r>   10.2654    0.0000 </r>
       <r>   10.3258    0.0000 </r>
       <r>   10.4115    0.0000 </r>
       <r>   10.4156    0.0000 </r>
       <r>   10.4484    0.0000 </r>
       <r>   10.5834    0.0000 </r>
       <r>   10.6878    0.0000 </r>
       <r>   10.7777    0.0000 </r>
       <r>   10.8389    0.0000 </r>
       <r>   11.2094    0.0000 </r>
       <r>   11.2574    0.0000 </r>
       <r>   11.3688    0.0000 </r>
       <r>   11.4614    0.0000 </r>
       <r>   11.4633    0.0000 </r>
       <r>   11.4840    0.0000 </r>
       <r>   11.5783    0.0000 </r>
      </set>
      <set comment="kpoint 9">
       <r>  -30.7016    1.0000 </r>
       <r>  -30.7016    1.0000 </r>
       <r>  -30.3802    1.0000 </r>
       <r>  -30.3802    1.0000 </r>
       <r>  -30.3801    1.0000 </r>
       <r>  -30.3801    1.0000 </r>
       <r>  -14.5919    1.0000 </r>
       <r>  -14.5919    1.0000 </r>
       <r>  -14.5197    1.0000 </r>
       <r>  -14.5197    1.0000 </r>
       <r>  -14.4011    1.0000 </r>
       <r>  -14.4011    1.0000 </r>
       <r>  -14.2335    1.0000 </r>
       <r>  -14.2335    1.0000 </r>
       <r>  -14.1900    1.0000 </r>
       <r>  -14.1900    1.0000 </r>
       <r>  -14.0017    1.0000 </r>
       <r>  -14.0017    1.0000 </r>
       <r>  -13.9169    1.0000 </r>
       <r>  -13.9169    1.0000 </r>
       <r>  -13.8064    1.0000 </r>
       <r>  -13.8064    1.0000 </r>
       <r>  -12.8726    1.0000 </r>
       <r>  -12.8726    1.0000 </r>
       <r>  -12.5814    1.0000 </r>
       <r>  -12.5814    1.0000 </r>
       <r>  -12.4239    1.0000 </r>
       <r>  -12.4239    1.0000 </r>
       <r>  -12.4015    1.0000 </r>
       <r>  -12.4015    1.0000 </r>
       <r>  -12.3337    1.0000 </r>
       <r>  -12.3337    1.0000 </r>
       <r>  -12.1519    1.0000 </r>
       <r>  -12.1519    1.0000 </r>
       <r>  -12.1376    1.0000 </r>
       <r>  -12.1376    1.0000 </r>
       <r>  -12.1017    1.0000 </r>
       <r>  -12.1017    1.0000 </r>
       <r>  -12.0785    1.0000 </r>
       <r>  -12.0785    1.0000 </r>
       <r>   -2.9491    1.0000 </r>
       <r>   -2.9491    1.0000 </r>
       <r>   -2.9152    1.0000 </r>
       <r>   -2.9152    1.0000 </r>
       <r>   -2.6810    1.0000 </r>
       <r>   -2.6810    1.0000 </r>
       <r>   -2.5560    1.0000 </r>
       <r>   -2.5560    1.0000 </r>
       <r>   -2.2949    1.0000 </r>
       <r>   -2.2949    1.0000 </r>
       <r>   -2.2599    1.0000 </r>
       <r>   -2.2599    1.0000 </r>
       <r>   -2.1358    1.0000 </r>
       <r>   -2.1358    1.0000 </r>
       <r>   -2.0083    1.0000 </r>
       <r>   -2.0083    1.0000 </r>
       <r>   -1.9221    1.0000 </r>
       <r>   -1.9221    1.0000 </r>
       <r>   -1.8524    1.0000 </r>
       <r>   -1.8524    1.0000 </r>
       <r>   -1.6902    1.0000 </r>
[...]
       <r>     5.4844     0.1110   118.0509 </r>
       <r>     5.6402     1.7232   118.3194 </r>
       <r>     5.7960     1.6253   118.5726 </r>
       <r>     5.9518     3.3978   119.1020 </r>
       <r>     6.1076     2.5500   119.4992 </r>
       <r>     6.2634     0.2227   119.5339 </r>
       <r>     6.4192     1.3160   119.7389 </r>
       <r>     6.5750     1.5733   119.9841 </r>
       <r>     6.7308     0.1024   120.0000 </r>
       <r>     6.8866     0.0000   120.0000 </r>
       <r>     7.0424     0.0000   120.0000 </r>
       <r>     7.1982     0.0000   120.0000 </r>
       <r>     7.3540     0.0000   120.0000 </r>
       <r>     7.5098     0.0000   120.0000 </r>
       <r>     7.6655     0.1013   120.0158 </r>
       <r>     7.8213     0.5417   120.1002 </r>
       <r>     7.9771     0.3435   120.1537 </r>
       <r>     8.1329     3.4232   120.6870 </r>
       <r>     8.2887     0.6118   120.7823 </r>
       <r>     8.4445     1.7651   121.0573 </r>
       <r>     8.6003     4.8506   121.8130 </r>
       <r>     8.7561     4.0052   122.4370 </r>
       <r>     8.9119     5.4374   123.2841 </r>
       <r>     9.0677     5.8987   124.2031 </r>
       <r>     9.2235     4.1596   124.8511 </r>
       <r>     9.3793     7.7670   126.0612 </r>
       <r>     9.5351     7.3553   127.2071 </r>
       <r>     9.6909     7.1870   128.3268 </r>
       <r>     9.8467     9.6985   129.8377 </r>
       <r>    10.0024     6.9747   130.9243 </r>
       <r>    10.1582     9.3647   132.3833 </r>
       <r>    10.3140    19.7337   135.4577 </r>
       <r>    10.4698    11.7570   137.2894 </r>
       <r>    10.6256    11.6659   139.1068 </r>
       <r>    10.7814    11.5827   140.9113 </r>
       <r>    10.9372    13.0041   142.9373 </r>
       <r>    11.0930    10.0309   144.5000 </r>
       <r>    11.2488     7.3755   145.6491 </r>
       <r>    11.4046     4.9116   146.4143 </r>
       <r>    11.5604     7.1468   147.5277 </r>
       <r>    11.7162     2.0114   147.8411 </r>
       <r>    11.8720     1.0184   147.9997 </r>
       <r>    12.0278     0.0016   148.0000 </r>
       <r>    12.1836     0.0000   148.0000 </r>
       <r>    12.3394     0.0000   148.0000 </r>
       <r>    12.4951     0.0000   148.0000 </r>
       <r>    12.6509     0.0000   148.0000 </r>
       <r>    12.8067     0.0000   148.0000 </r>
       <r>    12.9625     0.0000   148.0000 </r>
       <r>    13.1183     0.0000   148.0000 </r>
       <r>    13.2741     0.0000   148.0000 </r>
       <r>    13.4299     0.0000   148.0000 </r>
       <r>    13.5857     0.0000   148.0000 </r>
       <r>    13.7415     0.0000   148.0000 </r>
       <r>    13.8973     0.0000   148.0000 </r>
      </set>
      <set comment="spin 2">
       <r>   -32.8408     0.0000     0.0000 </r>
       <r>   -32.6850     0.0000     0.0000 </r>
       <r>   -32.5292     0.0000     0.0000 </r>
       <r>   -32.3734     0.0000     0.0000 </r>
       <r>   -32.2176     0.0000     0.0000 </r>
       <r>   -32.0618     0.0000     0.0000 </r>
       <r>   -31.9060     0.0000     0.0000 </r>
       <r>   -31.7502     0.0000     0.0000 </r>
       <r>   -31.5944     0.0000     0.0000 </r>
       <r>   -31.4386     0.0000     0.0000 </r>
       <r>   -31.2829     0.0000     0.0000 </r>
       <r>   -31.1271     0.0000     0.0000 </r>
       <r>   -30.9713     0.0000     0.0000 </r>
       <r>   -30.8155     0.0189     0.0029 </r>
       <r>   -30.6597    11.7694     1.8365 </r>
       <r>   -30.5039     1.0666     2.0027 </r>
       <r>   -30.3481    22.2959     5.4763 </r>
       <r>   -30.1923     3.3618     6.0000 </r>
       <r>   -30.0365     0.0000     6.0000 </r>
       <r>   -29.8807     0.0000     6.0000 </r>
       <r>   -29.7249     0.0000     6.0000 </r>
       <r>   -29.5691     0.0000     6.0000 </r>
       <r>   -29.4133     0.0000     6.0000 </r>
       <r>   -29.2575     0.0000     6.0000 </r>
       <r>   -29.1017     0.0000     6.0000 </r>
       <r>   -28.9459     0.0000     6.0000 </r>
       <r>   -28.7902     0.0000     6.0000 </r>
       <r>   -28.6344     0.0000     6.0000 </r>
       <r>   -28.4786     0.0000     6.0000 </r>
       <r>   -28.3228     0.0000     6.0000 </r>
       <r>   -28.1670     0.0000     6.0000 </r>
       <r>   -28.0112     0.0000     6.0000 </r>
       <r>   -27.8554     0.0000     6.0000 </r>
       <r>   -27.6996     0.0000     6.0000 </r>
       <r>   -27.5438     0.0000     6.0000 </r>
       <r>   -27.3880     0.0000     6.0000 </r>
       <r>   -27.2322     0.0000     6.0000 </r>
       <r>   -27.0764     0.0000     6.0000 </r>
       <r>   -26.9206     0.0000     6.0000 </r>
       <r>   -26.7648     0.0000     6.0000 </r>
       <r>   -26.6090     0.0000     6.0000 </r>
       <r>   -26.4532     0.0000     6.0000 </r>
       <r>   -26.2975     0.0000     6.0000 </r>
       <r>   -26.1417     0.0000     6.0000 </r>
       <r>   -25.9859     0.0000     6.0000 </r>
       <r>   -25.8301     0.0000     6.0000 </r>
       <r>   -25.6743     0.0000     6.0000 </r>
       <r>   -25.5185     0.0000     6.0000 </r>
       <r>   -25.3627     0.0000     6.0000 </r>
       <r>   -25.2069     0.0000     6.0000 </r>
       <r>   -25.0511     0.0000     6.0000 </r>
       <r>   -24.8953     0.0000     6.0000 </r>
       <r>   -24.7395     0.0000     6.0000 </r>
       <r>   -24.5837     0.0000     6.0000 </r>
       <r>   -24.4279     0.0000     6.0000 </r>
       <r>   -24.2721     0.0000     6.0000 </r>
       <r>   -24.1163     0.0000     6.0000 </r>
       <r>   -23.9606     0.0000     6.0000 </r>
       <r>   -23.8048     0.0000     6.0000 </r>
       <r>   -23.6490     0.0000     6.0000 </r>
       <r>   -23.4932     0.0000     6.0000 </r>
       <r>   -23.3374     0.0000     6.0000 </r>
       <r>   -23.1816     0.0000     6.0000 </r>
       <r>   -23.0258     0.0000     6.0000 </r>
       <r>   -22.8700     0.0000     6.0000 </r>
       <r>   -22.7142     0.0000     6.0000 </r>
       <r>   -22.5584     0.0000     6.0000 </r>
       <r>   -22.4026     0.0000     6.0000 </r>
       <r>   -22.2468     0.0000     6.0000 </r>
       <r>   -22.0910     0.0000     6.0000 </r>
       <r>   -21.9352     0.0000     6.0000 </r>
       <r>   -21.7794     0.0000     6.0000 </r>
       <r>   -21.6236     0.0000     6.0000 </r>
       <r>   -21.4679     0.0000     6.0000 </r>
       <r>   -21.3121     0.0000     6.0000 </r>
       <r>   -21.1563     0.0000     6.0000 </r>
       <r>   -21.0005     0.0000     6.0000 </r>
       <r>   -20.8447     0.0000     6.0000 </r>
       <r>   -20.6889     0.0000     6.0000 </r>
       <r>   -20.5331     0.0000     6.0000 </r>
       <r>   -20.3773     0.0000     6.0000 </r>
       <r>   -20.2215     0.0000     6.0000 </r>
       <r>   -20.0657     0.0000     6.0000 </r>
       <r>   -19.9099     0.0000     6.0000 </r>
       <r>   -19.7541     0.0000     6.0000 </r>
       <r>   -19.5983     0.0000     6.0000 </r>
       <r>   -19.4425     0.0000     6.0000 </r>
       <r>   -19.2867     0.0000     6.0000 </r>
       <r>   -19.1310     0.0000     6.0000 </r>
       <r>   -18.9752     0.0000     6.0000 </r>
       <r>   -18.8194     0.0000     6.0000 </r>
       <r>   -18.6636     0.0000     6.0000 </r>
       <r>   -18.5078     0.0000     6.0000 </r>
       <r>   -18.3520     0.0000     6.0000 </r>
       <r>   -18.1962     0.0000     6.0000 </r>
       <r>   -18.0404     0.0000     6.0000 </r>
       <r>   -17.8846     0.0000     6.0000 </r>
       <r>   -17.7288     0.0000     6.0000 </r>
       <r>   -17.5730     0.0000     6.0000 </r>
       <r>   -17.4172     0.0000     6.0000 </r>
       <r>   -17.2614     0.0000     6.0000 </r>
       <r>   -17.1056     0.0000     6.0000 </r>
       <r>   -16.9498     0.0000     6.0000 </r>
       <r>   -16.7940     0.0000     6.0000 </r>
       <r>   -16.6383     0.0000     6.0000 </r>
       <r>   -16.4825     0.0000     6.0000 </r>
       <r>   -16.3267     0.0000     6.0000 </r>
       <r>   -16.1709     0.0000     6.0000 </r>
       <r>   -16.0151     0.0000     6.0000 </r>
       <r>   -15.8593     0.0000     6.0000 </r>
       <r>   -15.7035     0.0000     6.0000 </r>
       <r>   -15.5477     0.0000     6.0000 </r>
       <r>   -15.3919     0.0000     6.0000 </r>
       <r>   -15.2361     0.0000     6.0000 </r>
       <r>   -15.0803     0.0000     6.0000 </r>
       <r>   -14.9245     0.0238     6.0037 </r>
       <r>   -14.7687     3.8306     6.6005 </r>
       <r>   -14.6129    10.6809     8.2645 </r>
       <r>   -14.4571     7.0221     9.3585 </r>
       <r>   -14.3013     5.8448    10.2691 </r>
       <r>   -14.1456     7.3183    11.4092 </r>
       <r>   -13.9898    10.6012    13.0608 </r>
       <r>   -13.8340    15.6077    15.4924 </r>
       <r>   -13.6782    17.6362    18.2400 </r>
       <r>   -13.5224    18.4528    21.1148 </r>
       <r>   -13.3666     5.6782    21.9995 </r>
       <r>   -13.2108     0.0034    22.0000 </r>
       <r>   -13.0550     0.0000    22.0000 </r>
       <r>   -12.8992     0.6965    22.1085 </r>
       <r>   -12.7434     5.4018    22.9501 </r>
       <r>   -12.5876    10.1300    24.5283 </r>
       <r>   -12.4318    21.2496    27.8388 </r>
       <r>   -12.2760    27.1239    32.0645 </r>
       <r>   -12.1202    30.9266    36.8827 </r>
       <r>   -11.9644    18.5262    39.7690 </r>
       <r>   -11.8087     1.4829    40.0000 </r>
       <r>   -11.6529     0.0000    40.0000 </r>
       <r>   -11.4971     0.0000    40.0000 </r>
       <r>   -11.3413     0.0000    40.0000 </r>
       <r>   -11.1855     0.0000    40.0000 </r>
       <r>   -11.0297     0.0000    40.0000 </r>
       <r>   -10.8739     0.0000    40.0000 </r>
       <r>   -10.7181     0.0000    40.0000 </r>
       <r>   -10.5623     0.0000    40.0000 </r>
       <r>   -10.4065     0.0000    40.0000 </r>
       <r>   -10.2507     0.0000    40.0000 </r>
       <r>   -10.0949     0.0000    40.0000 </r>
       <r>    -9.9391     0.0000    40.0000 </r>
       <r>    -9.7833     0.0000    40.0000 </r>
       <r>    -9.6275     0.0000    40.0000 </r>
       <r>    -9.4717     0.0000    40.0000 </r>
       <r>    -9.3160     0.0000    40.0000 </r>
       <r>    -9.1602     0.0000    40.0000 </r>
       <r>    -9.0044     0.0000    40.0000 </r>
       <r>    -8.8486     0.0000    40.0000 </r>
       <r>    -8.6928     0.0000    40.0000 </r>
       <r>    -8.5370     0.0000    40.0000 </r>
       <r>    -8.3812     0.0000    40.0000 </r>
       <r>    -8.2254     0.0000    40.0000 </r>
       <r>    -8.0696     0.0000    40.0000 </r>
       <r>    -7.9138     0.0000    40.0000 </r>
       <r>    -7.7580     0.0000    40.0000 </r>
       <r>    -7.6022     0.0000    40.0000 </r>
       <r>    -7.4464     0.0000    40.0000 </r>
       <r>    -7.2906     0.0000    40.0000 </r>
       <r>    -7.1348     0.0000    40.0000 </r>
       <r>    -6.9791     0.0000    40.0000 </r>
       <r>    -6.8233     0.0000    40.0000 </r>
       <r>    -6.6675     0.0000    40.0000 </r>
       <r>    -6.5117     0.0000    40.0000 </r>
       <r>    -6.3559     0.0000    40.0000 </r>
       <r>    -6.2001     0.0000    40.0000 </r>
       <r>    -6.0443     0.0000    40.0000 </r>
       <r>    -5.8885     0.0000    40.0000 </r>
       <r>    -5.7327     0.0000    40.0000 </r>
       <r>    -5.5769     0.0000    40.0000 </r>
       <r>    -5.4211     0.0000    40.0000 </r>
       <r>    -5.2653     0.0000    40.0000 </r>
       <r>    -5.1095     0.0000    40.0000 </r>
       <r>    -4.9537     0.0000    40.0000 </r>
       <r>    -4.7979     0.0000    40.0000 </r>
       <r>    -4.6421     0.0000    40.0000 </r>
       <r>    -4.4864     0.0000    40.0000 </r>
       <r>    -4.3306     0.0000    40.0000 </r>
       <r>    -4.1748     0.0000    40.0000 </r>
       <r>    -4.0190     0.0000    40.0000 </r>
       <r>    -3.8632     0.0000    40.0000 </r>
       <r>    -3.7074     0.0000    40.0000 </r>
       <r>    -3.5516     0.0000    40.0000 </r>
       <r>    -3.3958     0.0001    40.0000 </r>
       <r>    -3.2400     0.4958    40.0772 </r>
       <r>    -3.0842     0.8754    40.2136 </r>
       <r>    -2.9284     2.7748    40.6459 </r>
       <r>    -2.7726     8.5376    41.9760 </r>
       <r>    -2.6168     9.3723    43.4362 </r>
       <r>    -2.4610     9.3542    44.8935 </r>
       <r>    -2.3052     7.5076    46.0631 </r>
       <r>    -2.1494    12.7701    48.0526 </r>
       <r>    -1.9937    11.8589    49.9002 </r>
       <r>    -1.8379    21.7826    53.2938 </r>
       <r>    -1.6821    28.1541    57.6800 </r>
       <r>    -1.5263    27.8795    62.0234 </r>
       <r>    -1.3705    18.5950    64.9204 </r>
       <r>    -1.2147     5.6831    65.8058 </r>
       <r>    -1.0589    21.3774    69.1363 </r>
       <r>    -0.9031    12.1834    71.0344 </r>
       <r>    -0.7473     8.8668    72.4158 </r>
       <r>    -0.5915     8.1227    73.6812 </r>
       <r>    -0.4357     8.9212    75.0711 </r>
       <r>    -0.2799     2.2583    75.4230 </r>
       <r>    -0.1241     3.6457    75.9909 </r>
       <r>     0.0317     0.8182    76.1184 </r>
       <r>     0.1875     3.3443    76.6394 </r>
       <r>     0.3432     3.7588    77.2250 </r>
       <r>     0.4990     4.6241    77.9454 </r>
       <r>     0.6548     9.5734    79.4369 </r>
       <r>     0.8106    10.1643    81.0204 </r>
       <r>     0.9664    17.9017    83.8094 </r>
       <r>     1.1222    19.5368    86.8531 </r>
       <r>     1.2780    29.7853    91.4935 </r>
       <r>     1.4338    22.9323    95.0662 </r>
       <r>     1.5896    17.5644    97.8026 </r>
       <r>     1.7454    15.6919   100.2473 </r>
       <r>     1.9012    19.1176   103.2257 </r>
       <r>     2.0570    21.1628   106.5227 </r>
       <r>     2.2128    13.0497   108.5558 </r>
       <r>     2.3686    11.7981   110.3938 </r>
       <r>     2.5244    11.5235   112.1891 </r>
       <r>     2.6802     4.8308   112.9417 </r>
       <r>     2.8359     4.7144   113.6762 </r>
       <r>     2.9917     4.1599   114.3243 </r>
       <r>     3.1475     3.6059   114.8861 </r>
       <r>     3.3033     2.2008   115.2289 </r>
       <r>     3.4591     2.1132   115.5582 </r>
       <r>     3.6149     3.4652   116.0980 </r>
       <r>     3.7707     4.2303   116.7571 </r>
       <r>     3.9265     3.7050   117.3343 </r>
       <r>     4.0823     1.5629   117.5778 </r>
       <r>     4.2381     1.1751   117.7608 </r>
       <r>     4.3939     1.5292   117.9991 </r>
       <r>     4.5497     0.0059   118.0000 </r>
       <r>     4.7055     0.0000   118.0000 </r>
       <r>     4.8613     0.0000   118.0000 </r>
       <r>     5.0171     0.0000   118.0000 </r>
       <r>     5.1728     0.0000   118.0000 </r>
       <r>     5.3286     0.1577   118.0246 </r>
       <r>     5.4844     0.1644   118.0502 </r>
       <r>     5.6402     1.2481   118.2446 </r>
       <r>     5.7960     1.9017   118.5409 </r>
       <r>     5.9518     2.9099   118.9942 </r>
       <r>     6.1076     3.2127   119.4948 </r>
       <r>     6.2634     0.1343   119.5157 </r>
       <r>     6.4192     1.2797   119.7151 </r>
       <r>     6.5750     1.5756   119.9605 </r>
       <r>     6.7308     0.2534   120.0000 </r>
       <r>     6.8866     0.0000   120.0000 </r>
       <r>     7.0424     0.0000   120.0000 </r>
       <r>     7.1982     0.0000   120.0000 </r>
       <r>     7.3540     0.0000   120.0000 </r>
       <r>     7.5098     0.0000   120.0000 </r>
       <r>     7.6655     0.0625   120.0097 </r>
       <r>     7.8213     0.5807   120.1002 </r>
       <r>     7.9771     0.3248   120.1508 </r>
       <r>     8.1329     3.3405   120.6712 </r>
       <r>     8.2887     0.6817   120.7774 </r>
       <r>     8.4445     1.3452   120.9870 </r>
       <r>     8.6003     5.0335   121.7712 </r>
       <r>     8.7561     4.1006   122.4100 </r>
       <r>     8.9119     4.4205   123.0987 </r>
       <r>     9.0677     6.5222   124.1148 </r>
       <r>     9.2235     4.1576   124.7626 </r>
       <r>     9.3793     7.3089   125.9012 </r>
       <r>     9.5351     7.9999   127.1476 </r>
       <r>     9.6909     6.2340   128.1188 </r>
       <r>     9.8467    10.2707   129.7189 </r>
       <r>    10.0024     6.4661   130.7263 </r>
       <r>    10.1582     8.5508   132.0584 </r>
       <r>    10.3140    18.9641   135.0129 </r>
       <r>    10.4698    13.0499   137.0460 </r>
       <r>    10.6256    11.9031   138.9004 </r>
       <r>    10.7814    11.6745   140.7192 </r>
       <r>    10.9372    13.3242   142.7951 </r>
       <r>    11.0930     9.6885   144.3045 </r>
       <r>    11.2488     7.3474   145.4491 </r>
       <r>    11.4046     5.8819   146.3655 </r>
       <r>    11.5604     6.8177   147.4277 </r>
       <r>    11.7162     2.5657   147.8274 </r>
       <r>    11.8720     1.1071   147.9999 </r>
       <r>    12.0278     0.0007   148.0000 </r>
       <r>    12.1836     0.0000   148.0000 </r>
       <r>    12.3394     0.0000   148.0000 </r>
       <r>    12.4951     0.0000   148.0000 </r>
       <r>    12.6509     0.0000   148.0000 </r>
       <r>    12.8067     0.0000   148.0000 </r>
       <r>    12.9625     0.0000   148.0000 </r>
       <r>    13.1183     0.0000   148.0000 </r>
       <r>    13.2741     0.0000   148.0000 </r>
       <r>    13.4299     0.0000   148.0000 </r>
       <r>    13.5857     0.0000   148.0000 </r>
       <r>    13.7415     0.0000   148.0000 </r>
       <r>    13.8973     0.0000   148.0000 </r>
      </set>
     </set>
    </array>
   </total>
  </dos>
 </calculation>
 <structure name="finalpos" >
  <crystal>
   <varray name="basis" >
    <v>       5.65685425       0.00000000       0.00000000 </v>
    <v>       0.00000000      16.97056275       0.00000000 </v>
    <v>       0.00000000       0.00000000       4.00000000 </v>
   </varray>
   <i name="volume">    384.00000000 </i>
   <varray name="rec_basis" >
    <v>       0.17677670       0.00000000       0.00000000 </v>
    <v>       0.00000000       0.05892557       0.00000000 </v>
    <v>       0.00000000       0.00000000       0.25000000 </v>
   </varray>
  </crystal>
  <varray name="positions" >
   <v>       0.00000000       0.00000000       0.00000000 </v>
   <v>       0.50000000       0.83333333       0.00000000 </v>
   <v>       0.00000000       0.66666667       0.00000000 </v>
   <v>       0.50000000       0.50000000       0.00000000 </v>
   <v>       0.00000000       0.33333333       0.00000000 </v>
   <v>       0.50000000       0.16666667       0.00000000 </v>
   <v>       0.50000000       0.00000000       0.50000000 </v>
   <v>       0.00000000       0.83333333       0.50000000 </v>
   <v>       0.50000000       0.66666667       0.50000000 </v>
   <v>       0.00000000       0.50000000       0.50000000 </v>
   <v>       0.50000000       0.33333333       0.50000000 </v>
   <v>       0.00000000       0.16666667       0.50000000 </v>
   <v>       0.75000000       0.58333333       0.50000000 </v>
   <v>       0.75000000       0.91666667       0.50000000 </v>
   <v>       0.25000000       0.75000000       0.50000000 </v>
   <v>       0.00000000       0.83333333       0.00000000 </v>
   <v>       0.50000000       0.66666667       0.00000000 </v>
   <v>       0.25000000       0.91666667       0.50000000 </v>
   <v>       0.75000000       0.75000000       0.50000000 </v>
   <v>       0.25000000       0.58333333       0.50000000 </v>
   <v>       0.25000000       0.08333333       0.50000000 </v>
   <v>       0.25000000       0.41666667       0.50000000 </v>
   <v>       0.75000000       0.25000000       0.50000000 </v>
   <v>       0.50000000       0.33333333       0.00000000 </v>
   <v>       0.00000000       0.16666667       0.00000000 </v>
   <v>       0.75000000       0.41666667       0.50000000 </v>
   <v>       0.25000000       0.25000000       0.50000000 </v>
   <v>       0.75000000       0.08333333       0.50000000 </v>
  </varray>
 </structure>
</modeling>
