<?xml version="1.0" encoding="ISO-8859-1"?>
<modeling>
 <generator>
  <i name="program" type="string">vasp </i>
  <i name="version" type="string">5.3.5  </i>
  <i name="subversion" type="string">31Mar14 (build Jun 20 2014 13:15:13) complex                          parallel </i>
  <i name="platform" type="string">LinuxIFC </i>
  <i name="date" type="string">2025 11 27 </i>
  <i name="time" type="string">07:20:50 </i>
 </generator>
 <incar>
  <i type="string" name="PREC">accurate</i>
  <i type="int" name="IALGO">    68</i>
  <i type="logical" name="ADDGRID"> T  </i>
  <i type="int" name="NELM">   200</i>
  <i type="int" name="NELMIN">     4</i>
  <i type="int" name="IBRION">     2</i>
  <i name="EDIFF">      0.00000100</i>
  <i name="EDIFFG">     -0.02000000</i>
  <i type="int" name="NSW">    30</i>
  <i type="int" name="ISIF">     3</i>
  <i name="ENCUT">    500.00000000</i>
  <i type="logical" name="LREAL"> F  </i>
  <i type="int" name="ISMEAR">     1</i>
  <i name="SIGMA">      0.30000000</i>
  <i type="logical" name="LWAVE"> F  </i>
  <i type="logical" name="LCHARG"> F  </i>
  <i type="int" name="NELM">   200</i>
 </incar>
 <kpoints>
  <generation param="Auto">
   <i name="subdivisionlength">     70.00000000 </i>
   <v type="int" name="divisions">      28       28        5 </v>
   <v name="usershift">      0.00000000       0.00000000       0.00000000 </v>
   <v name="genvec1">      0.03571429       0.00000000       0.00000000 </v>
   <v name="genvec2">      0.00000000       0.03571429       0.00000000 </v>
   <v name="genvec3">      0.00000000       0.00000000       0.20000000 </v>
   <v name="shift">      0.00000000       0.00000000       0.00000000 </v>
  </generation>
  <varray name="kpointlist" >
   <v>       0.00000000       0.00000000       0.00000000 </v>
   <v>       0.03571429       0.00000000       0.00000000 </v>
   <v>       0.07142857       0.00000000       0.00000000 </v>
   <v>       0.10714286       0.00000000       0.00000000 </v>
   <v>       0.14285714       0.00000000       0.00000000 </v>
   <v>       0.17857143       0.00000000       0.00000000 </v>
   <v>       0.21428571       0.00000000       0.00000000 </v>
   <v>       0.25000000       0.00000000       0.00000000 </v>
   <v>       0.28571429       0.00000000       0.00000000 </v>
   <v>       0.32142857       0.00000000       0.00000000 </v>
   <v>       0.35714286       0.00000000       0.00000000 </v>
   <v>       0.39285714       0.00000000       0.00000000 </v>
   <v>       0.42857143       0.00000000       0.00000000 </v>
   <v>       0.46428571       0.00000000       0.00000000 </v>
   <v>       0.50000000       0.00000000       0.00000000 </v>
   <v>       0.03571429       0.03571429       0.00000000 </v>
   <v>       0.07142857       0.03571429       0.00000000 </v>
   <v>       0.10714286       0.03571429       0.00000000 </v>
   <v>       0.14285714       0.03571429       0.00000000 </v>
   <v>       0.17857143       0.03571429       0.00000000 </v>
   <v>       0.21428571       0.03571429       0.00000000 </v>
   <v>       0.25000000       0.03571429       0.00000000 </v>
   <v>       0.28571429       0.03571429       0.00000000 </v>
   <v>       0.32142857       0.03571429       0.00000000 </v>
   <v>       0.35714286       0.03571429       0.00000000 </v>
   <v>       0.39285714       0.03571429       0.00000000 </v>
   <v>       0.42857143       0.03571429       0.00000000 </v>
   <v>       0.46428571       0.03571429       0.00000000 </v>
   <v>       0.07142857       0.07142857       0.00000000 </v>
   <v>       0.10714286       0.07142857       0.00000000 </v>
   <v>       0.14285714       0.07142857       0.00000000 </v>
   <v>       0.17857143       0.07142857       0.00000000 </v>
   <v>       0.21428571       0.07142857       0.00000000 </v>
   <v>       0.25000000       0.07142857       0.00000000 </v>
   <v>       0.28571429       0.07142857       0.00000000 </v>
   <v>       0.32142857       0.07142857       0.00000000 </v>
   <v>       0.35714286       0.07142857       0.00000000 </v>
   <v>       0.39285714       0.07142857       0.00000000 </v>
   <v>       0.42857143       0.07142857       0.00000000 </v>
   <v>       0.46428571       0.07142857       0.00000000 </v>
   <v>       0.10714286       0.10714286       0.00000000 </v>
   <v>       0.14285714       0.10714286       0.00000000 </v>
   <v>       0.17857143       0.10714286       0.00000000 </v>
   <v>       0.21428571       0.10714286       0.00000000 </v>
   <v>       0.25000000       0.10714286       0.00000000 </v>
   <v>       0.28571429       0.10714286       0.00000000 </v>
   <v>       0.32142857       0.10714286       0.00000000 </v>
   <v>       0.35714286       0.10714286       0.00000000 </v>
   <v>       0.39285714       0.10714286       0.00000000 </v>
   <v>       0.42857143       0.10714286       0.00000000 </v>
   <v>       0.14285714       0.14285714       0.00000000 </v>
   <v>       0.17857143       0.14285714       0.00000000 </v>
   <v>       0.21428571       0.14285714       0.00000000 </v>
   <v>       0.25000000       0.14285714       0.00000000 </v>
   <v>       0.28571429       0.14285714       0.00000000 </v>
   <v>       0.32142857       0.14285714       0.00000000 </v>
   <v>       0.35714286       0.14285714       0.00000000 </v>
   <v>       0.39285714       0.14285714       0.00000000 </v>
   <v>       0.42857143       0.14285714       0.00000000 </v>
   <v>       0.17857143       0.17857143       0.00000000 </v>
   <v>       0.21428571       0.17857143       0.00000000 </v>
   <v>       0.25000000       0.17857143       0.00000000 </v>
   <v>       0.28571429       0.17857143       0.00000000 </v>
   <v>       0.32142857       0.17857143       0.00000000 </v>
   <v>       0.35714286       0.17857143       0.00000000 </v>
   <v>       0.39285714       0.17857143       0.00000000 </v>
   <v>       0.21428571       0.21428571       0.00000000 </v>
   <v>       0.25000000       0.21428571       0.00000000 </v>
   <v>       0.28571429       0.21428571       0.00000000 </v>
   <v>       0.32142857       0.21428571       0.00000000 </v>
   <v>       0.35714286       0.21428571       0.00000000 </v>
   <v>       0.39285714       0.21428571       0.00000000 </v>
   <v>       0.25000000       0.25000000       0.00000000 </v>
   <v>       0.28571429       0.25000000       0.00000000 </v>
   <v>       0.32142857       0.25000000       0.00000000 </v>
   <v>       0.35714286       0.25000000       0.00000000 </v>
   <v>       0.28571429       0.28571429       0.00000000 </v>
   <v>       0.32142857       0.28571429       0.00000000 </v>
   <v>       0.35714286       0.28571429       0.00000000 </v>
   <v>       0.32142857       0.32142857       0.00000000 </v>
   <v>       0.00000000       0.00000000       0.20000000 </v>
   <v>       0.03571429       0.00000000       0.20000000 </v>
   <v>       0.07142857       0.00000000       0.20000000 </v>
   <v>       0.10714286       0.00000000       0.20000000 </v>
   <v>       0.14285714       0.00000000       0.20000000 </v>
   <v>       0.17857143       0.00000000       0.20000000 </v>
   <v>       0.21428571       0.00000000       0.20000000 </v>
   <v>       0.25000000       0.00000000       0.20000000 </v>
   <v>       0.28571429       0.00000000       0.20000000 </v>
   <v>       0.32142857       0.00000000       0.20000000 </v>
   <v>       0.35714286       0.00000000       0.20000000 </v>
   <v>       0.39285714       0.00000000       0.20000000 </v>
   <v>       0.42857143       0.00000000       0.20000000 </v>
   <v>       0.46428571       0.00000000       0.20000000 </v>
   <v>       0.50000000       0.00000000       0.20000000 </v>
   <v>      -0.46428571       0.00000000       0.20000000 </v>
   <v>      -0.42857143       0.00000000       0.20000000 </v>
   <v>      -0.39285714       0.00000000       0.20000000 </v>
   <v>      -0.35714286       0.00000000       0.20000000 </v>
   <v>      -0.32142857       0.00000000       0.20000000 </v>
   <v>      -0.28571429       0.00000000       0.20000000 </v>
   <v>      -0.25000000       0.00000000       0.20000000 </v>
   <v>      -0.21428571       0.00000000       0.20000000 </v>
   <v>      -0.17857143       0.00000000       0.20000000 </v>
   <v>      -0.14285714       0.00000000       0.20000000 </v>
   <v>      -0.10714286       0.00000000       0.20000000 </v>
   <v>      -0.07142857       0.00000000       0.20000000 </v>
   <v>      -0.03571429       0.00000000       0.20000000 </v>
   <v>       0.03571429       0.03571429       0.20000000 </v>
   <v>       0.07142857       0.03571429       0.20000000 </v>
   <v>       0.10714286       0.03571429       0.20000000 </v>
   <v>       0.14285714       0.03571429       0.20000000 </v>
   <v>       0.17857143       0.03571429       0.20000000 </v>
   <v>       0.21428571       0.03571429       0.20000000 </v>
   <v>       0.25000000       0.03571429       0.20000000 </v>
   <v>       0.28571429       0.03571429       0.20000000 </v>
   <v>       0.32142857       0.03571429       0.20000000 </v>
   <v>       0.35714286       0.03571429       0.20000000 </v>
   <v>       0.39285714       0.03571429       0.20000000 </v>
   <v>       0.42857143       0.03571429       0.20000000 </v>
   <v>       0.46428571       0.03571429       0.20000000 </v>
   <v>       0.50000000       0.03571429       0.20000000 </v>
   <v>      -0.46428571       0.03571429       0.20000000 </v>
   <v>      -0.42857143       0.03571429       0.20000000 </v>
   <v>      -0.39285714       0.03571429       0.20000000 </v>
   <v>      -0.35714286       0.03571429       0.20000000 </v>
   <v>      -0.32142857       0.03571429       0.20000000 </v>
   <v>      -0.28571429       0.03571429       0.20000000 </v>
   <v>      -0.25000000       0.03571429       0.20000000 </v>
   <v>      -0.21428571       0.03571429       0.20000000 </v>
   <v>      -0.17857143       0.03571429       0.20000000 </v>
   <v>      -0.14285714       0.03571429       0.20000000 </v>
   <v>      -0.10714286       0.03571429       0.20000000 </v>
   <v>       0.07142857       0.07142857       0.20000000 </v>
   <v>       0.10714286       0.07142857       0.20000000 </v>
   <v>       0.14285714       0.07142857       0.20000000 </v>
   <v>       0.17857143       0.07142857       0.20000000 </v>
   <v>       0.21428571       0.07142857       0.20000000 </v>
   <v>       0.25000000       0.07142857       0.20000000 </v>
   <v>       0.28571429       0.07142857       0.20000000 </v>
   <v>       0.32142857       0.07142857       0.20000000 </v>
   <v>       0.35714286       0.07142857       0.20000000 </v>
   <v>       0.39285714       0.07142857       0.20000000 </v>
   <v>       0.42857143       0.07142857       0.20000000 </v>
   <v>       0.46428571       0.07142857       0.20000000 </v>
   <v>       0.50000000       0.07142857       0.20000000 </v>
   <v>      -0.46428571       0.07142857       0.20000000 </v>
   <v>      -0.42857143       0.07142857       0.20000000 </v>
   <v>      -0.39285714       0.07142857       0.20000000 </v>
   <v>      -0.35714286       0.07142857       0.20000000 </v>
   <v>      -0.32142857       0.07142857       0.20000000 </v>
   <v>      -0.28571429       0.07142857       0.20000000 </v>
   <v>      -0.25000000       0.07142857       0.20000000 </v>
   <v>      -0.21428571       0.07142857       0.20000000 </v>
   <v>      -0.17857143       0.07142857       0.20000000 </v>
   <v>       0.10714286       0.10714286       0.20000000 </v>
   <v>       0.14285714       0.10714286       0.20000000 </v>
   <v>       0.17857143       0.10714286       0.20000000 </v>
   <v>       0.21428571       0.10714286       0.20000000 </v>
   <v>       0.25000000       0.10714286       0.20000000 </v>
   <v>       0.28571429       0.10714286       0.20000000 </v>
   <v>       0.32142857       0.10714286       0.20000000 </v>
   <v>       0.35714286       0.10714286       0.20000000 </v>
   <v>       0.39285714       0.10714286       0.20000000 </v>
   <v>       0.42857143       0.10714286       0.20000000 </v>
   <v>       0.46428571       0.10714286       0.20000000 </v>
   <v>       0.50000000       0.10714286       0.20000000 </v>
   <v>      -0.46428571       0.10714286       0.20000000 </v>
   <v>      -0.42857143       0.10714286       0.20000000 </v>
   <v>      -0.39285714       0.10714286       0.20000000 </v>
   <v>      -0.35714286       0.10714286       0.20000000 </v>
   <v>      -0.32142857       0.10714286       0.20000000 </v>
   <v>      -0.28571429       0.10714286       0.20000000 </v>
   <v>      -0.25000000       0.10714286       0.20000000 </v>
   <v>       0.14285714       0.14285714       0.20000000 </v>
   <v>       0.17857143       0.14285714       0.20000000 </v>
   <v>       0.21428571       0.14285714       0.20000000 </v>
   <v>       0.25000000       0.14285714       0.20000000 </v>
   <v>       0.28571429       0.14285714       0.20000000 </v>
   <v>       0.32142857       0.14285714       0.20000000 </v>
   <v>       0.35714286       0.14285714       0.20000000 </v>
   <v>       0.39285714       0.14285714       0.20000000 </v>
   <v>       0.42857143       0.14285714       0.20000000 </v>
   <v>       0.46428571       0.14285714       0.20000000 </v>
   <v>       0.50000000       0.14285714       0.20000000 </v>
   <v>      -0.46428571       0.14285714       0.20000000 </v>
   <v>      -0.42857143       0.14285714       0.20000000 </v>
   <v>      -0.39285714       0.14285714       0.20000000 </v>
   <v>      -0.35714286       0.14285714       0.20000000 </v>
   <v>      -0.32142857       0.14285714       0.20000000 </v>
   <v>       0.17857143       0.17857143       0.20000000 </v>
   <v>       0.21428571       0.17857143       0.20000000 </v>
   <v>       0.25000000       0.17857143       0.20000000 </v>
   <v>       0.28571429       0.17857143       0.20000000 </v>
   <v>       0.32142857       0.17857143       0.20000000 </v>
   <v>       0.35714286       0.17857143       0.20000000 </v>
   <v>       0.39285714       0.17857143       0.20000000 </v>
   <v>       0.42857143       0.17857143       0.20000000 </v>
   <v>       0.46428571       0.17857143       0.20000000 </v>
   <v>       0.50000000       0.17857143       0.20000000 </v>
   <v>      -0.46428571       0.17857143       0.20000000 </v>
   <v>      -0.42857143       0.17857143       0.20000000 </v>
   <v>      -0.39285714       0.17857143       0.20000000 </v>
   <v>       0.21428571       0.21428571       0.20000000 </v>
   <v>       0.25000000       0.21428571       0.20000000 </v>
   <v>       0.28571429       0.21428571       0.20000000 </v>
   <v>       0.32142857       0.21428571       0.20000000 </v>
   <v>       0.35714286       0.21428571       0.20000000 </v>
   <v>       0.39285714       0.21428571       0.20000000 </v>
   <v>       0.42857143       0.21428571       0.20000000 </v>
   <v>       0.46428571       0.21428571       0.20000000 </v>
   <v>       0.50000000       0.21428571       0.20000000 </v>
   <v>      -0.46428571       0.21428571       0.20000000 </v>
   <v>       0.25000000       0.25000000       0.20000000 </v>
   <v>       0.28571429       0.25000000       0.20000000 </v>
   <v>       0.32142857       0.25000000       0.20000000 </v>
   <v>       0.35714286       0.25000000       0.20000000 </v>
   <v>       0.39285714       0.25000000       0.20000000 </v>
   <v>       0.42857143       0.25000000       0.20000000 </v>
   <v>       0.46428571       0.25000000       0.20000000 </v>
   <v>       0.28571429       0.28571429       0.20000000 </v>
   <v>       0.32142857       0.28571429       0.20000000 </v>
   <v>       0.35714286       0.28571429       0.20000000 </v>
   <v>       0.39285714       0.28571429       0.20000000 </v>
   <v>       0.32142857       0.32142857       0.20000000 </v>
   <v>       0.00000000       0.00000000       0.40000000 </v>
   <v>       0.03571429       0.00000000       0.40000000 </v>
   <v>       0.07142857       0.00000000       0.40000000 </v>
   <v>       0.10714286       0.00000000       0.40000000 </v>
   <v>       0.14285714       0.00000000       0.40000000 </v>
   <v>       0.17857143       0.00000000       0.40000000 </v>
   <v>       0.21428571       0.00000000       0.40000000 </v>
   <v>       0.25000000       0.00000000       0.40000000 </v>
   <v>       0.28571429       0.00000000       0.40000000 </v>
   <v>       0.32142857       0.00000000       0.40000000 </v>
   <v>       0.35714286       0.00000000       0.40000000 </v>
   <v>       0.39285714       0.00000000       0.40000000 </v>
   <v>       0.42857143       0.00000000       0.40000000 </v>
   <v>       0.46428571       0.00000000       0.40000000 </v>
   <v>       0.50000000       0.00000000       0.40000000 </v>
   <v>      -0.46428571       0.00000000       0.40000000 </v>
   <v>      -0.42857143       0.00000000       0.40000000 </v>
   <v>      -0.39285714       0.00000000       0.40000000 </v>
   <v>      -0.35714286       0.00000000       0.40000000 </v>
   <v>      -0.32142857       0.00000000       0.40000000 </v>
   <v>      -0.28571429       0.00000000       0.40000000 </v>
   <v>      -0.25000000       0.00000000       0.40000000 </v>
   <v>      -0.21428571       0.00000000       0.40000000 </v>
   <v>      -0.17857143       0.00000000       0.40000000 </v>
   <v>      -0.14285714       0.00000000       0.40000000 </v>
   <v>      -0.10714286       0.00000000       0.40000000 </v>
   <v>      -0.07142857       0.00000000       0.40000000 </v>
   <v>      -0.03571429       0.00000000       0.40000000 </v>
   <v>       0.03571429       0.03571429       0.40000000 </v>
   <v>       0.07142857       0.03571429       0.40000000 </v>
   <v>       0.10714286       0.03571429       0.40000000 </v>
   <v>       0.14285714       0.03571429       0.40000000 </v>
   <v>       0.17857143       0.03571429       0.40000000 </v>
   <v>       0.21428571       0.03571429       0.40000000 </v>
   <v>       0.25000000       0.03571429       0.40000000 </v>
   <v>       0.28571429       0.03571429       0.40000000 </v>
   <v>       0.32142857       0.03571429       0.40000000 </v>
   <v>       0.35714286       0.03571429       0.40000000 </v>
   <v>       0.39285714       0.03571429       0.40000000 </v>
   <v>       0.42857143       0.03571429       0.40000000 </v>
   <v>       0.46428571       0.03571429       0.40000000 </v>
   <v>       0.50000000       0.03571429       0.40000000 </v>
   <v>      -0.46428571       0.03571429       0.40000000 </v>
   <v>      -0.42857143       0.03571429       0.40000000 </v>
   <v>      -0.39285714       0.03571429       0.40000000 </v>
   <v>      -0.35714286       0.03571429       0.40000000 </v>
   <v>      -0.32142857       0.03571429       0.40000000 </v>
   <v>      -0.28571429       0.03571429       0.40000000 </v>
   <v>      -0.25000000       0.03571429       0.40000000 </v>
   <v>      -0.21428571       0.03571429       0.40000000 </v>
   <v>      -0.17857143       0.03571429       0.40000000 </v>
   <v>      -0.14285714       0.03571429       0.40000000 </v>
   <v>      -0.10714286       0.03571429       0.40000000 </v>
   <v>       0.07142857       0.07142857       0.40000000 </v>
   <v>       0.10714286       0.07142857       0.40000000 </v>
   <v>       0.14285714       0.07142857       0.40000000 </v>
   <v>       0.17857143       0.07142857       0.40000000 </v>
   <v>       0.21428571       0.07142857       0.40000000 </v>
   <v>       0.25000000       0.07142857       0.40000000 </v>
   <v>       0.28571429       0.07142857       0.40000000 </v>
   <v>       0.32142857       0.07142857       0.40000000 </v>
   <v>       0.35714286       0.07142857       0.40000000 </v>
   <v>       0.39285714       0.07142857       0.40000000 </v>
   <v>       0.42857143       0.07142857       0.40000000 </v>
   <v>       0.46428571       0.07142857       0.40000000 </v>
   <v>       0.50000000       0.07142857       0.40000000 </v>
   <v>      -0.46428571       0.07142857       0.40000000 </v>
   <v>      -0.42857143       0.07142857       0.40000000 </v>
   <v>      -0.39285714       0.07142857       0.40000000 </v>
   <v>      -0.35714286       0.07142857       0.40000000 </v>
   <v>      -0.32142857       0.07142857       0.40000000 </v>
   <v>      -0.28571429       0.07142857       0.40000000 </v>
   <v>      -0.25000000       0.07142857       0.40000000 </v>
   <v>      -0.21428571       0.07142857       0.40000000 </v>
   <v>      -0.17857143       0.07142857       0.40000000 </v>
   <v>       0.10714286       0.10714286       0.40000000 </v>
   <v>       0.14285714       0.10714286       0.40000000 </v>
   <v>       0.17857143       0.10714286       0.40000000 </v>
   <v>       0.21428571       0.10714286       0.40000000 </v>
   <v>       0.25000000       0.10714286       0.40000000 </v>
   <v>       0.28571429       0.10714286       0.40000000 </v>
   <v>       0.32142857       0.10714286       0.40000000 </v>
   <v>       0.35714286       0.10714286       0.40000000 </v>
   <v>       0.39285714       0.10714286       0.40000000 </v>
   <v>       0.42857143       0.10714286       0.40000000 </v>
   <v>       0.46428571       0.10714286       0.40000000 </v>
   <v>       0.50000000       0.10714286       0.40000000 </v>
   <v>      -0.46428571       0.10714286       0.40000000 </v>
   <v>      -0.42857143       0.10714286       0.40000000 </v>
   <v>      -0.39285714       0.10714286       0.40000000 </v>
   <v>      -0.35714286       0.10714286       0.40000000 </v>
   <v>      -0.32142857       0.10714286       0.40000000 </v>
   <v>      -0.28571429       0.10714286       0.40000000 </v>
   <v>      -0.25000000       0.10714286       0.40000000 </v>
   <v>       0.14285714       0.14285714       0.40000000 </v>
   <v>       0.17857143       0.14285714       0.40000000 </v>
   <v>       0.21428571       0.14285714       0.40000000 </v>
   <v>       0.25000000       0.14285714       0.40000000 </v>
   <v>       0.28571429       0.14285714       0.40000000 </v>
   <v>       0.32142857       0.14285714       0.40000000 </v>
   <v>       0.35714286       0.14285714       0.40000000 </v>
   <v>       0.39285714       0.14285714       0.40000000 </v>
   <v>       0.42857143       0.14285714       0.40000000 </v>
   <v>       0.46428571       0.14285714       0.40000000 </v>
   <v>       0.50000000       0.14285714       0.40000000 </v>
   <v>      -0.46428571       0.14285714       0.40000000 </v>
   <v>      -0.42857143       0.14285714       0.40000000 </v>
   <v>      -0.39285714       0.14285714       0.40000000 </v>
   <v>      -0.35714286       0.14285714       0.40000000 </v>
   <v>      -0.32142857       0.14285714       0.40000000 </v>
   <v>       0.17857143       0.17857143       0.40000000 </v>
   <v>       0.21428571       0.17857143       0.40000000 </v>
   <v>       0.25000000       0.17857143       0.40000000 </v>
   <v>       0.28571429       0.17857143       0.40000000 </v>
   <v>       0.32142857       0.17857143       0.40000000 </v>
   <v>       0.35714286       0.17857143       0.40000000 </v>
   <v>       0.39285714       0.17857143       0.40000000 </v>
   <v>       0.42857143       0.17857143       0.40000000 </v>
   <v>       0.46428571       0.17857143       0.40000000 </v>
   <v>       0.50000000       0.17857143       0.40000000 </v>
   <v>      -0.46428571       0.17857143       0.40000000 </v>
   <v>      -0.42857143       0.17857143       0.40000000 </v>
   <v>      -0.39285714       0.17857143       0.40000000 </v>
   <v>       0.21428571       0.21428571       0.40000000 </v>
   <v>       0.25000000       0.21428571       0.40000000 </v>
   <v>       0.28571429       0.21428571       0.40000000 </v>
   <v>       0.32142857       0.21428571       0.40000000 </v>
   <v>       0.35714286       0.21428571       0.40000000 </v>
   <v>       0.39285714       0.21428571       0.40000000 </v>
   <v>       0.42857143       0.21428571       0.40000000 </v>
   <v>       0.46428571       0.21428571       0.40000000 </v>
   <v>       0.50000000       0.21428571       0.40000000 </v>
   <v>      -0.46428571       0.21428571       0.40000000 </v>
   <v>       0.25000000       0.25000000       0.40000000 </v>
   <v>       0.28571429       0.25000000       0.40000000 </v>
   <v>       0.32142857       0.25000000       0.40000000 </v>
   <v>       0.35714286       0.25000000       0.40000000 </v>
   <v>       0.39285714       0.25000000       0.40000000 </v>
   <v>       0.42857143       0.25000000       0.40000000 </v>
   <v>       0.46428571       0.25000000       0.40000000 </v>
   <v>       0.28571429       0.28571429       0.40000000 </v>
   <v>       0.32142857       0.28571429       0.40000000 </v>
   <v>       0.35714286       0.28571429       0.40000000 </v>
   <v>       0.39285714       0.28571429       0.40000000 </v>
   <v>       0.32142857       0.32142857       0.40000000 </v>
  </varray>
  <varray name="weights" >
   <v>       0.00025510 </v>
   <v>       0.00153061 </v>
   <v>       0.00153061 </v>
   <v>       0.00153061 </v>
   <v>       0.00153061 </v>
   <v>       0.00153061 </v>
   <v>       0.00153061 </v>
   <v>       0.00153061 </v>
   <v>       0.00153061 </v>
   <v>       0.00153061 </v>
   <v>       0.00153061 </v>
   <v>       0.00153061 </v>
   <v>       0.00153061 </v>
   <v>       0.00153061 </v>
   <v>       0.00076531 </v>
   <v>       0.00153061 </v>
   <v>       0.00306122 </v>
   <v>       0.00306122 </v>
   <v>       0.00306122 </v>
   <v>       0.00306122 </v>
   <v>       0.00306122 </v>
   <v>       0.00306122 </v>
   <v>       0.00306122 </v>
   <v>       0.00306122 </v>
   <v>       0.00306122 </v>
   <v>       0.00306122 </v>
   <v>       0.00306122 </v>
   <v>       0.00306122 </v>
   <v>       0.00153061 </v>
   <v>       0.00306122 </v>
   <v>       0.00306122 </v>
   <v>       0.00306122 </v>
   <v>       0.00306122 </v>
   <v>       0.00306122 </v>
   <v>       0.00306122 </v>
   <v>       0.00306122 </v>
   <v>       0.00306122 </v>
   <v>       0.00306122 </v>
   <v>       0.00306122 </v>
   <v>       0.00153061 </v>
   <v>       0.00153061 </v>
   <v>       0.00306122 </v>
   <v>       0.00306122 </v>
   <v>       0.00306122 </v>
   <v>       0.00306122 </v>
   <v>       0.00306122 </v>
   <v>       0.00306122 </v>
   <v>       0.00306122 </v>
   <v>       0.00306122 </v>
   <v>       0.00306122 </v>
   <v>       0.00153061 </v>
   <v>       0.00306122 </v>
   <v>       0.00306122 </v>
   <v>       0.00306122 </v>
   <v>       0.00306122 </v>
   <v>       0.00306122 </v>
   <v>       0.00306122 </v>
   <v>       0.00306122 </v>
   <v>       0.00153061 </v>
   <v>       0.00153061 </v>
   <v>       0.00306122 </v>
   <v>       0.00306122 </v>
   <v>       0.00306122 </v>
   <v>       0.00306122 </v>
   <v>       0.00306122 </v>
   <v>       0.00306122 </v>
   <v>       0.00153061 </v>
   <v>       0.00306122 </v>
   <v>       0.00306122 </v>
   <v>       0.00306122 </v>
   <v>       0.00306122 </v>
   <v>       0.00153061 </v>
   <v>       0.00153061 </v>
   <v>       0.00306122 </v>
   <v>       0.00306122 </v>
   <v>       0.00306122 </v>
   <v>       0.00153061 </v>
   <v>       0.00306122 </v>
   <v>       0.00153061 </v>
   <v>       0.00153061 </v>
   <v>       0.00051020 </v>
   <v>       0.00153061 </v>
   <v>       0.00153061 </v>
   <v>       0.00153061 </v>
   <v>       0.00153061 </v>
   <v>       0.00153061 </v>
   <v>       0.00153061 </v>
   <v>       0.00153061 </v>
   <v>       0.00153061 </v>
   <v>       0.00153061 </v>
   <v>       0.00153061 </v>
   <v>       0.00153061 </v>
   <v>       0.00153061 </v>
   <v>       0.00153061 </v>
   <v>       0.00153061 </v>
   <v>       0.00153061 </v>
   <v>       0.00153061 </v>
   <v>       0.00153061 </v>
   <v>       0.00153061 </v>
   <v>       0.00153061 </v>
   <v>       0.00153061 </v>
   <v>       0.00153061 </v>
   <v>       0.00153061 </v>
   <v>       0.00153061 </v>
   <v>       0.00153061 </v>
   <v>       0.00153061 </v>
   <v>       0.00153061 </v>
   <v>       0.00153061 </v>
   <v>       0.00306122 </v>
   <v>       0.00306122 </v>
   <v>       0.00306122 </v>
   <v>       0.00306122 </v>
   <v>       0.00306122 </v>
   <v>       0.00306122 </v>
   <v>       0.00306122 </v>
   <v>       0.00306122 </v>
   <v>       0.00306122 </v>
   <v>       0.00306122 </v>
   <v>       0.00306122 </v>
   <v>       0.00306122 </v>
   <v>       0.00306122 </v>
   <v>       0.00306122 </v>
   <v>       0.00306122 </v>
   <v>       0.00306122 </v>
   <v>       0.00306122 </v>
   <v>       0.00306122 </v>
   <v>       0.00306122 </v>
   <v>       0.00306122 </v>
   <v>       0.00306122 </v>
   <v>       0.00306122 </v>
   <v>       0.00306122 </v>
   <v>       0.00306122 </v>
   <v>       0.00306122 </v>
   <v>       0.00306122 </v>
   <v>       0.00306122 </v>
   <v>       0.00306122 </v>
   <v>       0.00306122 </v>
   <v>       0.00306122 </v>
   <v>       0.00306122 </v>
   <v>       0.00306122 </v>
   <v>       0.00306122 </v>
   <v>       0.00306122 </v>
   <v>       0.00306122 </v>
   <v>       0.00306122 </v>
   <v>       0.00306122 </v>
   <v>       0.00306122 </v>
   <v>       0.00306122 </v>
   <v>       0.00306122 </v>
   <v>       0.00306122 </v>
   <v>       0.00306122 </v>
   <v>       0.00306122 </v>
   <v>       0.00306122 </v>
   <v>       0.00306122 </v>
   <v>       0.00306122 </v>
   <v>       0.00306122 </v>
   <v>       0.00306122 </v>
   <v>       0.00306122 </v>
   <v>       0.00306122 </v>
   <v>       0.00306122 </v>
   <v>       0.00306122 </v>
   <v>       0.00306122 </v>
   <v>       0.00306122 </v>
   <v>       0.00306122 </v>
   <v>       0.00306122 </v>
   <v>       0.00306122 </v>
   <v>       0.00306122 </v>
   <v>       0.00306122 </v>
   <v>       0.00306122 </v>
   <v>       0.00306122 </v>
   <v>       0.00306122 </v>
   <v>       0.00306122 </v>
   <v>       0.00306122 </v>
   <v>       0.00306122 </v>
   <v>       0.00306122 </v>
   <v>       0.00306122 </v>
   <v>       0.00306122 </v>
   <v>       0.00306122 </v>
   <v>       0.00306122 </v>
   <v>       0.00306122 </v>
   <v>       0.00306122 </v>
   <v>       0.00306122 </v>
   <v>       0.00306122 </v>
   <v>       0.00306122 </v>
   <v>       0.00306122 </v>
   <v>       0.00306122 </v>
   <v>       0.00306122 </v>
   <v>       0.00306122 </v>
   <v>       0.00306122 </v>
   <v>       0.00306122 </v>
   <v>       0.00306122 </v>
   <v>       0.00306122 </v>
   <v>       0.00306122 </v>
   <v>       0.00306122 </v>
   <v>       0.00306122 </v>
   <v>       0.00306122 </v>
   <v>       0.00306122 </v>
   <v>       0.00306122 </v>
   <v>       0.00306122 </v>
   <v>       0.00306122 </v>
   <v>       0.00306122 </v>
   <v>       0.00306122 </v>
   <v>       0.00306122 </v>
   <v>       0.00306122 </v>
   <v>       0.00306122 </v>
   <v>       0.00306122 </v>
   <v>       0.00306122 </v>
   <v>       0.00306122 </v>
   <v>       0.00306122 </v>
   <v>       0.00306122 </v>
   <v>       0.00306122 </v>
   <v>       0.00306122 </v>
   <v>       0.00306122 </v>
   <v>       0.00306122 </v>
   <v>       0.00306122 </v>
   <v>       0.00306122 </v>
   <v>       0.00306122 </v>
   <v>       0.00306122 </v>
   <v>       0.00306122 </v>
   <v>       0.00306122 </v>
   <v>       0.00306122 </v>
   <v>       0.00306122 </v>
   <v>       0.00306122 </v>
   <v>       0.00306122 </v>
   <v>       0.00306122 </v>
   <v>       0.00306122 </v>
   <v>       0.00051020 </v>
   <v>       0.00153061 </v>
   <v>       0.00153061 </v>
   <v>       0.00153061 </v>
   <v>       0.00153061 </v>
   <v>       0.00153061 </v>
   <v>       0.00153061 </v>
   <v>       0.00153061 </v>
   <v>       0.00153061 </v>
   <v>       0.00153061 </v>
   <v>       0.00153061 </v>
   <v>       0.00153061 </v>
   <v>       0.00153061 </v>
   <v>       0.00153061 </v>
   <v>       0.00153061 </v>
   <v>       0.00153061 </v>
   <v>       0.00153061 </v>
   <v>       0.00153061 </v>
   <v>       0.00153061 </v>
   <v>       0.00153061 </v>
   <v>       0.00153061 </v>
   <v>       0.00153061 </v>
   <v>       0.00153061 </v>
   <v>       0.00153061 </v>
   <v>       0.00153061 </v>
   <v>       0.00153061 </v>
   <v>       0.00153061 </v>
   <v>       0.00153061 </v>
   <v>       0.00306122 </v>
   <v>       0.00306122 </v>
   <v>       0.00306122 </v>
   <v>       0.00306122 </v>
   <v>       0.00306122 </v>
   <v>       0.00306122 </v>
   <v>       0.00306122 </v>
   <v>       0.00306122 </v>
   <v>       0.00306122 </v>
   <v>       0.00306122 </v>
   <v>       0.00306122 </v>
   <v>       0.00306122 </v>
   <v>       0.00306122 </v>
   <v>       0.00306122 </v>
   <v>       0.00306122 </v>
   <v>       0.00306122 </v>
   <v>       0.00306122 </v>
   <v>       0.00306122 </v>
   <v>       0.00306122 </v>
   <v>       0.00306122 </v>
   <v>       0.00306122 </v>
   <v>       0.00306122 </v>
   <v>       0.00306122 </v>
   <v>       0.00306122 </v>
   <v>       0.00306122 </v>
   <v>       0.00306122 </v>
   <v>       0.00306122 </v>
   <v>       0.00306122 </v>
   <v>       0.00306122 </v>
   <v>       0.00306122 </v>
   <v>       0.00306122 </v>
   <v>       0.00306122 </v>
   <v>       0.00306122 </v>
   <v>       0.00306122 </v>
   <v>       0.00306122 </v>
   <v>       0.00306122 </v>
   <v>       0.00306122 </v>
   <v>       0.00306122 </v>
   <v>       0.00306122 </v>
   <v>       0.00306122 </v>
   <v>       0.00306122 </v>
   <v>       0.00306122 </v>
   <v>       0.00306122 </v>
   <v>       0.00306122 </v>
   <v>       0.00306122 </v>
   <v>       0.00306122 </v>
   <v>       0.00306122 </v>
   <v>       0.00306122 </v>
   <v>       0.00306122 </v>
   <v>       0.00306122 </v>
   <v>       0.00306122 </v>
   <v>       0.00306122 </v>
   <v>       0.00306122 </v>
   <v>       0.00306122 </v>
   <v>       0.00306122 </v>
   <v>       0.00306122 </v>
   <v>       0.00306122 </v>
   <v>       0.00306122 </v>
   <v>       0.00306122 </v>
   <v>       0.00306122 </v>
   <v>       0.00306122 </v>
   <v>       0.00306122 </v>
   <v>       0.00306122 </v>
   <v>       0.00306122 </v>
   <v>       0.00306122 </v>
   <v>       0.00306122 </v>
   <v>       0.00306122 </v>
   <v>       0.00306122 </v>
   <v>       0.00306122 </v>
   <v>       0.00306122 </v>
   <v>       0.00306122 </v>
   <v>       0.00306122 </v>
   <v>       0.00306122 </v>
   <v>       0.00306122 </v>
   <v>       0.00306122 </v>
   <v>       0.00306122 </v>
   <v>       0.00306122 </v>
   <v>       0.00306122 </v>
   <v>       0.00306122 </v>
   <v>       0.00306122 </v>
   <v>       0.00306122 </v>
   <v>       0.00306122 </v>
   <v>       0.00306122 </v>
   <v>       0.00306122 </v>
   <v>       0.00306122 </v>
   <v>       0.00306122 </v>
   <v>       0.00306122 </v>
   <v>       0.00306122 </v>
   <v>       0.00306122 </v>
   <v>       0.00306122 </v>
   <v>       0.00306122 </v>
   <v>       0.00306122 </v>
   <v>       0.00306122 </v>
   <v>       0.00306122 </v>
   <v>       0.00306122 </v>
   <v>       0.00306122 </v>
   <v>       0.00306122 </v>
   <v>       0.00306122 </v>
   <v>       0.00306122 </v>
   <v>       0.00306122 </v>
   <v>       0.00306122 </v>
   <v>       0.00306122 </v>
   <v>       0.00306122 </v>
   <v>       0.00306122 </v>
   <v>       0.00306122 </v>
   <v>       0.00306122 </v>
   <v>       0.00306122 </v>
   <v>       0.00306122 </v>
   <v>       0.00306122 </v>
   <v>       0.00306122 </v>
   <v>       0.00306122 </v>
   <v>       0.00306122 </v>
   <v>       0.00306122 </v>
   <v>       0.00306122 </v>
   <v>       0.00306122 </v>
   <v>       0.00306122 </v>
   <v>       0.00306122 </v>
  </varray>
 </kpoints>
 <parameters>
  <separator name="general" >
   <i type="string" name="SYSTEM">unknown system</i>
   <i type="logical" name="LCOMPAT"> F  </i>
  </separator>
  <separator name="electronic" >
   <i type="string" name="PREC">accura</i>
   <i name="ENMAX">    500.00000000</i>
   <i name="ENAUG">    586.98000000</i>
   <i name="EDIFF">      0.00000100</i>
   <i type="int" name="IALGO">    68</i>
   <i type="int" name="IWAVPR">    11</i>
   <i type="int" name="NBANDS">    40</i>
   <i name="NELECT">     66.00000000</i>
   <i type="int" name="TURBO">     0</i>
   <i type="int" name="IRESTART">     0</i>
   <i type="int" name="NREBOOT">     0</i>
   <i type="int" name="NMIN">     0</i>
   <i name="EREF">      0.00000000</i>
   <separator name="electronic smearing" >
    <i type="int" name="ISMEAR">     1</i>
    <i name="SIGMA">      0.30000000</i>
    <i name="KSPACING">      0.50000000</i>
    <i type="logical" name="KGAMMA"> T  </i>
   </separator>
   <separator name="electronic projectors" >
    <i type="logical" name="LREAL"> F  </i>
    <v name="ROPT">      0.00000000      0.00000000</v>
    <i type="int" name="LMAXPAW">  -100</i>
    <i type="int" name="LMAXMIX">     2</i>
    <i type="logical" name="NLSPLINE"> F  </i>
   </separator>
   <separator name="electronic startup" >
    <i type="int" name="ISTART">     0</i>
    <i type="int" name="ICHARG">     2</i>
    <i type="int" name="INIWAV">     1</i>
   </separator>
   <separator name="electronic spin" >
    <i type="int" name="ISPIN">     1</i>
    <i type="logical" name="LNONCOLLINEAR"> F  </i>
    <v name="MAGMOM">      1.00000000      1.00000000      1.00000000      1.00000000      1.00000000      1.00000000</v>
    <i name="NUPDOWN">     -1.00000000</i>
    <i type="logical" name="LSORBIT"> F  </i>
    <v name="SAXIS">      0.00000000      0.00000000      1.00000000</v>
    <i type="logical" name="LSPIRAL"> F  </i>
    <v name="QSPIRAL">      0.00000000      0.00000000      0.00000000</v>
    <i type="logical" name="LZEROZ"> F  </i>
   </separator>
   <separator name="electronic exchange-correlation" >
    <i type="logical" name="LASPH"> F  </i>
    <i type="logical" name="LMETAGGA"> F  </i>
   </separator>
   <separator name="electronic convergence" >
    <i type="int" name="NELM">   200</i>
    <i type="int" name="NELMDL">     0</i>
    <i type="int" name="NELMIN">     4</i>
    <i name="ENINI">    500.00000000</i>
    <separator name="electronic convergence detail" >
     <i type="logical" name="LDIAG"> T  </i>
     <i type="logical" name="LSUBROT"> F  </i>
     <i name="WEIMIN">      0.00100000</i>
     <i name="EBREAK">      0.00000001</i>
     <i name="DEPER">      0.30000000</i>
     <i type="int" name="NRMM">     4</i>
     <i name="TIME">      0.40000000</i>
    </separator>
   </separator>
   <separator name="electronic mixer" >
    <i name="AMIX">      0.40000000</i>
    <i name="BMIX">      1.00000000</i>
    <i name="AMIN">      0.10000000</i>
    <i name="AMIX_MAG">      1.60000000</i>
    <i name="BMIX_MAG">      1.00000000</i>
    <separator name="electronic mixer details" >
     <i type="int" name="IMIX">     4</i>
     <i type="int" name="MAXMIX">   -45</i>
     <i name="WC">    100.00000000</i>
     <i type="int" name="INIMIX">     1</i>
     <i type="int" name="MIXPRE">     1</i>
     <i type="int" name="MREMOVE">     5</i>
    </separator>
   </separator>
   <separator name="electronic dipolcorrection" >
    <i type="logical" name="LDIPOL"> F  </i>
    <i type="logical" name="LMONO"> F  </i>
    <i type="int" name="IDIPOL">     0</i>
    <i name="EPSILON">      1.00000000</i>
    <v name="DIPOL">   -100.00000000   -100.00000000   -100.00000000</v>
    <i name="EFIELD">      0.00000000</i>
   </separator>
  </separator>
  <separator name="grids" >
   <i type="int" name="NGX">    24</i>
   <i type="int" name="NGY">    24</i>
   <i type="int" name="NGZ">    96</i>
   <i type="int" name="NGXF">    48</i>
   <i type="int" name="NGYF">    48</i>
   <i type="int" name="NGZF">   192</i>
   <i type="logical" name="ADDGRID"> T  </i>
  </separator>
  <separator name="ionic" >
   <i type="int" name="NSW">    30</i>
   <i type="int" name="IBRION">     2</i>
   <i type="int" name="ISIF">     3</i>
   <i name="PSTRESS">      0.00000000</i>
   <i name="EDIFFG">     -0.02000000</i>
   <i type="int" name="NFREE">     1</i>
   <i name="POTIM">      0.50000000</i>
   <i name="SMASS">     -3.00000000</i>
   <i name="SCALEE">      1.00000000</i>
  </separator>
  <separator name="ionic md" >
   <i name="TEBEG">      0.00010000</i>
   <i name="TEEND">      0.00010000</i>
   <i type="int" name="NBLOCK">     1</i>
   <i type="int" name="KBLOCK">    30</i>
   <i type="int" name="NPACO">   256</i>
   <i name="APACO">     16.00000000</i>
  </separator>
  <separator name="symmetry" >
   <i type="int" name="ISYM">     2</i>
   <i name="SYMPREC">      0.00001000</i>
  </separator>
  <separator name="dos" >
   <i type="logical" name="LORBIT"> F  </i>
   <v name="RWIGS">     -1.00000000     -1.00000000</v>
   <i type="int" name="NEDOS">   301</i>
   <i name="EMIN">     10.00000000</i>
   <i name="EMAX">    -10.00000000</i>
   <i name="EFERMI">      0.00000000</i>
  </separator>
  <separator name="writing" >
   <i type="int" name="NWRITE">     2</i>
   <i type="logical" name="LWAVE"> F  </i>
   <i type="logical" name="LCHARG"> F  </i>
   <i type="logical" name="LPARD"> F  </i>
   <i type="logical" name="LVTOT"> F  </i>
   <i type="logical" name="LVHAR"> F  </i>
   <i type="logical" name="LELF"> F  </i>
   <i type="logical" name="LOPTICS"> F  </i>
   <v name="STM">      0.00000000      0.00000000      0.00000000      0.00000000      0.00000000      0.00000000      0.00000000</v>
  </separator>
  <separator name="performance" >
   <i type="int" name="NPAR">     4</i>
   <i type="int" name="NSIM">     4</i>
   <i type="int" name="NBLK">    -1</i>
   <i type="logical" name="LPLANE"> T  </i>
   <i type="logical" name="LSCALAPACK"> T  </i>
   <i type="logical" name="LSCAAWARE"> F  </i>
   <i type="logical" name="LSCALU"> F  </i>
   <i type="logical" name="LASYNC"> F  </i>
   <i type="logical" name="LORBITALREAL"> F  </i>
  </separator>
  <separator name="miscellaneous" >
   <i type="int" name="IDIOT">     3</i>
   <i type="logical" name="LMUSIC"> F  </i>
   <v name="POMASS">     63.54600000    196.96600000</v>
   <v name="DARWINR">      0.00000000      0.00000000</v>
   <v name="DARWINV">      1.00000000      1.00000000</v>
   <i type="logical" name="LCORR"> T  </i>
  </separator>
  <i type="logical" name="GGA_COMPAT"> T  </i>
  <i type="logical" name="LBERRY"> F  </i>
  <i type="int" name="ICORELEVEL">     0</i>
  <i type="logical" name="LDAU"> F  </i>
  <i type="int" name="I_CONSTRAINED_M">     0</i>
  <separator name="electronic exchange-correlation" >
   <i type="string" name="GGA">--</i>
   <i type="int" name="VOSKOWN">     0</i>
   <i type="logical" name="LHFCALC"> F  </i>
   <i type="string" name="PRECFOCK"></i>
   <i type="logical" name="LSYMGRAD"> F  </i>
   <i type="logical" name="LHFONE"> F  </i>
   <i type="logical" name="LRHFCALC"> F  </i>
   <i type="logical" name="LTHOMAS"> F  </i>
   <i type="logical" name="LMODELHF"> F  </i>
   <i name="ENCUT4O">     -1.00000000</i>
   <i type="int" name="EXXOEP">     0</i>
   <i type="int" name="FOURORBIT">     0</i>
   <i name="AEXX">      0.00000000</i>
   <i name="HFALPHA">      0.00000000</i>
   <i name="MCALPHA">      0.00000000</i>
   <i name="ALDAX">      1.00000000</i>
   <i name="AGGAX">      1.00000000</i>
   <i name="ALDAC">      1.00000000</i>
   <i name="AGGAC">      1.00000000</i>
   <i type="int" name="NKREDX">     1</i>
   <i type="int" name="NKREDY">     1</i>
   <i type="int" name="NKREDZ">     1</i>
   <i type="logical" name="SHIFTRED"> F  </i>
   <i type="logical" name="ODDONLY"> F  </i>
   <i type="logical" name="EVENONLY"> F  </i>
   <i type="int" name="LMAXFOCK">     0</i>
   <i type="int" name="NMAXFOCKAE">     0</i>
   <i type="logical" name="LFOCKAEDFT"> F  </i>
   <i name="HFSCREEN">      0.00000000</i>
   <i name="HFSCREENC">      0.00000000</i>
   <i type="int" name="NBANDSGWLOW">     0</i>
  </separator>
  <separator name="vdW DFT" >
   <i type="logical" name="LUSE_VDW"> F  </i>
   <i name="Zab_VDW">     -0.84910000</i>
   <i name="PARAM1">      0.12340000</i>
   <i name="PARAM2">      1.00000000</i>
   <i name="PARAM3">      0.00000000</i>
  </separator>
  <separator name="model GW" >
   <i type="int" name="MODEL_GW">     0</i>
   <i name="MODEL_EPS0">      9.19126757</i>
   <i name="MODEL_ALPHA">      1.00000000</i>
  </separator>
  <separator name="linear response parameters" >
   <i type="logical" name="LEPSILON"> F  </i>
   <i type="logical" name="LRPA"> F  </i>
   <i type="logical" name="LNABLA"> F  </i>
   <i type="logical" name="LVEL"> F  </i>
   <i type="int" name="KINTER">     0</i>
   <i name="CSHIFT">      0.10000000</i>
   <i name="OMEGAMAX">     -1.00000000</i>
   <i name="DEG_THRESHOLD">      0.00200000</i>
  </separator>
  <separator name="orbital magnetization" >
   <i type="logical" name="NUCIND"> F  </i>
   <v name="MAGPOS">      0.00000000      0.00000000      0.00000000</v>
   <i type="logical" name="LNICSALL"> T  </i>
   <i type="logical" name="ORBITALMAG"> F  </i>
   <i type="logical" name="LMAGBLOCH"> F  </i>
   <i type="logical" name="LCHIMAG"> F  </i>
   <i type="logical" name="LGAUGE"> T  </i>
   <i type="int" name="MAGATOM">     0</i>
   <v name="MAGDIPOL">      0.00000000      0.00000000      0.00000000</v>
   <v name="AVECCONST">      0.00000000      0.00000000      0.00000000</v>
  </separator>
  <separator name="response functions" >
   <i type="logical" name="LADDER"> F  </i>
   <i type="logical" name="LFXC"> F  </i>
   <i type="logical" name="LHARTREE"> T  </i>
   <i type="int" name="IBSE">     0</i>
   <i type="logical" name="LTCTE"> F  </i>
   <i type="logical" name="LTETE"> F  </i>
   <i type="logical" name="LTRIPLET"> F  </i>
   <i type="logical" name="LFXCEPS"> F  </i>
   <i type="logical" name="LFXHEG"> F  </i>
   <i type="logical" name="L2ORDER"> F  </i>
   <i type="logical" name="LUSEW"> F  </i>
   <i name="ENCUTGW">     -2.00000000</i>
   <i name="ENCUTGWSOFT">     -2.00000000</i>
   <i name="ENCUTLF">     -1.00000000</i>
   <i type="int" name="LMAXMP2">    -1</i>
   <i name="SCISSOR">      0.00000000</i>
   <i type="int" name="NOMEGA">     0</i>
   <i type="int" name="NOMEGAR">     0</i>
   <i type="int" name="NBANDSGW">    -1</i>
   <i type="int" name="NBANDSO">    -1</i>
   <i type="int" name="NBANDSV">    -1</i>
   <i type="int" name="NELM">   200</i>
   <i type="int" name="DIM">     3</i>
   <i type="int" name="ANTIRES">     0</i>
   <i name="OMEGAMAX">    -30.00000000</i>
   <i name="OMEGAMIN">    -30.00000000</i>
   <i name="OMEGATL">   -200.00000000</i>
   <i type="int" name="OMEGAGRID">     0</i>
   <i name="CSHIFT">     -0.10000000</i>
   <i type="logical" name="SELFENERGY"> F  </i>
   <i type="logical" name="LSPECTRAL"> F  </i>
   <i type="logical" name="ODDONLYGW"> F  </i>
   <i type="logical" name="EVENONLYGW"> F  </i>
   <i type="int" name="NKREDLFX">     1</i>
   <i type="int" name="NKREDLFY">     1</i>
   <i type="int" name="NKREDLFZ">     1</i>
   <i type="int" name="MAXMEM">  1800</i>
   <i type="int" name="TELESCOPE">     0</i>
   <i type="int" name="TAUPAR">     1</i>
  </separator>
  <separator name="External order field" >
   <i name="OFIELD_KAPPA">      0.00000000</i>
   <v name="OFIELD_K">      0.00000000      0.00000000      0.00000000</v>
   <i name="OFIELD_Q6_NEAR">      0.00000000</i>
   <i name="OFIELD_Q6_FAR">      0.00000000</i>
   <i name="OFIELD_A">      0.00000000</i>
  </separator>
 </parameters>
 <atominfo>
  <atoms>       6 </atoms>
  <types>       2 </types>
  <array name="atoms" >
   <dimension dim="1">ion</dimension>
   <field type="string">element</field>
   <field type="int">atomtype</field>
   <set>
    <rc><c>Cu</c><c>   1</c></rc>
    <rc><c>Cu</c><c>   1</c></rc>
    <rc><c>Cu</c><c>   1</c></rc>
    <rc><c>Au</c><c>   2</c></rc>
    <rc><c>Au</c><c>   2</c></rc>
    <rc><c>Au</c><c>   2</c></rc>
   </set>
  </array>
  <array name="atomtypes" >
   <dimension dim="1">type</dimension>
   <field type="int">atomspertype</field>
   <field type="string">element</field>
   <field>mass</field>
   <field>valence</field>
   <field type="string">pseudopotential</field>
   <set>
    <rc><c>   3</c><c>Cu</c><c>     63.54600000</c><c>     11.00000000</c><c>  PAW_PBE Cu 22Jun2005                  </c></rc>
    <rc><c>   3</c><c>Au</c><c>    196.96600000</c><c>     11.00000000</c><c>  PAW_PBE Au 04Oct2007                  </c></rc>
   </set>
  </array>
 </atominfo>
 <structure name="initialpos" >
  <crystal>
   <varray name="basis" >
    <v>       2.00868161       0.00000000       2.00868161 </v>
    <v>       0.00000000      -2.00868161      -2.00868161 </v>
    <v>       7.59332425       7.59332425      -7.59332425 </v>
   </varray>
   <i name="volume">     91.91267570 </i>
   <varray name="rec_basis" >
    <v>       0.33189265      -0.16594633       0.16594633 </v>
    <v>       0.16594633      -0.33189265      -0.16594633 </v>
    <v>       0.04389821       0.04389821      -0.04389821 </v>
   </varray>
  </crystal>
  <varray name="positions" >
   <v>       0.66666667       0.33333333       0.34121453 </v>
   <v>       0.33333333       0.66666667       0.67305638 </v>
   <v>       0.66666667       0.33333333       0.81829282 </v>
   <v>       0.00000000       0.00000000       0.98351483 </v>
   <v>       0.33333333       0.66666667       0.17784570 </v>
   <v>       0.00000000       0.00000000       0.50607574 </v>
  </varray>
 </structure>
 <calculation>
  <scstep>
   <time name="dav">    4.26    4.26</time>
   <time name="total">    4.31    4.33</time>
   <energy>
    <i name="alphaZ">    371.33326069 </i>
    <i name="ewald">  -5986.50510408 </i>
    <i name="hartreedc">  -1663.66220802 </i>
    <i name="XCdc">    183.36758081 </i>
    <i name="pawpsdc">   6306.91248969 </i>
    <i name="pawaedc">  -6555.17580585 </i>
    <i name="eentropy">     -0.00283099 </i>
    <i name="bandstr">   1032.63706768 </i>
    <i name="atom">   6951.17702466 </i>
    <i name="e_fr_energy">    640.08147458 </i>
    <i name="e_wo_entrp">    640.08430557 </i>
    <i name="e_0_energy">    640.08241824 </i>
   </energy>
  </scstep>
  <scstep>
   <time name="dav">    4.41    4.49</time>
   <time name="total">    4.43    4.52</time>
   <energy>
    <i name="e_fr_energy">     52.95143673 </i>
    <i name="e_wo_entrp">     52.94615354 </i>
    <i name="e_0_energy">     52.94967567 </i>
   </energy>
  </scstep>
  <scstep>
   <time name="dav">    4.88    4.88</time>
   <time name="total">    4.90    4.91</time>
   <energy>
    <i name="e_fr_energy">    -21.15007981 </i>
    <i name="e_wo_entrp">    -21.15207552 </i>
    <i name="e_0_energy">    -21.15074505 </i>
   </energy>
  </scstep>
  <scstep>
   <time name="dav">    5.88    5.89</time>
   <time name="total">    5.90    5.92</time>
   <energy>
    <i name="e_fr_energy">    -23.72557873 </i>
    <i name="e_wo_entrp">    -23.72817248 </i>
    <i name="e_0_energy">    -23.72644331 </i>
   </energy>
  </scstep>
  <scstep>
   <time name="dav">    6.03    6.03</time>
   <time name="total">    6.36    6.38</time>
   <energy>
    <i name="e_fr_energy">    -23.75262220 </i>
    <i name="e_wo_entrp">    -23.75523543 </i>
    <i name="e_0_energy">    -23.75349328 </i>
   </energy>
  </scstep>
  <scstep>
   <time name="diag">    1.18    1.18</time>
   <time name="diis">    1.97    1.97</time>
   <time name="orth">    0.19    0.19</time>
   <time name="total">    3.70    3.74</time>
   <energy>
    <i name="e_fr_energy">    -22.00223677 </i>
    <i name="e_wo_entrp">    -21.99767503 </i>
    <i name="e_0_energy">    -22.00071619 </i>
   </energy>
  </scstep>
  <scstep>
   <time name="diag">    1.18    1.18</time>
   <time name="diis">    2.16    2.16</time>
   <time name="orth">    0.18    0.18</time>
   <time name="total">    3.89    3.90</time>
   <energy>
    <i name="e_fr_energy">    -21.14638863 </i>
    <i name="e_wo_entrp">    -21.14576525 </i>
    <i name="e_0_energy">    -21.14618084 </i>
   </energy>
  </scstep>
  <scstep>
   <time name="diag">    1.18    1.18</time>
   <time name="diis">    1.99    1.99</time>
   <time name="orth">    0.18    0.18</time>
   <time name="total">    3.72    3.73</time>
   <energy>
    <i name="e_fr_energy">    -20.74607138 </i>
    <i name="e_wo_entrp">    -20.74494120 </i>
    <i name="e_0_energy">    -20.74569466 </i>
   </energy>
  </scstep>
  <scstep>
   <time name="diag">    1.18    1.18</time>
   <time name="diis">    2.05    2.05</time>
   <time name="orth">    0.18    0.18</time>
   <time name="total">    3.77    3.79</time>
   <energy>
    <i name="e_fr_energy">    -20.84325682 </i>
    <i name="e_wo_entrp">    -20.84203672 </i>
    <i name="e_0_energy">    -20.84285012 </i>
   </energy>
  </scstep>
  <scstep>
   <time name="diag">    1.21    1.23</time>
   <time name="diis">    2.02    2.02</time>
   <time name="orth">    0.19    0.19</time>
   <time name="total">    3.78    3.82</time>
   <energy>
    <i name="e_fr_energy">    -20.71326675 </i>
    <i name="e_wo_entrp">    -20.71171423 </i>
    <i name="e_0_energy">    -20.71274924 </i>
   </energy>
  </scstep>
  <scstep>
   <time name="diag">    1.18    1.18</time>
   <time name="diis">    2.11    2.11</time>
   <time name="orth">    0.18    0.18</time>
   <time name="total">    3.85    3.86</time>
   <energy>
    <i name="e_fr_energy">    -20.70490971 </i>
    <i name="e_wo_entrp">    -20.70373351 </i>
    <i name="e_0_energy">    -20.70451765 </i>
   </energy>
  </scstep>
  <scstep>
   <time name="diag">    1.18    1.18</time>
   <time name="diis">    2.25    2.25</time>
   <time name="orth">    0.19    0.19</time>
   <time name="total">    4.00    4.01</time>
   <energy>
    <i name="e_fr_energy">    -20.70480879 </i>
    <i name="e_wo_entrp">    -20.70351571 </i>
    <i name="e_0_energy">    -20.70437777 </i>
   </energy>
  </scstep>
  <scstep>
   <time name="diag">    1.18    1.18</time>
   <time name="diis">    2.29    2.29</time>
   <time name="orth">    0.18    0.18</time>
   <time name="total">    4.03    4.04</time>
   <energy>
    <i name="e_fr_energy">    -20.70476468 </i>
    <i name="e_wo_entrp">    -20.70348336 </i>
    <i name="e_0_energy">    -20.70433757 </i>
   </energy>
  </scstep>
  <scstep>
   <time name="diag">    1.18    1.18</time>
   <time name="diis">    2.04    2.04</time>
   <time name="orth">    0.19    0.19</time>
   <time name="total">    3.78    3.80</time>
   <energy>
    <i name="e_fr_energy">    -20.70474314 </i>
    <i name="e_wo_entrp">    -20.70348413 </i>
    <i name="e_0_energy">    -20.70432347 </i>
   </energy>
  </scstep>
  <scstep>
   <time name="diag">    1.18    1.18</time>
   <time name="diis">    2.17    2.17</time>
   <time name="orth">    0.18    0.18</time>
   <time name="total">    3.90    3.92</time>
   <energy>
    <i name="e_fr_energy">    -20.70473146 </i>
    <i name="e_wo_entrp">    -20.70346709 </i>
    <i name="e_0_energy">    -20.70431000 </i>
   </energy>
  </scstep>
  <scstep>
   <time name="diag">    1.18    1.18</time>
   <time name="diis">    1.63    1.63</time>
   <time name="orth">    0.18    0.18</time>
   <time name="total">    3.37    3.38</time>
   <energy>
    <i name="e_fr_energy">    -20.70472989 </i>
    <i name="e_wo_entrp">    -20.70346171 </i>
    <i name="e_0_energy">    -20.70430716 </i>
   </energy>
  </scstep>
  <scstep>
   <time name="diag">    1.18    1.18</time>
   <time name="diis">    1.29    1.29</time>
   <time name="orth">    0.18    0.18</time>
   <time name="total">    2.70    2.72</time>
   <energy>
    <i name="alphaZ">    371.33326069 </i>
    <i name="ewald">  -5986.50510408 </i>
    <i name="hartreedc">  -1569.63712885 </i>
    <i name="XCdc">    179.00478671 </i>
    <i name="pawpsdc">   6991.10176983 </i>
    <i name="pawaedc">  -7252.72016501 </i>
    <i name="eentropy">     -0.00126753 </i>
    <i name="bandstr">    295.54209388 </i>
    <i name="atom">   6951.17702466 </i>
    <i name="e_fr_energy">    -20.70472970 </i>
    <i name="e_wo_entrp">    -20.70346217 </i>
    <i name="e_0_energy">    -20.70430719 </i>
   </energy>
  </scstep>
  <structure>
   <crystal>
    <varray name="basis" >
     <v>       2.00868161       0.00000000       2.00868161 </v>
     <v>       0.00000000      -2.00868161      -2.00868161 </v>
     <v>       7.59332425       7.59332425      -7.59332425 </v>
    </varray>
    <i name="volume">     91.91267570 </i>
    <varray name="rec_basis" >
     <v>       0.33189265      -0.16594633       0.16594633 </v>
     <v>       0.16594633      -0.33189265      -0.16594633 </v>
     <v>       0.04389821       0.04389821      -0.04389821 </v>
    </varray>
   </crystal>
   <varray name="positions" >
    <v>       0.66666667       0.33333333       0.34121453 </v>
    <v>       0.33333333       0.66666667       0.67305638 </v>
    <v>       0.66666667       0.33333333       0.81829282 </v>
    <v>       0.00000000       0.00000000       0.98351483 </v>
    <v>       0.33333333       0.66666667       0.17784570 </v>
    <v>       0.00000000       0.00000000       0.50607574 </v>
   </varray>
  </structure>
  <varray name="forces" >
   <v>       0.00543948       0.00543948      -0.00543948 </v>
   <v>      -0.00406167      -0.00406167       0.00406167 </v>
   <v>      -0.00828008      -0.00828008       0.00828008 </v>
   <v>      -0.00068756      -0.00068756       0.00068756 </v>
   <v>       0.00294732       0.00294732      -0.00294732 </v>
   <v>       0.00464252       0.00464252      -0.00464252 </v>
  </varray>
  <varray name="stress" >
   <v>       0.21271380       0.08139319      -0.08139319 </v>
   <v>       0.08139319       0.21271380      -0.08139319 </v>
   <v>      -0.08139319      -0.08139319       0.21271380 </v>
  </varray>
  <energy>
   <i name="e_fr_energy">    -20.70472970 </i>
   <i name="e_wo_entrp">    -20.70430719 </i>
   <i name="e_0_energy">     -0.00126753 </i>
  </energy>
  <time name="totalsc">   73.54   73.96</time>
  <eigenvalues>
   <array>
    <dimension dim="1">band</dimension>
    <dimension dim="2">kpoint</dimension>
    <dimension dim="3">spin</dimension>
    <field>eigene</field>
    <field>occ</field>
    <set>
     <set comment="spin 1">
      <set comment="kpoint 1">
       <r>   -1.4370    1.0000 </r>
       <r>   -0.8453    1.0000 </r>
       <r>   -0.2005    1.0000 </r>
       <r>    0.9898    1.0000 </r>
       <r>    1.5678    1.0000 </r>
       <r>    2.4027    1.0000 </r>
       <r>    3.2876    1.0000 </r>
       <r>    3.2876    1.0000 </r>
       <r>    3.3803    1.0000 </r>
       <r>    3.3803    1.0000 </r>
       <r>    3.4478    1.0000 </r>
       <r>    3.4478    1.0000 </r>
       <r>    3.6033    1.0000 </r>
       <r>    4.3142    1.0000 </r>
       <r>    4.5233    1.0000 </r>
       <r>    4.5233    1.0000 </r>
       <r>    4.7742    1.0000 </r>
       <r>    4.7742    1.0000 </r>
       <r>    4.9591    1.0000 </r>
       <r>    4.9790    1.0000 </r>
       <r>    4.9790    1.0000 </r>
       <r>    5.3689    1.0000 </r>
       <r>    5.4174    1.0000 </r>
       <r>    5.4174    1.0000 </r>
       <r>    5.6165    1.0000 </r>
       <r>    5.6165    1.0000 </r>
       <r>    5.6705    1.0000 </r>
       <r>    5.7447    1.0000 </r>
       <r>    5.7447    1.0000 </r>
       <r>    5.9847    1.0000 </r>
       <r>    5.9847    1.0000 </r>
       <r>    6.1746    1.0000 </r>
       <r>    6.1746    1.0000 </r>
       <r>    6.4657    1.0000 </r>
       <r>    6.4657    1.0000 </r>
       <r>    7.7143    1.0111 </r>
       <r>   11.8026    0.0000 </r>
       <r>   16.0548    0.0000 </r>
       <r>   14.6509    0.0000 </r>
       <r>   19.4632    0.0000 </r>
      </set>
      <set comment="kpoint 2">
       <r>   -1.3964    1.0000 </r>
       <r>   -0.8033    1.0000 </r>
       <r>   -0.1620    1.0000 </r>
       <r>    1.0199    1.0000 </r>
       <r>    1.5898    1.0000 </r>
       <r>    2.4170    1.0000 </r>
       <r>    3.2678    1.0000 </r>
       <r>    3.3142    1.0000 </r>
       <r>    3.3615    1.0000 </r>
       <r>    3.4075    1.0000 </r>
       <r>    3.4268    1.0000 </r>
       <r>    3.4734    1.0000 </r>
       <r>    3.5846    1.0000 </r>
       <r>    4.2799    1.0000 </r>
       <r>    4.4982    1.0000 </r>
       <r>    4.5207    1.0000 </r>
       <r>    4.7324    1.0000 </r>
       <r>    4.7586    1.0000 </r>
       <r>    4.9269    1.0000 </r>
       <r>    4.9810    1.0000 </r>
       <r>    4.9860    1.0000 </r>
       <r>    5.3333    1.0000 </r>
       <r>    5.4200    1.0000 </r>
       <r>    5.4214    1.0000 </r>
       <r>    5.6124    1.0000 </r>
       <r>    5.6316    1.0000 </r>
       <r>    5.7474    1.0000 </r>
       <r>    5.7514    1.0000 </r>
       <r>    5.7635    1.0000 </r>
       <r>    5.9867    1.0000 </r>
       <r>    5.9889    1.0000 </r>
       <r>    6.1825    1.0000 </r>
       <r>    6.2123    1.0000 </r>
       <r>    6.3764    1.0000 </r>
       <r>    6.4649    1.0000 </r>
       <r>    7.8814    0.7713 </r>
       <r>   11.8090    0.0000 </r>
       <r>   16.0380    0.0000 </r>
       <r>   14.5176    0.0000 </r>
       <r>   19.7864    0.0000 </r>
      </set>
      <set comment="kpoint 3">
       <r>   -1.2757    1.0000 </r>
       <r>   -0.6786    1.0000 </r>
       <r>   -0.0485    1.0000 </r>
       <r>    1.1087    1.0000 </r>
       <r>    1.6541    1.0000 </r>
       <r>    2.4579    1.0000 </r>
       <r>    3.2118    1.0000 </r>
       <r>    3.3085    1.0000 </r>
       <r>    3.3681    1.0000 </r>
       <r>    3.3933    1.0000 </r>
       <r>    3.4886    1.0000 </r>
       <r>    3.5218    1.0000 </r>
       <r>    3.5493    1.0000 </r>
       <r>    4.1802    1.0000 </r>
       <r>    4.4282    1.0000 </r>
       <r>    4.5128    1.0000 </r>
       <r>    4.6431    1.0000 </r>
       <r>    4.7169    1.0000 </r>
       <r>    4.8556    1.0000 </r>
       <r>    4.9798    1.0000 </r>
       <r>    5.0022    1.0000 </r>
       <r>    5.3231    1.0000 </r>
       <r>    5.4132    1.0000 </r>
       <r>    5.4327    1.0000 </r>
       <r>    5.6041    1.0000 </r>
       <r>    5.6313    1.0000 </r>
       <r>    5.7478    1.0000 </r>
       <r>    5.7705    1.0000 </r>
       <r>    5.9182    1.0000 </r>
       <r>    5.9943    1.0000 </r>
       <r>    6.0412    1.0000 </r>
       <r>    6.1414    1.0000 </r>
       <r>    6.2032    1.0000 </r>
       <r>    6.4019    1.0000 </r>
       <r>    6.4629    1.0000 </r>
       <r>    8.2762   -0.0223 </r>
       <r>   11.8291    0.0000 </r>
       <r>   15.8220    0.0000 </r>
       <r>   14.2415    0.0000 </r>
       <r>   20.4495    0.0000 </r>
      </set>
      <set comment="kpoint 4">
       <r>   -1.0784    1.0000 </r>
       <r>   -0.4760    1.0000 </r>
       <r>    0.1339    1.0000 </r>
       <r>    1.2511    1.0000 </r>
       <r>    1.7557    1.0000 </r>
       <r>    2.5184    1.0000 </r>
       <r>    3.1298    1.0000 </r>
       <r>    3.2301    1.0000 </r>
       <r>    3.2853    1.0000 </r>
       <r>    3.4046    1.0000 </r>
       <r>    3.5224    1.0000 </r>
       <r>    3.6213    1.0000 </r>
       <r>    3.6722    1.0000 </r>
       <r>    4.0293    1.0000 </r>
       <r>    4.3291    1.0000 </r>
       <r>    4.4991    1.0000 </r>
       <r>    4.5561    1.0000 </r>
       <r>    4.6583    1.0000 </r>
       <r>    4.7920    1.0000 </r>
       <r>    4.9771    1.0000 </r>
       <r>    5.0190    1.0000 </r>
       <r>    5.3194    1.0000 </r>
       <r>    5.4162    1.0000 </r>
       <r>    5.4473    1.0000 </r>
       <r>    5.6027    1.0000 </r>
       <r>    5.6406    1.0000 </r>
       <r>    5.7344    1.0000 </r>
       <r>    5.8007    1.0000 </r>
       <r>    5.8949    1.0000 </r>
       <r>    5.9962    1.0000 </r>
       <r>    6.0094    1.0000 </r>
       <r>    6.2297    1.0000 </r>
       <r>    6.2711    1.0000 </r>
       <r>    6.4610    1.0000 </r>
       <r>    6.6149    1.0000 </r>
       <r>    8.7812   -0.0006 </r>
       <r>   11.8652    0.0000 </r>
       <r>   15.4226    0.0000 </r>
       <r>   13.8405    0.0000 </r>
       <r>   18.4511    0.0000 </r>
      </set>
      <set comment="kpoint 5">
       <r>   -0.8106    1.0000 </r>
       <r>   -0.2045    1.0000 </r>
       <r>    0.3734    1.0000 </r>
       <r>    1.4356    1.0000 </r>
       <r>    1.8836    1.0000 </r>
       <r>    2.5838    1.0000 </r>
       <r>    3.0403    1.0000 </r>
       <r>    3.1335    1.0000 </r>
       <r>    3.2024    1.0000 </r>
       <r>    3.2471    1.0000 </r>
       <r>    3.6964    1.0000 </r>
       <r>    3.8017    1.0000 </r>
       <r>    3.8352    1.0000 </r>
       <r>    3.8514    1.0000 </r>
       <r>    4.2152    1.0000 </r>
       <r>    4.4796    1.0000 </r>
       <r>    4.5042    1.0000 </r>
       <r>    4.5928    1.0000 </r>
       <r>    4.7455    1.0000 </r>
       <r>    4.9790    1.0000 </r>
       <r>    5.0301    1.0000 </r>
       <r>    5.2961    1.0000 </r>
       <r>    5.4348    1.0000 </r>
       <r>    5.4597    1.0000 </r>
       <r>    5.6223    1.0000 </r>
       <r>    5.6284    1.0000 </r>
       <r>    5.6982    1.0000 </r>
       <r>    5.8123    1.0000 </r>
       <r>    5.8406    1.0000 </r>
       <r>    6.0114    1.0000 </r>
       <r>    6.0325    1.0000 </r>
       <r>    6.2552    1.0000 </r>
       <r>    6.4610    1.0000 </r>
       <r>    6.4894    1.0000 </r>
       <r>    6.8909    1.0000 </r>
       <r>    9.3475    0.0000 </r>
       <r>   11.9213    0.0000 </r>
       <r>   14.8277    0.0000 </r>
       <r>   13.5700    0.0000 </r>
       <r>   16.7367    0.0000 </r>
      </set>
      <set comment="kpoint 6">
       <r>   -0.4827    1.0000 </r>
       <r>    0.1194    1.0000 </r>
       <r>    0.6502    1.0000 </r>
       <r>    1.6372    1.0000 </r>
       <r>    2.0155    1.0000 </r>
       <r>    2.6317    1.0000 </r>
       <r>    2.9633    1.0000 </r>
       <r>    3.0207    1.0000 </r>
       <r>    3.0667    1.0000 </r>
       <r>    3.1948    1.0000 </r>
       <r>    3.6775    1.0000 </r>
       <r>    3.9049    1.0000 </r>
       <r>    4.0203    1.0000 </r>
       <r>    4.0271    1.0000 </r>
       <r>    4.1041    1.0000 </r>
       <r>    4.4543    1.0000 </r>
       <r>    4.4893    1.0000 </r>
       <r>    4.5386    1.0000 </r>
       <r>    4.7121    1.0000 </r>
       <r>    4.9839    1.0000 </r>
       <r>    5.0326    1.0000 </r>
       <r>    5.2672    1.0000 </r>
       <r>    5.4512    1.0000 </r>
       <r>    5.4708    1.0000 </r>
       <r>    5.5499    1.0000 </r>
       <r>    5.6676    1.0000 </r>
       <r>    5.7072    1.0000 </r>
       <r>    5.7936    1.0000 </r>
       <r>    5.8894    1.0000 </r>
       <r>    6.0608    1.0000 </r>
       <r>    6.0625    1.0000 </r>
       <r>    6.2749    1.0000 </r>
       <r>    6.4651    1.0000 </r>
       <r>    6.7032    1.0000 </r>
       <r>    7.2020    1.0007 </r>
       <r>    9.9521    0.0000 </r>
       <r>   12.0036    0.0000 </r>
       <r>   14.1825    0.0000 </r>
       <r>   13.5261    0.0000 </r>
       <r>   15.0228    0.0000 </r>
      </set>
      <set comment="kpoint 7">
       <r>   -0.1113    1.0000 </r>
       <r>    0.4662    1.0000 </r>
       <r>    0.9325    1.0000 </r>
       <r>    1.8087    1.0000 </r>
       <r>    2.1125    1.0000 </r>
       <r>    2.6423    1.0000 </r>
       <r>    2.8096    1.0000 </r>
       <r>    3.0032    1.0000 </r>
       <r>    3.0257    1.0000 </r>
       <r>    3.2109    1.0000 </r>
       <r>    3.5714    1.0000 </r>
       <r>    4.0191    1.0000 </r>
       <r>    4.1078    1.0000 </r>
       <r>    4.2039    1.0000 </r>
       <r>    4.2785    1.0000 </r>
       <r>    4.4324    1.0000 </r>
       <r>    4.4924    1.0000 </r>
       <r>    4.5474    1.0000 </r>
       <r>    4.6944    1.0000 </r>
       <r>    4.9822    1.0000 </r>
       <r>    5.0314    1.0000 </r>
       <r>    5.2467    1.0000 </r>
       <r>    5.4343    1.0000 </r>
       <r>    5.4864    1.0000 </r>
       <r>    5.5269    1.0000 </r>
       <r>    5.7215    1.0000 </r>
       <r>    5.7328    1.0000 </r>
       <r>    5.8150    1.0000 </r>
       <r>    5.9462    1.0000 </r>
       <r>    6.0982    1.0000 </r>
       <r>    6.1297    1.0000 </r>
       <r>    6.2865    1.0000 </r>
       <r>    6.4743    1.0000 </r>
       <r>    6.9158    1.0000 </r>
       <r>    7.5351    1.0278 </r>
       <r>   10.5780    0.0000 </r>
       <r>   12.1203    0.0000 </r>
       <r>   14.1677    0.0000 </r>
       <r>   13.4851    0.0000 </r>
       <r>   13.9639    0.0000 </r>
      </set>
      <set comment="kpoint 8">
       <r>    0.2766    1.0000 </r>
       <r>    0.7873    1.0000 </r>
       <r>    1.1762    1.0000 </r>
       <r>    1.9020    1.0000 </r>
       <r>    2.1455    1.0000 </r>
       <r>    2.5444    1.0000 </r>
       <r>    2.7121    1.0000 </r>
       <r>    3.0840    1.0000 </r>
       <r>    3.1613    1.0000 </r>
       <r>    3.2099    1.0000 </r>
       <r>    3.6419    1.0000 </r>
       <r>    3.9843    1.0000 </r>
       <r>    4.1761    1.0000 </r>
       <r>    4.2995    1.0000 </r>
       <r>    4.5069    1.0000 </r>
       <r>    4.5200    1.0000 </r>
       <r>    4.5578    1.0000 </r>
       <r>    4.6854    1.0000 </r>
       <r>    4.6938    1.0000 </r>
       <r>    4.9677    1.0000 </r>
       <r>    5.0493    1.0000 </r>
       <r>    5.2449    1.0000 </r>
       <r>    5.3995    1.0000 </r>
       <r>    5.5081    1.0000 </r>
       <r>    5.5788    1.0000 </r>
       <r>    5.7208    1.0000 </r>
       <r>    5.8102    1.0000 </r>
       <r>    5.8869    1.0000 </r>
       <r>    6.0092    1.0000 </r>
       <r>    6.1380    1.0000 </r>
       <r>    6.2078    1.0000 </r>
       <r>    6.2909    1.0000 </r>
       <r>    6.4878    1.0000 </r>
       <r>    7.1331    1.0002 </r>
       <r>    7.8885    0.7546 </r>
       <r>   11.2043    0.0000 </r>
       <r>   12.2803    0.0000 </r>
       <r>   16.1593    0.0000 </r>
       <r>   14.3314    0.0000 </r>
       <r>   13.8133    0.0000 </r>
      </set>
      <set comment="kpoint 9">
       <r>    0.6361    1.0000 </r>
       <r>    1.0212    1.0000 </r>
       <r>    1.3344    1.0000 </r>
       <r>    1.9283    1.0000 </r>
       <r>    2.1450    1.0000 </r>
       <r>    2.3905    1.0000 </r>
       <r>    2.6767    1.0000 </r>
       <r>    3.1027    1.0000 </r>
       <r>    3.3477    1.0000 </r>
       <r>    3.4792    1.0000 </r>
       <r>    3.8416    1.0000 </r>
       <r>    4.0355    1.0000 </r>
       <r>    4.1389    1.0000 </r>
       <r>    4.2798    1.0000 </r>
       <r>    4.5599    1.0000 </r>
       <r>    4.7044    1.0000 </r>
       <r>    4.7071    1.0000 </r>
       <r>    4.8152    1.0000 </r>
       <r>    4.9236    1.0000 </r>
       <r>    4.9496    1.0000 </r>
       <r>    5.1480    1.0000 </r>
       <r>    5.2681    1.0000 </r>
       <r>    5.3894    1.0000 </r>
       <r>    5.5346    1.0000 </r>
       <r>    5.6406    1.0000 </r>
       <r>    5.7607    1.0000 </r>
       <r>    5.8936    1.0000 </r>
       <r>    5.9970    1.0000 </r>
       <r>    6.0756    1.0000 </r>
       <r>    6.1804    1.0000 </r>
       <r>    6.2882    1.0000 </r>
       <r>    6.2908    1.0000 </r>
       <r>    6.5033    1.0000 </r>
       <r>    7.3646    1.0065 </r>
       <r>    8.2676   -0.0185 </r>
       <r>   11.7929    0.0000 </r>
       <r>   12.4857    0.0000 </r>
       <r>   15.0454    0.0000 </r>
       <r>   16.0317    0.0000 </r>
       <r>   14.8399    0.0000 </r>
      </set>
      <set comment="kpoint 10">
       <r>    0.9049    1.0000 </r>
       <r>    1.1381    1.0000 </r>
       <r>    1.3844    1.0000 </r>
       <r>    1.9207    1.0000 </r>
       <r>    2.1160    1.0000 </r>
       <r>    2.3430    1.0000 </r>
       <r>    2.6453    1.0000 </r>
       <r>    3.1057    1.0000 </r>
       <r>    3.5932    1.0000 </r>
       <r>    3.8323    1.0000 </r>
       <r>    4.0713    1.0000 </r>
       <r>    4.0790    1.0000 </r>
       <r>    4.2273    1.0000 </r>
       <r>    4.2425    1.0000 </r>
       <r>    4.6547    1.0000 </r>
       <r>    4.7607    1.0000 </r>
       <r>    4.7706    1.0000 </r>
       <r>    4.9530    1.0000 </r>
       <r>    5.0947    1.0000 </r>
       <r>    5.2061    1.0000 </r>
       <r>    5.2978    1.0000 </r>
       <r>    5.3548    1.0000 </r>
       <r>    5.4566    1.0000 </r>
       <r>    5.5684    1.0000 </r>
       <r>    5.6482    1.0000 </r>
       <r>    5.9120    1.0000 </r>
       <r>    5.9772    1.0000 </r>
       <r>    6.1415    1.0000 </r>
       <r>    6.1425    1.0000 </r>
       <r>    6.2228    1.0000 </r>
       <r>    6.2898    1.0000 </r>
       <r>    6.3676    1.0000 </r>
       <r>    6.5193    1.0000 </r>
       <r>    7.6267    1.0353 </r>
       <r>    8.6805   -0.0025 </r>
       <r>   12.2469    0.0000 </r>
       <r>   12.6967    0.0000 </r>
       <r>   13.9116    0.0000 </r>
       <r>   15.0939    0.0000 </r>
       <r>   15.6944    0.0000 </r>
      </set>
      <set comment="kpoint 11">
       <r>    1.0423    1.0000 </r>
       <r>    1.1692    1.0000 </r>
       <r>    1.3567    1.0000 </r>
       <r>    1.8776    1.0000 </r>
       <r>    2.0287    1.0000 </r>
       <r>    2.4478    1.0000 </r>
       <r>    2.6510    1.0000 </r>
       <r>    3.1521    1.0000 </r>
       <r>    3.7384    1.0000 </r>
       <r>    4.0199    1.0000 </r>
       <r>    4.0365    1.0000 </r>
       <r>    4.2045    1.0000 </r>
       <r>    4.4139    1.0000 </r>
       <r>    4.5329    1.0000 </r>
       <r>    4.6901    1.0000 </r>
       <r>    4.7570    1.0000 </r>
       <r>    4.9496    1.0000 </r>
       <r>    5.0521    1.0000 </r>
       <r>    5.3482    1.0000 </r>
       <r>    5.3511    1.0000 </r>
       <r>    5.4671    1.0000 </r>
       <r>    5.5844    1.0000 </r>
       <r>    5.6238    1.0000 </r>
       <r>    5.6454    1.0000 </r>
       <r>    5.6877    1.0000 </r>
       <r>    6.0556    1.0000 </r>
       <r>    6.1451    1.0000 </r>
       <r>    6.2009    1.0000 </r>
       <r>    6.2608    1.0000 </r>
       <r>    6.2932    1.0000 </r>
       <r>    6.3324    1.0000 </r>
       <r>    6.4518    1.0000 </r>
       <r>    6.5347    1.0000 </r>
       <r>    7.9411    0.6193 </r>
       <r>    9.1312    0.0000 </r>
       <r>   12.1584    0.0000 </r>
       <r>   12.7444    0.0000 </r>
       <r>   13.1229    0.0000 </r>
       <r>   14.2377    0.0000 </r>
       <r>   14.9766    0.0000 </r>
      </set>
      <set comment="kpoint 12">
       <r>    1.0743    1.0000 </r>
       <r>    1.1640    1.0000 </r>
       <r>    1.2993    1.0000 </r>
       <r>    1.8071    1.0000 </r>
       <r>    1.9548    1.0000 </r>
       <r>    2.4802    1.0000 </r>
       <r>    2.7951    1.0000 </r>
       <r>    3.2245    1.0000 </r>
       <r>    3.7726    1.0000 </r>
       <r>    3.9697    1.0000 </r>
       <r>    4.1571    1.0000 </r>
       <r>    4.1712    1.0000 </r>
       <r>    4.6320    1.0000 </r>
       <r>    4.6882    1.0000 </r>
       <r>    4.7406    1.0000 </r>
       <r>    4.8208    1.0000 </r>
       <r>    5.0688    1.0000 </r>
       <r>    5.3836    1.0000 </r>
       <r>    5.4901    1.0000 </r>
       <r>    5.4927    1.0000 </r>
       <r>    5.6445    1.0000 </r>
       <r>    5.6726    1.0000 </r>
       <r>    5.7783    1.0000 </r>
       <r>    5.8432    1.0000 </r>
       <r>    6.0177    1.0000 </r>
       <r>    6.1230    1.0000 </r>
       <r>    6.2439    1.0000 </r>
       <r>    6.2874    1.0000 </r>
       <r>    6.3121    1.0000 </r>
       <r>    6.4409    1.0000 </r>
       <r>    6.5367    1.0000 </r>
       <r>    6.5497    1.0000 </r>
       <r>    6.6758    1.0000 </r>
       <r>    8.3225   -0.0338 </r>
       <r>    9.5942    0.0000 </r>
       <r>   11.4055    0.0000 </r>
       <r>   11.9458    0.0000 </r>
       <r>   12.9730    0.0000 </r>
       <r>   13.6467    0.0000 </r>
       <r>   15.1107    0.0000 </r>
      </set>
      <set comment="kpoint 13">
       <r>    1.0599    1.0000 </r>
       <r>    1.1499    1.0000 </r>
       <r>    1.2429    1.0000 </r>
       <r>    1.7394    1.0000 </r>
       <r>    1.9025    1.0000 </r>
       <r>    2.4588    1.0000 </r>
       <r>    2.9572    1.0000 </r>
       <r>    3.3253    1.0000 </r>
       <r>    3.7426    1.0000 </r>
       <r>    3.9317    1.0000 </r>
       <r>    4.1454    1.0000 </r>
       <r>    4.2429    1.0000 </r>
       <r>    4.6517    1.0000 </r>
       <r>    4.7245    1.0000 </r>
       <r>    4.7753    1.0000 </r>
       <r>    4.9411    1.0000 </r>
       <r>    5.1414    1.0000 </r>
       <r>    5.5087    1.0000 </r>
       <r>    5.5310    1.0000 </r>
       <r>    5.6437    1.0000 </r>
       <r>    5.8563    1.0000 </r>
       <r>    5.9557    1.0000 </r>
       <r>    5.9985    1.0000 </r>
       <r>    6.0252    1.0000 </r>
       <r>    6.1734    1.0000 </r>
       <r>    6.2643    1.0000 </r>
       <r>    6.2913    1.0000 </r>
       <r>    6.3093    1.0000 </r>
       <r>    6.3411    1.0000 </r>
       <r>    6.5644    1.0000 </r>
       <r>    6.6092    1.0000 </r>
       <r>    6.9499    1.0000 </r>
       <r>    7.2347    1.0012 </r>
       <r>    8.7455   -0.0010 </r>
       <r>    9.8056    0.0000 </r>
       <r>   10.6856    0.0000 </r>
       <r>   11.1779    0.0000 </r>
       <r>   12.0319    0.0000 </r>
       <r>   14.0244    0.0000 </r>
       <r>   14.2563    0.0000 </r>
      </set>
      <set comment="kpoint 14">
       <r>    1.0402    1.0000 </r>
       <r>    1.1378    1.0000 </r>
       <r>    1.2029    1.0000 </r>
       <r>    1.6940    1.0000 </r>
       <r>    1.8698    1.0000 </r>
       <r>    2.4392    1.0000 </r>
       <r>    3.0442    1.0000 </r>
       <r>    3.4519    1.0000 </r>
       <r>    3.6753    1.0000 </r>
       <r>    3.9083    1.0000 </r>
       <r>    4.1291    1.0000 </r>
       <r>    4.2919    1.0000 </r>
       <r>    4.6633    1.0000 </r>
       <r>    4.7135    1.0000 </r>
       <r>    4.8083    1.0000 </r>
       <r>    4.9732    1.0000 </r>
       <r>    5.2138    1.0000 </r>
       <r>    5.5438    1.0000 </r>
       <r>    5.5575    1.0000 </r>
       <r>    5.6661    1.0000 </r>
       <r>    5.9826    1.0000 </r>
       <r>    6.0661    1.0000 </r>
       <r>    6.1461    1.0000 </r>
       <r>    6.2013    1.0000 </r>
       <r>    6.2772    1.0000 </r>
       <r>    6.3035    1.0000 </r>
       <r>    6.3212    1.0000 </r>
       <r>    6.3655    1.0000 </r>
       <r>    6.4252    1.0000 </r>
       <r>    6.5773    1.0000 </r>
       <r>    6.8570    1.0000 </r>
       <r>    7.5589    1.0311 </r>
       <r>    7.9889    0.4860 </r>
       <r>    9.0872    0.0000 </r>
       <r>    9.2532    0.0000 </r>
       <r>    9.9382    0.0000 </r>
       <r>   11.2126    0.0000 </r>
       <r>   11.4202    0.0000 </r>
       <r>   13.1299    0.0000 </r>
       <r>   14.2870    0.0000 </r>
      </set>
      <set comment="kpoint 15">
       <r>    1.0322    1.0000 </r>
       <r>    1.1335    1.0000 </r>
       <r>    1.1882    1.0000 </r>
       <r>    1.6784    1.0000 </r>
       <r>    1.8585    1.0000 </r>
       <r>    2.4320    1.0000 </r>
       <r>    3.0685    1.0000 </r>
       <r>    3.5573    1.0000 </r>
       <r>    3.5947    1.0000 </r>
       <r>    3.9004    1.0000 </r>
       <r>    4.1236    1.0000 </r>
       <r>    4.3072    1.0000 </r>
       <r>    4.6686    1.0000 </r>
       <r>    4.7096    1.0000 </r>
       <r>    4.8189    1.0000 </r>
       <r>    4.9763    1.0000 </r>
       <r>    5.2406    1.0000 </r>
       <r>    5.5473    1.0000 </r>
       <r>    5.5716    1.0000 </r>
       <r>    5.6764    1.0000 </r>
       <r>    6.0281    1.0000 </r>
       <r>    6.1010    1.0000 </r>
       <r>    6.1930    1.0000 </r>
       <r>    6.2054    1.0000 </r>
       <r>    6.2842    1.0000 </r>
[...]
       <r>    5.7603    1.0000 </r>
       <r>    5.8261    1.0000 </r>
       <r>    6.0245    1.0000 </r>
       <r>    6.0705    1.0000 </r>
       <r>    6.1091    1.0000 </r>
       <r>    6.2379    1.0000 </r>
       <r>    6.2923    1.0000 </r>
       <r>    6.3354    1.0000 </r>
       <r>    6.3646    1.0000 </r>
       <r>    9.6694    0.0000 </r>
       <r>    9.9908    0.0000 </r>
       <r>   10.0921    0.0000 </r>
       <r>   10.4606    0.0000 </r>
       <r>   11.3315    0.0000 </r>
       <r>   11.5159    0.0000 </r>
       <r>   11.9415    0.0000 </r>
       <r>   12.1011    0.0000 </r>
       <r>   12.3942    0.0000 </r>
       <r>   12.7865    0.0000 </r>
      </set>
      <set comment="kpoint 369">
       <r>    2.2082    1.0000 </r>
       <r>    2.3462    1.0000 </r>
       <r>    2.4617    1.0000 </r>
       <r>    2.6122    1.0000 </r>
       <r>    2.7095    1.0000 </r>
       <r>    2.7925    1.0000 </r>
       <r>    2.9115    1.0000 </r>
       <r>    2.9666    1.0000 </r>
       <r>    3.1464    1.0000 </r>
       <r>    3.2294    1.0000 </r>
       <r>    3.2965    1.0000 </r>
       <r>    3.3770    1.0000 </r>
       <r>    4.1582    1.0000 </r>
       <r>    4.2486    1.0000 </r>
       <r>    4.3995    1.0000 </r>
       <r>    4.5433    1.0000 </r>
       <r>    4.8215    1.0000 </r>
       <r>    4.8388    1.0000 </r>
       <r>    5.2405    1.0000 </r>
       <r>    5.6462    1.0000 </r>
       <r>    5.6896    1.0000 </r>
       <r>    5.7619    1.0000 </r>
       <r>    5.8189    1.0000 </r>
       <r>    6.0036    1.0000 </r>
       <r>    6.0743    1.0000 </r>
       <r>    6.1126    1.0000 </r>
       <r>    6.2387    1.0000 </r>
       <r>    6.3167    1.0000 </r>
       <r>    6.3326    1.0000 </r>
       <r>    6.3899    1.0000 </r>
       <r>    9.1362    0.0000 </r>
       <r>    9.5303    0.0000 </r>
       <r>   10.5577    0.0000 </r>
       <r>   10.9076    0.0000 </r>
       <r>   10.9721    0.0000 </r>
       <r>   11.4987    0.0000 </r>
       <r>   11.6725    0.0000 </r>
       <r>   12.1012    0.0000 </r>
       <r>   12.6762    0.0000 </r>
       <r>   13.4321    0.0000 </r>
      </set>
      <set comment="kpoint 370">
       <r>    2.3264    1.0000 </r>
       <r>    2.4947    1.0000 </r>
       <r>    2.5507    1.0000 </r>
       <r>    2.5949    1.0000 </r>
       <r>    2.6968    1.0000 </r>
       <r>    2.9038    1.0000 </r>
       <r>    2.9162    1.0000 </r>
       <r>    3.0097    1.0000 </r>
       <r>    3.0955    1.0000 </r>
       <r>    3.1409    1.0000 </r>
       <r>    3.2272    1.0000 </r>
       <r>    3.2581    1.0000 </r>
       <r>    4.2224    1.0000 </r>
       <r>    4.2400    1.0000 </r>
       <r>    4.3258    1.0000 </r>
       <r>    4.5404    1.0000 </r>
       <r>    4.8187    1.0000 </r>
       <r>    4.8351    1.0000 </r>
       <r>    5.2279    1.0000 </r>
       <r>    5.7015    1.0000 </r>
       <r>    5.7200    1.0000 </r>
       <r>    5.7672    1.0000 </r>
       <r>    5.7880    1.0000 </r>
       <r>    6.0163    1.0000 </r>
       <r>    6.0655    1.0000 </r>
       <r>    6.1023    1.0000 </r>
       <r>    6.2432    1.0000 </r>
       <r>    6.2828    1.0000 </r>
       <r>    6.3230    1.0000 </r>
       <r>    6.3510    1.0000 </r>
       <r>    9.7534    0.0000 </r>
       <r>   10.1220    0.0000 </r>
       <r>   10.5056    0.0000 </r>
       <r>   10.6698    0.0000 </r>
       <r>   10.8556    0.0000 </r>
       <r>   11.5484    0.0000 </r>
       <r>   11.7225    0.0000 </r>
       <r>   12.2570    0.0000 </r>
       <r>   12.6766    0.0000 </r>
       <r>   13.1138    0.0000 </r>
      </set>
     </set>
    </set>
   </array>
  </eigenvalues>
  <separator name="orbital magnetization" >
   <v name="MAGDIPOLOUT">      0.00000000      0.00000000      0.00000000</v>
  </separator>
  <dos>
   <i name="efermi">      7.98389482 </i>
   <total>
    <array>
     <dimension dim="1">gridpoints</dimension>
     <dimension dim="2">spin</dimension>
     <field>energy</field>
     <field>total</field>
     <field>integrated</field>
     <set>
      <set comment="spin 1">
       <r>    -4.4370     0.0000     0.0000 </r>
       <r>    -4.3440     0.0000     0.0000 </r>
       <r>    -4.2511     0.0000     0.0000 </r>
       <r>    -4.1581     0.0000     0.0000 </r>
       <r>    -4.0652     0.0000     0.0000 </r>
       <r>    -3.9722     0.0000     0.0000 </r>
       <r>    -3.8792     0.0000     0.0000 </r>
       <r>    -3.7863     0.0000     0.0000 </r>
       <r>    -3.6933     0.0000     0.0000 </r>
       <r>    -3.6004     0.0000     0.0000 </r>
       <r>    -3.5074     0.0000     0.0000 </r>
       <r>    -3.4145     0.0000     0.0000 </r>
       <r>    -3.3215     0.0000     0.0000 </r>
       <r>    -3.2286     0.0000     0.0000 </r>
       <r>    -3.1356     0.0000     0.0000 </r>
       <r>    -3.0426     0.0000     0.0000 </r>
       <r>    -2.9497     0.0000     0.0000 </r>
       <r>    -2.8567     0.0000     0.0000 </r>
       <r>    -2.7638     0.0000     0.0000 </r>
       <r>    -2.6708     0.0000     0.0000 </r>
       <r>    -2.5779     0.0000     0.0000 </r>
       <r>    -2.4849     0.0000     0.0000 </r>
       <r>    -2.3920     0.0000     0.0000 </r>
       <r>    -2.2990     0.0000     0.0000 </r>
       <r>    -2.2061    -0.0001     0.0000 </r>
       <r>    -2.1131    -0.0002     0.0000 </r>
       <r>    -2.0201    -0.0009    -0.0001 </r>
       <r>    -1.9272    -0.0024    -0.0003 </r>
       <r>    -1.8342    -0.0051    -0.0008 </r>
       <r>    -1.7413    -0.0075    -0.0015 </r>
       <r>    -1.6483    -0.0052    -0.0020 </r>
       <r>    -1.5554     0.0097    -0.0011 </r>
       <r>    -1.4624     0.0432     0.0029 </r>
       <r>    -1.3695     0.0937     0.0116 </r>
       <r>    -1.2765     0.1517     0.0257 </r>
       <r>    -1.1835     0.2072     0.0450 </r>
       <r>    -1.0906     0.2585     0.0690 </r>
       <r>    -0.9976     0.3099     0.0978 </r>
       <r>    -0.9047     0.3636     0.1316 </r>
       <r>    -0.8117     0.4146     0.1702 </r>
       <r>    -0.7188     0.4545     0.2124 </r>
       <r>    -0.6258     0.4785     0.2569 </r>
       <r>    -0.5329     0.4893     0.3024 </r>
       <r>    -0.4399     0.4960     0.3485 </r>
       <r>    -0.3470     0.5088     0.3958 </r>
       <r>    -0.2540     0.5361     0.4456 </r>
       <r>    -0.1610     0.5838     0.4999 </r>
       <r>    -0.0681     0.6498     0.5603 </r>
       <r>     0.0249     0.7197     0.6272 </r>
       <r>     0.1178     0.7769     0.6994 </r>
       <r>     0.2108     0.8176     0.7754 </r>
       <r>     0.3037     0.8488     0.8543 </r>
       <r>     0.3967     0.8715     0.9353 </r>
       <r>     0.4896     0.8808     1.0172 </r>
       <r>     0.5826     0.8819     1.0992 </r>
       <r>     0.6756     0.9022     1.1830 </r>
       <r>     0.7685     1.0025     1.2762 </r>
       <r>     0.8615     1.2858     1.3957 </r>
       <r>     0.9544     1.8566     1.5683 </r>
       <r>     1.0474     2.7077     1.8200 </r>
       <r>     1.1403     3.6436     2.1587 </r>
       <r>     1.2333     4.3671     2.5646 </r>
       <r>     1.3262     4.6798     2.9997 </r>
       <r>     1.4192     4.6170     3.4288 </r>
       <r>     1.5121     4.4288     3.8405 </r>
       <r>     1.6051     4.4500     4.2542 </r>
       <r>     1.6981     4.9350     4.7129 </r>
       <r>     1.7910     5.9062     5.2619 </r>
       <r>     1.8840     7.0902     5.9210 </r>
       <r>     1.9769     8.0220     6.6667 </r>
       <r>     2.0699     8.3233     7.4403 </r>
       <r>     2.1628     7.9859     8.1827 </r>
       <r>     2.2558     7.3995     8.8705 </r>
       <r>     2.3487     7.0379     9.5247 </r>
       <r>     2.4417     7.0693    10.1818 </r>
       <r>     2.5347     7.2808    10.8586 </r>
       <r>     2.6276     7.3916    11.5457 </r>
       <r>     2.7206     7.4060    12.2341 </r>
       <r>     2.8135     7.6256    12.9430 </r>
       <r>     2.9065     8.3037    13.7148 </r>
       <r>     2.9994     9.2937    14.5787 </r>
       <r>     3.0924    10.0822    15.5159 </r>
       <r>     3.1853    10.2226    16.4662 </r>
       <r>     3.2783     9.7258    17.3702 </r>
       <r>     3.3712     8.9878    18.2057 </r>
       <r>     3.4642     8.3743    18.9841 </r>
       <r>     3.5572     7.9630    19.7243 </r>
       <r>     3.6501     7.6804    20.4383 </r>
       <r>     3.7431     7.5735    21.1423 </r>
       <r>     3.8360     7.8444    21.8714 </r>
       <r>     3.9290     8.6090    22.6717 </r>
       <r>     4.0219     9.6744    23.5710 </r>
       <r>     4.1149    10.6202    24.5582 </r>
       <r>     4.2078    11.1581    25.5954 </r>
       <r>     4.3008    11.4310    26.6579 </r>
       <r>     4.3938    11.8991    27.7640 </r>
       <r>     4.4867    12.8632    28.9597 </r>
       <r>     4.5797    14.0806    30.2686 </r>
       <r>     4.6726    14.8738    31.6512 </r>
       <r>     4.7656    14.6715    33.0150 </r>
       <r>     4.8585    13.5006    34.2699 </r>
       <r>     4.9515    11.9665    35.3823 </r>
       <r>     5.0444    10.7797    36.3843 </r>
       <r>     5.1374    10.3435    37.3458 </r>
       <r>     5.2303    10.7318    38.3433 </r>
       <r>     5.3233    11.8782    39.4475 </r>
       <r>     5.4163    13.6441    40.7158 </r>
       <r>     5.5092    15.7084    42.1759 </r>
       <r>     5.6022    17.5188    43.8044 </r>
       <r>     5.6951    18.5593    45.5296 </r>
       <r>     5.7881    18.8101    47.2781 </r>
       <r>     5.8810    18.8870    49.0337 </r>
       <r>     5.9740    19.5675    50.8526 </r>
       <r>     6.0669    21.0893    52.8130 </r>
       <r>     6.1599    22.8588    54.9378 </r>
       <r>     6.2529    23.7451    57.1450 </r>
       <r>     6.3458    22.6834    59.2536 </r>
       <r>     6.4388    19.2918    61.0468 </r>
       <r>     6.5317    14.2207    62.3687 </r>
       <r>     6.6247     8.9104    63.1970 </r>
       <r>     6.7176     4.7780    63.6411 </r>
       <r>     6.8106     2.4391    63.8679 </r>
       <r>     6.9035     1.5981    64.0164 </r>
       <r>     6.9965     1.5490    64.1604 </r>
       <r>     7.0895     1.7158    64.3199 </r>
       <r>     7.1824     1.8432    64.4912 </r>
       <r>     7.2754     1.9028    64.6681 </r>
       <r>     7.3683     1.9328    64.8478 </r>
       <r>     7.4613     1.9436    65.0284 </r>
       <r>     7.5542     1.9200    65.2069 </r>
       <r>     7.6472     1.8687    65.3806 </r>
       <r>     7.7401     1.8300    65.5507 </r>
       <r>     7.8331     1.8316    65.7210 </r>
       <r>     7.9260     1.8511    65.8930 </r>
       <r>     8.0190     1.8423    66.0643 </r>
       <r>     8.1120     1.7902    66.2307 </r>
       <r>     8.2049     1.7283    66.3914 </r>
       <r>     8.2979     1.7038    66.5497 </r>
       <r>     8.3908     1.7305    66.7106 </r>
       <r>     8.4838     1.7727    66.8754 </r>
       <r>     8.5767     1.7731    67.0402 </r>
       <r>     8.6697     1.7086    67.1990 </r>
       <r>     8.7626     1.6197    67.3496 </r>
       <r>     8.8556     1.5741    67.4959 </r>
       <r>     8.9486     1.5969    67.6443 </r>
       <r>     9.0415     1.6504    67.7978 </r>
       <r>     9.1345     1.6774    67.9537 </r>
       <r>     9.2274     1.6534    68.1074 </r>
       <r>     9.3204     1.6018    68.2563 </r>
       <r>     9.4133     1.5715    68.4023 </r>
       <r>     9.5063     1.5952    68.5506 </r>
       <r>     9.5992     1.6538    68.7044 </r>
       <r>     9.6922     1.6908    68.8615 </r>
       <r>     9.7851     1.6705    69.0168 </r>
       <r>     9.8781     1.6135    69.1668 </r>
       <r>     9.9711     1.5627    69.3120 </r>
       <r>    10.0640     1.5291    69.4542 </r>
       <r>    10.1570     1.4882    69.5925 </r>
       <r>    10.2499     1.4242    69.7249 </r>
       <r>    10.3429     1.3598    69.8513 </r>
       <r>    10.4358     1.3364    69.9755 </r>
       <r>    10.5288     1.3682    70.1027 </r>
       <r>    10.6217     1.4242    70.2351 </r>
       <r>    10.7147     1.4644    70.3712 </r>
       <r>    10.8077     1.4956    70.5102 </r>
       <r>    10.9006     1.5714    70.6563 </r>
       <r>    10.9936     1.7203    70.8162 </r>
       <r>    11.0865     1.8893    70.9918 </r>
       <r>    11.1795     1.9856    71.1764 </r>
       <r>    11.2724     1.9689    71.3594 </r>
       <r>    11.3654     1.8845    71.5346 </r>
       <r>    11.4583     1.8071    71.7026 </r>
       <r>    11.5513     1.7724    71.8673 </r>
       <r>    11.6442     1.7673    72.0316 </r>
       <r>    11.7372     1.7680    72.1960 </r>
       <r>    11.8302     1.7699    72.3605 </r>
       <r>    11.9231     1.7813    72.5261 </r>
       <r>    12.0161     1.8043    72.6938 </r>
       <r>    12.1090     1.8292    72.8638 </r>
       <r>    12.2020     1.8444    73.0353 </r>
       <r>    12.2949     1.8441    73.2067 </r>
       <r>    12.3879     1.8279    73.3766 </r>
       <r>    12.4808     1.7994    73.5439 </r>
       <r>    12.5738     1.7631    73.7078 </r>
       <r>    12.6668     1.7221    73.8678 </r>
       <r>    12.7597     1.6819    74.0242 </r>
       <r>    12.8527     1.6560    74.1781 </r>
       <r>    12.9456     1.6590    74.3323 </r>
       <r>    13.0386     1.6948    74.4899 </r>
       <r>    13.1315     1.7589    74.6534 </r>
       <r>    13.2245     1.8494    74.8253 </r>
       <r>    13.3174     1.9599    75.0075 </r>
       <r>    13.4104     2.0636    75.1993 </r>
       <r>    13.5033     2.1176    75.3961 </r>
       <r>    13.5963     2.0910    75.5905 </r>
       <r>    13.6893     1.9926    75.7757 </r>
       <r>    13.7822     1.8780    75.9503 </r>
       <r>    13.8752     1.8277    76.1202 </r>
       <r>    13.9681     1.8965    76.2965 </r>
       <r>    14.0611     2.0670    76.4886 </r>
       <r>    14.1540     2.2546    76.6982 </r>
       <r>    14.2470     2.3638    76.9179 </r>
       <r>    14.3399     2.3403    77.1354 </r>
       <r>    14.4329     2.1833    77.3384 </r>
       <r>    14.5259     1.9344    77.5182 </r>
       <r>    14.6188     1.6635    77.6728 </r>
       <r>    14.7118     1.4444    77.8071 </r>
       <r>    14.8047     1.3211    77.9299 </r>
       <r>    14.8977     1.2904    78.0499 </r>
       <r>    14.9906     1.3141    78.1720 </r>
       <r>    15.0836     1.3448    78.2970 </r>
       <r>    15.1765     1.3446    78.4220 </r>
       <r>    15.2695     1.2987    78.5427 </r>
       <r>    15.3624     1.2200    78.6561 </r>
       <r>    15.4554     1.1398    78.7621 </r>
       <r>    15.5484     1.0896    78.8634 </r>
       <r>    15.6413     1.0903    78.9647 </r>
       <r>    15.7343     1.1513    79.0717 </r>
       <r>    15.8272     1.2666    79.1895 </r>
       <r>    15.9202     1.4013    79.3197 </r>
       <r>    16.0131     1.4823    79.4575 </r>
       <r>    16.1061     1.4212    79.5896 </r>
       <r>    16.1990     1.1747    79.6988 </r>
       <r>    16.2920     0.7951    79.7727 </r>
       <r>    16.3850     0.4099    79.8108 </r>
       <r>    16.4779     0.1368    79.8235 </r>
       <r>    16.5709     0.0150    79.8249 </r>
       <r>    16.6638     0.0072    79.8256 </r>
       <r>    16.7568     0.0471    79.8300 </r>
       <r>    16.8497     0.0812    79.8375 </r>
       <r>    16.9427     0.0861    79.8455 </r>
       <r>    17.0356     0.0662    79.8517 </r>
       <r>    17.1286     0.0391    79.8553 </r>
       <r>    17.2215     0.0186    79.8570 </r>
       <r>    17.3145     0.0093    79.8579 </r>
       <r>    17.4075     0.0119    79.8590 </r>
       <r>    17.5004     0.0281    79.8616 </r>
       <r>    17.5934     0.0556    79.8668 </r>
       <r>    17.6863     0.0850    79.8747 </r>
       <r>    17.7793     0.1046    79.8844 </r>
       <r>    17.8722     0.1087    79.8945 </r>
       <r>    17.9652     0.0999    79.9038 </r>
       <r>    18.0581     0.0846    79.9117 </r>
       <r>    18.1511     0.0693    79.9181 </r>
       <r>    18.2441     0.0593    79.9236 </r>
       <r>    18.3370     0.0573    79.9290 </r>
       <r>    18.4300     0.0610    79.9346 </r>
       <r>    18.5229     0.0633    79.9405 </r>
       <r>    18.6159     0.0576    79.9459 </r>
       <r>    18.7088     0.0432    79.9499 </r>
       <r>    18.8018     0.0270    79.9524 </r>
       <r>    18.8947     0.0180    79.9541 </r>
       <r>    18.9877     0.0205    79.9560 </r>
       <r>    19.0806     0.0322    79.9590 </r>
       <r>    19.1736     0.0470    79.9633 </r>
       <r>    19.2666     0.0579    79.9687 </r>
       <r>    19.3595     0.0609    79.9744 </r>
       <r>    19.4525     0.0572    79.9797 </r>
       <r>    19.5454     0.0515    79.9845 </r>
       <r>    19.6384     0.0463    79.9888 </r>
       <r>    19.7313     0.0396    79.9925 </r>
       <r>    19.8243     0.0291    79.9952 </r>
       <r>    19.9172     0.0165    79.9967 </r>
       <r>    20.0102     0.0058    79.9972 </r>
       <r>    20.1032     0.0000    79.9972 </r>
       <r>    20.1961    -0.0006    79.9972 </r>
       <r>    20.2891     0.0022    79.9974 </r>
       <r>    20.3820     0.0059    79.9979 </r>
       <r>    20.4750     0.0081    79.9987 </r>
       <r>    20.5679     0.0077    79.9994 </r>
       <r>    20.6609     0.0051    79.9999 </r>
       <r>    20.7538     0.0021    80.0001 </r>
       <r>    20.8468     0.0002    80.0001 </r>
       <r>    20.9398    -0.0004    80.0001 </r>
       <r>    21.0327    -0.0004    80.0000 </r>
       <r>    21.1257    -0.0002    80.0000 </r>
       <r>    21.2186    -0.0001    80.0000 </r>
       <r>    21.3116     0.0000    80.0000 </r>
       <r>    21.4045     0.0000    80.0000 </r>
       <r>    21.4975     0.0000    80.0000 </r>
       <r>    21.5904     0.0000    80.0000 </r>
       <r>    21.6834     0.0000    80.0000 </r>
       <r>    21.7763     0.0000    80.0000 </r>
       <r>    21.8693     0.0000    80.0000 </r>
       <r>    21.9623     0.0000    80.0000 </r>
       <r>    22.0552     0.0000    80.0000 </r>
       <r>    22.1482     0.0000    80.0000 </r>
       <r>    22.2411     0.0000    80.0000 </r>
       <r>    22.3341     0.0000    80.0000 </r>
       <r>    22.4270     0.0000    80.0000 </r>
       <r>    22.5200     0.0000    80.0000 </r>
       <r>    22.6129     0.0000    80.0000 </r>
       <r>    22.7059     0.0000    80.0000 </r>
       <r>    22.7989     0.0000    80.0000 </r>
       <r>    22.8918     0.0000    80.0000 </r>
       <r>    22.9848     0.0000    80.0000 </r>
       <r>    23.0777     0.0000    80.0000 </r>
       <r>    23.1707     0.0000    80.0000 </r>
       <r>    23.2636     0.0000    80.0000 </r>
       <r>    23.3566     0.0000    80.0000 </r>
       <r>    23.4495     0.0000    80.0000 </r>
      </set>
     </set>
    </array>
   </total>
  </dos>
 </calculation>
 <structure name="finalpos" >
  <crystal>
   <varray name="basis" >
    <v>       2.00868161       0.00000000       2.00868161 </v>
    <v>       0.00000000      -2.00868161      -2.00868161 </v>
    <v>       7.59332425       7.59332425      -7.59332425 </v>
   </varray>
   <i name="volume">     91.91267570 </i>
   <varray name="rec_basis" >
    <v>       0.33189265      -0.16594633       0.16594633 </v>
    <v>       0.16594633      -0.33189265      -0.16594633 </v>
    <v>       0.04389821       0.04389821      -0.04389821 </v>
   </varray>
  </crystal>
  <varray name="positions" >
   <v>       0.66666667       0.33333333       0.34121453 </v>
   <v>       0.33333333       0.66666667       0.67305638 </v>
   <v>       0.66666667       0.33333333       0.81829282 </v>
   <v>       0.00000000       0.00000000       0.98351483 </v>
   <v>       0.33333333       0.66666667       0.17784570 </v>
   <v>       0.00000000       0.00000000       0.50607574 </v>
  </varray>
 </structure>
</modeling>
