<?xml version="1.0" encoding="ISO-8859-1"?>
<modeling>
 <generator>
  <i name="program" type="string">vasp </i>
  <i name="version" type="string">5.3.5  </i>
  <i name="subversion" type="string">31Mar14 (build Jun 20 2014 13:15:13) complex                          parallel </i>
  <i name="platform" type="string">LinuxIFC </i>
  <i name="date" type="string">2025 11 26 </i>
  <i name="time" type="string">19:55:41 </i>
 </generator>
 <incar>
  <i type="string" name="PREC">accurate</i>
  <i type="int" name="IALGO">    68</i>
  <i type="logical" name="ADDGRID"> T  </i>
  <i type="int" name="NELM">   200</i>
  <i type="int" name="NELMIN">     4</i>
  <i type="int" name="IBRION">     2</i>
  <i name="EDIFF">      0.00000100</i>
  <i name="EDIFFG">     -0.02000000</i>
  <i type="int" name="NSW">    30</i>
  <i type="int" name="ISIF">     3</i>
  <i name="ENCUT">    500.00000000</i>
  <i type="logical" name="LREAL"> F  </i>
  <i type="int" name="ISMEAR">     1</i>
  <i name="SIGMA">      0.30000000</i>
  <i type="logical" name="LWAVE"> F  </i>
  <i type="logical" name="LCHARG"> F  </i>
  <i type="int" name="NELM">   200</i>
 </incar>
 <kpoints>
  <generation param="Auto">
   <i name="subdivisionlength">     70.00000000 </i>
   <v type="int" name="divisions">      18       18       18 </v>
   <v name="usershift">      0.00000000       0.00000000       0.00000000 </v>
   <v name="genvec1">      0.05555556       0.00000000       0.00000000 </v>
   <v name="genvec2">      0.00000000       0.05555556       0.00000000 </v>
   <v name="genvec3">      0.00000000       0.00000000       0.05555556 </v>
   <v name="shift">      0.00000000       0.00000000       0.00000000 </v>
  </generation>
  <varray name="kpointlist" >
   <v>       0.00000000       0.00000000       0.00000000 </v>
   <v>       0.05555556       0.00000000       0.00000000 </v>
   <v>       0.11111111       0.00000000       0.00000000 </v>
   <v>       0.16666667       0.00000000       0.00000000 </v>
   <v>       0.22222222       0.00000000       0.00000000 </v>
   <v>       0.27777778       0.00000000       0.00000000 </v>
   <v>       0.33333333       0.00000000       0.00000000 </v>
   <v>       0.38888889       0.00000000       0.00000000 </v>
   <v>       0.44444444       0.00000000       0.00000000 </v>
   <v>       0.50000000       0.00000000       0.00000000 </v>
   <v>       0.05555556       0.05555556       0.00000000 </v>
   <v>       0.11111111       0.05555556       0.00000000 </v>
   <v>       0.16666667       0.05555556       0.00000000 </v>
   <v>       0.22222222       0.05555556       0.00000000 </v>
   <v>       0.27777778       0.05555556       0.00000000 </v>
   <v>       0.33333333       0.05555556       0.00000000 </v>
   <v>       0.38888889       0.05555556       0.00000000 </v>
   <v>       0.44444444       0.05555556       0.00000000 </v>
   <v>       0.50000000       0.05555556       0.00000000 </v>
   <v>       0.11111111       0.11111111       0.00000000 </v>
   <v>       0.16666667       0.11111111       0.00000000 </v>
   <v>       0.22222222       0.11111111       0.00000000 </v>
   <v>       0.27777778       0.11111111       0.00000000 </v>
   <v>       0.33333333       0.11111111       0.00000000 </v>
   <v>       0.38888889       0.11111111       0.00000000 </v>
   <v>       0.44444444       0.11111111       0.00000000 </v>
   <v>       0.50000000       0.11111111       0.00000000 </v>
   <v>       0.16666667       0.16666667       0.00000000 </v>
   <v>       0.22222222       0.16666667       0.00000000 </v>
   <v>       0.27777778       0.16666667       0.00000000 </v>
   <v>       0.33333333       0.16666667       0.00000000 </v>
   <v>       0.38888889       0.16666667       0.00000000 </v>
   <v>       0.44444444       0.16666667       0.00000000 </v>
   <v>       0.50000000       0.16666667       0.00000000 </v>
   <v>       0.22222222       0.22222222       0.00000000 </v>
   <v>       0.27777778       0.22222222       0.00000000 </v>
   <v>       0.33333333       0.22222222       0.00000000 </v>
   <v>       0.38888889       0.22222222       0.00000000 </v>
   <v>       0.44444444       0.22222222       0.00000000 </v>
   <v>       0.50000000       0.22222222       0.00000000 </v>
   <v>       0.27777778       0.27777778       0.00000000 </v>
   <v>       0.33333333       0.27777778       0.00000000 </v>
   <v>       0.38888889       0.27777778       0.00000000 </v>
   <v>       0.44444444       0.27777778       0.00000000 </v>
   <v>       0.50000000       0.27777778       0.00000000 </v>
   <v>       0.33333333       0.33333333       0.00000000 </v>
   <v>       0.38888889       0.33333333       0.00000000 </v>
   <v>       0.44444444       0.33333333       0.00000000 </v>
   <v>       0.50000000       0.33333333       0.00000000 </v>
   <v>       0.38888889       0.38888889       0.00000000 </v>
   <v>       0.44444444       0.38888889       0.00000000 </v>
   <v>       0.50000000       0.38888889       0.00000000 </v>
   <v>       0.44444444       0.44444444       0.00000000 </v>
   <v>       0.50000000       0.44444444       0.00000000 </v>
   <v>       0.50000000       0.50000000       0.00000000 </v>
   <v>       0.05555556       0.05555556       0.05555556 </v>
   <v>       0.11111111       0.05555556       0.05555556 </v>
   <v>       0.16666667       0.05555556       0.05555556 </v>
   <v>       0.22222222       0.05555556       0.05555556 </v>
   <v>       0.27777778       0.05555556       0.05555556 </v>
   <v>       0.33333333       0.05555556       0.05555556 </v>
   <v>       0.38888889       0.05555556       0.05555556 </v>
   <v>       0.44444444       0.05555556       0.05555556 </v>
   <v>       0.50000000       0.05555556       0.05555556 </v>
   <v>       0.11111111       0.11111111       0.05555556 </v>
   <v>       0.16666667       0.11111111       0.05555556 </v>
   <v>       0.22222222       0.11111111       0.05555556 </v>
   <v>       0.27777778       0.11111111       0.05555556 </v>
   <v>       0.33333333       0.11111111       0.05555556 </v>
   <v>       0.38888889       0.11111111       0.05555556 </v>
   <v>       0.44444444       0.11111111       0.05555556 </v>
   <v>       0.50000000       0.11111111       0.05555556 </v>
   <v>       0.16666667       0.16666667       0.05555556 </v>
   <v>       0.22222222       0.16666667       0.05555556 </v>
   <v>       0.27777778       0.16666667       0.05555556 </v>
   <v>       0.33333333       0.16666667       0.05555556 </v>
   <v>       0.38888889       0.16666667       0.05555556 </v>
   <v>       0.44444444       0.16666667       0.05555556 </v>
   <v>       0.50000000       0.16666667       0.05555556 </v>
   <v>       0.22222222       0.22222222       0.05555556 </v>
   <v>       0.27777778       0.22222222       0.05555556 </v>
   <v>       0.33333333       0.22222222       0.05555556 </v>
   <v>       0.38888889       0.22222222       0.05555556 </v>
   <v>       0.44444444       0.22222222       0.05555556 </v>
   <v>       0.50000000       0.22222222       0.05555556 </v>
   <v>       0.27777778       0.27777778       0.05555556 </v>
   <v>       0.33333333       0.27777778       0.05555556 </v>
   <v>       0.38888889       0.27777778       0.05555556 </v>
   <v>       0.44444444       0.27777778       0.05555556 </v>
   <v>       0.50000000       0.27777778       0.05555556 </v>
   <v>       0.33333333       0.33333333       0.05555556 </v>
   <v>       0.38888889       0.33333333       0.05555556 </v>
   <v>       0.44444444       0.33333333       0.05555556 </v>
   <v>       0.50000000       0.33333333       0.05555556 </v>
   <v>       0.38888889       0.38888889       0.05555556 </v>
   <v>       0.44444444       0.38888889       0.05555556 </v>
   <v>       0.50000000       0.38888889       0.05555556 </v>
   <v>       0.44444444       0.44444444       0.05555556 </v>
   <v>       0.50000000       0.44444444       0.05555556 </v>
   <v>       0.50000000       0.50000000       0.05555556 </v>
   <v>       0.11111111       0.11111111       0.11111111 </v>
   <v>       0.16666667       0.11111111       0.11111111 </v>
   <v>       0.22222222       0.11111111       0.11111111 </v>
   <v>       0.27777778       0.11111111       0.11111111 </v>
   <v>       0.33333333       0.11111111       0.11111111 </v>
   <v>       0.38888889       0.11111111       0.11111111 </v>
   <v>       0.44444444       0.11111111       0.11111111 </v>
   <v>       0.50000000       0.11111111       0.11111111 </v>
   <v>       0.16666667       0.16666667       0.11111111 </v>
   <v>       0.22222222       0.16666667       0.11111111 </v>
   <v>       0.27777778       0.16666667       0.11111111 </v>
   <v>       0.33333333       0.16666667       0.11111111 </v>
   <v>       0.38888889       0.16666667       0.11111111 </v>
   <v>       0.44444444       0.16666667       0.11111111 </v>
   <v>       0.50000000       0.16666667       0.11111111 </v>
   <v>       0.22222222       0.22222222       0.11111111 </v>
   <v>       0.27777778       0.22222222       0.11111111 </v>
   <v>       0.33333333       0.22222222       0.11111111 </v>
   <v>       0.38888889       0.22222222       0.11111111 </v>
   <v>       0.44444444       0.22222222       0.11111111 </v>
   <v>       0.50000000       0.22222222       0.11111111 </v>
   <v>       0.27777778       0.27777778       0.11111111 </v>
   <v>       0.33333333       0.27777778       0.11111111 </v>
   <v>       0.38888889       0.27777778       0.11111111 </v>
   <v>       0.44444444       0.27777778       0.11111111 </v>
   <v>       0.50000000       0.27777778       0.11111111 </v>
   <v>       0.33333333       0.33333333       0.11111111 </v>
   <v>       0.38888889       0.33333333       0.11111111 </v>
   <v>       0.44444444       0.33333333       0.11111111 </v>
   <v>       0.50000000       0.33333333       0.11111111 </v>
   <v>       0.38888889       0.38888889       0.11111111 </v>
   <v>       0.44444444       0.38888889       0.11111111 </v>
   <v>       0.50000000       0.38888889       0.11111111 </v>
   <v>       0.44444444       0.44444444       0.11111111 </v>
   <v>       0.50000000       0.44444444       0.11111111 </v>
   <v>       0.50000000       0.50000000       0.11111111 </v>
   <v>       0.16666667       0.16666667       0.16666667 </v>
   <v>       0.22222222       0.16666667       0.16666667 </v>
   <v>       0.27777778       0.16666667       0.16666667 </v>
   <v>       0.33333333       0.16666667       0.16666667 </v>
   <v>       0.38888889       0.16666667       0.16666667 </v>
   <v>       0.44444444       0.16666667       0.16666667 </v>
   <v>       0.50000000       0.16666667       0.16666667 </v>
   <v>       0.22222222       0.22222222       0.16666667 </v>
   <v>       0.27777778       0.22222222       0.16666667 </v>
   <v>       0.33333333       0.22222222       0.16666667 </v>
   <v>       0.38888889       0.22222222       0.16666667 </v>
   <v>       0.44444444       0.22222222       0.16666667 </v>
   <v>       0.50000000       0.22222222       0.16666667 </v>
   <v>       0.27777778       0.27777778       0.16666667 </v>
   <v>       0.33333333       0.27777778       0.16666667 </v>
   <v>       0.38888889       0.27777778       0.16666667 </v>
   <v>       0.44444444       0.27777778       0.16666667 </v>
   <v>       0.50000000       0.27777778       0.16666667 </v>
   <v>       0.33333333       0.33333333       0.16666667 </v>
   <v>       0.38888889       0.33333333       0.16666667 </v>
   <v>       0.44444444       0.33333333       0.16666667 </v>
   <v>       0.50000000       0.33333333       0.16666667 </v>
   <v>       0.38888889       0.38888889       0.16666667 </v>
   <v>       0.44444444       0.38888889       0.16666667 </v>
   <v>       0.50000000       0.38888889       0.16666667 </v>
   <v>       0.44444444       0.44444444       0.16666667 </v>
   <v>       0.50000000       0.44444444       0.16666667 </v>
   <v>       0.50000000       0.50000000       0.16666667 </v>
   <v>       0.22222222       0.22222222       0.22222222 </v>
   <v>       0.27777778       0.22222222       0.22222222 </v>
   <v>       0.33333333       0.22222222       0.22222222 </v>
   <v>       0.38888889       0.22222222       0.22222222 </v>
   <v>       0.44444444       0.22222222       0.22222222 </v>
   <v>       0.50000000       0.22222222       0.22222222 </v>
   <v>       0.27777778       0.27777778       0.22222222 </v>
   <v>       0.33333333       0.27777778       0.22222222 </v>
   <v>       0.38888889       0.27777778       0.22222222 </v>
   <v>       0.44444444       0.27777778       0.22222222 </v>
   <v>       0.50000000       0.27777778       0.22222222 </v>
   <v>       0.33333333       0.33333333       0.22222222 </v>
   <v>       0.38888889       0.33333333       0.22222222 </v>
   <v>       0.44444444       0.33333333       0.22222222 </v>
   <v>       0.50000000       0.33333333       0.22222222 </v>
   <v>       0.38888889       0.38888889       0.22222222 </v>
   <v>       0.44444444       0.38888889       0.22222222 </v>
   <v>       0.50000000       0.38888889       0.22222222 </v>
   <v>       0.44444444       0.44444444       0.22222222 </v>
   <v>       0.50000000       0.44444444       0.22222222 </v>
   <v>       0.50000000       0.50000000       0.22222222 </v>
   <v>       0.27777778       0.27777778       0.27777778 </v>
   <v>       0.33333333       0.27777778       0.27777778 </v>
   <v>       0.38888889       0.27777778       0.27777778 </v>
   <v>       0.44444444       0.27777778       0.27777778 </v>
   <v>       0.50000000       0.27777778       0.27777778 </v>
   <v>       0.33333333       0.33333333       0.27777778 </v>
   <v>       0.38888889       0.33333333       0.27777778 </v>
   <v>       0.44444444       0.33333333       0.27777778 </v>
   <v>       0.50000000       0.33333333       0.27777778 </v>
   <v>       0.38888889       0.38888889       0.27777778 </v>
   <v>       0.44444444       0.38888889       0.27777778 </v>
   <v>       0.50000000       0.38888889       0.27777778 </v>
   <v>       0.44444444       0.44444444       0.27777778 </v>
   <v>       0.50000000       0.44444444       0.27777778 </v>
   <v>       0.50000000       0.50000000       0.27777778 </v>
   <v>       0.33333333       0.33333333       0.33333333 </v>
   <v>       0.38888889       0.33333333       0.33333333 </v>
   <v>       0.44444444       0.33333333       0.33333333 </v>
   <v>       0.50000000       0.33333333       0.33333333 </v>
   <v>       0.38888889       0.38888889       0.33333333 </v>
   <v>       0.44444444       0.38888889       0.33333333 </v>
   <v>       0.50000000       0.38888889       0.33333333 </v>
   <v>       0.44444444       0.44444444       0.33333333 </v>
   <v>       0.50000000       0.44444444       0.33333333 </v>
   <v>       0.50000000       0.50000000       0.33333333 </v>
   <v>       0.38888889       0.38888889       0.38888889 </v>
   <v>       0.44444444       0.38888889       0.38888889 </v>
   <v>       0.50000000       0.38888889       0.38888889 </v>
   <v>       0.44444444       0.44444444       0.38888889 </v>
   <v>       0.50000000       0.44444444       0.38888889 </v>
   <v>       0.50000000       0.50000000       0.38888889 </v>
   <v>       0.44444444       0.44444444       0.44444444 </v>
   <v>       0.50000000       0.44444444       0.44444444 </v>
   <v>       0.50000000       0.50000000       0.44444444 </v>
   <v>       0.50000000       0.50000000       0.50000000 </v>
  </varray>
  <varray name="weights" >
   <v>       0.00017147 </v>
   <v>       0.00102881 </v>
   <v>       0.00102881 </v>
   <v>       0.00102881 </v>
   <v>       0.00102881 </v>
   <v>       0.00102881 </v>
   <v>       0.00102881 </v>
   <v>       0.00102881 </v>
   <v>       0.00102881 </v>
   <v>       0.00051440 </v>
   <v>       0.00205761 </v>
   <v>       0.00411523 </v>
   <v>       0.00411523 </v>
   <v>       0.00411523 </v>
   <v>       0.00411523 </v>
   <v>       0.00411523 </v>
   <v>       0.00411523 </v>
   <v>       0.00411523 </v>
   <v>       0.00205761 </v>
   <v>       0.00205761 </v>
   <v>       0.00411523 </v>
   <v>       0.00411523 </v>
   <v>       0.00411523 </v>
   <v>       0.00411523 </v>
   <v>       0.00411523 </v>
   <v>       0.00411523 </v>
   <v>       0.00205761 </v>
   <v>       0.00205761 </v>
   <v>       0.00411523 </v>
   <v>       0.00411523 </v>
   <v>       0.00411523 </v>
   <v>       0.00411523 </v>
   <v>       0.00411523 </v>
   <v>       0.00205761 </v>
   <v>       0.00205761 </v>
   <v>       0.00411523 </v>
   <v>       0.00411523 </v>
   <v>       0.00411523 </v>
   <v>       0.00411523 </v>
   <v>       0.00205761 </v>
   <v>       0.00205761 </v>
   <v>       0.00411523 </v>
   <v>       0.00411523 </v>
   <v>       0.00411523 </v>
   <v>       0.00205761 </v>
   <v>       0.00205761 </v>
   <v>       0.00411523 </v>
   <v>       0.00411523 </v>
   <v>       0.00205761 </v>
   <v>       0.00205761 </v>
   <v>       0.00411523 </v>
   <v>       0.00205761 </v>
   <v>       0.00205761 </v>
   <v>       0.00205761 </v>
   <v>       0.00051440 </v>
   <v>       0.00137174 </v>
   <v>       0.00411523 </v>
   <v>       0.00411523 </v>
   <v>       0.00411523 </v>
   <v>       0.00411523 </v>
   <v>       0.00411523 </v>
   <v>       0.00411523 </v>
   <v>       0.00411523 </v>
   <v>       0.00205761 </v>
   <v>       0.00411523 </v>
   <v>       0.00823045 </v>
   <v>       0.00823045 </v>
   <v>       0.00823045 </v>
   <v>       0.00823045 </v>
   <v>       0.00823045 </v>
   <v>       0.00823045 </v>
   <v>       0.00411523 </v>
   <v>       0.00411523 </v>
   <v>       0.00823045 </v>
   <v>       0.00823045 </v>
   <v>       0.00823045 </v>
   <v>       0.00823045 </v>
   <v>       0.00823045 </v>
   <v>       0.00411523 </v>
   <v>       0.00411523 </v>
   <v>       0.00823045 </v>
   <v>       0.00823045 </v>
   <v>       0.00823045 </v>
   <v>       0.00823045 </v>
   <v>       0.00411523 </v>
   <v>       0.00411523 </v>
   <v>       0.00823045 </v>
   <v>       0.00823045 </v>
   <v>       0.00823045 </v>
   <v>       0.00411523 </v>
   <v>       0.00411523 </v>
   <v>       0.00823045 </v>
   <v>       0.00823045 </v>
   <v>       0.00411523 </v>
   <v>       0.00411523 </v>
   <v>       0.00823045 </v>
   <v>       0.00411523 </v>
   <v>       0.00411523 </v>
   <v>       0.00411523 </v>
   <v>       0.00102881 </v>
   <v>       0.00137174 </v>
   <v>       0.00411523 </v>
   <v>       0.00411523 </v>
   <v>       0.00411523 </v>
   <v>       0.00411523 </v>
   <v>       0.00411523 </v>
   <v>       0.00411523 </v>
   <v>       0.00205761 </v>
   <v>       0.00411523 </v>
   <v>       0.00823045 </v>
   <v>       0.00823045 </v>
   <v>       0.00823045 </v>
   <v>       0.00823045 </v>
   <v>       0.00823045 </v>
   <v>       0.00411523 </v>
   <v>       0.00411523 </v>
   <v>       0.00823045 </v>
   <v>       0.00823045 </v>
   <v>       0.00823045 </v>
   <v>       0.00823045 </v>
   <v>       0.00411523 </v>
   <v>       0.00411523 </v>
   <v>       0.00823045 </v>
   <v>       0.00823045 </v>
   <v>       0.00823045 </v>
   <v>       0.00411523 </v>
   <v>       0.00411523 </v>
   <v>       0.00823045 </v>
   <v>       0.00823045 </v>
   <v>       0.00411523 </v>
   <v>       0.00411523 </v>
   <v>       0.00823045 </v>
   <v>       0.00411523 </v>
   <v>       0.00411523 </v>
   <v>       0.00411523 </v>
   <v>       0.00102881 </v>
   <v>       0.00137174 </v>
   <v>       0.00411523 </v>
   <v>       0.00411523 </v>
   <v>       0.00411523 </v>
   <v>       0.00411523 </v>
   <v>       0.00411523 </v>
   <v>       0.00205761 </v>
   <v>       0.00411523 </v>
   <v>       0.00823045 </v>
   <v>       0.00823045 </v>
   <v>       0.00823045 </v>
   <v>       0.00823045 </v>
   <v>       0.00411523 </v>
   <v>       0.00411523 </v>
   <v>       0.00823045 </v>
   <v>       0.00823045 </v>
   <v>       0.00823045 </v>
   <v>       0.00411523 </v>
   <v>       0.00411523 </v>
   <v>       0.00823045 </v>
   <v>       0.00823045 </v>
   <v>       0.00411523 </v>
   <v>       0.00411523 </v>
   <v>       0.00823045 </v>
   <v>       0.00411523 </v>
   <v>       0.00411523 </v>
   <v>       0.00411523 </v>
   <v>       0.00102881 </v>
   <v>       0.00137174 </v>
   <v>       0.00411523 </v>
   <v>       0.00411523 </v>
   <v>       0.00411523 </v>
   <v>       0.00411523 </v>
   <v>       0.00205761 </v>
   <v>       0.00411523 </v>
   <v>       0.00823045 </v>
   <v>       0.00823045 </v>
   <v>       0.00823045 </v>
   <v>       0.00411523 </v>
   <v>       0.00411523 </v>
   <v>       0.00823045 </v>
   <v>       0.00823045 </v>
   <v>       0.00411523 </v>
   <v>       0.00411523 </v>
   <v>       0.00823045 </v>
   <v>       0.00411523 </v>
   <v>       0.00411523 </v>
   <v>       0.00411523 </v>
   <v>       0.00102881 </v>
   <v>       0.00137174 </v>
   <v>       0.00411523 </v>
   <v>       0.00411523 </v>
   <v>       0.00411523 </v>
   <v>       0.00205761 </v>
   <v>       0.00411523 </v>
   <v>       0.00823045 </v>
   <v>       0.00823045 </v>
   <v>       0.00411523 </v>
   <v>       0.00411523 </v>
   <v>       0.00823045 </v>
   <v>       0.00411523 </v>
   <v>       0.00411523 </v>
   <v>       0.00411523 </v>
   <v>       0.00102881 </v>
   <v>       0.00137174 </v>
   <v>       0.00411523 </v>
   <v>       0.00411523 </v>
   <v>       0.00205761 </v>
   <v>       0.00411523 </v>
   <v>       0.00823045 </v>
   <v>       0.00411523 </v>
   <v>       0.00411523 </v>
   <v>       0.00411523 </v>
   <v>       0.00102881 </v>
   <v>       0.00137174 </v>
   <v>       0.00411523 </v>
   <v>       0.00205761 </v>
   <v>       0.00411523 </v>
   <v>       0.00411523 </v>
   <v>       0.00102881 </v>
   <v>       0.00137174 </v>
   <v>       0.00205761 </v>
   <v>       0.00102881 </v>
   <v>       0.00017147 </v>
  </varray>
 </kpoints>
 <parameters>
  <separator name="general" >
   <i type="string" name="SYSTEM">unknown system</i>
   <i type="logical" name="LCOMPAT"> F  </i>
  </separator>
  <separator name="electronic" >
   <i type="string" name="PREC">accura</i>
   <i name="ENMAX">    500.00000000</i>
   <i name="ENAUG">    586.98000000</i>
   <i name="EDIFF">      0.00000100</i>
   <i type="int" name="IALGO">    68</i>
   <i type="int" name="IWAVPR">    11</i>
   <i type="int" name="NBANDS">    28</i>
   <i name="NELECT">     44.00000000</i>
   <i type="int" name="TURBO">     0</i>
   <i type="int" name="IRESTART">     0</i>
   <i type="int" name="NREBOOT">     0</i>
   <i type="int" name="NMIN">     0</i>
   <i name="EREF">      0.00000000</i>
   <separator name="electronic smearing" >
    <i type="int" name="ISMEAR">     1</i>
    <i name="SIGMA">      0.30000000</i>
    <i name="KSPACING">      0.50000000</i>
    <i type="logical" name="KGAMMA"> T  </i>
   </separator>
   <separator name="electronic projectors" >
    <i type="logical" name="LREAL"> F  </i>
    <v name="ROPT">      0.00000000      0.00000000</v>
    <i type="int" name="LMAXPAW">  -100</i>
    <i type="int" name="LMAXMIX">     2</i>
    <i type="logical" name="NLSPLINE"> F  </i>
   </separator>
   <separator name="electronic startup" >
    <i type="int" name="ISTART">     0</i>
    <i type="int" name="ICHARG">     2</i>
    <i type="int" name="INIWAV">     1</i>
   </separator>
   <separator name="electronic spin" >
    <i type="int" name="ISPIN">     1</i>
    <i type="logical" name="LNONCOLLINEAR"> F  </i>
    <v name="MAGMOM">      1.00000000      1.00000000      1.00000000      1.00000000</v>
    <i name="NUPDOWN">     -1.00000000</i>
    <i type="logical" name="LSORBIT"> F  </i>
    <v name="SAXIS">      0.00000000      0.00000000      1.00000000</v>
    <i type="logical" name="LSPIRAL"> F  </i>
    <v name="QSPIRAL">      0.00000000      0.00000000      0.00000000</v>
    <i type="logical" name="LZEROZ"> F  </i>
   </separator>
   <separator name="electronic exchange-correlation" >
    <i type="logical" name="LASPH"> F  </i>
    <i type="logical" name="LMETAGGA"> F  </i>
   </separator>
   <separator name="electronic convergence" >
    <i type="int" name="NELM">   200</i>
    <i type="int" name="NELMDL">     0</i>
    <i type="int" name="NELMIN">     4</i>
    <i name="ENINI">    500.00000000</i>
    <separator name="electronic convergence detail" >
     <i type="logical" name="LDIAG"> T  </i>
     <i type="logical" name="LSUBROT"> F  </i>
     <i name="WEIMIN">      0.00100000</i>
     <i name="EBREAK">      0.00000001</i>
     <i name="DEPER">      0.30000000</i>
     <i type="int" name="NRMM">     4</i>
     <i name="TIME">      0.40000000</i>
    </separator>
   </separator>
   <separator name="electronic mixer" >
    <i name="AMIX">      0.40000000</i>
    <i name="BMIX">      1.00000000</i>
    <i name="AMIN">      0.10000000</i>
    <i name="AMIX_MAG">      1.60000000</i>
    <i name="BMIX_MAG">      1.00000000</i>
    <separator name="electronic mixer details" >
     <i type="int" name="IMIX">     4</i>
     <i type="int" name="MAXMIX">   -45</i>
     <i name="WC">    100.00000000</i>
     <i type="int" name="INIMIX">     1</i>
     <i type="int" name="MIXPRE">     1</i>
     <i type="int" name="MREMOVE">     5</i>
    </separator>
   </separator>
   <separator name="electronic dipolcorrection" >
    <i type="logical" name="LDIPOL"> F  </i>
    <i type="logical" name="LMONO"> F  </i>
    <i type="int" name="IDIPOL">     0</i>
    <i name="EPSILON">      1.00000000</i>
    <v name="DIPOL">   -100.00000000   -100.00000000   -100.00000000</v>
    <i name="EFIELD">      0.00000000</i>
   </separator>
  </separator>
  <separator name="grids" >
   <i type="int" name="NGX">    28</i>
   <i type="int" name="NGY">    28</i>
   <i type="int" name="NGZ">    28</i>
   <i type="int" name="NGXF">    56</i>
   <i type="int" name="NGYF">    56</i>
   <i type="int" name="NGZF">    56</i>
   <i type="logical" name="ADDGRID"> T  </i>
  </separator>
  <separator name="ionic" >
   <i type="int" name="NSW">    30</i>
   <i type="int" name="IBRION">     2</i>
   <i type="int" name="ISIF">     3</i>
   <i name="PSTRESS">      0.00000000</i>
   <i name="EDIFFG">     -0.02000000</i>
   <i type="int" name="NFREE">     1</i>
   <i name="POTIM">      0.50000000</i>
   <i name="SMASS">     -3.00000000</i>
   <i name="SCALEE">      1.00000000</i>
  </separator>
  <separator name="ionic md" >
   <i name="TEBEG">      0.00010000</i>
   <i name="TEEND">      0.00010000</i>
   <i type="int" name="NBLOCK">     1</i>
   <i type="int" name="KBLOCK">    30</i>
   <i type="int" name="NPACO">   256</i>
   <i name="APACO">     16.00000000</i>
  </separator>
  <separator name="symmetry" >
   <i type="int" name="ISYM">     2</i>
   <i name="SYMPREC">      0.00001000</i>
  </separator>
  <separator name="dos" >
   <i type="logical" name="LORBIT"> F  </i>
   <v name="RWIGS">     -1.00000000     -1.00000000</v>
   <i type="int" name="NEDOS">   301</i>
   <i name="EMIN">     10.00000000</i>
   <i name="EMAX">    -10.00000000</i>
   <i name="EFERMI">      0.00000000</i>
  </separator>
  <separator name="writing" >
   <i type="int" name="NWRITE">     2</i>
   <i type="logical" name="LWAVE"> F  </i>
   <i type="logical" name="LCHARG"> F  </i>
   <i type="logical" name="LPARD"> F  </i>
   <i type="logical" name="LVTOT"> F  </i>
   <i type="logical" name="LVHAR"> F  </i>
   <i type="logical" name="LELF"> F  </i>
   <i type="logical" name="LOPTICS"> F  </i>
   <v name="STM">      0.00000000      0.00000000      0.00000000      0.00000000      0.00000000      0.00000000      0.00000000</v>
  </separator>
  <separator name="performance" >
   <i type="int" name="NPAR">     4</i>
   <i type="int" name="NSIM">     4</i>
   <i type="int" name="NBLK">    -1</i>
   <i type="logical" name="LPLANE"> T  </i>
   <i type="logical" name="LSCALAPACK"> T  </i>
   <i type="logical" name="LSCAAWARE"> F  </i>
   <i type="logical" name="LSCALU"> F  </i>
   <i type="logical" name="LASYNC"> F  </i>
   <i type="logical" name="LORBITALREAL"> F  </i>
  </separator>
  <separator name="miscellaneous" >
   <i type="int" name="IDIOT">     3</i>
   <i type="logical" name="LMUSIC"> F  </i>
   <v name="POMASS">     63.54600000    196.96600000</v>
   <v name="DARWINR">      0.00000000      0.00000000</v>
   <v name="DARWINV">      1.00000000      1.00000000</v>
   <i type="logical" name="LCORR"> T  </i>
  </separator>
  <i type="logical" name="GGA_COMPAT"> T  </i>
  <i type="logical" name="LBERRY"> F  </i>
  <i type="int" name="ICORELEVEL">     0</i>
  <i type="logical" name="LDAU"> F  </i>
  <i type="int" name="I_CONSTRAINED_M">     0</i>
  <separator name="electronic exchange-correlation" >
   <i type="string" name="GGA">--</i>
   <i type="int" name="VOSKOWN">     0</i>
   <i type="logical" name="LHFCALC"> F  </i>
   <i type="string" name="PRECFOCK"></i>
   <i type="logical" name="LSYMGRAD"> F  </i>
   <i type="logical" name="LHFONE"> F  </i>
   <i type="logical" name="LRHFCALC"> F  </i>
   <i type="logical" name="LTHOMAS"> F  </i>
   <i type="logical" name="LMODELHF"> F  </i>
   <i name="ENCUT4O">     -1.00000000</i>
   <i type="int" name="EXXOEP">     0</i>
   <i type="int" name="FOURORBIT">     0</i>
   <i name="AEXX">      0.00000000</i>
   <i name="HFALPHA">      0.00000000</i>
   <i name="MCALPHA">      0.00000000</i>
   <i name="ALDAX">      1.00000000</i>
   <i name="AGGAX">      1.00000000</i>
   <i name="ALDAC">      1.00000000</i>
   <i name="AGGAC">      1.00000000</i>
   <i type="int" name="NKREDX">     1</i>
   <i type="int" name="NKREDY">     1</i>
   <i type="int" name="NKREDZ">     1</i>
   <i type="logical" name="SHIFTRED"> F  </i>
   <i type="logical" name="ODDONLY"> F  </i>
   <i type="logical" name="EVENONLY"> F  </i>
   <i type="int" name="LMAXFOCK">     0</i>
   <i type="int" name="NMAXFOCKAE">     0</i>
   <i type="logical" name="LFOCKAEDFT"> F  </i>
   <i name="HFSCREEN">      0.00000000</i>
   <i name="HFSCREENC">      0.00000000</i>
   <i type="int" name="NBANDSGWLOW">     0</i>
  </separator>
  <separator name="vdW DFT" >
   <i type="logical" name="LUSE_VDW"> F  </i>
   <i name="Zab_VDW">     -0.84910000</i>
   <i name="PARAM1">      0.12340000</i>
   <i name="PARAM2">      1.00000000</i>
   <i name="PARAM3">      0.00000000</i>
  </separator>
  <separator name="model GW" >
   <i type="int" name="MODEL_GW">     0</i>
   <i name="MODEL_EPS0">      8.12640727</i>
   <i name="MODEL_ALPHA">      1.00000000</i>
  </separator>
  <separator name="linear response parameters" >
   <i type="logical" name="LEPSILON"> F  </i>
   <i type="logical" name="LRPA"> F  </i>
   <i type="logical" name="LNABLA"> F  </i>
   <i type="logical" name="LVEL"> F  </i>
   <i type="int" name="KINTER">     0</i>
   <i name="CSHIFT">      0.10000000</i>
   <i name="OMEGAMAX">     -1.00000000</i>
   <i name="DEG_THRESHOLD">      0.00200000</i>
  </separator>
  <separator name="orbital magnetization" >
   <i type="logical" name="NUCIND"> F  </i>
   <v name="MAGPOS">      0.00000000      0.00000000      0.00000000</v>
   <i type="logical" name="LNICSALL"> T  </i>
   <i type="logical" name="ORBITALMAG"> F  </i>
   <i type="logical" name="LMAGBLOCH"> F  </i>
   <i type="logical" name="LCHIMAG"> F  </i>
   <i type="logical" name="LGAUGE"> T  </i>
   <i type="int" name="MAGATOM">     0</i>
   <v name="MAGDIPOL">      0.00000000      0.00000000      0.00000000</v>
   <v name="AVECCONST">      0.00000000      0.00000000      0.00000000</v>
  </separator>
  <separator name="response functions" >
   <i type="logical" name="LADDER"> F  </i>
   <i type="logical" name="LFXC"> F  </i>
   <i type="logical" name="LHARTREE"> T  </i>
   <i type="int" name="IBSE">     0</i>
   <i type="logical" name="LTCTE"> F  </i>
   <i type="logical" name="LTETE"> F  </i>
   <i type="logical" name="LTRIPLET"> F  </i>
   <i type="logical" name="LFXCEPS"> F  </i>
   <i type="logical" name="LFXHEG"> F  </i>
   <i type="logical" name="L2ORDER"> F  </i>
   <i type="logical" name="LUSEW"> F  </i>
   <i name="ENCUTGW">     -2.00000000</i>
   <i name="ENCUTGWSOFT">     -2.00000000</i>
   <i name="ENCUTLF">     -1.00000000</i>
   <i type="int" name="LMAXMP2">    -1</i>
   <i name="SCISSOR">      0.00000000</i>
   <i type="int" name="NOMEGA">     0</i>
   <i type="int" name="NOMEGAR">     0</i>
   <i type="int" name="NBANDSGW">    -1</i>
   <i type="int" name="NBANDSO">    -1</i>
   <i type="int" name="NBANDSV">    -1</i>
   <i type="int" name="NELM">   200</i>
   <i type="int" name="DIM">     3</i>
   <i type="int" name="ANTIRES">     0</i>
   <i name="OMEGAMAX">    -30.00000000</i>
   <i name="OMEGAMIN">    -30.00000000</i>
   <i name="OMEGATL">   -200.00000000</i>
   <i type="int" name="OMEGAGRID">     0</i>
   <i name="CSHIFT">     -0.10000000</i>
   <i type="logical" name="SELFENERGY"> F  </i>
   <i type="logical" name="LSPECTRAL"> F  </i>
   <i type="logical" name="ODDONLYGW"> F  </i>
   <i type="logical" name="EVENONLYGW"> F  </i>
   <i type="int" name="NKREDLFX">     1</i>
   <i type="int" name="NKREDLFY">     1</i>
   <i type="int" name="NKREDLFZ">     1</i>
   <i type="int" name="MAXMEM">  1800</i>
   <i type="int" name="TELESCOPE">     0</i>
   <i type="int" name="TAUPAR">     1</i>
  </separator>
  <separator name="External order field" >
   <i name="OFIELD_KAPPA">      0.00000000</i>
   <v name="OFIELD_K">      0.00000000      0.00000000      0.00000000</v>
   <i name="OFIELD_Q6_NEAR">      0.00000000</i>
   <i name="OFIELD_Q6_FAR">      0.00000000</i>
   <i name="OFIELD_A">      0.00000000</i>
  </separator>
 </parameters>
 <atominfo>
  <atoms>       4 </atoms>
  <types>       2 </types>
  <array name="atoms" >
   <dimension dim="1">ion</dimension>
   <field type="string">element</field>
   <field type="int">atomtype</field>
   <set>
    <rc><c>Cu</c><c>   1</c></rc>
    <rc><c>Cu</c><c>   1</c></rc>
    <rc><c>Cu</c><c>   1</c></rc>
    <rc><c>Au</c><c>   2</c></rc>
   </set>
  </array>
  <array name="atomtypes" >
   <dimension dim="1">type</dimension>
   <field type="int">atomspertype</field>
   <field type="string">element</field>
   <field>mass</field>
   <field>valence</field>
   <field type="string">pseudopotential</field>
   <set>
    <rc><c>   3</c><c>Cu</c><c>     63.54600000</c><c>     11.00000000</c><c>  PAW_PBE Cu 22Jun2005                  </c></rc>
    <rc><c>   1</c><c>Au</c><c>    196.96600000</c><c>     11.00000000</c><c>  PAW_PBE Au 04Oct2007                  </c></rc>
   </set>
  </array>
 </atominfo>
 <structure name="initialpos" >
  <crystal>
   <varray name="basis" >
    <v>       0.00000000       3.78386623       0.00000000 </v>
    <v>       0.00000000       0.00000000       3.78386623 </v>
    <v>       3.78386623       0.00000000       0.00000000 </v>
   </varray>
   <i name="volume">     54.17604850 </i>
   <varray name="rec_basis" >
    <v>       0.00000000       0.26427996       0.00000000 </v>
    <v>       0.00000000       0.00000000       0.26427996 </v>
    <v>       0.26427996       0.00000000       0.00000000 </v>
   </varray>
  </crystal>
  <varray name="positions" >
   <v>       0.00000000       0.50000000       0.50000000 </v>
   <v>       0.50000000       0.00000000       0.50000000 </v>
   <v>       0.50000000       0.50000000       0.00000000 </v>
   <v>       0.00000000       0.00000000       0.00000000 </v>
  </varray>
 </structure>
 <calculation>
  <scstep>
   <time name="dav">    1.31    1.31</time>
   <time name="total">    1.34    1.35</time>
   <energy>
    <i name="alphaZ">    247.99004388 </i>
    <i name="ewald">  -4222.42499797 </i>
    <i name="hartreedc">  -1263.94030761 </i>
    <i name="XCdc">    152.66033662 </i>
    <i name="pawpsdc">   4558.71748299 </i>
    <i name="pawaedc">  -4853.15553620 </i>
    <i name="eentropy">      0.00545257 </i>
    <i name="bandstr">    639.30618135 </i>
    <i name="atom">   5099.01209872 </i>
    <i name="e_fr_energy">    358.17075434 </i>
    <i name="e_wo_entrp">    358.16530177 </i>
    <i name="e_0_energy">    358.16893681 </i>
   </energy>
  </scstep>
  <scstep>
   <time name="dav">    1.32    1.32</time>
   <time name="total">    1.32    1.34</time>
   <energy>
    <i name="e_fr_energy">     16.96480847 </i>
    <i name="e_wo_entrp">     16.96373652 </i>
    <i name="e_0_energy">     16.96445116 </i>
   </energy>
  </scstep>
  <scstep>
   <time name="dav">    1.38    1.38</time>
   <time name="total">    1.39    1.40</time>
   <energy>
    <i name="e_fr_energy">    -16.28790208 </i>
    <i name="e_wo_entrp">    -16.29300715 </i>
    <i name="e_0_energy">    -16.28960377 </i>
   </energy>
  </scstep>
  <scstep>
   <time name="dav">    1.58    1.58</time>
   <time name="total">    1.59    1.61</time>
   <energy>
    <i name="e_fr_energy">    -17.19539094 </i>
    <i name="e_wo_entrp">    -17.20002421 </i>
    <i name="e_0_energy">    -17.19693537 </i>
   </energy>
  </scstep>
  <scstep>
   <time name="dav">    1.70    1.70</time>
   <time name="total">    1.82    1.83</time>
   <energy>
    <i name="e_fr_energy">    -17.20744831 </i>
    <i name="e_wo_entrp">    -17.21208004 </i>
    <i name="e_0_energy">    -17.20899222 </i>
   </energy>
  </scstep>
  <scstep>
   <time name="diag">    0.37    0.37</time>
   <time name="diis">    0.43    0.44</time>
   <time name="orth">    0.07    0.07</time>
   <time name="total">    0.98    0.99</time>
   <energy>
    <i name="e_fr_energy">    -15.83878674 </i>
    <i name="e_wo_entrp">    -15.83841348 </i>
    <i name="e_0_energy">    -15.83866232 </i>
   </energy>
  </scstep>
  <scstep>
   <time name="diag">    0.37    0.37</time>
   <time name="diis">    0.46    0.46</time>
   <time name="orth">    0.07    0.07</time>
   <time name="total">    1.01    1.02</time>
   <energy>
    <i name="e_fr_energy">    -14.67769321 </i>
    <i name="e_wo_entrp">    -14.67807655 </i>
    <i name="e_0_energy">    -14.67782099 </i>
   </energy>
  </scstep>
  <scstep>
   <time name="diag">    0.37    0.37</time>
   <time name="diis">    0.45    0.45</time>
   <time name="orth">    0.07    0.07</time>
   <time name="total">    1.00    1.01</time>
   <energy>
    <i name="e_fr_energy">    -14.60516416 </i>
    <i name="e_wo_entrp">    -14.60519646 </i>
    <i name="e_0_energy">    -14.60517493 </i>
   </energy>
  </scstep>
  <scstep>
   <time name="diag">    0.37    0.37</time>
   <time name="diis">    0.45    0.45</time>
   <time name="orth">    0.07    0.07</time>
   <time name="total">    0.99    1.01</time>
   <energy>
    <i name="e_fr_energy">    -14.58925232 </i>
    <i name="e_wo_entrp">    -14.58904396 </i>
    <i name="e_0_energy">    -14.58918286 </i>
   </energy>
  </scstep>
  <scstep>
   <time name="diag">    0.37    0.37</time>
   <time name="diis">    0.45    0.45</time>
   <time name="orth">    0.07    0.07</time>
   <time name="total">    1.00    1.01</time>
   <energy>
    <i name="e_fr_energy">    -14.58715872 </i>
    <i name="e_wo_entrp">    -14.58699786 </i>
    <i name="e_0_energy">    -14.58710510 </i>
   </energy>
  </scstep>
  <scstep>
   <time name="diag">    0.37    0.37</time>
   <time name="diis">    0.48    0.48</time>
   <time name="orth">    0.07    0.07</time>
   <time name="total">    1.03    1.04</time>
   <energy>
    <i name="e_fr_energy">    -14.58724194 </i>
    <i name="e_wo_entrp">    -14.58708715 </i>
    <i name="e_0_energy">    -14.58719034 </i>
   </energy>
  </scstep>
  <scstep>
   <time name="diag">    0.37    0.37</time>
   <time name="diis">    0.45    0.45</time>
   <time name="orth">    0.07    0.07</time>
   <time name="total">    1.01    1.02</time>
   <energy>
    <i name="e_fr_energy">    -14.58721670 </i>
    <i name="e_wo_entrp">    -14.58705408 </i>
    <i name="e_0_energy">    -14.58716249 </i>
   </energy>
  </scstep>
  <scstep>
   <time name="diag">    0.37    0.37</time>
   <time name="diis">    0.43    0.43</time>
   <time name="orth">    0.07    0.07</time>
   <time name="total">    1.00    1.01</time>
   <energy>
    <i name="e_fr_energy">    -14.58720587 </i>
    <i name="e_wo_entrp">    -14.58704820 </i>
    <i name="e_0_energy">    -14.58715331 </i>
   </energy>
  </scstep>
  <scstep>
   <time name="diag">    0.38    0.38</time>
   <time name="diis">    0.40    0.40</time>
   <time name="orth">    0.07    0.07</time>
   <time name="total">    0.97    0.98</time>
   <energy>
    <i name="e_fr_energy">    -14.58720395 </i>
    <i name="e_wo_entrp">    -14.58704709 </i>
    <i name="e_0_energy">    -14.58715167 </i>
   </energy>
  </scstep>
  <scstep>
   <time name="diag">    0.37    0.37</time>
   <time name="diis">    0.28    0.28</time>
   <time name="orth">    0.07    0.07</time>
   <time name="total">    0.75    0.76</time>
   <energy>
    <i name="alphaZ">    247.99004388 </i>
    <i name="ewald">  -4222.42499797 </i>
    <i name="hartreedc">  -1187.67202891 </i>
    <i name="XCdc">    149.12275574 </i>
    <i name="pawpsdc">   4937.56724739 </i>
    <i name="pawaedc">  -5240.87321791 </i>
    <i name="eentropy">     -0.00015700 </i>
    <i name="bandstr">    202.69105192 </i>
    <i name="atom">   5099.01209872 </i>
    <i name="e_fr_energy">    -14.58720414 </i>
    <i name="e_wo_entrp">    -14.58704715 </i>
    <i name="e_0_energy">    -14.58715181 </i>
   </energy>
  </scstep>
  <structure>
   <crystal>
    <varray name="basis" >
     <v>       0.00000000       3.78386623       0.00000000 </v>
     <v>       0.00000000       0.00000000       3.78386623 </v>
     <v>       3.78386623       0.00000000       0.00000000 </v>
    </varray>
    <i name="volume">     54.17604850 </i>
    <varray name="rec_basis" >
     <v>       0.00000000       0.26427996       0.00000000 </v>
     <v>       0.00000000       0.00000000       0.26427996 </v>
     <v>       0.26427996       0.00000000       0.00000000 </v>
    </varray>
   </crystal>
   <varray name="positions" >
    <v>       0.00000000       0.50000000       0.50000000 </v>
    <v>       0.50000000       0.00000000       0.50000000 </v>
    <v>       0.50000000       0.50000000       0.00000000 </v>
    <v>       0.00000000       0.00000000       0.00000000 </v>
   </varray>
  </structure>
  <varray name="forces" >
   <v>       0.00000000       0.00000000       0.00000000 </v>
   <v>       0.00000000       0.00000000       0.00000000 </v>
   <v>       0.00000000       0.00000000       0.00000000 </v>
   <v>       0.00000000       0.00000000       0.00000000 </v>
  </varray>
  <varray name="stress" >
   <v>      -1.99525158       0.00000000       0.00000000 </v>
   <v>       0.00000000      -1.99525158       0.00000000 </v>
   <v>       0.00000000       0.00000000      -1.99525158 </v>
  </varray>
  <energy>
   <i name="e_fr_energy">    -14.58720414 </i>
   <i name="e_wo_entrp">    -14.58715181 </i>
   <i name="e_0_energy">     -0.00015700 </i>
  </energy>
  <time name="totalsc">   18.15   18.38</time>
  <eigenvalues>
   <array>
    <dimension dim="1">band</dimension>
    <dimension dim="2">kpoint</dimension>
    <dimension dim="3">spin</dimension>
    <field>eigene</field>
    <field>occ</field>
    <set>
     <set comment="spin 1">
      <set comment="kpoint 1">
       <r>   -1.5121    1.0000 </r>
       <r>    1.7030    1.0000 </r>
       <r>    1.7030    1.0000 </r>
       <r>    2.4890    1.0000 </r>
       <r>    2.4890    1.0000 </r>
       <r>    2.4890    1.0000 </r>
       <r>    3.4879    1.0000 </r>
       <r>    4.8598    1.0000 </r>
       <r>    4.8598    1.0000 </r>
       <r>    4.8598    1.0000 </r>
       <r>    5.6779    1.0000 </r>
       <r>    5.6779    1.0000 </r>
       <r>    6.2503    1.0000 </r>
       <r>    6.2675    1.0000 </r>
       <r>    6.2675    1.0000 </r>
       <r>    6.3792    1.0000 </r>
       <r>    6.3792    1.0000 </r>
       <r>    6.3792    1.0000 </r>
       <r>    6.4982    1.0000 </r>
       <r>    6.4982    1.0000 </r>
       <r>    6.4982    1.0000 </r>
       <r>    9.1940    0.0000 </r>
       <r>    9.1940    0.0000 </r>
       <r>    9.1940    0.0000 </r>
       <r>   13.6779    0.0000 </r>
       <r>   15.1859    0.0000 </r>
       <r>   15.1859    0.0000 </r>
       <r>   15.5338    0.0000 </r>
      </set>
      <set comment="kpoint 2">
       <r>   -1.4756    1.0000 </r>
       <r>    1.7165    1.0000 </r>
       <r>    1.7205    1.0000 </r>
       <r>    2.4963    1.0000 </r>
       <r>    2.4975    1.0000 </r>
       <r>    2.4975    1.0000 </r>
       <r>    3.4968    1.0000 </r>
       <r>    4.8503    1.0000 </r>
       <r>    4.8667    1.0000 </r>
       <r>    4.8667    1.0000 </r>
       <r>    5.6659    1.0000 </r>
       <r>    5.6822    1.0000 </r>
       <r>    6.2405    1.0000 </r>
       <r>    6.2524    1.0000 </r>
       <r>    6.2593    1.0000 </r>
       <r>    6.3365    1.0000 </r>
       <r>    6.3365    1.0000 </r>
       <r>    6.3792    1.0000 </r>
       <r>    6.4455    1.0000 </r>
       <r>    6.4455    1.0000 </r>
       <r>    6.4982    1.0000 </r>
       <r>    8.9546    0.0000 </r>
       <r>    9.3085    0.0000 </r>
       <r>    9.3085    0.0000 </r>
       <r>   13.8037    0.0000 </r>
       <r>   15.1752    0.0000 </r>
       <r>   15.3696    0.0000 </r>
       <r>   15.0727    0.0000 </r>
      </set>
      <set comment="kpoint 3">
       <r>   -1.3668    1.0000 </r>
       <r>    1.7562    1.0000 </r>
       <r>    1.7710    1.0000 </r>
       <r>    2.5175    1.0000 </r>
       <r>    2.5227    1.0000 </r>
       <r>    2.5227    1.0000 </r>
       <r>    3.5226    1.0000 </r>
       <r>    4.8226    1.0000 </r>
       <r>    4.8871    1.0000 </r>
       <r>    4.8871    1.0000 </r>
       <r>    5.6299    1.0000 </r>
       <r>    5.6948    1.0000 </r>
       <r>    6.1651    1.0000 </r>
       <r>    6.1651    1.0000 </r>
       <r>    6.2040    1.0000 </r>
       <r>    6.2078    1.0000 </r>
       <r>    6.2429    1.0000 </r>
       <r>    6.3660    1.0000 </r>
       <r>    6.3660    1.0000 </r>
       <r>    6.3793    1.0000 </r>
       <r>    6.4980    1.0000 </r>
       <r>    8.3628   -0.0282 </r>
       <r>    9.6183    0.0000 </r>
       <r>    9.6183    0.0000 </r>
       <r>   14.0245    0.0000 </r>
       <r>   15.1432    0.0000 </r>
       <r>   15.9323    0.0000 </r>
       <r>   14.6676    0.0000 </r>
      </set>
      <set comment="kpoint 4">
       <r>   -1.1877    1.0000 </r>
       <r>    1.8186    1.0000 </r>
       <r>    1.8469    1.0000 </r>
       <r>    2.5510    1.0000 </r>
       <r>    2.5635    1.0000 </r>
       <r>    2.5635    1.0000 </r>
       <r>    3.5630    1.0000 </r>
       <r>    4.7793    1.0000 </r>
       <r>    4.9191    1.0000 </r>
       <r>    4.9191    1.0000 </r>
       <r>    5.5690    1.0000 </r>
       <r>    5.7153    1.0000 </r>
       <r>    5.9097    1.0000 </r>
       <r>    5.9097    1.0000 </r>
       <r>    6.1359    1.0000 </r>
       <r>    6.1417    1.0000 </r>
       <r>    6.2209    1.0000 </r>
       <r>    6.2830    1.0000 </r>
       <r>    6.2830    1.0000 </r>
       <r>    6.3794    1.0000 </r>
       <r>    6.4979    1.0000 </r>
       <r>    7.6206    1.0238 </r>
       <r>   10.0616    0.0000 </r>
       <r>   10.0616    0.0000 </r>
       <r>   14.1974    0.0000 </r>
       <r>   15.0917    0.0000 </r>
       <r>   15.5141    0.0000 </r>
       <r>   14.3441    0.0000 </r>
      </set>
      <set comment="kpoint 5">
       <r>   -0.9426    1.0000 </r>
       <r>    1.8984    1.0000 </r>
       <r>    1.9340    1.0000 </r>
       <r>    2.5940    1.0000 </r>
       <r>    2.6179    1.0000 </r>
       <r>    2.6179    1.0000 </r>
       <r>    3.6148    1.0000 </r>
       <r>    4.7244    1.0000 </r>
       <r>    4.9567    1.0000 </r>
       <r>    4.9567    1.0000 </r>
       <r>    5.4795    1.0000 </r>
       <r>    5.6422    1.0000 </r>
       <r>    5.6422    1.0000 </r>
       <r>    5.7430    1.0000 </r>
       <r>    6.0399    1.0000 </r>
       <r>    6.0609    1.0000 </r>
       <r>    6.1824    1.0000 </r>
       <r>    6.1824    1.0000 </r>
       <r>    6.1921    1.0000 </r>
       <r>    6.3795    1.0000 </r>
       <r>    6.4976    1.0000 </r>
       <r>    6.8634    1.0000 </r>
       <r>   10.5920    0.0000 </r>
       <r>   10.5920    0.0000 </r>
       <r>   14.3394    0.0000 </r>
       <r>   15.0249    0.0000 </r>
       <r>   13.6355    0.0000 </r>
       <r>   13.6449    0.0000 </r>
      </set>
      <set comment="kpoint 6">
       <r>   -0.6384    1.0000 </r>
       <r>    1.9875    1.0000 </r>
       <r>    2.0075    1.0000 </r>
       <r>    2.6422    1.0000 </r>
       <r>    2.6824    1.0000 </r>
       <r>    2.6824    1.0000 </r>
       <r>    3.6751    1.0000 </r>
       <r>    4.6634    1.0000 </r>
       <r>    4.9797    1.0000 </r>
       <r>    4.9797    1.0000 </r>
       <r>    5.3421    1.0000 </r>
       <r>    5.4156    1.0000 </r>
       <r>    5.4156    1.0000 </r>
       <r>    5.7763    1.0000 </r>
       <r>    5.9172    1.0000 </r>
       <r>    5.9704    1.0000 </r>
       <r>    6.0669    1.0000 </r>
       <r>    6.0669    1.0000 </r>
       <r>    6.1570    1.0000 </r>
       <r>    6.1993    1.0000 </r>
       <r>    6.3796    1.0000 </r>
       <r>    6.4974    1.0000 </r>
       <r>   11.1823    0.0000 </r>
       <r>   11.1823    0.0000 </r>
       <r>   14.4853    0.0000 </r>
       <r>   14.9496    0.0000 </r>
       <r>   13.9177    0.0000 </r>
       <r>   13.8175    0.0000 </r>
      </set>
      <set comment="kpoint 7">
       <r>   -0.2877    1.0000 </r>
       <r>    2.0296    1.0000 </r>
       <r>    2.0759    1.0000 </r>
       <r>    2.6902    1.0000 </r>
       <r>    2.7510    1.0000 </r>
       <r>    2.7510    1.0000 </r>
       <r>    3.7453    1.0000 </r>
       <r>    4.6033    1.0000 </r>
       <r>    4.9292    1.0000 </r>
       <r>    4.9292    1.0000 </r>
       <r>    5.0888    1.0000 </r>
       <r>    5.3083    1.0000 </r>
       <r>    5.3083    1.0000 </r>
       <r>    5.6727    1.0000 </r>
       <r>    5.8102    1.0000 </r>
       <r>    5.8641    1.0000 </r>
       <r>    5.8847    1.0000 </r>
       <r>    5.9421    1.0000 </r>
       <r>    5.9421    1.0000 </r>
       <r>    6.1169    1.0000 </r>
       <r>    6.3798    1.0000 </r>
       <r>    6.4973    1.0000 </r>
       <r>   11.8158    0.0000 </r>
       <r>   11.8158    0.0000 </r>
       <r>   14.6567    0.0000 </r>
       <r>   14.8747    0.0000 </r>
       <r>   15.9849    0.0000 </r>
       <r>   15.9071    0.0000 </r>
      </set>
      <set comment="kpoint 8">
       <r>    0.0852    1.0000 </r>
       <r>    1.9604    1.0000 </r>
       <r>    2.1517    1.0000 </r>
       <r>    2.7317    1.0000 </r>
       <r>    2.8146    1.0000 </r>
       <r>    2.8146    1.0000 </r>
       <r>    3.8356    1.0000 </r>
       <r>    4.5520    1.0000 </r>
       <r>    4.7218    1.0000 </r>
       <r>    4.8060    1.0000 </r>
       <r>    4.8060    1.0000 </r>
       <r>    5.3342    1.0000 </r>
       <r>    5.3342    1.0000 </r>
       <r>    5.4771    1.0000 </r>
       <r>    5.7498    1.0000 </r>
       <r>    5.7887    1.0000 </r>
       <r>    5.8150    1.0000 </r>
       <r>    5.8150    1.0000 </r>
       <r>    5.8702    1.0000 </r>
       <r>    6.0735    1.0000 </r>
       <r>    6.3799    1.0000 </r>
       <r>    6.4971    1.0000 </r>
       <r>   12.4788    0.0000 </r>
       <r>   12.4788    0.0000 </r>
       <r>   14.8110    0.0000 </r>
       <r>   14.8680    0.0000 </r>
       <r>   15.5181    0.0000 </r>
       <r>   15.5177    0.0000 </r>
      </set>
      <set comment="kpoint 9">
       <r>    0.4227    1.0000 </r>
       <r>    1.8082    1.0000 </r>
       <r>    2.2033    1.0000 </r>
       <r>    2.7599    1.0000 </r>
       <r>    2.8610    1.0000 </r>
       <r>    2.8610    1.0000 </r>
       <r>    3.9623    1.0000 </r>
       <r>    4.3955    1.0000 </r>
       <r>    4.5173    1.0000 </r>
       <r>    4.7026    1.0000 </r>
       <r>    4.7026    1.0000 </r>
       <r>    5.3920    1.0000 </r>
       <r>    5.4103    1.0000 </r>
       <r>    5.4103    1.0000 </r>
       <r>    5.6778    1.0000 </r>
       <r>    5.6965    1.0000 </r>
       <r>    5.6965    1.0000 </r>
       <r>    5.7391    1.0000 </r>
       <r>    5.9085    1.0000 </r>
       <r>    6.0307    1.0000 </r>
       <r>    6.3799    1.0000 </r>
       <r>    6.4970    1.0000 </r>
       <r>   13.1448    0.0000 </r>
       <r>   13.1448    0.0000 </r>
       <r>   14.7681    0.0000 </r>
       <r>   14.8055    0.0000 </r>
       <r>   14.8055    0.0000 </r>
       <r>   15.1321    0.0000 </r>
      </set>
      <set comment="kpoint 10">
       <r>    0.5809    1.0000 </r>
       <r>    1.7095    1.0000 </r>
       <r>    2.2216    1.0000 </r>
       <r>    2.7700    1.0000 </r>
       <r>    2.8783    1.0000 </r>
       <r>    2.8783    1.0000 </r>
       <r>    4.1073    1.0000 </r>
       <r>    4.1845    1.0000 </r>
       <r>    4.5050    1.0000 </r>
       <r>    4.6642    1.0000 </r>
       <r>    4.6642    1.0000 </r>
       <r>    5.3669    1.0000 </r>
       <r>    5.4651    1.0000 </r>
       <r>    5.4651    1.0000 </r>
       <r>    5.6290    1.0000 </r>
       <r>    5.6290    1.0000 </r>
       <r>    5.6520    1.0000 </r>
       <r>    5.7205    1.0000 </r>
       <r>    5.9328    1.0000 </r>
       <r>    6.0057    1.0000 </r>
       <r>    6.3799    1.0000 </r>
       <r>    6.4970    1.0000 </r>
       <r>   13.5931    0.0000 </r>
       <r>   13.5931    0.0000 </r>
       <r>   14.3386    0.0000 </r>
       <r>   14.3386    0.0000 </r>
       <r>   14.7534    0.0000 </r>
       <r>   15.4426    0.0000 </r>
      </set>
      <set comment="kpoint 11">
       <r>   -1.4392    1.0000 </r>
       <r>    1.7318    1.0000 </r>
       <r>    1.7363    1.0000 </r>
       <r>    2.5003    1.0000 </r>
       <r>    2.5057    1.0000 </r>
       <r>    2.5090    1.0000 </r>
       <r>    3.5056    1.0000 </r>
       <r>    4.8410    1.0000 </r>
       <r>    4.8733    1.0000 </r>
       <r>    4.8737    1.0000 </r>
       <r>    5.6622    1.0000 </r>
       <r>    5.6785    1.0000 </r>
       <r>    6.2303    1.0000 </r>
       <r>    6.2398    1.0000 </r>
       <r>    6.2421    1.0000 </r>
       <r>    6.2912    1.0000 </r>
       <r>    6.3118    1.0000 </r>
       <r>    6.3686    1.0000 </r>
       <r>    6.3779    1.0000 </r>
       <r>    6.4320    1.0000 </r>
       <r>    6.4774    1.0000 </r>
       <r>    9.0602    0.0000 </r>
       <r>    9.0775    0.0000 </r>
       <r>    9.4178    0.0000 </r>
       <r>   13.9421    0.0000 </r>
       <r>   15.2702    0.0000 </r>
       <r>   15.4393    0.0000 </r>
       <r>   15.0910    0.0000 </r>
      </set>
      <set comment="kpoint 12">
       <r>   -1.3306    1.0000 </r>
       <r>    1.7717    1.0000 </r>
       <r>    1.7864    1.0000 </r>
       <r>    2.5189    1.0000 </r>
       <r>    2.5301    1.0000 </r>
       <r>    2.5362    1.0000 </r>
       <r>    3.5313    1.0000 </r>
       <r>    4.8137    1.0000 </r>
       <r>    4.8923    1.0000 </r>
       <r>    4.8941    1.0000 </r>
       <r>    5.6297    1.0000 </r>
       <r>    5.6884    1.0000 </r>
       <r>    6.1240    1.0000 </r>
       <r>    6.1241    1.0000 </r>
       <r>    6.1930    1.0000 </r>
       <r>    6.2099    1.0000 </r>
       <r>    6.2184    1.0000 </r>
       <r>    6.2999    1.0000 </r>
       <r>    6.3540    1.0000 </r>
       <r>    6.3815    1.0000 </r>
       <r>    6.4702    1.0000 </r>
       <r>    8.4803   -0.0116 </r>
       <r>    9.3746    0.0000 </r>
       <r>    9.7162    0.0000 </r>
       <r>   14.1819    0.0000 </r>
       <r>   15.2849    0.0000 </r>
       <r>   15.9480    0.0000 </r>
       <r>   14.2126    0.0000 </r>
      </set>
      <set comment="kpoint 13">
       <r>   -1.1520    1.0000 </r>
       <r>    1.8337    1.0000 </r>
       <r>    1.8627    1.0000 </r>
       <r>    2.5511    1.0000 </r>
       <r>    2.5696    1.0000 </r>
       <r>    2.5775    1.0000 </r>
       <r>    3.5714    1.0000 </r>
       <r>    4.7709    1.0000 </r>
       <r>    4.9217    1.0000 </r>
       <r>    4.9262    1.0000 </r>
       <r>    5.5696    1.0000 </r>
       <r>    5.7080    1.0000 </r>
       <r>    5.8725    1.0000 </r>
       <r>    5.8809    1.0000 </r>
       <r>    6.1266    1.0000 </r>
       <r>    6.1396    1.0000 </r>
       <r>    6.1511    1.0000 </r>
       <r>    6.2487    1.0000 </r>
       <r>    6.2825    1.0000 </r>
       <r>    6.3686    1.0000 </r>
       <r>    6.4704    1.0000 </r>
       <r>    7.7519    0.8962 </r>
       <r>    9.8056    0.0000 </r>
       <r>   10.1482    0.0000 </r>
       <r>   14.3643    0.0000 </r>
       <r>   15.2444    0.0000 </r>
       <r>   15.7232    0.0000 </r>
       <r>   13.6574    0.0000 </r>
      </set>
      <set comment="kpoint 14">
       <r>   -0.9074    1.0000 </r>
       <r>    1.9127    1.0000 </r>
       <r>    1.9502    1.0000 </r>
       <r>    2.5938    1.0000 </r>
       <r>    2.6223    1.0000 </r>
       <r>    2.6308    1.0000 </r>
       <r>    3.6226    1.0000 </r>
       <r>    4.7168    1.0000 </r>
       <r>    4.9549    1.0000 </r>
       <r>    4.9643    1.0000 </r>
       <r>    5.4757    1.0000 </r>
       <r>    5.6072    1.0000 </r>
       <r>    5.6230    1.0000 </r>
       <r>    5.7417    1.0000 </r>
       <r>    6.0220    1.0000 </r>
       <r>    6.0385    1.0000 </r>
       <r>    6.0643    1.0000 </r>
       <r>    6.1821    1.0000 </r>
       <r>    6.2028    1.0000 </r>
       <r>    6.3672    1.0000 </r>
       <r>    6.4709    1.0000 </r>
       <r>    7.0308    1.0001 </r>
       <r>   10.3143    0.0000 </r>
       <r>   10.6695    0.0000 </r>
       <r>   14.5108    0.0000 </r>
       <r>   15.1839    0.0000 </r>
       <r>   14.1253    0.0000 </r>
       <r>   13.7059    0.0000 </r>
      </set>
      <set comment="kpoint 15">
       <r>   -0.6039    1.0000 </r>
       <r>    2.0001    1.0000 </r>
       <r>    2.0248    1.0000 </r>
       <r>    2.6428    1.0000 </r>
       <r>    2.6852    1.0000 </r>
       <r>    2.6930    1.0000 </r>
       <r>    3.6818    1.0000 </r>
       <r>    4.6570    1.0000 </r>
       <r>    4.9693    1.0000 </r>
       <r>    4.9877    1.0000 </r>
       <r>    5.3090    1.0000 </r>
       <r>    5.4032    1.0000 </r>
       <r>    5.4181    1.0000 </r>
       <r>    5.7712    1.0000 </r>
       <r>    5.8320    1.0000 </r>
       <r>    5.9343    1.0000 </r>
       <r>    5.9714    1.0000 </r>
       <r>    6.0664    1.0000 </r>
       <r>    6.1490    1.0000 </r>
       <r>    6.3668    1.0000 </r>
       <r>    6.4553    1.0000 </r>
       <r>    6.4712    1.0000 </r>
       <r>   10.8730    0.0000 </r>
       <r>   11.2530    0.0000 </r>
       <r>   14.6512    0.0000 </r>
       <r>   15.1102    0.0000 </r>
       <r>   15.9816    0.0000 </r>
       <r>   13.5222    0.0000 </r>
      </set>
      <set comment="kpoint 16">
       <r>   -0.2539    1.0000 </r>
       <r>    2.0410    1.0000 </r>
       <r>    2.0927    1.0000 </r>
       <r>    2.6919    1.0000 </r>
       <r>    2.7532    1.0000 </r>
       <r>    2.7585    1.0000 </r>
       <r>    3.7501    1.0000 </r>
       <r>    4.5988    1.0000 </r>
       <r>    4.9008    1.0000 </r>
       <r>    4.9355    1.0000 </r>
       <r>    5.0696    1.0000 </r>
       <r>    5.3023    1.0000 </r>
       <r>    5.3085    1.0000 </r>
       <r>    5.5922    1.0000 </r>
       <r>    5.8075    1.0000 </r>
       <r>    5.8300    1.0000 </r>
       <r>    5.8852    1.0000 </r>
       <r>    5.9416    1.0000 </r>
       <r>    6.0380    1.0000 </r>
       <r>    6.1789    1.0000 </r>
       <r>    6.3667    1.0000 </r>
       <r>    6.4713    1.0000 </r>
       <r>   11.4644    0.0000 </r>
       <r>   11.8815    0.0000 </r>
       <r>   14.7510    0.0000 </r>
       <r>   15.0410    0.0000 </r>
       <r>   15.6929    0.0000 </r>
       <r>   15.9506    0.0000 </r>
      </set>
      <set comment="kpoint 17">
       <r>    0.1185    1.0000 </r>
       <r>    1.9697    1.0000 </r>
       <r>    2.1683    1.0000 </r>
       <r>    2.7344    1.0000 </r>
       <r>    2.8177    1.0000 </r>
       <r>    2.8190    1.0000 </r>
       <r>    3.8372    1.0000 </r>
       <r>    4.5504    1.0000 </r>
       <r>    4.6833    1.0000 </r>
       <r>    4.8101    1.0000 </r>
       <r>    4.8158    1.0000 </r>
       <r>    5.3010    1.0000 </r>
       <r>    5.3326    1.0000 </r>
       <r>    5.4726    1.0000 </r>
       <r>    5.7269    1.0000 </r>
       <r>    5.7893    1.0000 </r>
       <r>    5.8145    1.0000 </r>
       <r>    5.8525    1.0000 </r>
       <r>    5.8983    1.0000 </r>
       <r>    6.0990    1.0000 </r>
       <r>    6.3666    1.0000 </r>
       <r>    6.4714    1.0000 </r>
       <r>   12.0749    0.0000 </r>
       <r>   12.5413    0.0000 </r>
       <r>   14.5499    0.0000 </r>
       <r>   15.0455    0.0000 </r>
       <r>   15.4024    0.0000 </r>
       <r>   15.5609    0.0000 </r>
      </set>
      <set comment="kpoint 18">
       <r>    0.4566    1.0000 </r>
       <r>    1.8147    1.0000 </r>
       <r>    2.2205    1.0000 </r>
       <r>    2.7635    1.0000 </r>
       <r>    2.8631    1.0000 </r>
       <r>    2.8652    1.0000 </r>
       <r>    3.9587    1.0000 </r>
       <r>    4.3859    1.0000 </r>
       <r>    4.5194    1.0000 </r>
       <r>    4.6991    1.0000 </r>
       <r>    4.7047    1.0000 </r>
       <r>    5.2983    1.0000 </r>
       <r>    5.4103    1.0000 </r>
       <r>    5.4825    1.0000 </r>
       <r>    5.6495    1.0000 </r>
       <r>    5.6958    1.0000 </r>
       <r>    5.7356    1.0000 </r>
       <r>    5.7437    1.0000 </r>
       <r>    5.9233    1.0000 </r>
       <r>    6.0453    1.0000 </r>
       <r>    6.3666    1.0000 </r>
       <r>    6.4714    1.0000 </r>
       <r>   12.6848    0.0000 </r>
       <r>   13.2072    0.0000 </r>
       <r>   14.0334    0.0000 </r>
       <r>   14.8495    0.0000 </r>
       <r>   15.0146    0.0000 </r>
       <r>   15.5449    0.0000 </r>
      </set>
      <set comment="kpoint 19">
       <r>    0.6159    1.0000 </r>
       <r>    1.7142    1.0000 </r>
       <r>    2.2392    1.0000 </r>
       <r>    2.7739    1.0000 </r>
       <r>    2.8795    1.0000 </r>
       <r>    2.8828    1.0000 </r>
       <r>    4.0867    1.0000 </r>
       <r>    4.1959    1.0000 </r>
       <r>    4.5093    1.0000 </r>
       <r>    4.6598    1.0000 </r>
       <r>    4.6649    1.0000 </r>
       <r>    5.2898    1.0000 </r>
       <r>    5.4660    1.0000 </r>
       <r>    5.5440    1.0000 </r>
       <r>    5.5893    1.0000 </r>
       <r>    5.6280    1.0000 </r>
       <r>    5.6829    1.0000 </r>
       <r>    5.7217    1.0000 </r>
       <r>    5.9520    1.0000 </r>
       <r>    6.0137    1.0000 </r>
       <r>    6.3667    1.0000 </r>
       <r>    6.4714    1.0000 </r>
       <r>   13.1228    0.0000 </r>
       <r>   13.6086    0.0000 </r>
       <r>   13.6622    0.0000 </r>
       <r>   14.3751    0.0000 </r>
       <r>   14.9967    0.0000 </r>
       <r>   15.7535    0.0000 </r>
      </set>
      <set comment="kpoint 20">
       <r>   -1.2227    1.0000 </r>
       <r>    1.8128    1.0000 </r>
       <r>    1.8351    1.0000 </r>
       <r>    2.5333    1.0000 </r>
       <r>    2.5521    1.0000 </r>
       <r>    2.5661    1.0000 </r>
       <r>    3.5565    1.0000 </r>
       <r>    4.7875    1.0000 </r>
       <r>    4.9071    1.0000 </r>
       <r>    4.9147    1.0000 </r>
       <r>    5.6162    1.0000 </r>
       <r>    5.6806    1.0000 </r>
       <r>    5.9935    1.0000 </r>
       <r>    6.0033    1.0000 </r>
       <r>    6.0748    1.0000 </r>
       <r>    6.1553    1.0000 </r>
       <r>    6.2206    1.0000 </r>
       <r>    6.2211    1.0000 </r>
       <r>    6.3350    1.0000 </r>
       <r>    6.3680    1.0000 </r>
       <r>    6.4194    1.0000 </r>
       <r>    8.7780   -0.0002 </r>
       <r>    8.7909   -0.0002 </r>
       <r>    9.9892    0.0000 </r>
       <r>   14.4283    0.0000 </r>
       <r>   15.6705    0.0000 </r>
       <r>   16.0843    0.0000 </r>
       <r>   13.5714    0.0000 </r>
      </set>
      <set comment="kpoint 21">
       <r>   -1.0453    1.0000 </r>
       <r>    1.8729    1.0000 </r>
       <r>    1.9130    1.0000 </r>
       <r>    2.5615    1.0000 </r>
       <r>    2.5876    1.0000 </r>
       <r>    2.6085    1.0000 </r>
       <r>    3.5956    1.0000 </r>
       <r>    4.7466    1.0000 </r>
       <r>    4.9286    1.0000 </r>
       <r>    4.9473    1.0000 </r>
       <r>    5.5655    1.0000 </r>
       <r>    5.6748    1.0000 </r>
       <r>    5.7794    1.0000 </r>
       <r>    5.7916    1.0000 </r>
       <r>    5.9485    1.0000 </r>
       <r>    6.0932    1.0000 </r>
       <r>    6.1510    1.0000 </r>
       <r>    6.2051    1.0000 </r>
       <r>    6.2809    1.0000 </r>
       <r>    6.3401    1.0000 </r>
       <r>    6.4033    1.0000 </r>
       <r>    8.0678    0.1282 </r>
       <r>    9.1978    0.0000 </r>
       <r>   10.3941    0.0000 </r>
       <r>   14.5806    0.0000 </r>
       <r>   15.7835    0.0000 </r>
       <r>   15.3293    0.0000 </r>
       <r>   14.8413    0.0000 </r>
      </set>
      <set comment="kpoint 22">
       <r>   -0.8026    1.0000 </r>
       <r>    1.9477    1.0000 </r>
       <r>    2.0044    1.0000 </r>
       <r>    2.6014    1.0000 </r>
       <r>    2.6349    1.0000 </r>
       <r>    2.6610    1.0000 </r>
       <r>    3.6449    1.0000 </r>
       <r>    4.6951    1.0000 </r>
       <r>    4.9479    1.0000 </r>
       <r>    4.9866    1.0000 </r>
       <r>    5.4368    1.0000 </r>
       <r>    5.5338    1.0000 </r>
       <r>    5.5639    1.0000 </r>
       <r>    5.7334    1.0000 </r>
       <r>    5.8025    1.0000 </r>
       <r>    6.0099    1.0000 </r>
       <r>    6.0671    1.0000 </r>
       <r>    6.1714    1.0000 </r>
       <r>    6.1813    1.0000 </r>
       <r>    6.3330    1.0000 </r>
       <r>    6.4006    1.0000 </r>
       <r>    7.3709    1.0137 </r>
       <r>    9.6727    0.0000 </r>
       <r>   10.8924    0.0000 </r>
       <r>   14.6722    0.0000 </r>
       <r>   15.6620    0.0000 </r>
       <r>   16.0494    0.0000 </r>
       <r>   13.8034    0.0000 </r>
      </set>
      <set comment="kpoint 23">
       <r>   -0.5013    1.0000 </r>
       <r>    2.0254    1.0000 </r>
       <r>    2.0869    1.0000 </r>
       <r>    2.6490    1.0000 </r>
       <r>    2.6927    1.0000 </r>
       <r>    2.7194    1.0000 </r>
       <r>    3.7006    1.0000 </r>
       <r>    4.6392    1.0000 </r>
       <r>    4.9343    1.0000 </r>
       <r>    5.0111    1.0000 </r>
       <r>    5.2285    1.0000 </r>
       <r>    5.3650    1.0000 </r>
       <r>    5.4114    1.0000 </r>
       <r>    5.6033    1.0000 </r>
       <r>    5.7858    1.0000 </r>
       <r>    5.9118    1.0000 </r>
       <r>    5.9746    1.0000 </r>
       <r>    6.0651    1.0000 </r>
       <r>    6.1176    1.0000 </r>
       <r>    6.3303    1.0000 </r>
       <r>    6.3998    1.0000 </r>
       <r>    6.7993    1.0000 </r>
       <r>   10.1844    0.0000 </r>
       <r>   11.4579    0.0000 </r>
       <r>   14.6705    0.0000 </r>
       <r>   15.2518    0.0000 </r>
       <r>   16.0081    0.0000 </r>
       <r>   13.6864    0.0000 </r>
      </set>
      <set comment="kpoint 24">
       <r>   -0.1537    1.0000 </r>
       <r>    2.0629    1.0000 </r>
       <r>    2.1530    1.0000 </r>
       <r>    2.6987    1.0000 </r>
       <r>    2.7598    1.0000 </r>
       <r>    2.7787    1.0000 </r>
       <r>    3.7629    1.0000 </r>
       <r>    4.5865    1.0000 </r>
       <r>    4.8236    1.0000 </r>
       <r>    4.9524    1.0000 </r>
       <r>    5.0313    1.0000 </r>
       <r>    5.2749    1.0000 </r>
       <r>    5.2849    1.0000 </r>
       <r>    5.4846    1.0000 </r>
       <r>    5.8047    1.0000 </r>
       <r>    5.8283    1.0000 </r>
       <r>    5.8883    1.0000 </r>
       <r>    5.9401    1.0000 </r>
       <r>    6.0353    1.0000 </r>
       <r>    6.3290    1.0000 </r>
       <r>    6.3994    1.0000 </r>
       <r>    6.4224    1.0000 </r>
       <r>   10.7197    0.0000 </r>
       <r>   12.0730    0.0000 </r>
       <r>   14.2991    0.0000 </r>
       <r>   15.0581    0.0000 </r>
       <r>   16.0035    0.0000 </r>
       <r>   15.8627    0.0000 </r>
      </set>
      <set comment="kpoint 25">
       <r>    0.2171    1.0000 </r>
       <r>    1.9918    1.0000 </r>
       <r>    2.2209    1.0000 </r>
       <r>    2.7430    1.0000 </r>
       <r>    2.8284    1.0000 </r>
       <r>    2.8316    1.0000 </r>
       <r>    3.8400    1.0000 </r>
       <r>    4.5461    1.0000 </r>
       <r>    4.6149    1.0000 </r>
       <r>    4.8102    1.0000 </r>
       <r>    4.8208    1.0000 </r>
       <r>    5.2196    1.0000 </r>
       <r>    5.3283    1.0000 </r>
       <r>    5.4607    1.0000 </r>
       <r>    5.7168    1.0000 </r>
       <r>    5.7936    1.0000 </r>
       <r>    5.8132    1.0000 </r>
       <r>    5.8695    1.0000 </r>
       <r>    5.9389    1.0000 </r>
       <r>    6.2220    1.0000 </r>
       <r>    6.3283    1.0000 </r>
       <r>    6.3992    1.0000 </r>
       <r>   11.2701    0.0000 </r>
       <r>   12.7240    0.0000 </r>
       <r>   13.6983    0.0000 </r>
       <r>   15.0822    0.0000 </r>
       <r>   15.6905    0.0000 </r>
       <r>   16.0514    0.0000 </r>
      </set>
      <set comment="kpoint 26">
       <r>    0.5567    1.0000 </r>
       <r>    1.8308    1.0000 </r>
       <r>    2.2722    1.0000 </r>
       <r>    2.7739    1.0000 </r>
       <r>    2.8691    1.0000 </r>
       <r>    2.8810    1.0000 </r>
       <r>    3.9437    1.0000 </r>
       <r>    4.3710    1.0000 </r>
       <r>    4.5256    1.0000 </r>
       <r>    4.6817    1.0000 </r>
       <r>    4.7105    1.0000 </r>
       <r>    5.1958    1.0000 </r>
       <r>    5.4109    1.0000 </r>
       <r>    5.5006    1.0000 </r>
       <r>    5.6543    1.0000 </r>
       <r>    5.6941    1.0000 </r>
       <r>    5.7420    1.0000 </r>
       <r>    5.7715    1.0000 </r>
       <r>    5.9657    1.0000 </r>
       <r>    6.1132    1.0000 </r>
       <r>    6.3280    1.0000 </r>
       <r>    6.3991    1.0000 </r>
       <r>   11.8246    0.0000 </r>
       <r>   13.0940    0.0000 </r>
       <r>   13.3890    0.0000 </r>
       <r>   14.9806    0.0000 </r>
       <r>   15.1186    0.0000 </r>
       <r>   16.0783    0.0000 </r>
      </set>
      <set comment="kpoint 27">
       <r>    0.7196    1.0000 </r>
       <r>    1.7253    1.0000 </r>
       <r>    2.2911    1.0000 </r>
       <r>    2.7850    1.0000 </r>
       <r>    2.8828    1.0000 </r>
       <r>    2.9006    1.0000 </r>
       <r>    4.0319    1.0000 </r>
       <r>    4.2293    1.0000 </r>
       <r>    4.5219    1.0000 </r>
       <r>    4.6410    1.0000 </r>
       <r>    4.6668    1.0000 </r>
       <r>    5.1872    1.0000 </r>
       <r>    5.4689    1.0000 </r>
       <r>    5.5394    1.0000 </r>
       <r>    5.6250    1.0000 </r>
       <r>    5.6396    1.0000 </r>
       <r>    5.6980    1.0000 </r>
       <r>    5.7235    1.0000 </r>
       <r>    6.0153    1.0000 </r>
       <r>    6.0499    1.0000 </r>
       <r>    6.3280    1.0000 </r>
       <r>    6.3991    1.0000 </r>
       <r>   12.2374    0.0000 </r>
       <r>   12.6632    0.0000 </r>
       <r>   13.8649    0.0000 </r>
       <r>   14.4834    0.0000 </r>
       <r>   15.1326    0.0000 </r>
       <r>   16.0940    0.0000 </r>
      </set>
      <set comment="kpoint 28">
       <r>   -0.8701    1.0000 </r>
       <r>    1.9283    1.0000 </r>
       <r>    1.9957    1.0000 </r>
       <r>    2.5852    1.0000 </r>
       <r>    2.6160    1.0000 </r>
       <r>    2.6509    1.0000 </r>
       <r>    3.6328    1.0000 </r>
       <r>    4.7089    1.0000 </r>
       <r>    4.9354    1.0000 </r>
       <r>    4.9810    1.0000 </r>
       <r>    5.5208    1.0000 </r>
       <r>    5.5426    1.0000 </r>
       <r>    5.6446    1.0000 </r>
       <r>    5.7403    1.0000 </r>
       <r>    5.7556    1.0000 </r>
       <r>    6.0378    1.0000 </r>
       <r>    6.1345    1.0000 </r>
       <r>    6.1520    1.0000 </r>
       <r>    6.2707    1.0000 </r>
       <r>    6.2909    1.0000 </r>
       <r>    6.3402    1.0000 </r>
       <r>    8.4464   -0.0158 </r>
       <r>    8.4975   -0.0098 </r>
       <r>   10.7677    0.0000 </r>
       <r>   14.6734    0.0000 </r>
       <r>   15.8304    0.0000 </r>
       <r>   15.7744    0.0000 </r>
       <r>   14.8583    0.0000 </r>
      </set>
      <set comment="kpoint 29">
       <r>   -0.6305    1.0000 </r>
       <r>    1.9942    1.0000 </r>
       <r>    2.0961    1.0000 </r>
       <r>    2.6207    1.0000 </r>
       <r>    2.6537    1.0000 </r>
       <r>    2.7013    1.0000 </r>
       <r>    3.6785    1.0000 </r>
       <r>    4.6623    1.0000 </r>
       <r>    4.9273    1.0000 </r>
       <r>    5.0227    1.0000 </r>
       <r>    5.3096    1.0000 </r>
       <r>    5.4638    1.0000 </r>
       <r>    5.4870    1.0000 </r>
       <r>    5.5749    1.0000 </r>
       <r>    5.7630    1.0000 </r>
       <r>    5.9636    1.0000 </r>
       <r>    6.0617    1.0000 </r>
       <r>    6.1183    1.0000 </r>
       <r>    6.1796    1.0000 </r>
       <r>    6.2784    1.0000 </r>
       <r>    6.3142    1.0000 </r>
       <r>    7.7655    0.8725 </r>
       <r>    8.9225    0.0000 </r>
       <r>   11.2374    0.0000 </r>
       <r>   14.6129    0.0000 </r>
       <r>   15.2425    0.0000 </r>
       <r>   15.3941    0.0000 </r>
       <r>   13.9131    0.0000 </r>
      </set>
      <set comment="kpoint 30">
       <r>   -0.3333    1.0000 </r>
       <r>    2.0579    1.0000 </r>
       <r>    2.1907    1.0000 </r>
       <r>    2.6648    1.0000 </r>
       <r>    2.7029    1.0000 </r>
       <r>    2.7552    1.0000 </r>
       <r>    3.7280    1.0000 </r>
       <r>    4.6132    1.0000 </r>
       <r>    4.8642    1.0000 </r>
       <r>    5.0487    1.0000 </r>
       <r>    5.1467    1.0000 </r>
       <r>    5.2994    1.0000 </r>
       <r>    5.3349    1.0000 </r>
       <r>    5.4632    1.0000 </r>
       <r>    5.8074    1.0000 </r>
       <r>    5.8763    1.0000 </r>
       <r>    5.9733    1.0000 </r>
       <r>    6.0628    1.0000 </r>
       <r>    6.0676    1.0000 </r>
       <r>    6.2741    1.0000 </r>
       <r>    6.3025    1.0000 </r>
       <r>    7.1666    1.0012 </r>
       <r>    9.3980    0.0000 </r>
       <r>   11.7790    0.0000 </r>
       <r>   14.1144    0.0000 </r>
       <r>   15.0641    0.0000 </r>
       <r>   15.4245    0.0000 </r>
       <r>   13.6019    0.0000 </r>
      </set>
      <set comment="kpoint 31">
       <r>    0.0098    1.0000 </r>
       <r>    2.0845    1.0000 </r>
       <r>    2.2596    1.0000 </r>
       <r>    2.7128    1.0000 </r>
       <r>    2.7701    1.0000 </r>
       <r>    2.8069    1.0000 </r>
       <r>    3.7800    1.0000 </r>
       <r>    4.5698    1.0000 </r>
       <r>    4.7284    1.0000 </r>
       <r>    4.9734    1.0000 </r>
       <r>    4.9867    1.0000 </r>
       <r>    5.1785    1.0000 </r>
       <r>    5.2598    1.0000 </r>
       <r>    5.4248    1.0000 </r>
       <r>    5.7851    1.0000 </r>
       <r>    5.8505    1.0000 </r>
       <r>    5.8966    1.0000 </r>
       <r>    5.9379    1.0000 </r>
       <r>    5.9946    1.0000 </r>
       <r>    6.2708    1.0000 </r>
       <r>    6.2968    1.0000 </r>
       <r>    6.7237    1.0000 </r>
       <r>    9.8926    0.0000 </r>
       <r>   12.3753    0.0000 </r>
       <r>   13.4375    0.0000 </r>
       <r>   15.1113    0.0000 </r>
       <r>   15.4217    0.0000 </r>
       <r>   15.9223    0.0000 </r>
      </set>
      <set comment="kpoint 32">
       <r>    0.3769    1.0000 </r>
       <r>    2.0138    1.0000 </r>
       <r>    2.3143    1.0000 </r>
       <r>    2.7576    1.0000 </r>
       <r>    2.8499    1.0000 </r>
       <r>    2.8503    1.0000 </r>
       <r>    3.8395    1.0000 </r>
       <r>    4.5416    1.0000 </r>
       <r>    4.5579    1.0000 </r>
       <r>    4.7727    1.0000 </r>
       <r>    4.8337    1.0000 </r>
       <r>    5.1256    1.0000 </r>
       <r>    5.3240    1.0000 </r>
       <r>    5.4292    1.0000 </r>
       <r>    5.7073    1.0000 </r>
       <r>    5.7944    1.0000 </r>
       <r>    5.8112    1.0000 </r>
       <r>    5.8745    1.0000 </r>
       <r>    5.9634    1.0000 </r>
       <r>    6.2685    1.0000 </r>
       <r>    6.2938    1.0000 </r>
       <r>    6.4361    1.0000 </r>
       <r>   10.4025    0.0000 </r>
       <r>   12.7765    0.0000 </r>
       <r>   13.0133    0.0000 </r>
       <r>   15.1935    0.0000 </r>
       <r>   15.8897    0.0000 </r>
       <r>   16.0824    0.0000 </r>
      </set>
      <set comment="kpoint 33">
       <r>    0.7182    1.0000 </r>
       <r>    1.8485    1.0000 </r>
       <r>    2.3584    1.0000 </r>
       <r>    2.7904    1.0000 </r>
       <r>    2.8782    1.0000 </r>
       <r>    2.9162    1.0000 </r>
       <r>    3.9112    1.0000 </r>
       <r>    4.3755    1.0000 </r>
       <r>    4.5357    1.0000 </r>
       <r>    4.6400    1.0000 </r>
       <r>    4.7186    1.0000 </r>
       <r>    5.1012    1.0000 </r>
       <r>    5.4133    1.0000 </r>
       <r>    5.4622    1.0000 </r>
       <r>    5.6647    1.0000 </r>
       <r>    5.6918    1.0000 </r>
       <r>    5.7405    1.0000 </r>
       <r>    5.7734    1.0000 </r>
       <r>    6.0367    1.0000 </r>
       <r>    6.2564    1.0000 </r>
       <r>    6.2673    1.0000 </r>
       <r>    6.2924    1.0000 </r>
       <r>   10.9197    0.0000 </r>
       <r>   12.1653    0.0000 </r>
       <r>   13.6759    0.0000 </r>
       <r>   15.1960    0.0000 </r>
       <r>   15.2680    0.0000 </r>
       <r>   16.2116    0.0000 </r>
      </set>
      <set comment="kpoint 34">
       <r>    0.8879    1.0000 </r>
       <r>    1.7356    1.0000 </r>
       <r>    2.3757    1.0000 </r>
       <r>    2.8026    1.0000 </r>
       <r>    2.8880    1.0000 </r>
       <r>    2.9413    1.0000 </r>
       <r>    3.9581    1.0000 </r>
       <r>    4.2826    1.0000 </r>
       <r>    4.5419    1.0000 </r>
       <r>    4.5990    1.0000 </r>
       <r>    4.6693    1.0000 </r>
       <r>    5.0934    1.0000 </r>
       <r>    5.4750    1.0000 </r>
       <r>    5.4818    1.0000 </r>
       <r>    5.6205    1.0000 </r>
       <r>    5.6872    1.0000 </r>
       <r>    5.6897    1.0000 </r>
       <r>    5.7213    1.0000 </r>
       <r>    6.1227    1.0000 </r>
       <r>    6.1426    1.0000 </r>
       <r>    6.2669    1.0000 </r>
       <r>    6.2919    1.0000 </r>
       <r>   11.2993    0.0000 </r>
       <r>   11.7541    0.0000 </r>
       <r>   14.1890    0.0000 </r>
       <r>   14.6599    0.0000 </r>
       <r>   15.2997    0.0000 </r>
       <r>   16.2037    0.0000 </r>
      </set>
      <set comment="kpoint 35">
       <r>   -0.3954    1.0000 </r>
       <r>    2.0467    1.0000 </r>
       <r>    2.2117    1.0000 </r>
       <r>    2.6512    1.0000 </r>
       <r>    2.6776    1.0000 </r>
       <r>    2.7478    1.0000 </r>
       <r>    3.7182    1.0000 </r>
       <r>    4.6231    1.0000 </r>
       <r>    4.8707    1.0000 </r>
       <r>    5.0696    1.0000 </r>
       <r>    5.1795    1.0000 </r>
       <r>    5.3307    1.0000 </r>
       <r>    5.3654    1.0000 </r>
       <r>    5.4522    1.0000 </r>
       <r>    5.7988    1.0000 </r>
       <r>    5.9003    1.0000 </r>
       <r>    6.0285    1.0000 </r>
       <r>    6.0572    1.0000 </r>
       <r>    6.1679    1.0000 </r>
       <r>    6.1898    1.0000 </r>
       <r>    6.2595    1.0000 </r>
       <r>    8.1186    0.0500 </r>
       <r>    8.2638   -0.0347 </r>
       <r>   11.6788    0.0000 </r>
       <r>   14.0480    0.0000 </r>
[...]
       <r>    5.1072    1.0000 </r>
       <r>    5.8697    1.0000 </r>
       <r>    5.9035    1.0000 </r>
       <r>    5.9035    1.0000 </r>
       <r>    6.2374    1.0000 </r>
       <r>    6.2374    1.0000 </r>
       <r>    6.2650    1.0000 </r>
       <r>    6.2919    1.0000 </r>
       <r>    6.2919    1.0000 </r>
       <r>    6.3841    1.0000 </r>
       <r>    7.3426    1.0104 </r>
       <r>    7.3426    1.0104 </r>
       <r>    7.3715    1.0138 </r>
       <r>   10.5447    0.0000 </r>
       <r>   11.9746    0.0000 </r>
       <r>   11.9746    0.0000 </r>
       <r>   12.4586    0.0000 </r>
      </set>
      <set comment="kpoint 218">
       <r>    1.6438    1.0000 </r>
       <r>    1.6689    1.0000 </r>
       <r>    1.6739    1.0000 </r>
       <r>    2.7429    1.0000 </r>
       <r>    3.5292    1.0000 </r>
       <r>    3.5678    1.0000 </r>
       <r>    4.7638    1.0000 </r>
       <r>    4.7966    1.0000 </r>
       <r>    4.8122    1.0000 </r>
       <r>    5.0660    1.0000 </r>
       <r>    5.0706    1.0000 </r>
       <r>    5.0957    1.0000 </r>
       <r>    5.9790    1.0000 </r>
       <r>    5.9833    1.0000 </r>
       <r>    6.0694    1.0000 </r>
       <r>    6.1125    1.0000 </r>
       <r>    6.2595    1.0000 </r>
       <r>    6.2607    1.0000 </r>
       <r>    6.2809    1.0000 </r>
       <r>    6.2917    1.0000 </r>
       <r>    6.8261    1.0000 </r>
       <r>    6.8666    1.0000 </r>
       <r>    7.3151    1.0078 </r>
       <r>    7.3363    1.0098 </r>
       <r>   10.4623    0.0000 </r>
       <r>   11.8719    0.0000 </r>
       <r>   12.0837    0.0000 </r>
       <r>   12.1810    0.0000 </r>
      </set>
      <set comment="kpoint 219">
       <r>    1.6362    1.0000 </r>
       <r>    1.6552    1.0000 </r>
       <r>    1.6552    1.0000 </r>
       <r>    2.7418    1.0000 </r>
       <r>    3.5399    1.0000 </r>
       <r>    3.5773    1.0000 </r>
       <r>    4.7846    1.0000 </r>
       <r>    4.7934    1.0000 </r>
       <r>    4.7934    1.0000 </r>
       <r>    5.0728    1.0000 </r>
       <r>    5.0728    1.0000 </r>
       <r>    5.0839    1.0000 </r>
       <r>    6.1198    1.0000 </r>
       <r>    6.1494    1.0000 </r>
       <r>    6.1536    1.0000 </r>
       <r>    6.1536    1.0000 </r>
       <r>    6.2541    1.0000 </r>
       <r>    6.2553    1.0000 </r>
       <r>    6.2774    1.0000 </r>
       <r>    6.2774    1.0000 </r>
       <r>    7.0028    1.0001 </r>
       <r>    7.0028    1.0001 </r>
       <r>    7.0424    1.0001 </r>
       <r>    7.0574    1.0002 </r>
       <r>   10.3648    0.0000 </r>
       <r>   11.9317    0.0000 </r>
       <r>   11.9637    0.0000 </r>
       <r>   11.9637    0.0000 </r>
      </set>
      <set comment="kpoint 220">
       <r>    1.6348    1.0000 </r>
       <r>    1.6348    1.0000 </r>
       <r>    1.6348    1.0000 </r>
       <r>    2.7413    1.0000 </r>
       <r>    3.5679    1.0000 </r>
       <r>    3.5679    1.0000 </r>
       <r>    4.7898    1.0000 </r>
       <r>    4.7898    1.0000 </r>
       <r>    4.7898    1.0000 </r>
       <r>    5.0758    1.0000 </r>
       <r>    5.0758    1.0000 </r>
       <r>    5.0758    1.0000 </r>
       <r>    6.2631    1.0000 </r>
       <r>    6.2631    1.0000 </r>
       <r>    6.2631    1.0000 </r>
       <r>    6.2697    1.0000 </r>
       <r>    6.2697    1.0000 </r>
       <r>    6.2986    1.0000 </r>
       <r>    6.2986    1.0000 </r>
       <r>    6.2986    1.0000 </r>
       <r>    6.9141    1.0000 </r>
       <r>    6.9396    1.0000 </r>
       <r>    6.9396    1.0000 </r>
       <r>    6.9396    1.0000 </r>
       <r>   10.2156    0.0000 </r>
       <r>   11.8634    0.0000 </r>
       <r>   11.8634    0.0000 </r>
       <r>   11.8634    0.0000 </r>
      </set>
     </set>
    </set>
   </array>
  </eigenvalues>
  <separator name="orbital magnetization" >
   <v name="MAGDIPOLOUT">      0.00000000      0.00000000      0.00000000</v>
  </separator>
  <dos>
   <i name="efermi">      7.91682728 </i>
   <total>
    <array>
     <dimension dim="1">gridpoints</dimension>
     <dimension dim="2">spin</dimension>
     <field>energy</field>
     <field>total</field>
     <field>integrated</field>
     <set>
      <set comment="spin 1">
       <r>    -4.5121     0.0000     0.0000 </r>
       <r>    -4.4330     0.0000     0.0000 </r>
       <r>    -4.3539     0.0000     0.0000 </r>
       <r>    -4.2748     0.0000     0.0000 </r>
       <r>    -4.1958     0.0000     0.0000 </r>
       <r>    -4.1167     0.0000     0.0000 </r>
       <r>    -4.0376     0.0000     0.0000 </r>
       <r>    -3.9585     0.0000     0.0000 </r>
       <r>    -3.8794     0.0000     0.0000 </r>
       <r>    -3.8003     0.0000     0.0000 </r>
       <r>    -3.7212     0.0000     0.0000 </r>
       <r>    -3.6421     0.0000     0.0000 </r>
       <r>    -3.5630     0.0000     0.0000 </r>
       <r>    -3.4839     0.0000     0.0000 </r>
       <r>    -3.4048     0.0000     0.0000 </r>
       <r>    -3.3257     0.0000     0.0000 </r>
       <r>    -3.2466     0.0000     0.0000 </r>
       <r>    -3.1675     0.0000     0.0000 </r>
       <r>    -3.0884     0.0000     0.0000 </r>
       <r>    -3.0093     0.0000     0.0000 </r>
       <r>    -2.9302     0.0000     0.0000 </r>
       <r>    -2.8511     0.0000     0.0000 </r>
       <r>    -2.7720     0.0000     0.0000 </r>
       <r>    -2.6929     0.0000     0.0000 </r>
       <r>    -2.6138     0.0000     0.0000 </r>
       <r>    -2.5348     0.0000     0.0000 </r>
       <r>    -2.4557     0.0000     0.0000 </r>
       <r>    -2.3766     0.0000     0.0000 </r>
       <r>    -2.2975     0.0000     0.0000 </r>
       <r>    -2.2184    -0.0001     0.0000 </r>
       <r>    -2.1393    -0.0003     0.0000 </r>
       <r>    -2.0602    -0.0007    -0.0001 </r>
       <r>    -1.9811    -0.0017    -0.0002 </r>
       <r>    -1.9020    -0.0031    -0.0005 </r>
       <r>    -1.8229    -0.0045    -0.0008 </r>
       <r>    -1.7438    -0.0043    -0.0012 </r>
       <r>    -1.6647     0.0001    -0.0012 </r>
       <r>    -1.5856     0.0119    -0.0002 </r>
       <r>    -1.5065     0.0327     0.0024 </r>
       <r>    -1.4274     0.0619     0.0073 </r>
       <r>    -1.3483     0.0960     0.0149 </r>
       <r>    -1.2692     0.1308     0.0252 </r>
       <r>    -1.1901     0.1627     0.0381 </r>
       <r>    -1.1110     0.1904     0.0531 </r>
       <r>    -1.0319     0.2143     0.0701 </r>
       <r>    -0.9528     0.2355     0.0887 </r>
       <r>    -0.8738     0.2550     0.1089 </r>
       <r>    -0.7947     0.2736     0.1305 </r>
       <r>    -0.7156     0.2920     0.1536 </r>
       <r>    -0.6365     0.3105     0.1782 </r>
       <r>    -0.5574     0.3288     0.2042 </r>
       <r>    -0.4783     0.3464     0.2316 </r>
       <r>    -0.3992     0.3641     0.2604 </r>
       <r>    -0.3201     0.3827     0.2906 </r>
       <r>    -0.2410     0.4025     0.3225 </r>
       <r>    -0.1619     0.4222     0.3559 </r>
       <r>    -0.0828     0.4412     0.3908 </r>
       <r>    -0.0037     0.4606     0.4272 </r>
       <r>     0.0754     0.4823     0.4653 </r>
       <r>     0.1545     0.5075     0.5055 </r>
       <r>     0.2336     0.5359     0.5479 </r>
       <r>     0.3127     0.5678     0.5928 </r>
       <r>     0.3918     0.6049     0.6406 </r>
       <r>     0.4709     0.6474     0.6918 </r>
       <r>     0.5500     0.6914     0.7465 </r>
       <r>     0.6291     0.7299     0.8042 </r>
       <r>     0.7081     0.7570     0.8641 </r>
       <r>     0.7872     0.7708     0.9251 </r>
       <r>     0.8663     0.7733     0.9863 </r>
       <r>     0.9454     0.7667     1.0469 </r>
       <r>     1.0245     0.7528     1.1064 </r>
       <r>     1.1036     0.7323     1.1644 </r>
       <r>     1.1827     0.7095     1.2205 </r>
       <r>     1.2618     0.7009     1.2759 </r>
       <r>     1.3409     0.7447     1.3348 </r>
       <r>     1.4200     0.8976     1.4058 </r>
       <r>     1.4991     1.2115     1.5016 </r>
       <r>     1.5782     1.7065     1.6366 </r>
       <r>     1.6573     2.3625     1.8235 </r>
       <r>     1.7364     3.1366     2.0716 </r>
       <r>     1.8155     3.9769     2.3861 </r>
       <r>     1.8946     4.8037     2.7661 </r>
       <r>     1.9737     5.4781     3.1993 </r>
       <r>     2.0528     5.8189     3.6596 </r>
       <r>     2.1319     5.6948     4.1100 </r>
       <r>     2.2110     5.1455     4.5170 </r>
       <r>     2.2901     4.4411     4.8683 </r>
       <r>     2.3691     4.0234     5.1865 </r>
       <r>     2.4482     4.3292     5.5289 </r>
       <r>     2.5273     5.5486     5.9678 </r>
       <r>     2.6064     7.4354     6.5559 </r>
       <r>     2.6855     9.3234     7.2933 </r>
       <r>     2.7646    10.4198     8.1175 </r>
       <r>     2.8437    10.2370     8.9272 </r>
       <r>     2.9228     8.8634     9.6282 </r>
       <r>     3.0019     6.8670    10.1714 </r>
       <r>     3.0810     4.9232    10.5608 </r>
       <r>     3.1601     3.4640    10.8348 </r>
       <r>     3.2392     2.5830    11.0391 </r>
       <r>     3.3183     2.1768    11.2113 </r>
       <r>     3.3974     2.1368    11.3803 </r>
       <r>     3.4765     2.4279    11.5723 </r>
       <r>     3.5556     3.0232    11.8114 </r>
       <r>     3.6347     3.7891    12.1111 </r>
       <r>     3.7138     4.4442    12.4626 </r>
       <r>     3.7929     4.6599    12.8312 </r>
       <r>     3.8720     4.2528    13.1676 </r>
       <r>     3.9511     3.3221    13.4304 </r>
       <r>     4.0301     2.2199    13.6059 </r>
       <r>     4.1092     1.3832    13.7154 </r>
       <r>     4.1883     1.1625    13.8073 </r>
       <r>     4.2674     1.7369    13.9447 </r>
       <r>     4.3465     3.0931    14.1893 </r>
       <r>     4.4256     5.0254    14.5868 </r>
       <r>     4.5047     7.1780    15.1546 </r>
       <r>     4.5838     9.1780    15.8805 </r>
       <r>     4.6629    10.8132    16.7358 </r>
       <r>     4.7420    12.1114    17.6937 </r>
       <r>     4.8211    13.2243    18.7397 </r>
       <r>     4.9002    14.2120    19.8638 </r>
       <r>     4.9793    14.9401    21.0455 </r>
       <r>     5.0584    15.1976    22.2475 </r>
       <r>     5.1375    14.9079    23.4267 </r>
       <r>     5.2166    14.2189    24.5513 </r>
       <r>     5.2957    13.4105    25.6120 </r>
       <r>     5.3748    12.7453    26.6201 </r>
       <r>     5.4539    12.3912    27.6002 </r>
       <r>     5.5330    12.4094    28.5817 </r>
       <r>     5.6121    12.7422    29.5896 </r>
       <r>     5.6911    13.2180    30.6351 </r>
       <r>     5.7702    13.6485    31.7146 </r>
       <r>     5.8493    13.9927    32.8214 </r>
       <r>     5.9284    14.4246    33.9623 </r>
       <r>     6.0075    15.1664    35.1619 </r>
       <r>     6.0866    16.1693    36.4408 </r>
       <r>     6.1657    16.9301    37.7799 </r>
       <r>     6.2448    16.6881    39.0998 </r>
       <r>     6.3239    14.9280    40.2806 </r>
       <r>     6.4030    11.8026    41.2141 </r>
       <r>     6.4821     8.1067    41.8553 </r>
       <r>     6.5612     4.8130    42.2360 </r>
       <r>     6.6403     2.5504    42.4377 </r>
       <r>     6.7194     1.3970    42.5482 </r>
       <r>     6.7985     1.0394    42.6304 </r>
       <r>     6.8776     1.0735    42.7153 </r>
       <r>     6.9567     1.2117    42.8111 </r>
       <r>     7.0358     1.3271    42.9161 </r>
       <r>     7.1149     1.3959    43.0265 </r>
       <r>     7.1940     1.4266    43.1394 </r>
       <r>     7.2731     1.4208    43.2517 </r>
       <r>     7.3521     1.3726    43.3603 </r>
       <r>     7.4312     1.2859    43.4620 </r>
       <r>     7.5103     1.1848    43.5557 </r>
       <r>     7.5894     1.1038    43.6430 </r>
       <r>     7.6685     1.0660    43.7273 </r>
       <r>     7.7476     1.0698    43.8120 </r>
       <r>     7.8267     1.0956    43.8986 </r>
       <r>     7.9058     1.1235    43.9875 </r>
       <r>     7.9849     1.1447    44.0780 </r>
       <r>     8.0640     1.1581    44.1696 </r>
       <r>     8.1431     1.1630    44.2616 </r>
       <r>     8.2222     1.1591    44.3533 </r>
       <r>     8.3013     1.1500    44.4442 </r>
       <r>     8.3804     1.1425    44.5346 </r>
       <r>     8.4595     1.1412    44.6249 </r>
       <r>     8.5386     1.1451    44.7154 </r>
       <r>     8.6177     1.1479    44.8062 </r>
       <r>     8.6968     1.1420    44.8966 </r>
       <r>     8.7759     1.1229    44.9854 </r>
       <r>     8.8550     1.0946    45.0719 </r>
       <r>     8.9341     1.0700    45.1566 </r>
       <r>     9.0131     1.0630    45.2407 </r>
       <r>     9.0922     1.0753    45.3257 </r>
       <r>     9.1713     1.0926    45.4121 </r>
       <r>     9.2504     1.0964    45.4989 </r>
       <r>     9.3295     1.0796    45.5843 </r>
       <r>     9.4086     1.0525    45.6675 </r>
       <r>     9.4877     1.0322    45.7491 </r>
       <r>     9.5668     1.0287    45.8305 </r>
       <r>     9.6459     1.0362    45.9125 </r>
       <r>     9.7250     1.0370    45.9945 </r>
       <r>     9.8041     1.0155    46.0748 </r>
       <r>     9.8832     0.9718    46.1517 </r>
       <r>     9.9623     0.9234    46.2247 </r>
       <r>    10.0414     0.8921    46.2953 </r>
       <r>    10.1205     0.8882    46.3655 </r>
       <r>    10.1996     0.9060    46.4372 </r>
       <r>    10.2787     0.9302    46.5108 </r>
       <r>    10.3578     0.9447    46.5855 </r>
       <r>    10.4369     0.9365    46.6596 </r>
       <r>    10.5160     0.9004    46.7308 </r>
       <r>    10.5951     0.8458    46.7977 </r>
       <r>    10.6741     0.7961    46.8606 </r>
       <r>    10.7532     0.7756    46.9220 </r>
       <r>    10.8323     0.7933    46.9847 </r>
       <r>    10.9114     0.8366    47.0509 </r>
       <r>    10.9905     0.8820    47.1207 </r>
       <r>    11.0696     0.9112    47.1927 </r>
       <r>    11.1487     0.9194    47.2655 </r>
       <r>    11.2278     0.9120    47.3376 </r>
       <r>    11.3069     0.8950    47.4084 </r>
       <r>    11.3860     0.8721    47.4774 </r>
       <r>    11.4651     0.8489    47.5445 </r>
       <r>    11.5442     0.8382    47.6108 </r>
       <r>    11.6233     0.8562    47.6785 </r>
       <r>    11.7024     0.9093    47.7505 </r>
       <r>    11.7815     0.9872    47.8285 </r>
       <r>    11.8606     1.0686    47.9131 </r>
       <r>    11.9397     1.1359    48.0029 </r>
       <r>    12.0188     1.1843    48.0966 </r>
       <r>    12.0979     1.2179    48.1929 </r>
       <r>    12.1770     1.2402    48.2910 </r>
       <r>    12.2560     1.2498    48.3899 </r>
       <r>    12.3351     1.2455    48.4884 </r>
       <r>    12.4142     1.2306    48.5857 </r>
       <r>    12.4933     1.2111    48.6815 </r>
       <r>    12.5724     1.1926    48.7758 </r>
       <r>    12.6515     1.1820    48.8693 </r>
       <r>    12.7306     1.1869    48.9632 </r>
       <r>    12.8097     1.2066    49.0586 </r>
       <r>    12.8888     1.2230    49.1554 </r>
       <r>    12.9679     1.2077    49.2509 </r>
       <r>    13.0470     1.1449    49.3415 </r>
       <r>    13.1261     1.0507    49.4246 </r>
       <r>    13.2052     0.9695    49.5012 </r>
       <r>    13.2843     0.9528    49.5766 </r>
       <r>    13.3634     1.0398    49.6588 </r>
       <r>    13.4425     1.2486    49.7576 </r>
       <r>    13.5216     1.5728    49.8820 </r>
       <r>    13.6007     1.9741    50.0382 </r>
       <r>    13.6798     2.3760    50.2261 </r>
       <r>    13.7589     2.6800    50.4381 </r>
       <r>    13.8380     2.8099    50.6603 </r>
       <r>    13.9170     2.7578    50.8784 </r>
       <r>    13.9961     2.5911    51.0834 </r>
       <r>    14.0752     2.4042    51.2735 </r>
       <r>    14.1543     2.2561    51.4520 </r>
       <r>    14.2334     2.1470    51.6218 </r>
       <r>    14.3125     2.0457    51.7836 </r>
       <r>    14.3916     1.9349    51.9367 </r>
       <r>    14.4707     1.8281    52.0813 </r>
       <r>    14.5498     1.7543    52.2200 </r>
       <r>    14.6289     1.7312    52.3569 </r>
       <r>    14.7080     1.7544    52.4957 </r>
       <r>    14.7871     1.8057    52.6385 </r>
       <r>    14.8662     1.8673    52.7862 </r>
       <r>    14.9453     1.9286    52.9388 </r>
       <r>    15.0244     1.9825    53.0956 </r>
       <r>    15.1035     2.0237    53.2556 </r>
       <r>    15.1826     2.0519    53.4179 </r>
       <r>    15.2617     2.0736    53.5819 </r>
       <r>    15.3408     2.0951    53.7477 </r>
       <r>    15.4199     2.1141    53.9149 </r>
       <r>    15.4990     2.1254    54.0830 </r>
       <r>    15.5780     2.1386    54.2521 </r>
       <r>    15.6571     2.1869    54.4251 </r>
       <r>    15.7362     2.3109    54.6079 </r>
       <r>    15.8153     2.5233    54.8075 </r>
       <r>    15.8944     2.7772    55.0271 </r>
       <r>    15.9735     2.9606    55.2613 </r>
       <r>    16.0526     2.9356    55.4935 </r>
       <r>    16.1317     2.6128    55.7001 </r>
       <r>    16.2108     2.0187    55.8598 </r>
       <r>    16.2899     1.2988    55.9625 </r>
       <r>    16.3690     0.6430    56.0134 </r>
       <r>    16.4481     0.1855    56.0281 </r>
       <r>    16.5272    -0.0469    56.0244 </r>
       <r>    16.6063    -0.1125    56.0155 </r>
       <r>    16.6854    -0.0951    56.0079 </r>
       <r>    16.7645    -0.0572    56.0034 </r>
       <r>    16.8436    -0.0274    56.0013 </r>
       <r>    16.9227    -0.0109    56.0004 </r>
       <r>    17.0018    -0.0037    56.0001 </r>
       <r>    17.0809    -0.0010    56.0000 </r>
       <r>    17.1600    -0.0003    56.0000 </r>
       <r>    17.2390    -0.0001    56.0000 </r>
       <r>    17.3181     0.0000    56.0000 </r>
       <r>    17.3972     0.0000    56.0000 </r>
       <r>    17.4763     0.0000    56.0000 </r>
       <r>    17.5554     0.0000    56.0000 </r>
       <r>    17.6345     0.0000    56.0000 </r>
       <r>    17.7136     0.0000    56.0000 </r>
       <r>    17.7927     0.0000    56.0000 </r>
       <r>    17.8718     0.0000    56.0000 </r>
       <r>    17.9509     0.0000    56.0000 </r>
       <r>    18.0300     0.0000    56.0000 </r>
       <r>    18.1091     0.0000    56.0000 </r>
       <r>    18.1882     0.0000    56.0000 </r>
       <r>    18.2673     0.0000    56.0000 </r>
       <r>    18.3464     0.0000    56.0000 </r>
       <r>    18.4255     0.0000    56.0000 </r>
       <r>    18.5046     0.0000    56.0000 </r>
       <r>    18.5837     0.0000    56.0000 </r>
       <r>    18.6628     0.0000    56.0000 </r>
       <r>    18.7419     0.0000    56.0000 </r>
       <r>    18.8210     0.0000    56.0000 </r>
       <r>    18.9000     0.0000    56.0000 </r>
       <r>    18.9791     0.0000    56.0000 </r>
       <r>    19.0582     0.0000    56.0000 </r>
       <r>    19.1373     0.0000    56.0000 </r>
       <r>    19.2164     0.0000    56.0000 </r>
      </set>
     </set>
    </array>
   </total>
  </dos>
 </calculation>
 <structure name="finalpos" >
  <crystal>
   <varray name="basis" >
    <v>       0.00000000       3.78386623       0.00000000 </v>
    <v>       0.00000000       0.00000000       3.78386623 </v>
    <v>       3.78386623       0.00000000       0.00000000 </v>
   </varray>
   <i name="volume">     54.17604850 </i>
   <varray name="rec_basis" >
    <v>       0.00000000       0.26427996       0.00000000 </v>
    <v>       0.00000000       0.00000000       0.26427996 </v>
    <v>       0.26427996       0.00000000       0.00000000 </v>
   </varray>
  </crystal>
  <varray name="positions" >
   <v>       0.00000000       0.50000000       0.50000000 </v>
   <v>       0.50000000       0.00000000       0.50000000 </v>
   <v>       0.50000000       0.50000000       0.00000000 </v>
   <v>       0.00000000       0.00000000       0.00000000 </v>
  </varray>
 </structure>
</modeling>
