<?xml version="1.0" encoding="ISO-8859-1"?>
<modeling>
 <generator>
  <i name="program" type="string">vasp </i>
  <i name="version" type="string">5.3.5  </i>
  <i name="subversion" type="string">31Mar14 (build Jun 20 2014 13:15:13) complex                          parallel </i>
  <i name="platform" type="string">LinuxIFC </i>
  <i name="date" type="string">2025 12 16 </i>
  <i name="time" type="string">16:28:38 </i>
 </generator>
 <incar>
  <i type="string" name="PREC">accurate</i>
  <i type="int" name="IALGO">    68</i>
  <i type="logical" name="ADDGRID"> T  </i>
  <i type="int" name="NELM">   100</i>
  <i type="int" name="NELMIN">     4</i>
  <i type="int" name="IBRION">     2</i>
  <i name="EDIFF">      0.00000100</i>
  <i name="EDIFFG">     -0.02000000</i>
  <i type="int" name="NSW">    30</i>
  <i type="int" name="ISIF">     3</i>
  <i name="ENCUT">    600.00000000</i>
  <i type="logical" name="LREAL"> F  </i>
  <i type="int" name="ISMEAR">     0</i>
  <i name="SIGMA">      0.10000000</i>
  <i type="logical" name="LWAVE"> F  </i>
  <i type="logical" name="LCHARG"> F  </i>
  <i type="int" name="NELM">   100</i>
 </incar>
 <kpoints>
  <generation param="Auto">
   <i name="subdivisionlength">     20.00000000 </i>
   <v type="int" name="divisions">       7        7        1 </v>
   <v name="usershift">      0.00000000       0.00000000       0.00000000 </v>
   <v name="genvec1">      0.14285714       0.00000000       0.00000000 </v>
   <v name="genvec2">      0.00000000       0.14285714       0.00000000 </v>
   <v name="genvec3">      0.00000000       0.00000000       1.00000000 </v>
   <v name="shift">      0.00000000       0.00000000       0.00000000 </v>
  </generation>
  <varray name="kpointlist" >
   <v>       0.00000000       0.00000000       0.00000000 </v>
   <v>       0.14285714       0.00000000       0.00000000 </v>
   <v>       0.28571429       0.00000000       0.00000000 </v>
   <v>       0.42857143       0.00000000       0.00000000 </v>
   <v>       0.14285714       0.14285714       0.00000000 </v>
   <v>       0.28571429       0.14285714       0.00000000 </v>
   <v>       0.42857143       0.14285714       0.00000000 </v>
   <v>       0.28571429       0.28571429       0.00000000 </v>
  </varray>
  <varray name="weights" >
   <v>       0.02040816 </v>
   <v>       0.12244898 </v>
   <v>       0.12244898 </v>
   <v>       0.12244898 </v>
   <v>       0.12244898 </v>
   <v>       0.24489796 </v>
   <v>       0.12244898 </v>
   <v>       0.12244898 </v>
  </varray>
 </kpoints>
 <parameters>
  <separator name="general" >
   <i type="string" name="SYSTEM">unknown system</i>
   <i type="logical" name="LCOMPAT"> F  </i>
  </separator>
  <separator name="electronic" >
   <i type="string" name="PREC">accura</i>
   <i name="ENMAX">    600.00000000</i>
   <i name="ENAUG">    644.87300000</i>
   <i name="EDIFF">      0.00000100</i>
   <i type="int" name="IALGO">    68</i>
   <i type="int" name="IWAVPR">    11</i>
   <i type="int" name="NBANDS">    44</i>
   <i name="NELECT">     64.00000000</i>
   <i type="int" name="TURBO">     0</i>
   <i type="int" name="IRESTART">     0</i>
   <i type="int" name="NREBOOT">     0</i>
   <i type="int" name="NMIN">     0</i>
   <i name="EREF">      0.00000000</i>
   <separator name="electronic smearing" >
    <i type="int" name="ISMEAR">     0</i>
    <i name="SIGMA">      0.10000000</i>
    <i name="KSPACING">      0.50000000</i>
    <i type="logical" name="KGAMMA"> T  </i>
   </separator>
   <separator name="electronic projectors" >
    <i type="logical" name="LREAL"> F  </i>
    <v name="ROPT">      0.00000000      0.00000000      0.00000000      0.00000000</v>
    <i type="int" name="LMAXPAW">  -100</i>
    <i type="int" name="LMAXMIX">     2</i>
    <i type="logical" name="NLSPLINE"> F  </i>
   </separator>
   <separator name="electronic startup" >
    <i type="int" name="ISTART">     0</i>
    <i type="int" name="ICHARG">     2</i>
    <i type="int" name="INIWAV">     1</i>
   </separator>
   <separator name="electronic spin" >
    <i type="int" name="ISPIN">     1</i>
    <i type="logical" name="LNONCOLLINEAR"> F  </i>
    <v name="MAGMOM">      1.00000000      1.00000000      1.00000000      1.00000000      1.00000000      1.00000000      1.00000000      1.00000000      1.00000000      1.00000000      1.00000000      1.00000000      1.00000000      1.00000000      1.00000000      1.00000000</v>
    <i name="NUPDOWN">     -1.00000000</i>
    <i type="logical" name="LSORBIT"> F  </i>
    <v name="SAXIS">      0.00000000      0.00000000      1.00000000</v>
    <i type="logical" name="LSPIRAL"> F  </i>
    <v name="QSPIRAL">      0.00000000      0.00000000      0.00000000</v>
    <i type="logical" name="LZEROZ"> F  </i>
   </separator>
   <separator name="electronic exchange-correlation" >
    <i type="logical" name="LASPH"> F  </i>
    <i type="logical" name="LMETAGGA"> F  </i>
   </separator>
   <separator name="electronic convergence" >
    <i type="int" name="NELM">   100</i>
    <i type="int" name="NELMDL">     0</i>
    <i type="int" name="NELMIN">     4</i>
    <i name="ENINI">    600.00000000</i>
    <separator name="electronic convergence detail" >
     <i type="logical" name="LDIAG"> T  </i>
     <i type="logical" name="LSUBROT"> F  </i>
     <i name="WEIMIN">      0.00100000</i>
     <i name="EBREAK">      0.00000001</i>
     <i name="DEPER">      0.30000000</i>
     <i type="int" name="NRMM">     4</i>
     <i name="TIME">      0.40000000</i>
    </separator>
   </separator>
   <separator name="electronic mixer" >
    <i name="AMIX">      0.40000000</i>
    <i name="BMIX">      1.00000000</i>
    <i name="AMIN">      0.10000000</i>
    <i name="AMIX_MAG">      1.60000000</i>
    <i name="BMIX_MAG">      1.00000000</i>
    <separator name="electronic mixer details" >
     <i type="int" name="IMIX">     4</i>
     <i type="int" name="MAXMIX">   -45</i>
     <i name="WC">    100.00000000</i>
     <i type="int" name="INIMIX">     1</i>
     <i type="int" name="MIXPRE">     1</i>
     <i type="int" name="MREMOVE">     5</i>
    </separator>
   </separator>
   <separator name="electronic dipolcorrection" >
    <i type="logical" name="LDIPOL"> F  </i>
    <i type="logical" name="LMONO"> F  </i>
    <i type="int" name="IDIPOL">     0</i>
    <i name="EPSILON">      1.00000000</i>
    <v name="DIPOL">   -100.00000000   -100.00000000   -100.00000000</v>
    <i name="EFIELD">      0.00000000</i>
   </separator>
  </separator>
  <separator name="grids" >
   <i type="int" name="NGX">    28</i>
   <i type="int" name="NGY">    28</i>
   <i type="int" name="NGZ">   162</i>
   <i type="int" name="NGXF">    56</i>
   <i type="int" name="NGYF">    56</i>
   <i type="int" name="NGZF">   324</i>
   <i type="logical" name="ADDGRID"> T  </i>
  </separator>
  <separator name="ionic" >
   <i type="int" name="NSW">    30</i>
   <i type="int" name="IBRION">     2</i>
   <i type="int" name="ISIF">     3</i>
   <i name="PSTRESS">      0.00000000</i>
   <i name="EDIFFG">     -0.02000000</i>
   <i type="int" name="NFREE">     1</i>
   <i name="POTIM">      0.50000000</i>
   <i name="SMASS">     -3.00000000</i>
   <i name="SCALEE">      1.00000000</i>
  </separator>
  <separator name="ionic md" >
   <i name="TEBEG">      0.00010000</i>
   <i name="TEEND">      0.00010000</i>
   <i type="int" name="NBLOCK">     1</i>
   <i type="int" name="KBLOCK">    30</i>
   <i type="int" name="NPACO">   256</i>
   <i name="APACO">     16.00000000</i>
  </separator>
  <separator name="symmetry" >
   <i type="int" name="ISYM">     2</i>
   <i name="SYMPREC">      0.00001000</i>
  </separator>
  <separator name="dos" >
   <i type="logical" name="LORBIT"> F  </i>
   <v name="RWIGS">     -1.00000000     -1.00000000     -1.00000000     -1.00000000</v>
   <i type="int" name="NEDOS">   301</i>
   <i name="EMIN">     10.00000000</i>
   <i name="EMAX">    -10.00000000</i>
   <i name="EFERMI">      0.00000000</i>
  </separator>
  <separator name="writing" >
   <i type="int" name="NWRITE">     2</i>
   <i type="logical" name="LWAVE"> F  </i>
   <i type="logical" name="LCHARG"> F  </i>
   <i type="logical" name="LPARD"> F  </i>
   <i type="logical" name="LVTOT"> F  </i>
   <i type="logical" name="LVHAR"> F  </i>
   <i type="logical" name="LELF"> F  </i>
   <i type="logical" name="LOPTICS"> F  </i>
   <v name="STM">      0.00000000      0.00000000      0.00000000      0.00000000      0.00000000      0.00000000      0.00000000</v>
  </separator>
  <separator name="performance" >
   <i type="int" name="NPAR">     4</i>
   <i type="int" name="NSIM">     4</i>
   <i type="int" name="NBLK">    -1</i>
   <i type="logical" name="LPLANE"> T  </i>
   <i type="logical" name="LSCALAPACK"> T  </i>
   <i type="logical" name="LSCAAWARE"> F  </i>
   <i type="logical" name="LSCALU"> F  </i>
   <i type="logical" name="LASYNC"> F  </i>
   <i type="logical" name="LORBITALREAL"> F  </i>
  </separator>
  <separator name="miscellaneous" >
   <i type="int" name="IDIOT">     3</i>
   <i type="logical" name="LMUSIC"> F  </i>
   <v name="POMASS">     28.08500000     26.98100000     12.01100000     14.00100000</v>
   <v name="DARWINR">      0.00000000      0.00000000      0.00000000      0.00000000</v>
   <v name="DARWINV">      1.00000000      1.00000000      1.00000000      1.00000000</v>
   <i type="logical" name="LCORR"> T  </i>
  </separator>
  <i type="logical" name="GGA_COMPAT"> T  </i>
  <i type="logical" name="LBERRY"> F  </i>
  <i type="int" name="ICORELEVEL">     0</i>
  <i type="logical" name="LDAU"> F  </i>
  <i type="int" name="I_CONSTRAINED_M">     0</i>
  <separator name="electronic exchange-correlation" >
   <i type="string" name="GGA">--</i>
   <i type="int" name="VOSKOWN">     0</i>
   <i type="logical" name="LHFCALC"> F  </i>
   <i type="string" name="PRECFOCK"></i>
   <i type="logical" name="LSYMGRAD"> F  </i>
   <i type="logical" name="LHFONE"> F  </i>
   <i type="logical" name="LRHFCALC"> F  </i>
   <i type="logical" name="LTHOMAS"> F  </i>
   <i type="logical" name="LMODELHF"> F  </i>
   <i name="ENCUT4O">     -1.00000000</i>
   <i type="int" name="EXXOEP">     0</i>
   <i type="int" name="FOURORBIT">     0</i>
   <i name="AEXX">      0.00000000</i>
   <i name="HFALPHA">      0.00000000</i>
   <i name="MCALPHA">      0.00000000</i>
   <i name="ALDAX">      1.00000000</i>
   <i name="AGGAX">      1.00000000</i>
   <i name="ALDAC">      1.00000000</i>
   <i name="AGGAC">      1.00000000</i>
   <i type="int" name="NKREDX">     1</i>
   <i type="int" name="NKREDY">     1</i>
   <i type="int" name="NKREDZ">     1</i>
   <i type="logical" name="SHIFTRED"> F  </i>
   <i type="logical" name="ODDONLY"> F  </i>
   <i type="logical" name="EVENONLY"> F  </i>
   <i type="int" name="LMAXFOCK">     0</i>
   <i type="int" name="NMAXFOCKAE">     0</i>
   <i type="logical" name="LFOCKAEDFT"> F  </i>
   <i name="HFSCREEN">      0.00000000</i>
   <i name="HFSCREENC">      0.00000000</i>
   <i type="int" name="NBANDSGWLOW">     0</i>
  </separator>
  <separator name="vdW DFT" >
   <i type="logical" name="LUSE_VDW"> F  </i>
   <i name="Zab_VDW">     -0.84910000</i>
   <i name="PARAM1">      0.12340000</i>
   <i name="PARAM2">      1.00000000</i>
   <i name="PARAM3">      0.00000000</i>
  </separator>
  <separator name="model GW" >
   <i type="int" name="MODEL_GW">     0</i>
   <i name="MODEL_EPS0">      6.36635444</i>
   <i name="MODEL_ALPHA">      1.00000000</i>
  </separator>
  <separator name="linear response parameters" >
   <i type="logical" name="LEPSILON"> F  </i>
   <i type="logical" name="LRPA"> F  </i>
   <i type="logical" name="LNABLA"> F  </i>
   <i type="logical" name="LVEL"> F  </i>
   <i type="int" name="KINTER">     0</i>
   <i name="CSHIFT">      0.10000000</i>
   <i name="OMEGAMAX">     -1.00000000</i>
   <i name="DEG_THRESHOLD">      0.00200000</i>
  </separator>
  <separator name="orbital magnetization" >
   <i type="logical" name="NUCIND"> F  </i>
   <v name="MAGPOS">      0.00000000      0.00000000      0.00000000</v>
   <i type="logical" name="LNICSALL"> T  </i>
   <i type="logical" name="ORBITALMAG"> F  </i>
   <i type="logical" name="LMAGBLOCH"> F  </i>
   <i type="logical" name="LCHIMAG"> F  </i>
   <i type="logical" name="LGAUGE"> T  </i>
   <i type="int" name="MAGATOM">     0</i>
   <v name="MAGDIPOL">      0.00000000      0.00000000      0.00000000</v>
   <v name="AVECCONST">      0.00000000      0.00000000      0.00000000</v>
  </separator>
  <separator name="response functions" >
   <i type="logical" name="LADDER"> F  </i>
   <i type="logical" name="LFXC"> F  </i>
   <i type="logical" name="LHARTREE"> T  </i>
   <i type="int" name="IBSE">     0</i>
   <i type="logical" name="LTCTE"> F  </i>
   <i type="logical" name="LTETE"> F  </i>
   <i type="logical" name="LTRIPLET"> F  </i>
   <i type="logical" name="LFXCEPS"> F  </i>
   <i type="logical" name="LFXHEG"> F  </i>
   <i type="logical" name="L2ORDER"> F  </i>
   <i type="logical" name="LUSEW"> F  </i>
   <i name="ENCUTGW">     -2.00000000</i>
   <i name="ENCUTGWSOFT">     -2.00000000</i>
   <i name="ENCUTLF">     -1.00000000</i>
   <i type="int" name="LMAXMP2">    -1</i>
   <i name="SCISSOR">      0.00000000</i>
   <i type="int" name="NOMEGA">     0</i>
   <i type="int" name="NOMEGAR">     0</i>
   <i type="int" name="NBANDSGW">    -1</i>
   <i type="int" name="NBANDSO">    -1</i>
   <i type="int" name="NBANDSV">    -1</i>
   <i type="int" name="NELM">   100</i>
   <i type="int" name="DIM">     3</i>
   <i type="int" name="ANTIRES">     0</i>
   <i name="OMEGAMAX">    -30.00000000</i>
   <i name="OMEGAMIN">    -30.00000000</i>
   <i name="OMEGATL">   -200.00000000</i>
   <i type="int" name="OMEGAGRID">     0</i>
   <i name="CSHIFT">     -0.10000000</i>
   <i type="logical" name="SELFENERGY"> F  </i>
   <i type="logical" name="LSPECTRAL"> F  </i>
   <i type="logical" name="ODDONLYGW"> F  </i>
   <i type="logical" name="EVENONLYGW"> F  </i>
   <i type="int" name="NKREDLFX">     1</i>
   <i type="int" name="NKREDLFY">     1</i>
   <i type="int" name="NKREDLFZ">     1</i>
   <i type="int" name="MAXMEM">  1800</i>
   <i type="int" name="TELESCOPE">     0</i>
   <i type="int" name="TAUPAR">     1</i>
  </separator>
  <separator name="External order field" >
   <i name="OFIELD_KAPPA">      0.00000000</i>
   <v name="OFIELD_K">      0.00000000      0.00000000      0.00000000</v>
   <i name="OFIELD_Q6_NEAR">      0.00000000</i>
   <i name="OFIELD_Q6_FAR">      0.00000000</i>
   <i name="OFIELD_A">      0.00000000</i>
  </separator>
 </parameters>
 <atominfo>
  <atoms>      16 </atoms>
  <types>       4 </types>
  <array name="atoms" >
   <dimension dim="1">ion</dimension>
   <field type="string">element</field>
   <field type="int">atomtype</field>
   <set>
    <rc><c>Si</c><c>   1</c></rc>
    <rc><c>Si</c><c>   1</c></rc>
    <rc><c>Al</c><c>   2</c></rc>
    <rc><c>Al</c><c>   2</c></rc>
    <rc><c>Al</c><c>   2</c></rc>
    <rc><c>Al</c><c>   2</c></rc>
    <rc><c>Al</c><c>   2</c></rc>
    <rc><c>Al</c><c>   2</c></rc>
    <rc><c>C </c><c>   3</c></rc>
    <rc><c>C </c><c>   3</c></rc>
    <rc><c>N </c><c>   4</c></rc>
    <rc><c>N </c><c>   4</c></rc>
    <rc><c>N </c><c>   4</c></rc>
    <rc><c>N </c><c>   4</c></rc>
    <rc><c>N </c><c>   4</c></rc>
    <rc><c>N </c><c>   4</c></rc>
   </set>
  </array>
  <array name="atomtypes" >
   <dimension dim="1">type</dimension>
   <field type="int">atomspertype</field>
   <field type="string">element</field>
   <field>mass</field>
   <field>valence</field>
   <field type="string">pseudopotential</field>
   <set>
    <rc><c>   2</c><c>Si</c><c>     28.08500000</c><c>      4.00000000</c><c>  PAW_PBE Si 05Jan2001                  </c></rc>
    <rc><c>   6</c><c>Al</c><c>     26.98100000</c><c>      3.00000000</c><c>  PAW_PBE Al 04Jan2001                  </c></rc>
    <rc><c>   2</c><c>C </c><c>     12.01100000</c><c>      4.00000000</c><c>  PAW_PBE C 08Apr2002                   </c></rc>
    <rc><c>   6</c><c>N </c><c>     14.00100000</c><c>      5.00000000</c><c>  PAW_PBE N_s 07Sep2000                 </c></rc>
   </set>
  </array>
 </atominfo>
 <structure name="initialpos" >
  <crystal>
   <varray name="basis" >
    <v>       3.11788114       0.00000000       0.00000000 </v>
    <v>      -1.55894057       2.70016427       0.00000000 </v>
    <v>       0.00000000       0.00000000      20.16553763 </v>
   </varray>
   <i name="volume">    169.76945181 </i>
   <varray name="rec_basis" >
    <v>       0.32073064       0.18517392       0.00000000 </v>
    <v>       0.00000000       0.37034784       0.00000000 </v>
    <v>       0.00000000       0.00000000       0.04958955 </v>
   </varray>
  </crystal>
  <varray name="positions" >
   <v>       0.66666667       0.33333333       0.62670781 </v>
   <v>       0.66666667       0.33333333       0.87650278 </v>
   <v>       0.33333333       0.66666667       0.99813244 </v>
   <v>       0.33333333       0.66666667       0.24853083 </v>
   <v>       0.33333333       0.66666667       0.49904910 </v>
   <v>       0.33333333       0.66666667       0.74870159 </v>
   <v>       0.66666667       0.33333333       0.12338755 </v>
   <v>       0.66666667       0.33333333       0.37365737 </v>
   <v>       0.33333333       0.66666667       0.60013512 </v>
   <v>       0.33333333       0.66666667       0.84988105 </v>
   <v>       0.33333333       0.66666667       0.09208184 </v>
   <v>       0.33333333       0.66666667       0.34241114 </v>
   <v>       0.66666667       0.33333333       0.21727651 </v>
   <v>       0.66666667       0.33333333       0.46753172 </v>
   <v>       0.66666667       0.33333333       0.71810511 </v>
   <v>       0.66666667       0.33333333       0.96790804 </v>
  </varray>
 </structure>
 <calculation>
  <scstep>
   <time name="dav">    0.30    0.30</time>
   <time name="total">    0.38    0.40</time>
   <energy>
    <i name="alphaZ">     52.44208208 </i>
    <i name="ewald">  -2313.66133934 </i>
    <i name="hartreedc">   -419.92349408 </i>
    <i name="XCdc">    -26.31898273 </i>
    <i name="pawpsdc">   2020.12302819 </i>
    <i name="pawaedc">  -1801.45995872 </i>
    <i name="eentropy">     -0.00932548 </i>
    <i name="bandstr">    463.06106701 </i>
    <i name="atom">   2408.94728812 </i>
    <i name="e_fr_energy">    383.20036504 </i>
    <i name="e_wo_entrp">    383.20969052 </i>
    <i name="e_0_energy">    383.20502778 </i>
   </energy>
  </scstep>
  <scstep>
   <time name="dav">    0.33    0.33</time>
   <time name="total">    0.33    0.34</time>
   <energy>
    <i name="e_fr_energy">   -102.65966112 </i>
    <i name="e_wo_entrp">   -102.65966112 </i>
    <i name="e_0_energy">   -102.65966112 </i>
   </energy>
  </scstep>
  <scstep>
   <time name="dav">    0.36    0.36</time>
   <time name="total">    0.36    0.38</time>
   <energy>
    <i name="e_fr_energy">   -136.43805272 </i>
    <i name="e_wo_entrp">   -136.43805272 </i>
    <i name="e_0_energy">   -136.43805272 </i>
   </energy>
  </scstep>
  <scstep>
   <time name="dav">    0.35    0.35</time>
   <time name="total">    0.35    0.36</time>
   <energy>
    <i name="e_fr_energy">   -137.16559591 </i>
    <i name="e_wo_entrp">   -137.16559591 </i>
    <i name="e_0_energy">   -137.16559591 </i>
   </energy>
  </scstep>
  <scstep>
   <time name="dav">    0.35    0.35</time>
   <time name="total">    0.45    0.46</time>
   <energy>
    <i name="e_fr_energy">   -137.18535465 </i>
    <i name="e_wo_entrp">   -137.18535465 </i>
    <i name="e_0_energy">   -137.18535465 </i>
   </energy>
  </scstep>
  <scstep>
   <time name="diag">    0.07    0.07</time>
   <time name="diis">    0.24    0.24</time>
   <time name="orth">    0.01    0.01</time>
   <time name="total">    0.50    0.51</time>
   <energy>
    <i name="e_fr_energy">   -119.17449935 </i>
    <i name="e_wo_entrp">   -119.17449935 </i>
    <i name="e_0_energy">   -119.17449935 </i>
   </energy>
  </scstep>
  <scstep>
   <time name="diag">    0.07    0.07</time>
   <time name="diis">    0.24    0.24</time>
   <time name="orth">    0.01    0.01</time>
   <time name="total">    0.50    0.51</time>
   <energy>
    <i name="e_fr_energy">   -119.34558930 </i>
    <i name="e_wo_entrp">   -119.34558930 </i>
    <i name="e_0_energy">   -119.34558930 </i>
   </energy>
  </scstep>
  <scstep>
   <time name="diag">    0.07    0.07</time>
   <time name="diis">    0.23    0.23</time>
   <time name="orth">    0.01    0.01</time>
   <time name="total">    0.49    0.50</time>
   <energy>
    <i name="e_fr_energy">   -120.41571870 </i>
    <i name="e_wo_entrp">   -120.41571870 </i>
    <i name="e_0_energy">   -120.41571870 </i>
   </energy>
  </scstep>
  <scstep>
   <time name="diag">    0.07    0.07</time>
   <time name="diis">    0.24    0.24</time>
   <time name="orth">    0.01    0.01</time>
   <time name="total">    0.50    0.51</time>
   <energy>
    <i name="e_fr_energy">   -119.52698067 </i>
    <i name="e_wo_entrp">   -119.52698067 </i>
    <i name="e_0_energy">   -119.52698067 </i>
   </energy>
  </scstep>
  <scstep>
   <time name="diag">    0.07    0.07</time>
   <time name="diis">    0.23    0.23</time>
   <time name="orth">    0.01    0.01</time>
   <time name="total">    0.50    0.51</time>
   <energy>
    <i name="e_fr_energy">   -119.74303457 </i>
    <i name="e_wo_entrp">   -119.74303457 </i>
    <i name="e_0_energy">   -119.74303457 </i>
   </energy>
  </scstep>
  <scstep>
   <time name="diag">    0.07    0.07</time>
   <time name="diis">    0.24    0.24</time>
   <time name="orth">    0.01    0.01</time>
   <time name="total">    0.49    0.51</time>
   <energy>
    <i name="e_fr_energy">   -119.43303923 </i>
    <i name="e_wo_entrp">   -119.43303923 </i>
    <i name="e_0_energy">   -119.43303923 </i>
   </energy>
  </scstep>
  <scstep>
   <time name="diag">    0.07    0.07</time>
   <time name="diis">    0.22    0.22</time>
   <time name="orth">    0.01    0.01</time>
   <time name="total">    0.48    0.49</time>
   <energy>
    <i name="e_fr_energy">   -119.15134176 </i>
    <i name="e_wo_entrp">   -119.15134176 </i>
    <i name="e_0_energy">   -119.15134176 </i>
   </energy>
  </scstep>
  <scstep>
   <time name="diag">    0.07    0.07</time>
   <time name="diis">    0.23    0.23</time>
   <time name="orth">    0.01    0.01</time>
   <time name="total">    0.49    0.50</time>
   <energy>
    <i name="e_fr_energy">   -119.14546218 </i>
    <i name="e_wo_entrp">   -119.14546218 </i>
    <i name="e_0_energy">   -119.14546218 </i>
   </energy>
  </scstep>
  <scstep>
   <time name="diag">    0.07    0.07</time>
   <time name="diis">    0.23    0.23</time>
   <time name="orth">    0.01    0.01</time>
   <time name="total">    0.48    0.50</time>
   <energy>
    <i name="e_fr_energy">   -119.15203233 </i>
    <i name="e_wo_entrp">   -119.15203233 </i>
    <i name="e_0_energy">   -119.15203233 </i>
   </energy>
  </scstep>
  <scstep>
   <time name="diag">    0.07    0.07</time>
   <time name="diis">    0.23    0.23</time>
   <time name="orth">    0.01    0.01</time>
   <time name="total">    0.49    0.51</time>
   <energy>
    <i name="e_fr_energy">   -119.14705932 </i>
    <i name="e_wo_entrp">   -119.14705932 </i>
    <i name="e_0_energy">   -119.14705932 </i>
   </energy>
  </scstep>
  <scstep>
   <time name="diag">    0.07    0.07</time>
   <time name="diis">    0.23    0.23</time>
   <time name="orth">    0.01    0.01</time>
   <time name="total">    0.49    0.50</time>
   <energy>
    <i name="e_fr_energy">   -119.14664100 </i>
    <i name="e_wo_entrp">   -119.14664100 </i>
    <i name="e_0_energy">   -119.14664100 </i>
   </energy>
  </scstep>
  <scstep>
   <time name="diag">    0.07    0.07</time>
   <time name="diis">    0.23    0.23</time>
   <time name="orth">    0.01    0.01</time>
   <time name="total">    0.49    0.50</time>
   <energy>
    <i name="e_fr_energy">   -119.14662000 </i>
    <i name="e_wo_entrp">   -119.14662000 </i>
    <i name="e_0_energy">   -119.14662000 </i>
   </energy>
  </scstep>
  <scstep>
   <time name="diag">    0.07    0.07</time>
   <time name="diis">    0.23    0.23</time>
   <time name="orth">    0.01    0.01</time>
   <time name="total">    0.48    0.50</time>
   <energy>
    <i name="e_fr_energy">   -119.14661894 </i>
    <i name="e_wo_entrp">   -119.14661894 </i>
    <i name="e_0_energy">   -119.14661894 </i>
   </energy>
  </scstep>
  <scstep>
   <time name="diag">    0.07    0.07</time>
   <time name="diis">    0.22    0.22</time>
   <time name="orth">    0.01    0.01</time>
   <time name="total">    0.37    0.39</time>
   <energy>
    <i name="alphaZ">     52.44208208 </i>
    <i name="ewald">  -2313.66133934 </i>
    <i name="hartreedc">   -548.11644083 </i>
    <i name="XCdc">    -15.66057144 </i>
    <i name="pawpsdc">  11086.34150545 </i>
    <i name="pawaedc"> -10873.57379491 </i>
    <i name="eentropy">      0.00000000 </i>
    <i name="bandstr">     84.13465193 </i>
    <i name="atom">   2408.94728812 </i>
    <i name="e_fr_energy">   -119.14661894 </i>
    <i name="e_wo_entrp">   -119.14661894 </i>
    <i name="e_0_energy">   -119.14661894 </i>
   </energy>
  </scstep>
  <structure>
   <crystal>
    <varray name="basis" >
     <v>       3.11788114       0.00000000       0.00000000 </v>
     <v>      -1.55894057       2.70016427       0.00000000 </v>
     <v>       0.00000000       0.00000000      20.16553763 </v>
    </varray>
    <i name="volume">    169.76945181 </i>
    <varray name="rec_basis" >
     <v>       0.32073064       0.18517392       0.00000000 </v>
     <v>       0.00000000       0.37034784       0.00000000 </v>
     <v>       0.00000000       0.00000000       0.04958955 </v>
    </varray>
   </crystal>
   <varray name="positions" >
    <v>       0.66666667       0.33333333       0.62670781 </v>
    <v>       0.66666667       0.33333333       0.87650278 </v>
    <v>       0.33333333       0.66666667       0.99813244 </v>
    <v>       0.33333333       0.66666667       0.24853083 </v>
    <v>       0.33333333       0.66666667       0.49904910 </v>
    <v>       0.33333333       0.66666667       0.74870159 </v>
    <v>       0.66666667       0.33333333       0.12338755 </v>
    <v>       0.66666667       0.33333333       0.37365737 </v>
    <v>       0.33333333       0.66666667       0.60013512 </v>
    <v>       0.33333333       0.66666667       0.84988105 </v>
    <v>       0.33333333       0.66666667       0.09208184 </v>
    <v>       0.33333333       0.66666667       0.34241114 </v>
    <v>       0.66666667       0.33333333       0.21727651 </v>
    <v>       0.66666667       0.33333333       0.46753172 </v>
    <v>       0.66666667       0.33333333       0.71810511 </v>
    <v>       0.66666667       0.33333333       0.96790804 </v>
   </varray>
  </structure>
  <varray name="forces" >
   <v>       0.00000000       0.00000000       0.00907111 </v>
   <v>       0.00000000       0.00000000       0.00497056 </v>
   <v>       0.00000000       0.00000000       0.00202570 </v>
   <v>       0.00000000       0.00000000      -0.01461267 </v>
   <v>       0.00000000       0.00000000       0.00433226 </v>
   <v>       0.00000000       0.00000000       0.00385798 </v>
   <v>       0.00000000       0.00000000      -0.00512041 </v>
   <v>       0.00000000       0.00000000      -0.01825576 </v>
   <v>       0.00000000       0.00000000      -0.00047725 </v>
   <v>       0.00000000       0.00000000      -0.00853402 </v>
   <v>       0.00000000       0.00000000       0.00674895 </v>
   <v>       0.00000000       0.00000000       0.01376317 </v>
   <v>       0.00000000       0.00000000       0.00995489 </v>
   <v>       0.00000000       0.00000000       0.00270253 </v>
   <v>       0.00000000       0.00000000      -0.00240250 </v>
   <v>       0.00000000       0.00000000      -0.00802453 </v>
  </varray>
  <varray name="stress" >
   <v>      -0.11156711       0.00000000       0.00000000 </v>
   <v>       0.00000000      -0.11156711       0.00000000 </v>
   <v>       0.00000000       0.00000000       0.20560099 </v>
  </varray>
  <energy>
   <i name="e_fr_energy">   -119.14661894 </i>
   <i name="e_wo_entrp">   -119.14661894 </i>
   <i name="e_0_energy">      0.00000000 </i>
  </energy>
  <time name="totalsc">   10.52   10.81</time>
  <eigenvalues>
   <array>
    <dimension dim="1">band</dimension>
    <dimension dim="2">kpoint</dimension>
    <dimension dim="3">spin</dimension>
    <field>eigene</field>
    <field>occ</field>
    <set>
     <set comment="spin 1">
      <set comment="kpoint 1">
       <r>   -9.2050    1.0000 </r>
       <r>   -8.5180    1.0000 </r>
       <r>   -8.4407    1.0000 </r>
       <r>   -7.9240    1.0000 </r>
       <r>   -7.3826    1.0000 </r>
       <r>   -6.7302    1.0000 </r>
       <r>   -5.8392    1.0000 </r>
       <r>   -5.1034    1.0000 </r>
       <r>   -0.0222    1.0000 </r>
       <r>    1.0555    1.0000 </r>
       <r>    1.1893    1.0000 </r>
       <r>    2.9372    1.0000 </r>
       <r>    3.3237    1.0000 </r>
       <r>    4.9752    1.0000 </r>
       <r>    4.9752    1.0000 </r>
       <r>    5.3086    1.0000 </r>
       <r>    5.4504    1.0000 </r>
       <r>    5.5608    1.0000 </r>
       <r>    5.5608    1.0000 </r>
       <r>    5.5856    1.0000 </r>
       <r>    5.5856    1.0000 </r>
       <r>    5.8995    1.0000 </r>
       <r>    5.8995    1.0000 </r>
       <r>    6.1877    1.0000 </r>
       <r>    6.1877    1.0000 </r>
       <r>    6.5189    1.0000 </r>
       <r>    6.5189    1.0000 </r>
       <r>    6.8784    1.0000 </r>
       <r>    6.8861    1.0000 </r>
       <r>    6.8861    1.0000 </r>
       <r>    7.4509    1.0000 </r>
       <r>    7.4509    1.0000 </r>
       <r>   10.7312    0.0000 </r>
       <r>   11.7972    0.0000 </r>
       <r>   11.8846    0.0000 </r>
       <r>   12.6021    0.0000 </r>
       <r>   12.9549    0.0000 </r>
       <r>   13.2925    0.0000 </r>
       <r>   13.4254    0.0000 </r>
       <r>   13.9576    0.0000 </r>
       <r>   14.6889    0.0000 </r>
       <r>   15.0283    0.0000 </r>
       <r>   15.2360    0.0000 </r>
       <r>   15.7577    0.0000 </r>
      </set>
      <set comment="kpoint 2">
       <r>   -8.9615    1.0000 </r>
       <r>   -8.2795    1.0000 </r>
       <r>   -8.2016    1.0000 </r>
       <r>   -7.6984    1.0000 </r>
       <r>   -7.1774    1.0000 </r>
       <r>   -6.5570    1.0000 </r>
       <r>   -5.5460    1.0000 </r>
       <r>   -4.8291    1.0000 </r>
       <r>    0.2558    1.0000 </r>
       <r>    1.2559    1.0000 </r>
       <r>    1.4081    1.0000 </r>
       <r>    2.9195    1.0000 </r>
       <r>    3.1205    1.0000 </r>
       <r>    3.9545    1.0000 </r>
       <r>    4.3961    1.0000 </r>
       <r>    4.5954    1.0000 </r>
       <r>    4.7136    1.0000 </r>
       <r>    4.8460    1.0000 </r>
       <r>    5.0361    1.0000 </r>
       <r>    5.3090    1.0000 </r>
       <r>    5.3548    1.0000 </r>
       <r>    5.3574    1.0000 </r>
       <r>    5.5835    1.0000 </r>
       <r>    5.6888    1.0000 </r>
       <r>    5.6991    1.0000 </r>
       <r>    6.0070    1.0000 </r>
       <r>    6.0156    1.0000 </r>
       <r>    6.3493    1.0000 </r>
       <r>    6.3737    1.0000 </r>
       <r>    6.5592    1.0000 </r>
       <r>    6.9081    1.0000 </r>
       <r>    7.1383    1.0000 </r>
       <r>   11.6002    0.0000 </r>
       <r>   12.3413    0.0000 </r>
       <r>   12.4910    0.0000 </r>
       <r>   13.1772    0.0000 </r>
       <r>   13.4430    0.0000 </r>
       <r>   13.5988    0.0000 </r>
       <r>   13.9342    0.0000 </r>
       <r>   14.1591    0.0000 </r>
       <r>   14.8598    0.0000 </r>
       <r>   15.1240    0.0000 </r>
       <r>   15.3505    0.0000 </r>
       <r>   15.7135    0.0000 </r>
      </set>
      <set comment="kpoint 3">
       <r>   -8.3204    1.0000 </r>
       <r>   -7.6619    1.0000 </r>
       <r>   -7.5713    1.0000 </r>
       <r>   -7.1153    1.0000 </r>
       <r>   -6.6717    1.0000 </r>
       <r>   -6.1488    1.0000 </r>
       <r>   -4.7138    1.0000 </r>
       <r>   -4.0573    1.0000 </r>
       <r>    0.8209    1.0000 </r>
       <r>    1.2688    1.0000 </r>
       <r>    1.7220    1.0000 </r>
       <r>    2.0755    1.0000 </r>
       <r>    2.1838    1.0000 </r>
       <r>    2.2472    1.0000 </r>
       <r>    2.8514    1.0000 </r>
       <r>    3.0705    1.0000 </r>
       <r>    3.2905    1.0000 </r>
       <r>    3.5088    1.0000 </r>
       <r>    3.8778    1.0000 </r>
       <r>    4.2038    1.0000 </r>
       <r>    4.5282    1.0000 </r>
       <r>    4.8069    1.0000 </r>
       <r>    4.8940    1.0000 </r>
       <r>    4.9621    1.0000 </r>
       <r>    5.2834    1.0000 </r>
       <r>    5.6232    1.0000 </r>
       <r>    5.6552    1.0000 </r>
       <r>    5.9747    1.0000 </r>
       <r>    6.0291    1.0000 </r>
       <r>    6.0561    1.0000 </r>
       <r>    6.5927    1.0000 </r>
       <r>    6.6674    1.0000 </r>
       <r>   11.7069    0.0000 </r>
       <r>   11.8389    0.0000 </r>
       <r>   12.3025    0.0000 </r>
       <r>   12.4001    0.0000 </r>
       <r>   12.5680    0.0000 </r>
       <r>   13.0048    0.0000 </r>
       <r>   13.3682    0.0000 </r>
       <r>   13.6742    0.0000 </r>
       <r>   14.1501    0.0000 </r>
       <r>   14.8160    0.0000 </r>
       <r>   15.1988    0.0000 </r>
       <r>   15.6778    0.0000 </r>
      </set>
      <set comment="kpoint 4">
       <r>   -7.6468    1.0000 </r>
       <r>   -7.0436    1.0000 </r>
       <r>   -6.8982    1.0000 </r>
       <r>   -6.5355    1.0000 </r>
       <r>   -6.2186    1.0000 </r>
       <r>   -5.8379    1.0000 </r>
       <r>   -3.6399    1.0000 </r>
       <r>   -3.0657    1.0000 </r>
       <r>   -0.2641    1.0000 </r>
       <r>    0.3005    1.0000 </r>
       <r>    0.6711    1.0000 </r>
       <r>    1.0081    1.0000 </r>
       <r>    1.2551    1.0000 </r>
       <r>    1.6986    1.0000 </r>
       <r>    1.7545    1.0000 </r>
       <r>    2.3756    1.0000 </r>
       <r>    2.5132    1.0000 </r>
       <r>    3.4480    1.0000 </r>
       <r>    3.5901    1.0000 </r>
       <r>    3.8494    1.0000 </r>
       <r>    4.4543    1.0000 </r>
       <r>    4.5524    1.0000 </r>
       <r>    4.5687    1.0000 </r>
       <r>    4.9268    1.0000 </r>
       <r>    4.9825    1.0000 </r>
       <r>    5.2817    1.0000 </r>
       <r>    5.3253    1.0000 </r>
       <r>    5.6257    1.0000 </r>
       <r>    5.7360    1.0000 </r>
       <r>    5.7967    1.0000 </r>
       <r>    6.2482    1.0000 </r>
       <r>    6.3427    1.0000 </r>
       <r>   10.7689    0.0000 </r>
       <r>   11.2116    0.0000 </r>
       <r>   11.3847    0.0000 </r>
       <r>   11.6344    0.0000 </r>
       <r>   11.7317    0.0000 </r>
       <r>   12.1190    0.0000 </r>
       <r>   12.2854    0.0000 </r>
       <r>   12.4900    0.0000 </r>
       <r>   14.2326    0.0000 </r>
       <r>   14.5329    0.0000 </r>
       <r>   15.1101    0.0000 </r>
       <r>   15.3031    0.0000 </r>
      </set>
      <set comment="kpoint 5">
       <r>   -8.5164    1.0000 </r>
       <r>   -7.8486    1.0000 </r>
       <r>   -7.7643    1.0000 </r>
       <r>   -7.2913    1.0000 </r>
       <r>   -6.8195    1.0000 </r>
       <r>   -6.2638    1.0000 </r>
       <r>   -4.9805    1.0000 </r>
       <r>   -4.3032    1.0000 </r>
       <r>    0.7258    1.0000 </r>
       <r>    1.4602    1.0000 </r>
       <r>    1.7215    1.0000 </r>
       <r>    2.4520    1.0000 </r>
       <r>    2.5824    1.0000 </r>
       <r>    2.9238    1.0000 </r>
       <r>    3.3551    1.0000 </r>
       <r>    3.4139    1.0000 </r>
       <r>    3.7704    1.0000 </r>
       <r>    3.9218    1.0000 </r>
       <r>    4.0366    1.0000 </r>
       <r>    4.3305    1.0000 </r>
       <r>    4.6828    1.0000 </r>
       <r>    4.7803    1.0000 </r>
       <r>    5.0033    1.0000 </r>
       <r>    5.0749    1.0000 </r>
       <r>    5.2986    1.0000 </r>
       <r>    5.4129    1.0000 </r>
       <r>    5.6865    1.0000 </r>
       <r>    5.8094    1.0000 </r>
       <r>    5.8936    1.0000 </r>
       <r>    6.1413    1.0000 </r>
       <r>    6.3460    1.0000 </r>
       <r>    6.8189    1.0000 </r>
       <r>   12.3616    0.0000 </r>
       <r>   12.7822    0.0000 </r>
       <r>   12.9603    0.0000 </r>
       <r>   13.2300    0.0000 </r>
       <r>   13.4123    0.0000 </r>
       <r>   13.6548    0.0000 </r>
       <r>   13.9319    0.0000 </r>
       <r>   14.4105    0.0000 </r>
       <r>   14.4392    0.0000 </r>
       <r>   14.8330    0.0000 </r>
       <r>   15.1237    0.0000 </r>
       <r>   15.2303    0.0000 </r>
      </set>
      <set comment="kpoint 6">
       <r>   -7.8315    1.0000 </r>
       <r>   -7.2069    1.0000 </r>
       <r>   -7.0855    1.0000 </r>
       <r>   -6.6857    1.0000 </r>
       <r>   -6.3268    1.0000 </r>
       <r>   -5.8951    1.0000 </r>
       <r>   -3.9772    1.0000 </r>
       <r>   -3.3760    1.0000 </r>
       <r>    0.5074    1.0000 </r>
       <r>    0.9681    1.0000 </r>
       <r>    1.3465    1.0000 </r>
       <r>    1.5972    1.0000 </r>
       <r>    1.7993    1.0000 </r>
       <r>    2.0718    1.0000 </r>
       <r>    2.1774    1.0000 </r>
       <r>    2.3436    1.0000 </r>
       <r>    2.7654    1.0000 </r>
       <r>    3.1908    1.0000 </r>
       <r>    3.4402    1.0000 </r>
       <r>    3.5647    1.0000 </r>
       <r>    3.9340    1.0000 </r>
       <r>    4.0447    1.0000 </r>
       <r>    4.2565    1.0000 </r>
       <r>    4.5356    1.0000 </r>
       <r>    4.8314    1.0000 </r>
       <r>    5.0158    1.0000 </r>
       <r>    5.0471    1.0000 </r>
       <r>    5.3169    1.0000 </r>
       <r>    5.4992    1.0000 </r>
       <r>    5.6241    1.0000 </r>
       <r>    6.0437    1.0000 </r>
       <r>    6.5848    1.0000 </r>
       <r>   11.8095    0.0000 </r>
       <r>   12.2046    0.0000 </r>
       <r>   12.4403    0.0000 </r>
       <r>   12.5363    0.0000 </r>
       <r>   12.7600    0.0000 </r>
       <r>   12.9408    0.0000 </r>
       <r>   13.2682    0.0000 </r>
       <r>   13.5192    0.0000 </r>
       <r>   14.3056    0.0000 </r>
       <r>   14.6946    0.0000 </r>
       <r>   14.9656    0.0000 </r>
       <r>   15.4826    0.0000 </r>
      </set>
      <set comment="kpoint 7">
       <r>   -7.4464    1.0000 </r>
       <r>   -6.8659    1.0000 </r>
       <r>   -6.6914    1.0000 </r>
       <r>   -6.3732    1.0000 </r>
       <r>   -6.0857    1.0000 </r>
       <r>   -5.7600    1.0000 </r>
       <r>   -3.2434    1.0000 </r>
       <r>   -2.6806    1.0000 </r>
       <r>   -0.3910    1.0000 </r>
       <r>    0.2402    1.0000 </r>
       <r>    0.6518    1.0000 </r>
       <r>    1.0179    1.0000 </r>
       <r>    1.2887    1.0000 </r>
       <r>    1.6533    1.0000 </r>
       <r>    1.7325    1.0000 </r>
       <r>    2.3913    1.0000 </r>
       <r>    2.6924    1.0000 </r>
       <r>    2.8925    1.0000 </r>
       <r>    3.4039    1.0000 </r>
       <r>    3.4457    1.0000 </r>
       <r>    3.7551    1.0000 </r>
       <r>    3.9324    1.0000 </r>
       <r>    4.2211    1.0000 </r>
       <r>    4.2930    1.0000 </r>
       <r>    4.6352    1.0000 </r>
       <r>    4.6839    1.0000 </r>
       <r>    4.8545    1.0000 </r>
       <r>    5.1397    1.0000 </r>
       <r>    5.3291    1.0000 </r>
       <r>    5.5062    1.0000 </r>
       <r>    5.7579    1.0000 </r>
       <r>    6.5265    1.0000 </r>
       <r>   11.2857    0.0000 </r>
       <r>   11.6296    0.0000 </r>
       <r>   11.8415    0.0000 </r>
       <r>   12.0914    0.0000 </r>
       <r>   12.4761    0.0000 </r>
       <r>   12.5452    0.0000 </r>
       <r>   13.0222    0.0000 </r>
       <r>   13.3306    0.0000 </r>
       <r>   14.2968    0.0000 </r>
       <r>   15.0218    0.0000 </r>
       <r>   15.2246    0.0000 </r>
       <r>   15.5525    0.0000 </r>
      </set>
      <set comment="kpoint 8">
       <r>   -7.3740    1.0000 </r>
       <r>   -6.7993    1.0000 </r>
       <r>   -6.6166    1.0000 </r>
       <r>   -6.3103    1.0000 </r>
       <r>   -6.0270    1.0000 </r>
       <r>   -5.7159    1.0000 </r>
       <r>   -3.1058    1.0000 </r>
       <r>   -2.5435    1.0000 </r>
       <r>    0.0735    1.0000 </r>
       <r>    0.7617    1.0000 </r>
       <r>    1.0494    1.0000 </r>
       <r>    1.3536    1.0000 </r>
       <r>    1.6333    1.0000 </r>
       <r>    1.7010    1.0000 </r>
       <r>    2.0034    1.0000 </r>
       <r>    2.1357    1.0000 </r>
       <r>    2.2313    1.0000 </r>
       <r>    2.5337    1.0000 </r>
       <r>    2.7948    1.0000 </r>
       <r>    3.0264    1.0000 </r>
       <r>    3.1310    1.0000 </r>
       <r>    3.2363    1.0000 </r>
       <r>    3.6926    1.0000 </r>
       <r>    3.8558    1.0000 </r>
       <r>    4.1106    1.0000 </r>
       <r>    4.2389    1.0000 </r>
       <r>    4.4116    1.0000 </r>
       <r>    4.6876    1.0000 </r>
       <r>    5.2147    1.0000 </r>
       <r>    5.5152    1.0000 </r>
       <r>    5.8326    1.0000 </r>
       <r>    6.6780    1.0000 </r>
       <r>   11.2746    0.0000 </r>
       <r>   12.0103    0.0000 </r>
       <r>   12.1702    0.0000 </r>
       <r>   12.5615    0.0000 </r>
       <r>   13.3910    0.0000 </r>
       <r>   13.7016    0.0000 </r>
       <r>   13.8998    0.0000 </r>
       <r>   14.2504    0.0000 </r>
       <r>   14.7135    0.0000 </r>
       <r>   14.8172    0.0000 </r>
       <r>   15.0160    0.0000 </r>
       <r>   15.1845    0.0000 </r>
      </set>
     </set>
    </set>
   </array>
  </eigenvalues>
  <separator name="orbital magnetization" >
   <v name="MAGDIPOLOUT">      0.00000000      0.00000000      0.00000000</v>
  </separator>
  <dos>
   <i name="efermi">      7.94579828 </i>
   <total>
    <array>
     <dimension dim="1">gridpoints</dimension>
     <dimension dim="2">spin</dimension>
     <field>energy</field>
     <field>total</field>
     <field>integrated</field>
     <set>
      <set comment="spin 1">
       <r>   -10.4531     0.0000     0.0000 </r>
       <r>   -10.3616     0.0000     0.0000 </r>
       <r>   -10.2701     0.0000     0.0000 </r>
       <r>   -10.1786     0.0000     0.0000 </r>
       <r>   -10.0870     0.0000     0.0000 </r>
       <r>    -9.9955     0.0000     0.0000 </r>
       <r>    -9.9040     0.0000     0.0000 </r>
       <r>    -9.8124     0.0000     0.0000 </r>
       <r>    -9.7209     0.0000     0.0000 </r>
       <r>    -9.6294     0.0000     0.0000 </r>
       <r>    -9.5378     0.0000     0.0000 </r>
       <r>    -9.4463     0.0001     0.0000 </r>
       <r>    -9.3548     0.0075     0.0007 </r>
       <r>    -9.2633     0.0838     0.0084 </r>
       <r>    -9.1717     0.2162     0.0282 </r>
       <r>    -9.0802     0.2456     0.0506 </r>
       <r>    -8.9887     0.8292     0.1265 </r>
       <r>    -8.8971     1.2535     0.2413 </r>
       <r>    -8.8056     0.4489     0.2824 </r>
       <r>    -8.7141     0.0443     0.2864 </r>
       <r>    -8.6225     0.2041     0.3051 </r>
       <r>    -8.5310     1.1468     0.4101 </r>
       <r>    -8.4395     1.7153     0.5671 </r>
       <r>    -8.3480     1.8537     0.7367 </r>
       <r>    -8.2564     3.0897     1.0195 </r>
       <r>    -8.1649     2.5913     1.2567 </r>
       <r>    -8.0734     0.8984     1.3389 </r>
       <r>    -7.9818     0.3490     1.3709 </r>
       <r>    -7.8903     1.9817     1.5523 </r>
       <r>    -7.7988     5.0068     2.0105 </r>
       <r>    -7.7073     5.5648     2.5199 </r>
       <r>    -7.6157     5.1426     2.9906 </r>
       <r>    -7.5242     3.4375     3.3052 </r>
       <r>    -7.4327     2.6443     3.5472 </r>
       <r>    -7.3411     3.2695     3.8465 </r>
       <r>    -7.2496     4.1551     4.2268 </r>
       <r>    -7.1581     6.1301     4.7879 </r>
       <r>    -7.0665     6.7590     5.4066 </r>
       <r>    -6.9750     4.4574     5.8145 </r>
       <r>    -6.8835     3.6656     6.1501 </r>
       <r>    -6.7920     5.3317     6.6381 </r>
       <r>    -6.7004     6.6217     7.2442 </r>
       <r>    -6.6089     7.3480     7.9167 </r>
       <r>    -6.5174     5.0771     8.3814 </r>
       <r>    -6.4258     3.0308     8.6588 </r>
       <r>    -6.3343     4.9382     9.1108 </r>
       <r>    -6.2428     6.5532     9.7107 </r>
       <r>    -6.1512     4.8135    10.1512 </r>
       <r>    -6.0597     3.7917    10.4983 </r>
       <r>    -5.9682     3.2566    10.7964 </r>
       <r>    -5.8767     4.0263    11.1649 </r>
       <r>    -5.7851     4.5940    11.5854 </r>
       <r>    -5.6936     3.4777    11.9037 </r>
       <r>    -5.6021     1.8914    12.0768 </r>
       <r>    -5.5105     1.4530    12.2098 </r>
       <r>    -5.4190     0.7324    12.2768 </r>
       <r>    -5.3275     0.0947    12.2855 </r>
       <r>    -5.2359     0.0163    12.2870 </r>
       <r>    -5.1444     0.1386    12.2997 </r>
       <r>    -5.0529     0.5986    12.3545 </r>
       <r>    -4.9614     1.3905    12.4817 </r>
       <r>    -4.8698     1.6143    12.6295 </r>
       <r>    -4.7783     1.8872    12.8022 </r>
       <r>    -4.6868     1.8308    12.9698 </r>
       <r>    -4.5952     0.8723    13.0496 </r>
       <r>    -4.5037     0.1286    13.0614 </r>
       <r>    -4.4122     0.1627    13.0763 </r>
       <r>    -4.3206     0.9124    13.1598 </r>
       <r>    -4.2291     1.2251    13.2720 </r>
       <r>    -4.1376     0.7525    13.3408 </r>
       <r>    -4.0461     2.0100    13.5248 </r>
       <r>    -3.9545     3.4389    13.8396 </r>
       <r>    -3.8630     1.9082    14.0142 </r>
       <r>    -3.7715     0.3646    14.0476 </r>
       <r>    -3.6799     0.6898    14.1107 </r>
       <r>    -3.5884     1.2945    14.2292 </r>
       <r>    -3.4969     0.7934    14.3018 </r>
       <r>    -3.4053     1.6654    14.4543 </r>
       <r>    -3.3138     2.9262    14.7221 </r>
       <r>    -3.2223     2.3241    14.9348 </r>
       <r>    -3.1308     2.2320    15.1391 </r>
       <r>    -3.0392     2.6385    15.3806 </r>
       <r>    -2.9477     1.2546    15.4955 </r>
       <r>    -2.8562     0.1737    15.5114 </r>
       <r>    -2.7646     0.3035    15.5392 </r>
       <r>    -2.6731     1.2240    15.6512 </r>
       <r>    -2.5816     1.7093    15.8076 </r>
       <r>    -2.4900     1.4908    15.9441 </r>
       <r>    -2.3985     0.5568    15.9951 </r>
       <r>    -2.3070     0.0529    15.9999 </r>
       <r>    -2.2155     0.0011    16.0000 </r>
       <r>    -2.1239     0.0000    16.0000 </r>
       <r>    -2.0324     0.0000    16.0000 </r>
       <r>    -1.9409     0.0000    16.0000 </r>
       <r>    -1.8493     0.0000    16.0000 </r>
       <r>    -1.7578     0.0000    16.0000 </r>
       <r>    -1.6663     0.0000    16.0000 </r>
       <r>    -1.5747     0.0000    16.0000 </r>
       <r>    -1.4832     0.0000    16.0000 </r>
       <r>    -1.3917     0.0000    16.0000 </r>
       <r>    -1.3002     0.0000    16.0000 </r>
       <r>    -1.2086     0.0000    16.0000 </r>
       <r>    -1.1171     0.0000    16.0000 </r>
       <r>    -1.0256     0.0000    16.0000 </r>
       <r>    -0.9340     0.0000    16.0000 </r>
       <r>    -0.8425     0.0000    16.0000 </r>
       <r>    -0.7510     0.0000    16.0000 </r>
       <r>    -0.6594     0.0002    16.0000 </r>
       <r>    -0.5679     0.0164    16.0015 </r>
       <r>    -0.4764     0.2910    16.0282 </r>
       <r>    -0.3849     1.2402    16.1417 </r>
       <r>    -0.2933     1.8131    16.3076 </r>
       <r>    -0.2018     1.4769    16.4428 </r>
       <r>    -0.1103     0.5337    16.4917 </r>
       <r>    -0.0187     0.4683    16.5345 </r>
       <r>     0.0728     1.2837    16.6520 </r>
       <r>     0.1643     1.7943    16.8163 </r>
       <r>     0.2559     3.1586    17.1054 </r>
       <r>     0.3474     3.3726    17.4140 </r>
       <r>     0.4389     1.8598    17.5843 </r>
       <r>     0.5304     2.7362    17.8347 </r>
       <r>     0.6220     3.3379    18.1402 </r>
       <r>     0.7135     4.5519    18.5569 </r>
       <r>     0.8050     4.5923    18.9772 </r>
       <r>     0.8966     3.3708    19.2857 </r>
       <r>     0.9881     5.1101    19.7535 </r>
       <r>     1.0796     5.8254    20.2867 </r>
       <r>     1.1712     3.2064    20.5801 </r>
       <r>     1.2627     5.4353    21.0776 </r>
       <r>     1.3542     8.5425    21.8595 </r>
       <r>     1.4457     6.5566    22.4596 </r>
       <r>     1.5373     4.0371    22.8292 </r>
       <r>     1.6288     6.4715    23.4215 </r>
       <r>     1.7203    10.8529    24.4149 </r>
       <r>     1.8119     9.6558    25.2986 </r>
       <r>     1.9034     3.8896    25.6547 </r>
       <r>     1.9949     2.5808    25.8909 </r>
       <r>     2.0865     6.0898    26.4483 </r>
       <r>     2.1780     8.6534    27.2403 </r>
       <r>     2.2695     8.0209    27.9745 </r>
       <r>     2.3610     6.8797    28.6042 </r>
       <r>     2.4526     6.5104    29.2001 </r>
       <r>     2.5441     5.3945    29.6938 </r>
       <r>     2.6356     4.0865    30.0679 </r>
       <r>     2.7272     4.1030    30.4434 </r>
       <r>     2.8187     6.1326    31.0047 </r>
       <r>     2.9102     6.7669    31.6241 </r>
       <r>     3.0018     5.6664    32.1428 </r>
       <r>     3.0933     5.4148    32.6384 </r>
       <r>     3.1848     6.6992    33.2516 </r>
       <r>     3.2763     6.3399    33.8318 </r>
       <r>     3.3679     6.7666    34.4512 </r>
       <r>     3.4594     9.8917    35.3566 </r>
       <r>     3.5509     9.0227    36.1824 </r>
       <r>     3.6425     5.9233    36.7246 </r>
       <r>     3.7340     4.5572    37.1417 </r>
       <r>     3.8255     6.2684    37.7154 </r>
       <r>     3.9171     9.6184    38.5958 </r>
       <r>     4.0086    10.1076    39.5210 </r>
       <r>     4.1001     7.3002    40.1891 </r>
       <r>     4.1916     6.3327    40.7688 </r>
       <r>     4.2832     8.5282    41.5494 </r>
       <r>     4.3747     7.5773    42.2429 </r>
       <r>     4.4662     6.8776    42.8724 </r>
       <r>     4.5578     9.1936    43.7139 </r>
       <r>     4.6493    10.2264    44.6499 </r>
       <r>     4.7408     9.5159    45.5209 </r>
       <r>     4.8324    10.0784    46.4434 </r>
       <r>     4.9239    11.1384    47.4629 </r>
       <r>     5.0154    12.6235    48.6183 </r>
       <r>     5.1069    11.1264    49.6367 </r>
       <r>     5.1985     6.6813    50.2482 </r>
       <r>     5.2900    10.3127    51.1922 </r>
       <r>     5.3815    13.8256    52.4576 </r>
       <r>     5.4731     9.8319    53.3575 </r>
       <r>     5.5646    10.2761    54.2981 </r>
       <r>     5.6561    12.9982    55.4878 </r>
       <r>     5.7476    12.2868    56.6124 </r>
       <r>     5.8392     8.9203    57.4289 </r>
       <r>     5.9307     6.7171    58.0437 </r>
       <r>     6.0222     8.6400    58.8345 </r>
       <r>     6.1138     8.5674    59.6187 </r>
       <r>     6.2053     4.5612    60.0362 </r>
       <r>     6.2968     4.3018    60.4299 </r>
       <r>     6.3884     5.8746    60.9676 </r>
       <r>     6.4799     4.6639    61.3945 </r>
       <r>     6.5714     6.4627    61.9861 </r>
       <r>     6.6629     7.3865    62.6622 </r>
       <r>     6.7545     4.1807    63.0448 </r>
       <r>     6.8460     2.7828    63.2995 </r>
       <r>     6.9375     2.7615    63.5523 </r>
       <r>     7.0291     1.3403    63.6750 </r>
       <r>     7.1206     1.0526    63.7713 </r>
       <r>     7.2121     1.2102    63.8821 </r>
       <r>     7.3037     0.3872    63.9175 </r>
       <r>     7.3952     0.2011    63.9359 </r>
       <r>     7.4867     0.4270    63.9750 </r>
       <r>     7.5782     0.2411    63.9971 </r>
       <r>     7.6698     0.0311    63.9999 </r>
       <r>     7.7613     0.0009    64.0000 </r>
       <r>     7.8528     0.0000    64.0000 </r>
       <r>     7.9444     0.0000    64.0000 </r>
       <r>     8.0359     0.0000    64.0000 </r>
       <r>     8.1274     0.0000    64.0000 </r>
       <r>     8.2190     0.0000    64.0000 </r>
       <r>     8.3105     0.0000    64.0000 </r>
       <r>     8.4020     0.0000    64.0000 </r>
       <r>     8.4935     0.0000    64.0000 </r>
       <r>     8.5851     0.0000    64.0000 </r>
       <r>     8.6766     0.0000    64.0000 </r>
       <r>     8.7681     0.0000    64.0000 </r>
       <r>     8.8597     0.0000    64.0000 </r>
       <r>     8.9512     0.0000    64.0000 </r>
       <r>     9.0427     0.0000    64.0000 </r>
       <r>     9.1343     0.0000    64.0000 </r>
       <r>     9.2258     0.0000    64.0000 </r>
       <r>     9.3173     0.0000    64.0000 </r>
       <r>     9.4088     0.0000    64.0000 </r>
       <r>     9.5004     0.0000    64.0000 </r>
       <r>     9.5919     0.0000    64.0000 </r>
       <r>     9.6834     0.0000    64.0000 </r>
       <r>     9.7750     0.0000    64.0000 </r>
       <r>     9.8665     0.0000    64.0000 </r>
       <r>     9.9580     0.0000    64.0000 </r>
       <r>    10.0496     0.0000    64.0000 </r>
       <r>    10.1411     0.0000    64.0000 </r>
       <r>    10.2326     0.0000    64.0000 </r>
       <r>    10.3241     0.0000    64.0000 </r>
       <r>    10.4157     0.0000    64.0000 </r>
       <r>    10.5072     0.0006    64.0001 </r>
       <r>    10.5987     0.0345    64.0032 </r>
       <r>    10.6903     0.4461    64.0440 </r>
       <r>    10.7818     1.3900    64.1713 </r>
       <r>    10.8733     1.0534    64.2677 </r>
       <r>    10.9649     0.1899    64.2851 </r>
       <r>    11.0564     0.0489    64.2895 </r>
       <r>    11.1479     0.6172    64.3460 </r>
       <r>    11.2394     2.6548    64.5890 </r>
       <r>    11.3310     3.9214    64.9480 </r>
       <r>    11.4225     2.5750    65.1836 </r>
       <r>    11.5140     1.3645    65.3085 </r>
       <r>    11.6056     3.1572    65.5975 </r>
       <r>    11.6971     5.6895    66.1183 </r>
       <r>    11.7886     6.6254    66.7247 </r>
       <r>    11.8802     6.3831    67.3089 </r>
       <r>    11.9717     3.3280    67.6136 </r>
       <r>    12.0632     3.1751    67.9042 </r>
       <r>    12.1547     5.3412    68.3931 </r>
       <r>    12.2463     6.6367    69.0005 </r>
       <r>    12.3378     7.2838    69.6672 </r>
       <r>    12.4293     9.2066    70.5099 </r>
       <r>    12.5209    11.8253    71.5922 </r>
       <r>    12.6124     9.5112    72.4628 </r>
       <r>    12.7039     4.2219    72.8492 </r>
       <r>    12.7955     4.1272    73.2270 </r>
       <r>    12.8870     4.1443    73.6063 </r>
       <r>    12.9785     5.8216    74.1392 </r>
       <r>    13.0700     5.2173    74.6167 </r>
       <r>    13.1616     3.1224    74.9025 </r>
       <r>    13.2531     5.1135    75.3705 </r>
       <r>    13.3446     7.1738    76.0272 </r>
       <r>    13.4362     7.5135    76.7149 </r>
       <r>    13.5277     6.2666    77.2884 </r>
       <r>    13.6192     5.3534    77.7784 </r>
       <r>    13.7108     5.0344    78.2392 </r>
       <r>    13.8023     2.7855    78.4942 </r>
       <r>    13.8938     2.8181    78.7521 </r>
       <r>    13.9853     3.9644    79.1150 </r>
       <r>    14.0769     2.2841    79.3240 </r>
       <r>    14.1684     3.4943    79.6439 </r>
       <r>    14.2599     6.3224    80.2226 </r>
       <r>    14.3515     6.7983    80.8448 </r>
       <r>    14.4430     4.7488    81.2795 </r>
       <r>    14.5345     3.1738    81.5700 </r>
       <r>    14.6261     2.5978    81.8077 </r>
       <r>    14.7176     4.6466    82.2330 </r>
       <r>    14.8091     6.4163    82.8203 </r>
       <r>    14.9006     6.4725    83.4127 </r>
       <r>    14.9922     6.2645    83.9861 </r>
       <r>    15.0837     7.1284    84.6386 </r>
       <r>    15.1752     8.2016    85.3893 </r>
       <r>    15.2668     7.8562    86.1084 </r>
       <r>    15.3583     5.0136    86.5673 </r>
       <r>    15.4498     3.4753    86.8854 </r>
       <r>    15.5414     3.8695    87.2395 </r>
       <r>    15.6329     3.1383    87.5268 </r>
       <r>    15.7244     2.9877    87.8003 </r>
       <r>    15.8159     1.8251    87.9673 </r>
       <r>    15.9075     0.3397    87.9984 </r>
       <r>    15.9990     0.0171    88.0000 </r>
       <r>    16.0905     0.0002    88.0000 </r>
       <r>    16.1821     0.0000    88.0000 </r>
       <r>    16.2736     0.0000    88.0000 </r>
       <r>    16.3651     0.0000    88.0000 </r>
       <r>    16.4567     0.0000    88.0000 </r>
       <r>    16.5482     0.0000    88.0000 </r>
       <r>    16.6397     0.0000    88.0000 </r>
       <r>    16.7312     0.0000    88.0000 </r>
       <r>    16.8228     0.0000    88.0000 </r>
       <r>    16.9143     0.0000    88.0000 </r>
       <r>    17.0058     0.0000    88.0000 </r>
      </set>
     </set>
    </array>
   </total>
  </dos>
 </calculation>
 <structure name="finalpos" >
  <crystal>
   <varray name="basis" >
    <v>       3.11788114       0.00000000       0.00000000 </v>
    <v>      -1.55894057       2.70016427       0.00000000 </v>
    <v>       0.00000000       0.00000000      20.16553763 </v>
   </varray>
   <i name="volume">    169.76945181 </i>
   <varray name="rec_basis" >
    <v>       0.32073064       0.18517392       0.00000000 </v>
    <v>       0.00000000       0.37034784       0.00000000 </v>
    <v>       0.00000000       0.00000000       0.04958955 </v>
   </varray>
  </crystal>
  <varray name="positions" >
   <v>       0.66666667       0.33333333       0.62670781 </v>
   <v>       0.66666667       0.33333333       0.87650278 </v>
   <v>       0.33333333       0.66666667       0.99813244 </v>
   <v>       0.33333333       0.66666667       0.24853083 </v>
   <v>       0.33333333       0.66666667       0.49904910 </v>
   <v>       0.33333333       0.66666667       0.74870159 </v>
   <v>       0.66666667       0.33333333       0.12338755 </v>
   <v>       0.66666667       0.33333333       0.37365737 </v>
   <v>       0.33333333       0.66666667       0.60013512 </v>
   <v>       0.33333333       0.66666667       0.84988105 </v>
   <v>       0.33333333       0.66666667       0.09208184 </v>
   <v>       0.33333333       0.66666667       0.34241114 </v>
   <v>       0.66666667       0.33333333       0.21727651 </v>
   <v>       0.66666667       0.33333333       0.46753172 </v>
   <v>       0.66666667       0.33333333       0.71810511 </v>
   <v>       0.66666667       0.33333333       0.96790804 </v>
  </varray>
 </structure>
</modeling>
