<?xml version="1.0" encoding="ISO-8859-1"?>
<modeling>
 <generator>
  <i name="program" type="string">vasp </i>
  <i name="version" type="string">5.3.5  </i>
  <i name="subversion" type="string">31Mar14 (build Jun 20 2014 13:15:13) complex                          parallel </i>
  <i name="platform" type="string">LinuxIFC </i>
  <i name="date" type="string">2025 12 12 </i>
  <i name="time" type="string">11:46:44 </i>
 </generator>
 <incar>
  <i type="string" name="PREC">accurate</i>
  <i type="int" name="IALGO">    38</i>
  <i type="logical" name="ADDGRID"> T  </i>
  <i type="int" name="ISPIN">     2</i>
  <i type="int" name="NELM">   100</i>
  <i type="int" name="NELMIN">     4</i>
  <i name="EDIFF">      0.00000100</i>
  <i name="ENCUT">    500.00000000</i>
  <i type="logical" name="LREAL"> F  </i>
  <i type="int" name="ISMEAR">     0</i>
  <i name="SIGMA">      0.05000000</i>
  <i type="logical" name="LWAVE"> F  </i>
  <i type="logical" name="LCHARG"> F  </i>
  <i type="int" name="NELM">   100</i>
  <i type="logical" name="LDAU"> T  </i>
  <v name="LDAUU">      0.00000000      4.00000000      0.00000000</v>
  <v name="LDAUJ">      0.00000000      0.00000000      0.00000000</v>
 </incar>
 <kpoints>
  <generation param="Auto">
   <i name="subdivisionlength">     20.00000000 </i>
   <v type="int" name="divisions">       4        5        2 </v>
   <v name="usershift">      0.00000000       0.00000000       0.00000000 </v>
   <v name="genvec1">      0.25000000       0.00000000       0.00000000 </v>
   <v name="genvec2">      0.00000000       0.20000000       0.00000000 </v>
   <v name="genvec3">      0.00000000       0.00000000       0.50000000 </v>
   <v name="shift">      0.00000000       0.00000000       0.00000000 </v>
  </generation>
  <varray name="kpointlist" >
   <v>       0.00000000       0.00000000       0.00000000 </v>
   <v>       0.25000000       0.00000000       0.00000000 </v>
   <v>       0.50000000       0.00000000       0.00000000 </v>
   <v>       0.00000000       0.20000000       0.00000000 </v>
   <v>       0.25000000       0.20000000       0.00000000 </v>
   <v>       0.50000000       0.20000000       0.00000000 </v>
   <v>       0.00000000       0.40000000       0.00000000 </v>
   <v>       0.25000000       0.40000000       0.00000000 </v>
   <v>       0.50000000       0.40000000       0.00000000 </v>
   <v>       0.00000000       0.00000000       0.50000000 </v>
   <v>       0.25000000       0.00000000       0.50000000 </v>
   <v>       0.50000000       0.00000000       0.50000000 </v>
   <v>       0.00000000       0.20000000       0.50000000 </v>
   <v>       0.25000000       0.20000000       0.50000000 </v>
   <v>       0.50000000       0.20000000       0.50000000 </v>
   <v>       0.00000000       0.40000000       0.50000000 </v>
   <v>       0.25000000       0.40000000       0.50000000 </v>
   <v>       0.50000000       0.40000000       0.50000000 </v>
  </varray>
  <varray name="weights" >
   <v>       0.02500000 </v>
   <v>       0.05000000 </v>
   <v>       0.02500000 </v>
   <v>       0.05000000 </v>
   <v>       0.10000000 </v>
   <v>       0.05000000 </v>
   <v>       0.05000000 </v>
   <v>       0.10000000 </v>
   <v>       0.05000000 </v>
   <v>       0.02500000 </v>
   <v>       0.05000000 </v>
   <v>       0.02500000 </v>
   <v>       0.05000000 </v>
   <v>       0.10000000 </v>
   <v>       0.05000000 </v>
   <v>       0.05000000 </v>
   <v>       0.10000000 </v>
   <v>       0.05000000 </v>
  </varray>
 </kpoints>
 <parameters>
  <separator name="general" >
   <i type="string" name="SYSTEM">unknown system</i>
   <i type="logical" name="LCOMPAT"> F  </i>
  </separator>
  <separator name="electronic" >
   <i type="string" name="PREC">accura</i>
   <i name="ENMAX">    500.00000000</i>
   <i name="ENAUG">    586.98000000</i>
   <i name="EDIFF">      0.00000100</i>
   <i type="int" name="IALGO">    38</i>
   <i type="int" name="IWAVPR">    10</i>
   <i type="int" name="NBANDS">    92</i>
   <i name="NELECT">    138.00000000</i>
   <i type="int" name="TURBO">     0</i>
   <i type="int" name="IRESTART">     0</i>
   <i type="int" name="NREBOOT">     0</i>
   <i type="int" name="NMIN">     0</i>
   <i name="EREF">      0.00000000</i>
   <separator name="electronic smearing" >
    <i type="int" name="ISMEAR">     0</i>
    <i name="SIGMA">      0.05000000</i>
    <i name="KSPACING">      0.50000000</i>
    <i type="logical" name="KGAMMA"> T  </i>
   </separator>
   <separator name="electronic projectors" >
    <i type="logical" name="LREAL"> F  </i>
    <v name="ROPT">      0.00000000      0.00000000      0.00000000</v>
    <i type="int" name="LMAXPAW">  -100</i>
    <i type="int" name="LMAXMIX">     2</i>
    <i type="logical" name="NLSPLINE"> F  </i>
   </separator>
   <separator name="electronic startup" >
    <i type="int" name="ISTART">     0</i>
    <i type="int" name="ICHARG">     2</i>
    <i type="int" name="INIWAV">     1</i>
   </separator>
   <separator name="electronic spin" >
    <i type="int" name="ISPIN">     2</i>
    <i type="logical" name="LNONCOLLINEAR"> F  </i>
    <v name="MAGMOM">      1.00000000      1.00000000      1.00000000      1.00000000      1.00000000      1.00000000      1.00000000      1.00000000      1.00000000      1.00000000      1.00000000      1.00000000      1.00000000      1.00000000      1.00000000      1.00000000      1.00000000</v>
    <i name="NUPDOWN">     -1.00000000</i>
    <i type="logical" name="LSORBIT"> F  </i>
    <v name="SAXIS">      0.00000000      0.00000000      1.00000000</v>
    <i type="logical" name="LSPIRAL"> F  </i>
    <v name="QSPIRAL">      0.00000000      0.00000000      0.00000000</v>
    <i type="logical" name="LZEROZ"> F  </i>
   </separator>
   <separator name="electronic exchange-correlation" >
    <i type="logical" name="LASPH"> F  </i>
    <i type="logical" name="LMETAGGA"> F  </i>
   </separator>
   <separator name="electronic convergence" >
    <i type="int" name="NELM">   100</i>
    <i type="int" name="NELMDL">    -5</i>
    <i type="int" name="NELMIN">     4</i>
    <i name="ENINI">    500.00000000</i>
    <separator name="electronic convergence detail" >
     <i type="logical" name="LDIAG"> T  </i>
     <i type="logical" name="LSUBROT"> F  </i>
     <i name="WEIMIN">      0.00000000</i>
     <i name="EBREAK">      0.00000000</i>
     <i name="DEPER">      0.30000000</i>
     <i type="int" name="NRMM">     4</i>
     <i name="TIME">      0.40000000</i>
    </separator>
   </separator>
   <separator name="electronic mixer" >
    <i name="AMIX">      0.40000000</i>
    <i name="BMIX">      1.00000000</i>
    <i name="AMIN">      0.10000000</i>
    <i name="AMIX_MAG">      1.60000000</i>
    <i name="BMIX_MAG">      1.00000000</i>
    <separator name="electronic mixer details" >
     <i type="int" name="IMIX">     4</i>
     <i type="int" name="MAXMIX">   -45</i>
     <i name="WC">    100.00000000</i>
     <i type="int" name="INIMIX">     1</i>
     <i type="int" name="MIXPRE">     1</i>
     <i type="int" name="MREMOVE">     5</i>
    </separator>
   </separator>
   <separator name="electronic dipolcorrection" >
    <i type="logical" name="LDIPOL"> F  </i>
    <i type="logical" name="LMONO"> F  </i>
    <i type="int" name="IDIPOL">     0</i>
    <i name="EPSILON">      1.00000000</i>
    <v name="DIPOL">   -100.00000000   -100.00000000   -100.00000000</v>
    <i name="EFIELD">      0.00000000</i>
   </separator>
  </separator>
  <separator name="grids" >
   <i type="int" name="NGX">    42</i>
   <i type="int" name="NGY">    30</i>
   <i type="int" name="NGZ">    84</i>
   <i type="int" name="NGXF">    84</i>
   <i type="int" name="NGYF">    60</i>
   <i type="int" name="NGZF">   168</i>
   <i type="logical" name="ADDGRID"> T  </i>
  </separator>
  <separator name="ionic" >
   <i type="int" name="NSW">     0</i>
   <i type="int" name="IBRION">    -1</i>
   <i type="int" name="ISIF">     2</i>
   <i name="PSTRESS">      0.00000000</i>
   <i name="EDIFFG">      0.00001000</i>
   <i type="int" name="NFREE">     0</i>
   <i name="POTIM">      0.50000000</i>
   <i name="SMASS">     -3.00000000</i>
   <i name="SCALEE">      1.00000000</i>
  </separator>
  <separator name="ionic md" >
   <i name="TEBEG">      0.00010000</i>
   <i name="TEEND">      0.00010000</i>
   <i type="int" name="NBLOCK">     1</i>
   <i type="int" name="KBLOCK">     1</i>
   <i type="int" name="NPACO">   256</i>
   <i name="APACO">     16.00000000</i>
  </separator>
  <separator name="symmetry" >
   <i type="int" name="ISYM">     2</i>
   <i name="SYMPREC">      0.00001000</i>
  </separator>
  <separator name="dos" >
   <i type="logical" name="LORBIT"> F  </i>
   <v name="RWIGS">     -1.00000000     -1.00000000     -1.00000000</v>
   <i type="int" name="NEDOS">   301</i>
   <i name="EMIN">     10.00000000</i>
   <i name="EMAX">    -10.00000000</i>
   <i name="EFERMI">      0.00000000</i>
  </separator>
  <separator name="writing" >
   <i type="int" name="NWRITE">     2</i>
   <i type="logical" name="LWAVE"> F  </i>
   <i type="logical" name="LCHARG"> F  </i>
   <i type="logical" name="LPARD"> F  </i>
   <i type="logical" name="LVTOT"> F  </i>
   <i type="logical" name="LVHAR"> F  </i>
   <i type="logical" name="LELF"> F  </i>
   <i type="logical" name="LOPTICS"> F  </i>
   <v name="STM">      0.00000000      0.00000000      0.00000000      0.00000000      0.00000000      0.00000000      0.00000000</v>
  </separator>
  <separator name="performance" >
   <i type="int" name="NPAR">     4</i>
   <i type="int" name="NSIM">     4</i>
   <i type="int" name="NBLK">    -1</i>
   <i type="logical" name="LPLANE"> T  </i>
   <i type="logical" name="LSCALAPACK"> T  </i>
   <i type="logical" name="LSCAAWARE"> F  </i>
   <i type="logical" name="LSCALU"> F  </i>
   <i type="logical" name="LASYNC"> F  </i>
   <i type="logical" name="LORBITALREAL"> F  </i>
  </separator>
  <separator name="miscellaneous" >
   <i type="int" name="IDIOT">     3</i>
   <i type="logical" name="LMUSIC"> F  </i>
   <v name="POMASS">     87.62000000     63.54600000     16.00000000</v>
   <v name="DARWINR">      0.00000000      0.00000000      0.00000000</v>
   <v name="DARWINV">      1.00000000      1.00000000      1.00000000</v>
   <i type="logical" name="LCORR"> T  </i>
  </separator>
  <i type="logical" name="GGA_COMPAT"> T  </i>
  <i type="logical" name="LBERRY"> F  </i>
  <i type="int" name="ICORELEVEL">     0</i>
  <i type="logical" name="LDAU"> T  </i>
  <v type="int" name="LDAUTYPE">     2</v>
  <v type="int" name="LDAUL">     2</v>
  <v name="LDAUU">      0.00000000</v>
  <v name="LDAUJ">      0.00000000</v>
  <i type="int" name="LDAUPRINT">     0</i>
  <i type="int" name="I_CONSTRAINED_M">     0</i>
  <separator name="electronic exchange-correlation" >
   <i type="string" name="GGA">--</i>
   <i type="int" name="VOSKOWN">     0</i>
   <i type="logical" name="LHFCALC"> F  </i>
   <i type="string" name="PRECFOCK"></i>
   <i type="logical" name="LSYMGRAD"> F  </i>
   <i type="logical" name="LHFONE"> F  </i>
   <i type="logical" name="LRHFCALC"> F  </i>
   <i type="logical" name="LTHOMAS"> F  </i>
   <i type="logical" name="LMODELHF"> F  </i>
   <i name="ENCUT4O">     -1.00000000</i>
   <i type="int" name="EXXOEP">     0</i>
   <i type="int" name="FOURORBIT">     0</i>
   <i name="AEXX">      0.00000000</i>
   <i name="HFALPHA">      0.00000000</i>
   <i name="MCALPHA">      0.00000000</i>
   <i name="ALDAX">      1.00000000</i>
   <i name="AGGAX">      1.00000000</i>
   <i name="ALDAC">      1.00000000</i>
   <i name="AGGAC">      1.00000000</i>
   <i type="int" name="NKREDX">     1</i>
   <i type="int" name="NKREDY">     1</i>
   <i type="int" name="NKREDZ">     1</i>
   <i type="logical" name="SHIFTRED"> F  </i>
   <i type="logical" name="ODDONLY"> F  </i>
   <i type="logical" name="EVENONLY"> F  </i>
   <i type="int" name="LMAXFOCK">     0</i>
   <i type="int" name="NMAXFOCKAE">     0</i>
   <i type="logical" name="LFOCKAEDFT"> F  </i>
   <i name="HFSCREEN">      0.00000000</i>
   <i name="HFSCREENC">      0.00000000</i>
   <i type="int" name="NBANDSGWLOW">     0</i>
  </separator>
  <separator name="vdW DFT" >
   <i type="logical" name="LUSE_VDW"> F  </i>
   <i name="Zab_VDW">     -0.84910000</i>
   <i name="PARAM1">      0.12340000</i>
   <i name="PARAM2">      1.00000000</i>
   <i name="PARAM3">      0.00000000</i>
  </separator>
  <separator name="model GW" >
   <i type="int" name="MODEL_GW">     0</i>
   <i name="MODEL_EPS0">      9.03529412</i>
   <i name="MODEL_ALPHA">      1.00000000</i>
  </separator>
  <separator name="linear response parameters" >
   <i type="logical" name="LEPSILON"> F  </i>
   <i type="logical" name="LRPA"> F  </i>
   <i type="logical" name="LNABLA"> F  </i>
   <i type="logical" name="LVEL"> F  </i>
   <i type="int" name="KINTER">     0</i>
   <i name="CSHIFT">      0.10000000</i>
   <i name="OMEGAMAX">     -1.00000000</i>
   <i name="DEG_THRESHOLD">      0.00200000</i>
  </separator>
  <separator name="orbital magnetization" >
   <i type="logical" name="NUCIND"> F  </i>
   <v name="MAGPOS">      0.00000000      0.00000000      0.00000000</v>
   <i type="logical" name="LNICSALL"> T  </i>
   <i type="logical" name="ORBITALMAG"> F  </i>
   <i type="logical" name="LMAGBLOCH"> F  </i>
   <i type="logical" name="LCHIMAG"> F  </i>
   <i type="logical" name="LGAUGE"> T  </i>
   <i type="int" name="MAGATOM">     0</i>
   <v name="MAGDIPOL">      0.00000000      0.00000000      0.00000000</v>
   <v name="AVECCONST">      0.00000000      0.00000000      0.00000000</v>
  </separator>
  <separator name="response functions" >
   <i type="logical" name="LADDER"> F  </i>
   <i type="logical" name="LFXC"> F  </i>
   <i type="logical" name="LHARTREE"> T  </i>
   <i type="int" name="IBSE">     0</i>
   <i type="logical" name="LTCTE"> F  </i>
   <i type="logical" name="LTETE"> F  </i>
   <i type="logical" name="LTRIPLET"> F  </i>
   <i type="logical" name="LFXCEPS"> F  </i>
   <i type="logical" name="LFXHEG"> F  </i>
   <i type="logical" name="L2ORDER"> F  </i>
   <i type="logical" name="LUSEW"> F  </i>
   <i name="ENCUTGW">     -2.00000000</i>
   <i name="ENCUTGWSOFT">     -2.00000000</i>
   <i name="ENCUTLF">     -1.00000000</i>
   <i type="int" name="LMAXMP2">    -1</i>
   <i name="SCISSOR">      0.00000000</i>
   <i type="int" name="NOMEGA">     0</i>
   <i type="int" name="NOMEGAR">     0</i>
   <i type="int" name="NBANDSGW">    -1</i>
   <i type="int" name="NBANDSO">    -1</i>
   <i type="int" name="NBANDSV">    -1</i>
   <i type="int" name="NELM">   100</i>
   <i type="int" name="DIM">     3</i>
   <i type="int" name="ANTIRES">     0</i>
   <i name="OMEGAMAX">    -30.00000000</i>
   <i name="OMEGAMIN">    -30.00000000</i>
   <i name="OMEGATL">   -200.00000000</i>
   <i type="int" name="OMEGAGRID">     0</i>
   <i name="CSHIFT">     -0.10000000</i>
   <i type="logical" name="SELFENERGY"> F  </i>
   <i type="logical" name="LSPECTRAL"> F  </i>
   <i type="logical" name="ODDONLYGW"> F  </i>
   <i type="logical" name="EVENONLYGW"> F  </i>
   <i type="int" name="NKREDLFX">     1</i>
   <i type="int" name="NKREDLFY">     1</i>
   <i type="int" name="NKREDLFZ">     1</i>
   <i type="int" name="MAXMEM">  1800</i>
   <i type="int" name="TELESCOPE">     0</i>
   <i type="int" name="TAUPAR">     1</i>
  </separator>
  <separator name="External order field" >
   <i name="OFIELD_KAPPA">      0.00000000</i>
   <v name="OFIELD_K">      0.00000000      0.00000000      0.00000000</v>
   <i name="OFIELD_Q6_NEAR">      0.00000000</i>
   <i name="OFIELD_Q6_FAR">      0.00000000</i>
   <i name="OFIELD_A">      0.00000000</i>
  </separator>
 </parameters>
 <atominfo>
  <atoms>      17 </atoms>
  <types>       3 </types>
  <array name="atoms" >
   <dimension dim="1">ion</dimension>
   <field type="string">element</field>
   <field type="int">atomtype</field>
   <set>
    <rc><c>Sr</c><c>   1</c></rc>
    <rc><c>Sr</c><c>   1</c></rc>
    <rc><c>Sr</c><c>   1</c></rc>
    <rc><c>Sr</c><c>   1</c></rc>
    <rc><c>Cu</c><c>   2</c></rc>
    <rc><c>Cu</c><c>   2</c></rc>
    <rc><c>Cu</c><c>   2</c></rc>
    <rc><c>Cu</c><c>   2</c></rc>
    <rc><c>O </c><c>   3</c></rc>
    <rc><c>O </c><c>   3</c></rc>
    <rc><c>O </c><c>   3</c></rc>
    <rc><c>O </c><c>   3</c></rc>
    <rc><c>O </c><c>   3</c></rc>
    <rc><c>O </c><c>   3</c></rc>
    <rc><c>O </c><c>   3</c></rc>
    <rc><c>O </c><c>   3</c></rc>
    <rc><c>O </c><c>   3</c></rc>
   </set>
  </array>
  <array name="atomtypes" >
   <dimension dim="1">type</dimension>
   <field type="int">atomspertype</field>
   <field type="string">element</field>
   <field>mass</field>
   <field>valence</field>
   <field type="string">pseudopotential</field>
   <set>
    <rc><c>   4</c><c>Sr</c><c>     87.62000000</c><c>     10.00000000</c><c>  PAW_PBE Sr_sv 07Sep2000               </c></rc>
    <rc><c>   4</c><c>Cu</c><c>     63.54600000</c><c>     11.00000000</c><c>  PAW_PBE Cu 22Jun2005                  </c></rc>
    <rc><c>   9</c><c>O </c><c>     16.00000000</c><c>      6.00000000</c><c>  PAW_PBE O_s 07Sep2000                 </c></rc>
   </set>
  </array>
 </atominfo>
 <structure name="initialpos" >
  <crystal>
   <varray name="basis" >
    <v>       5.65685425       0.00000000       0.00000000 </v>
    <v>       0.00000000       4.00000000       0.00000000 </v>
    <v>       0.00000000       0.00000000      11.31370850 </v>
   </varray>
   <i name="volume">    256.00000000 </i>
   <varray name="rec_basis" >
    <v>       0.17677670       0.00000000       0.00000000 </v>
    <v>       0.00000000       0.25000000       0.00000000 </v>
    <v>       0.00000000       0.00000000       0.08838835 </v>
   </varray>
  </crystal>
  <varray name="positions" >
   <v>       0.00000000       0.00000000       0.00000000 </v>
   <v>       0.50000000       0.00000000       0.25000000 </v>
   <v>       0.00000000       0.00000000       0.50000000 </v>
   <v>       0.50000000       0.00000000       0.75000000 </v>
   <v>       0.50000000       0.50000000       0.00000000 </v>
   <v>       0.00000000       0.50000000       0.25000000 </v>
   <v>       0.50000000       0.50000000       0.50000000 </v>
   <v>       0.00000000       0.50000000       0.75000000 </v>
   <v>       0.75000000       0.50000000       0.37500000 </v>
   <v>       0.25000000       0.50000000       0.62500000 </v>
   <v>       0.00000000       0.00000000       0.25000000 </v>
   <v>       0.50000000       0.00000000       0.50000000 </v>
   <v>       0.00000000       0.00000000       0.75000000 </v>
   <v>       0.75000000       0.50000000       0.12500000 </v>
   <v>       0.25000000       0.50000000       0.37500000 </v>
   <v>       0.75000000       0.50000000       0.62500000 </v>
   <v>       0.25000000       0.50000000       0.87500000 </v>
  </varray>
 </structure>
 <calculation>
  <scstep>
   <time name="dav">    2.16    2.16</time>
   <time name="total">    2.26    2.27</time>
   <energy>
    <i name="alphaZ">    635.64916683 </i>
    <i name="ewald">  -8794.59816414 </i>
    <i name="hartreedc">  -4141.49968342 </i>
    <i name="XCdc">    571.24414808 </i>
    <i name="pawpsdc">  10532.98817047 </i>
    <i name="pawaedc"> -10865.93268589 </i>
    <i name="eentropy">     -0.00684225 </i>
    <i name="bandstr">    972.24225191 </i>
    <i name="atom">  12827.37956309 </i>
    <i name="e_fr_energy">   1737.46592467 </i>
    <i name="e_wo_entrp">   1737.47276692 </i>
    <i name="e_0_energy">   1737.46934580 </i>
   </energy>
  </scstep>
  <scstep>
   <time name="dav">    2.32    2.32</time>
   <time name="total">    2.32    2.34</time>
   <energy>
    <i name="e_fr_energy">    154.78910159 </i>
    <i name="e_wo_entrp">    154.79608747 </i>
    <i name="e_0_energy">    154.79259453 </i>
   </energy>
  </scstep>
  <scstep>
   <time name="dav">    2.29    2.30</time>
   <time name="total">    2.30    2.31</time>
   <energy>
    <i name="e_fr_energy">    -87.65898720 </i>
    <i name="e_wo_entrp">    -87.64181628 </i>
    <i name="e_0_energy">    -87.65040174 </i>
   </energy>
  </scstep>
  <scstep>
   <time name="dav">    3.01    3.01</time>
   <time name="total">    3.01    3.02</time>
   <energy>
    <i name="e_fr_energy">   -105.75929261 </i>
    <i name="e_wo_entrp">   -105.73372216 </i>
    <i name="e_0_energy">   -105.74650738 </i>
   </energy>
  </scstep>
  <scstep>
   <time name="dav">    3.69    3.69</time>
   <time name="total">    3.90    3.91</time>
   <energy>
    <i name="e_fr_energy">   -106.76337302 </i>
    <i name="e_wo_entrp">   -106.73765005 </i>
    <i name="e_0_energy">   -106.75051154 </i>
   </energy>
  </scstep>
  <scstep>
   <time name="dav">    2.91    2.91</time>
   <time name="total">    3.21    3.23</time>
   <energy>
    <i name="e_fr_energy">    -97.54948750 </i>
    <i name="e_wo_entrp">    -97.53407077 </i>
    <i name="e_0_energy">    -97.54177913 </i>
   </energy>
  </scstep>
  <scstep>
   <time name="dav">    2.88    2.88</time>
   <time name="total">    3.19    3.20</time>
   <energy>
    <i name="e_fr_energy">    -85.37042822 </i>
    <i name="e_wo_entrp">    -85.35573246 </i>
    <i name="e_0_energy">    -85.36308034 </i>
   </energy>
  </scstep>
  <scstep>
   <time name="dav">    3.21    3.21</time>
   <time name="total">    3.51    3.52</time>
   <energy>
    <i name="e_fr_energy">    -88.51168550 </i>
    <i name="e_wo_entrp">    -88.50439066 </i>
    <i name="e_0_energy">    -88.50803808 </i>
   </energy>
  </scstep>
  <scstep>
   <time name="dav">    3.06    3.06</time>
   <time name="total">    3.36    3.38</time>
   <energy>
    <i name="e_fr_energy">    -91.13855890 </i>
    <i name="e_wo_entrp">    -91.13030193 </i>
    <i name="e_0_energy">    -91.13443042 </i>
   </energy>
  </scstep>
  <scstep>
   <time name="dav">    2.86    2.86</time>
   <time name="total">    3.16    3.18</time>
   <energy>
    <i name="e_fr_energy">    -85.98897030 </i>
    <i name="e_wo_entrp">    -85.97798125 </i>
    <i name="e_0_energy">    -85.98347578 </i>
   </energy>
  </scstep>
  <scstep>
   <time name="dav">    2.97    2.97</time>
   <time name="total">    3.27    3.29</time>
   <energy>
    <i name="e_fr_energy">    -83.88629350 </i>
    <i name="e_wo_entrp">    -83.87810451 </i>
    <i name="e_0_energy">    -83.88219901 </i>
   </energy>
  </scstep>
  <scstep>
   <time name="dav">    2.96    2.97</time>
   <time name="total">    3.27    3.28</time>
   <energy>
    <i name="e_fr_energy">    -83.81108457 </i>
    <i name="e_wo_entrp">    -83.80462125 </i>
    <i name="e_0_energy">    -83.80785291 </i>
   </energy>
  </scstep>
  <scstep>
   <time name="dav">    3.05    3.05</time>
   <time name="total">    3.36    3.37</time>
   <energy>
    <i name="e_fr_energy">    -83.76194955 </i>
    <i name="e_wo_entrp">    -83.75599307 </i>
    <i name="e_0_energy">    -83.75897131 </i>
   </energy>
  </scstep>
  <scstep>
   <time name="dav">    2.90    2.90</time>
   <time name="total">    3.20    3.22</time>
   <energy>
    <i name="e_fr_energy">    -83.81019288 </i>
    <i name="e_wo_entrp">    -83.80391295 </i>
    <i name="e_0_energy">    -83.80705291 </i>
   </energy>
  </scstep>
  <scstep>
   <time name="dav">    3.09    3.09</time>
   <time name="total">    3.40    3.41</time>
   <energy>
    <i name="e_fr_energy">    -83.76150643 </i>
    <i name="e_wo_entrp">    -83.75384961 </i>
    <i name="e_0_energy">    -83.75767802 </i>
   </energy>
  </scstep>
  <scstep>
   <time name="dav">    3.01    3.01</time>
   <time name="total">    3.32    3.33</time>
   <energy>
    <i name="e_fr_energy">    -83.77128880 </i>
    <i name="e_wo_entrp">    -83.76322532 </i>
    <i name="e_0_energy">    -83.76725706 </i>
   </energy>
  </scstep>
  <scstep>
   <time name="dav">    2.94    2.94</time>
   <time name="total">    3.25    3.26</time>
   <energy>
    <i name="e_fr_energy">    -83.77232618 </i>
    <i name="e_wo_entrp">    -83.76404168 </i>
    <i name="e_0_energy">    -83.76818393 </i>
   </energy>
  </scstep>
  <scstep>
   <time name="dav">    3.21    3.21</time>
   <time name="total">    3.52    3.54</time>
   <energy>
    <i name="e_fr_energy">    -83.77210952 </i>
    <i name="e_wo_entrp">    -83.76381695 </i>
    <i name="e_0_energy">    -83.76796323 </i>
   </energy>
  </scstep>
  <scstep>
   <time name="dav">    2.95    2.96</time>
   <time name="total">    3.26    3.28</time>
   <energy>
    <i name="e_fr_energy">    -83.77183175 </i>
    <i name="e_wo_entrp">    -83.76335035 </i>
    <i name="e_0_energy">    -83.76759105 </i>
   </energy>
  </scstep>
  <scstep>
   <time name="dav">    2.98    2.98</time>
   <time name="total">    3.28    3.30</time>
   <energy>
    <i name="e_fr_energy">    -83.77240268 </i>
    <i name="e_wo_entrp">    -83.76369087 </i>
    <i name="e_0_energy">    -83.76804677 </i>
   </energy>
  </scstep>
  <scstep>
   <time name="dav">    3.19    3.19</time>
   <time name="total">    3.49    3.51</time>
   <energy>
    <i name="e_fr_energy">    -83.77267955 </i>
    <i name="e_wo_entrp">    -83.76385372 </i>
    <i name="e_0_energy">    -83.76826663 </i>
   </energy>
  </scstep>
  <scstep>
   <time name="dav">    3.15    3.15</time>
   <time name="total">    3.46    3.47</time>
   <energy>
    <i name="e_fr_energy">    -83.77289502 </i>
    <i name="e_wo_entrp">    -83.76397321 </i>
    <i name="e_0_energy">    -83.76843412 </i>
   </energy>
  </scstep>
  <scstep>
   <time name="dav">    3.35    3.35</time>
   <time name="total">    3.66    3.67</time>
   <energy>
    <i name="e_fr_energy">    -83.77301320 </i>
    <i name="e_wo_entrp">    -83.76405331 </i>
    <i name="e_0_energy">    -83.76853325 </i>
   </energy>
  </scstep>
  <scstep>
   <time name="dav">    3.15    3.15</time>
   <time name="total">    3.45    3.47</time>
   <energy>
    <i name="e_fr_energy">    -83.77307792 </i>
    <i name="e_wo_entrp">    -83.76409566 </i>
    <i name="e_0_energy">    -83.76858679 </i>
   </energy>
  </scstep>
  <scstep>
   <time name="dav">    3.00    3.00</time>
   <time name="total">    3.31    3.32</time>
   <energy>
    <i name="e_fr_energy">    -83.77280741 </i>
    <i name="e_wo_entrp">    -83.76386783 </i>
    <i name="e_0_energy">    -83.76833762 </i>
   </energy>
  </scstep>
  <scstep>
   <time name="dav">    2.86    2.86</time>
   <time name="total">    3.17    3.19</time>
   <energy>
    <i name="e_fr_energy">    -83.77312047 </i>
    <i name="e_wo_entrp">    -83.76411906 </i>
    <i name="e_0_energy">    -83.76861977 </i>
   </energy>
  </scstep>
  <scstep>
   <time name="dav">    3.19    3.19</time>
   <time name="total">    3.50    3.56</time>
   <energy>
    <i name="e_fr_energy">    -83.77324658 </i>
    <i name="e_wo_entrp">    -83.76423087 </i>
    <i name="e_0_energy">    -83.76873873 </i>
   </energy>
  </scstep>
  <scstep>
   <time name="dav">    3.12    3.13</time>
   <time name="total">    3.43    3.45</time>
   <energy>
    <i name="e_fr_energy">    -83.77332096 </i>
    <i name="e_wo_entrp">    -83.76429544 </i>
    <i name="e_0_energy">    -83.76880820 </i>
   </energy>
  </scstep>
  <scstep>
   <time name="dav">    2.98    2.98</time>
   <time name="total">    3.28    3.30</time>
   <energy>
    <i name="e_fr_energy">    -83.77336588 </i>
    <i name="e_wo_entrp">    -83.76433798 </i>
    <i name="e_0_energy">    -83.76885193 </i>
   </energy>
  </scstep>
  <scstep>
   <time name="dav">    2.81    2.81</time>
   <time name="total">    3.12    3.13</time>
   <energy>
    <i name="e_fr_energy">    -83.77340676 </i>
    <i name="e_wo_entrp">    -83.76437987 </i>
    <i name="e_0_energy">    -83.76889331 </i>
   </energy>
  </scstep>
  <scstep>
   <time name="dav">    3.14    3.16</time>
   <time name="total">    3.45    3.49</time>
   <energy>
    <i name="e_fr_energy">    -83.77344681 </i>
    <i name="e_wo_entrp">    -83.76442987 </i>
    <i name="e_0_energy">    -83.76893834 </i>
   </energy>
  </scstep>
  <scstep>
   <time name="dav">    3.02    3.02</time>
   <time name="total">    3.33    3.34</time>
   <energy>
    <i name="e_fr_energy">    -83.77348150 </i>
    <i name="e_wo_entrp">    -83.76448011 </i>
    <i name="e_0_energy">    -83.76898081 </i>
   </energy>
  </scstep>
  <scstep>
   <time name="dav">    2.72    2.72</time>
   <time name="total">    3.03    3.05</time>
   <energy>
    <i name="e_fr_energy">    -83.77350591 </i>
    <i name="e_wo_entrp">    -83.76452050 </i>
    <i name="e_0_energy">    -83.76901321 </i>
   </energy>
  </scstep>
  <scstep>
   <time name="dav">    2.88    2.88</time>
   <time name="total">    3.19    3.20</time>
   <energy>
    <i name="e_fr_energy">    -83.77352490 </i>
    <i name="e_wo_entrp">    -83.76456102 </i>
    <i name="e_0_energy">    -83.76904296 </i>
   </energy>
  </scstep>
  <scstep>
   <time name="dav">    2.90    2.90</time>
   <time name="total">    3.21    3.23</time>
   <energy>
    <i name="e_fr_energy">    -83.77354111 </i>
    <i name="e_wo_entrp">    -83.76459834 </i>
    <i name="e_0_energy">    -83.76906972 </i>
   </energy>
  </scstep>
  <scstep>
   <time name="dav">    2.44    2.45</time>
   <time name="total">    2.76    2.77</time>
   <energy>
    <i name="e_fr_energy">    -83.77355250 </i>
    <i name="e_wo_entrp">    -83.76463098 </i>
    <i name="e_0_energy">    -83.76909174 </i>
   </energy>
  </scstep>
  <scstep>
   <time name="dav">    2.09    2.09</time>
   <time name="total">    2.40    2.42</time>
   <energy>
    <i name="e_fr_energy">    -83.77355986 </i>
    <i name="e_wo_entrp">    -83.76464775 </i>
    <i name="e_0_energy">    -83.76910380 </i>
   </energy>
  </scstep>
  <scstep>
   <time name="dav">    1.66    1.66</time>
   <time name="total">    1.97    1.98</time>
   <energy>
    <i name="e_fr_energy">    -83.77356347 </i>
    <i name="e_wo_entrp">    -83.76466137 </i>
    <i name="e_0_energy">    -83.76911242 </i>
   </energy>
  </scstep>
  <scstep>
   <time name="dav">    1.72    1.72</time>
   <time name="total">    2.03    2.04</time>
   <energy>
    <i name="e_fr_energy">    -83.77356453 </i>
    <i name="e_wo_entrp">    -83.76466532 </i>
    <i name="e_0_energy">    -83.76911493 </i>
   </energy>
  </scstep>
  <scstep>
   <time name="dav">    1.60    1.60</time>
   <time name="total">    1.71    1.72</time>
   <energy>
    <i name="alphaZ">    635.64916683 </i>
    <i name="ewald">  -8794.59816414 </i>
    <i name="hartreedc">  -4133.58940904 </i>
    <i name="XCdc">    571.04501293 </i>
    <i name="pawpsdc">  16253.34561992 </i>
    <i name="pawaedc"> -16624.21189285 </i>
    <i name="eentropy">     -0.00889864 </i>
    <i name="bandstr">   -818.78456253 </i>
    <i name="atom">  12827.37956309 </i>
    <i name="e_fr_energy">    -83.77356444 </i>
    <i name="e_wo_entrp">    -83.76466580 </i>
    <i name="e_0_energy">    -83.76911512 </i>
   </energy>
  </scstep>
  <structure>
   <crystal>
    <varray name="basis" >
     <v>       5.65685425       0.00000000       0.00000000 </v>
     <v>       0.00000000       4.00000000       0.00000000 </v>
     <v>       0.00000000       0.00000000      11.31370850 </v>
    </varray>
    <i name="volume">    256.00000000 </i>
    <varray name="rec_basis" >
     <v>       0.17677670       0.00000000       0.00000000 </v>
     <v>       0.00000000       0.25000000       0.00000000 </v>
     <v>       0.00000000       0.00000000       0.08838835 </v>
    </varray>
   </crystal>
   <varray name="positions" >
    <v>       0.00000000       0.00000000       0.00000000 </v>
    <v>       0.50000000       0.00000000       0.25000000 </v>
    <v>       0.00000000       0.00000000       0.50000000 </v>
    <v>       0.50000000       0.00000000       0.75000000 </v>
    <v>       0.50000000       0.50000000       0.00000000 </v>
    <v>       0.00000000       0.50000000       0.25000000 </v>
    <v>       0.50000000       0.50000000       0.50000000 </v>
    <v>       0.00000000       0.50000000       0.75000000 </v>
    <v>       0.75000000       0.50000000       0.37500000 </v>
    <v>       0.25000000       0.50000000       0.62500000 </v>
    <v>       0.00000000       0.00000000       0.25000000 </v>
    <v>       0.50000000       0.00000000       0.50000000 </v>
    <v>       0.00000000       0.00000000       0.75000000 </v>
    <v>       0.75000000       0.50000000       0.12500000 </v>
    <v>       0.25000000       0.50000000       0.37500000 </v>
    <v>       0.75000000       0.50000000       0.62500000 </v>
    <v>       0.25000000       0.50000000       0.87500000 </v>
   </varray>
  </structure>
  <varray name="forces" >
   <v>       0.00000000       0.00000000       0.00000000 </v>
   <v>       0.73985123       0.00000000       2.03996379 </v>
   <v>       0.00000000       0.00000000       0.00000000 </v>
   <v>      -0.73985123       0.00000000      -2.03996379 </v>
   <v>       0.00000000       0.00000000       0.00000000 </v>
   <v>       0.05646042       0.00000000       1.24142288 </v>
   <v>       0.00000000       0.00000000       0.00000000 </v>
   <v>      -0.05646042       0.00000000      -1.24142288 </v>
   <v>      -0.88303964       0.00000000       0.39351696 </v>
   <v>       0.88303964       0.00000000      -0.39351696 </v>
   <v>       0.78847400       0.00000000      -1.18562793 </v>
   <v>       0.00000000       0.00000000       0.00000000 </v>
   <v>      -0.78847400       0.00000000       1.18562793 </v>
   <v>      -1.30965606       0.00000000      -2.46717392 </v>
   <v>      -0.08133317       0.00000000      -1.07687608 </v>
   <v>       0.08133317       0.00000000       1.07687608 </v>
   <v>       1.30965606       0.00000000       2.46717392 </v>
  </varray>
  <varray name="stress" >
   <v>     -92.48873935       0.00000000       5.79776213 </v>
   <v>       0.00000000     -83.44664673       0.00000000 </v>
   <v>       5.79776170       0.00000000     -98.95988037 </v>
  </varray>
  <energy>
   <i name="e_fr_energy">    -83.77356444 </i>
   <i name="e_wo_entrp">    -83.76911512 </i>
   <i name="e_0_energy">     -0.00889864 </i>
  </energy>
  <time name="totalsc">  127.87  128.59</time>
  <eigenvalues>
   <array>
    <dimension dim="1">band</dimension>
    <dimension dim="2">kpoint</dimension>
    <dimension dim="3">spin</dimension>
    <field>eigene</field>
    <field>occ</field>
    <set>
     <set comment="spin 1">
      <set comment="kpoint 1">
       <r>  -32.2913    1.0000 </r>
       <r>  -31.0298    1.0000 </r>
       <r>  -31.0296    1.0000 </r>
       <r>  -29.8282    1.0000 </r>
       <r>  -15.0457    1.0000 </r>
       <r>  -14.7828    1.0000 </r>
       <r>  -14.6757    1.0000 </r>
       <r>  -14.6123    1.0000 </r>
       <r>  -14.2690    1.0000 </r>
       <r>  -14.2046    1.0000 </r>
       <r>  -13.9575    1.0000 </r>
       <r>  -13.9403    1.0000 </r>
       <r>  -13.7266    1.0000 </r>
       <r>  -13.6709    1.0000 </r>
       <r>  -13.5098    1.0000 </r>
       <r>  -13.5082    1.0000 </r>
       <r>  -12.9411    1.0000 </r>
       <r>  -12.9410    1.0000 </r>
       <r>  -12.9301    1.0000 </r>
       <r>  -12.9009    1.0000 </r>
       <r>  -12.7008    1.0000 </r>
       <r>  -12.6641    1.0000 </r>
       <r>  -11.7506    1.0000 </r>
       <r>  -11.6713    1.0000 </r>
       <r>  -11.6399    1.0000 </r>
       <r>   -2.9558    1.0000 </r>
       <r>   -2.3643    1.0000 </r>
       <r>   -2.1522    1.0000 </r>
       <r>   -2.0771    1.0000 </r>
       <r>   -1.9705    1.0000 </r>
       <r>   -1.6815    1.0000 </r>
       <r>   -1.5172    1.0000 </r>
       <r>   -1.4625    1.0000 </r>
       <r>   -1.4145    1.0000 </r>
       <r>   -1.3638    1.0000 </r>
       <r>   -1.2821    1.0000 </r>
       <r>   -1.2183    1.0000 </r>
       <r>   -0.9989    1.0000 </r>
       <r>   -0.8633    1.0000 </r>
       <r>   -0.8505    1.0000 </r>
       <r>   -0.8438    1.0000 </r>
       <r>   -0.8014    1.0000 </r>
       <r>   -0.7903    1.0000 </r>
       <r>   -0.7171    1.0000 </r>
       <r>   -0.6646    1.0000 </r>
       <r>   -0.6093    1.0000 </r>
       <r>   -0.4599    1.0000 </r>
       <r>   -0.2557    1.0000 </r>
       <r>   -0.1073    1.0000 </r>
       <r>    0.0155    1.0000 </r>
       <r>    0.3466    1.0000 </r>
       <r>    0.4415    1.0000 </r>
       <r>    0.5299    1.0000 </r>
       <r>    0.8171    1.0000 </r>
       <r>    0.9032    1.0000 </r>
       <r>    0.9207    1.0000 </r>
       <r>    1.0917    1.0000 </r>
       <r>    1.0965    1.0000 </r>
       <r>    1.1178    1.0000 </r>
       <r>    1.2544    1.0000 </r>
       <r>    1.2659    1.0000 </r>
       <r>    1.2969    1.0000 </r>
       <r>    1.4549    1.0000 </r>
       <r>    1.7438    1.0000 </r>
       <r>    1.7524    1.0000 </r>
       <r>    1.7843    1.0000 </r>
       <r>    1.9087    1.0000 </r>
       <r>    1.9135    1.0000 </r>
       <r>    2.1545    1.0000 </r>
       <r>    2.3031    1.0000 </r>
       <r>    2.5876    0.8335 </r>
       <r>    3.3732    0.0000 </r>
       <r>    3.6707    0.0000 </r>
       <r>    4.5891    0.0000 </r>
       <r>    5.7087    0.0000 </r>
       <r>    7.0880    0.0000 </r>
       <r>    7.7171    0.0000 </r>
       <r>    7.8865    0.0000 </r>
       <r>    8.0934    0.0000 </r>
       <r>    8.0958    0.0000 </r>
       <r>    8.4087    0.0000 </r>
       <r>    8.5628    0.0000 </r>
       <r>    8.8658    0.0000 </r>
       <r>    9.2277    0.0000 </r>
       <r>    9.3457    0.0000 </r>
       <r>    9.5074    0.0000 </r>
       <r>    9.7392    0.0000 </r>
       <r>    9.7855    0.0000 </r>
       <r>   10.0628    0.0000 </r>
       <r>   10.1009    0.0000 </r>
       <r>   10.4497    0.0000 </r>
       <r>   10.5685    0.0000 </r>
      </set>
      <set comment="kpoint 2">
       <r>  -32.2912    1.0000 </r>
       <r>  -31.0296    1.0000 </r>
       <r>  -31.0294    1.0000 </r>
       <r>  -29.8280    1.0000 </r>
       <r>  -15.1235    1.0000 </r>
       <r>  -14.8059    1.0000 </r>
       <r>  -14.6924    1.0000 </r>
       <r>  -14.6337    1.0000 </r>
       <r>  -14.2325    1.0000 </r>
       <r>  -14.2046    1.0000 </r>
       <r>  -14.1615    1.0000 </r>
       <r>  -13.8046    1.0000 </r>
       <r>  -13.7662    1.0000 </r>
       <r>  -13.6410    1.0000 </r>
       <r>  -13.5165    1.0000 </r>
       <r>  -13.3962    1.0000 </r>
       <r>  -12.9409    1.0000 </r>
       <r>  -12.9408    1.0000 </r>
       <r>  -12.9252    1.0000 </r>
       <r>  -12.8776    1.0000 </r>
       <r>  -12.6684    1.0000 </r>
       <r>  -12.6207    1.0000 </r>
       <r>  -11.7507    1.0000 </r>
       <r>  -11.6280    1.0000 </r>
       <r>  -11.6232    1.0000 </r>
       <r>   -2.8411    1.0000 </r>
       <r>   -2.5561    1.0000 </r>
       <r>   -2.2776    1.0000 </r>
       <r>   -1.8929    1.0000 </r>
       <r>   -1.6740    1.0000 </r>
       <r>   -1.4551    1.0000 </r>
       <r>   -1.4497    1.0000 </r>
       <r>   -1.4275    1.0000 </r>
       <r>   -1.3897    1.0000 </r>
       <r>   -1.3707    1.0000 </r>
       <r>   -1.3347    1.0000 </r>
       <r>   -1.1984    1.0000 </r>
       <r>   -1.1239    1.0000 </r>
       <r>   -1.0274    1.0000 </r>
       <r>   -0.9274    1.0000 </r>
       <r>   -0.8844    1.0000 </r>
       <r>   -0.8309    1.0000 </r>
       <r>   -0.7743    1.0000 </r>
       <r>   -0.6675    1.0000 </r>
       <r>   -0.6241    1.0000 </r>
       <r>   -0.5749    1.0000 </r>
       <r>   -0.5639    1.0000 </r>
       <r>   -0.3378    1.0000 </r>
       <r>   -0.2972    1.0000 </r>
       <r>    0.0321    1.0000 </r>
       <r>    0.2322    1.0000 </r>
       <r>    0.4683    1.0000 </r>
       <r>    0.5485    1.0000 </r>
       <r>    0.6823    1.0000 </r>
       <r>    0.7373    1.0000 </r>
       <r>    0.8244    1.0000 </r>
       <r>    0.9906    1.0000 </r>
       <r>    1.0571    1.0000 </r>
       <r>    1.1922    1.0000 </r>
       <r>    1.2444    1.0000 </r>
       <r>    1.3527    1.0000 </r>
       <r>    1.4225    1.0000 </r>
       <r>    1.4545    1.0000 </r>
       <r>    1.7047    1.0000 </r>
       <r>    1.8045    1.0000 </r>
       <r>    1.8413    1.0000 </r>
       <r>    1.9166    1.0000 </r>
       <r>    1.9519    1.0000 </r>
       <r>    2.1236    1.0000 </r>
       <r>    2.1957    1.0000 </r>
       <r>    2.2826    1.0000 </r>
       <r>    3.2459    0.0000 </r>
       <r>    3.6422    0.0000 </r>
       <r>    4.7388    0.0000 </r>
       <r>    5.8476    0.0000 </r>
       <r>    7.1273    0.0000 </r>
       <r>    7.4030    0.0000 </r>
       <r>    7.5013    0.0000 </r>
       <r>    7.6758    0.0000 </r>
       <r>    8.1509    0.0000 </r>
       <r>    8.5647    0.0000 </r>
       <r>    8.9234    0.0000 </r>
       <r>    9.1386    0.0000 </r>
       <r>    9.3675    0.0000 </r>
       <r>    9.5053    0.0000 </r>
       <r>    9.6446    0.0000 </r>
       <r>    9.8527    0.0000 </r>
       <r>   10.0150    0.0000 </r>
       <r>   10.1678    0.0000 </r>
       <r>   10.3187    0.0000 </r>
       <r>   10.4024    0.0000 </r>
       <r>   10.6374    0.0000 </r>
      </set>
      <set comment="kpoint 3">
       <r>  -32.2911    1.0000 </r>
       <r>  -31.0295    1.0000 </r>
       <r>  -31.0292    1.0000 </r>
       <r>  -29.8278    1.0000 </r>
       <r>  -15.1874    1.0000 </r>
       <r>  -14.8124    1.0000 </r>
       <r>  -14.7610    1.0000 </r>
       <r>  -14.6540    1.0000 </r>
       <r>  -14.2045    1.0000 </r>
       <r>  -14.1924    1.0000 </r>
       <r>  -14.1875    1.0000 </r>
       <r>  -13.8436    1.0000 </r>
       <r>  -13.7861    1.0000 </r>
       <r>  -13.5727    1.0000 </r>
       <r>  -13.4934    1.0000 </r>
       <r>  -13.3873    1.0000 </r>
       <r>  -12.9407    1.0000 </r>
       <r>  -12.9406    1.0000 </r>
       <r>  -12.9042    1.0000 </r>
       <r>  -12.8537    1.0000 </r>
       <r>  -12.6103    1.0000 </r>
       <r>  -12.5927    1.0000 </r>
       <r>  -11.7508    1.0000 </r>
       <r>  -11.6115    1.0000 </r>
       <r>  -11.5762    1.0000 </r>
       <r>   -2.8980    1.0000 </r>
       <r>   -2.3433    1.0000 </r>
       <r>   -2.1541    1.0000 </r>
       <r>   -2.0111    1.0000 </r>
       <r>   -1.6703    1.0000 </r>
       <r>   -1.5758    1.0000 </r>
       <r>   -1.4383    1.0000 </r>
       <r>   -1.3937    1.0000 </r>
       <r>   -1.3520    1.0000 </r>
       <r>   -1.3518    1.0000 </r>
       <r>   -1.2882    1.0000 </r>
       <r>   -1.2400    1.0000 </r>
       <r>   -0.9777    1.0000 </r>
       <r>   -0.8977    1.0000 </r>
       <r>   -0.8865    1.0000 </r>
       <r>   -0.8389    1.0000 </r>
       <r>   -0.8186    1.0000 </r>
       <r>   -0.8100    1.0000 </r>
       <r>   -0.7621    1.0000 </r>
       <r>   -0.6519    1.0000 </r>
       <r>   -0.5983    1.0000 </r>
       <r>   -0.5312    1.0000 </r>
       <r>   -0.4564    1.0000 </r>
       <r>   -0.4543    1.0000 </r>
       <r>   -0.0856    1.0000 </r>
       <r>    0.2600    1.0000 </r>
       <r>    0.2621    1.0000 </r>
       <r>    0.4436    1.0000 </r>
       <r>    0.5299    1.0000 </r>
       <r>    0.6911    1.0000 </r>
       <r>    0.7487    1.0000 </r>
       <r>    1.0821    1.0000 </r>
       <r>    1.0917    1.0000 </r>
       <r>    1.1701    1.0000 </r>
       <r>    1.1808    1.0000 </r>
       <r>    1.4151    1.0000 </r>
       <r>    1.4592    1.0000 </r>
       <r>    1.5768    1.0000 </r>
       <r>    1.7024    1.0000 </r>
       <r>    1.7951    1.0000 </r>
       <r>    1.8247    1.0000 </r>
       <r>    1.9192    1.0000 </r>
       <r>    1.9666    1.0000 </r>
       <r>    2.0155    1.0000 </r>
       <r>    2.0541    1.0000 </r>
       <r>    2.3865    1.0000 </r>
       <r>    2.7280    0.0013 </r>
       <r>    4.0854    0.0000 </r>
       <r>    4.4608    0.0000 </r>
       <r>    6.3185    0.0000 </r>
       <r>    6.7818    0.0000 </r>
       <r>    7.0636    0.0000 </r>
       <r>    7.1369    0.0000 </r>
       <r>    7.7551    0.0000 </r>
       <r>    8.4477    0.0000 </r>
       <r>    8.4878    0.0000 </r>
       <r>    9.3690    0.0000 </r>
       <r>    9.3739    0.0000 </r>
       <r>    9.5720    0.0000 </r>
       <r>    9.5812    0.0000 </r>
       <r>    9.7874    0.0000 </r>
       <r>    9.8081    0.0000 </r>
       <r>    9.9526    0.0000 </r>
       <r>   10.1003    0.0000 </r>
       <r>   10.2200    0.0000 </r>
       <r>   10.4838    0.0000 </r>
       <r>   10.6062    0.0000 </r>
      </set>
      <set comment="kpoint 4">
       <r>  -32.2870    1.0000 </r>
       <r>  -31.0253    1.0000 </r>
       <r>  -31.0251    1.0000 </r>
       <r>  -29.8233    1.0000 </r>
       <r>  -14.9408    1.0000 </r>
       <r>  -14.8877    1.0000 </r>
       <r>  -14.6488    1.0000 </r>
       <r>  -14.5773    1.0000 </r>
       <r>  -14.1977    1.0000 </r>
       <r>  -14.1234    1.0000 </r>
       <r>  -13.9457    1.0000 </r>
       <r>  -13.8792    1.0000 </r>
       <r>  -13.8007    1.0000 </r>
       <r>  -13.6805    1.0000 </r>
       <r>  -13.6040    1.0000 </r>
       <r>  -13.5036    1.0000 </r>
       <r>  -13.0280    1.0000 </r>
       <r>  -12.9413    1.0000 </r>
       <r>  -12.8750    1.0000 </r>
       <r>  -12.8199    1.0000 </r>
       <r>  -12.7762    1.0000 </r>
       <r>  -12.7344    1.0000 </r>
       <r>  -11.7416    1.0000 </r>
       <r>  -11.7038    1.0000 </r>
       <r>  -11.6791    1.0000 </r>
       <r>   -2.9580    1.0000 </r>
       <r>   -2.3738    1.0000 </r>
       <r>   -2.1541    1.0000 </r>
       <r>   -2.0246    1.0000 </r>
       <r>   -1.8958    1.0000 </r>
       <r>   -1.8273    1.0000 </r>
       <r>   -1.7510    1.0000 </r>
       <r>   -1.7057    1.0000 </r>
       <r>   -1.6311    1.0000 </r>
       <r>   -1.6290    1.0000 </r>
       <r>   -1.5090    1.0000 </r>
       <r>   -1.4183    1.0000 </r>
       <r>   -1.3409    1.0000 </r>
       <r>   -1.3405    1.0000 </r>
       <r>   -1.2877    1.0000 </r>
       <r>   -1.1560    1.0000 </r>
       <r>   -1.0411    1.0000 </r>
       <r>   -0.9635    1.0000 </r>
       <r>   -0.7871    1.0000 </r>
       <r>   -0.7255    1.0000 </r>
       <r>   -0.7227    1.0000 </r>
       <r>   -0.6811    1.0000 </r>
       <r>   -0.4573    1.0000 </r>
       <r>    0.1100    1.0000 </r>
       <r>    0.2448    1.0000 </r>
       <r>    0.5207    1.0000 </r>
       <r>    0.6253    1.0000 </r>
       <r>    0.6414    1.0000 </r>
       <r>    1.0082    1.0000 </r>
       <r>    1.0546    1.0000 </r>
       <r>    1.0768    1.0000 </r>
       <r>    1.1908    1.0000 </r>
       <r>    1.2383    1.0000 </r>
       <r>    1.2861    1.0000 </r>
       <r>    1.3816    1.0000 </r>
       <r>    1.4977    1.0000 </r>
       <r>    1.6030    1.0000 </r>
       <r>    1.7034    1.0000 </r>
       <r>    1.7373    1.0000 </r>
       <r>    1.8390    1.0000 </r>
       <r>    1.8631    1.0000 </r>
       <r>    2.0222    1.0000 </r>
       <r>    2.2982    1.0000 </r>
       <r>    2.4222    1.0000 </r>
       <r>    2.6878    0.0309 </r>
       <r>    2.7044    0.0097 </r>
       <r>    3.5123    0.0000 </r>
       <r>    3.8543    0.0000 </r>
       <r>    4.5908    0.0000 </r>
       <r>    5.5737    0.0000 </r>
       <r>    7.0990    0.0000 </r>
       <r>    7.5475    0.0000 </r>
       <r>    7.8925    0.0000 </r>
       <r>    8.1741    0.0000 </r>
       <r>    8.4801    0.0000 </r>
       <r>    8.6217    0.0000 </r>
       <r>    8.6801    0.0000 </r>
       <r>    8.9904    0.0000 </r>
       <r>    9.3656    0.0000 </r>
       <r>    9.5364    0.0000 </r>
       <r>    9.5515    0.0000 </r>
       <r>    9.8494    0.0000 </r>
       <r>    9.9239    0.0000 </r>
       <r>   10.0831    0.0000 </r>
       <r>   10.1992    0.0000 </r>
       <r>   10.4967    0.0000 </r>
       <r>   10.6736    0.0000 </r>
      </set>
      <set comment="kpoint 5">
       <r>  -32.2869    1.0000 </r>
       <r>  -31.0251    1.0000 </r>
       <r>  -31.0249    1.0000 </r>
       <r>  -29.8232    1.0000 </r>
       <r>  -15.0103    1.0000 </r>
       <r>  -14.8584    1.0000 </r>
       <r>  -14.6413    1.0000 </r>
       <r>  -14.5962    1.0000 </r>
       <r>  -14.2595    1.0000 </r>
       <r>  -14.1639    1.0000 </r>
       <r>  -13.9921    1.0000 </r>
       <r>  -13.9438    1.0000 </r>
       <r>  -13.7603    1.0000 </r>
       <r>  -13.6964    1.0000 </r>
       <r>  -13.6298    1.0000 </r>
       <r>  -13.4064    1.0000 </r>
       <r>  -13.0052    1.0000 </r>
       <r>  -12.9370    1.0000 </r>
       <r>  -12.8719    1.0000 </r>
       <r>  -12.8129    1.0000 </r>
       <r>  -12.6990    1.0000 </r>
       <r>  -12.6653    1.0000 </r>
       <r>  -11.7068    1.0000 </r>
       <r>  -11.6724    1.0000 </r>
       <r>  -11.6629    1.0000 </r>
       <r>   -2.8388    1.0000 </r>
       <r>   -2.5835    1.0000 </r>
       <r>   -2.2835    1.0000 </r>
       <r>   -1.8527    1.0000 </r>
       <r>   -1.7980    1.0000 </r>
       <r>   -1.7729    1.0000 </r>
       <r>   -1.7067    1.0000 </r>
       <r>   -1.6847    1.0000 </r>
       <r>   -1.6068    1.0000 </r>
       <r>   -1.5635    1.0000 </r>
       <r>   -1.4609    1.0000 </r>
       <r>   -1.4260    1.0000 </r>
       <r>   -1.3849    1.0000 </r>
       <r>   -1.3492    1.0000 </r>
       <r>   -1.2589    1.0000 </r>
       <r>   -1.1428    1.0000 </r>
       <r>   -1.0832    1.0000 </r>
       <r>   -1.0128    1.0000 </r>
       <r>   -0.9299    1.0000 </r>
       <r>   -0.8747    1.0000 </r>
       <r>   -0.7106    1.0000 </r>
       <r>   -0.6848    1.0000 </r>
       <r>   -0.3539    1.0000 </r>
       <r>   -0.0332    1.0000 </r>
       <r>    0.1910    1.0000 </r>
       <r>    0.5000    1.0000 </r>
       <r>    0.6418    1.0000 </r>
       <r>    0.8315    1.0000 </r>
       <r>    0.8784    1.0000 </r>
       <r>    0.9915    1.0000 </r>
       <r>    1.1029    1.0000 </r>
       <r>    1.1829    1.0000 </r>
       <r>    1.2234    1.0000 </r>
       <r>    1.2997    1.0000 </r>
       <r>    1.3152    1.0000 </r>
       <r>    1.4103    1.0000 </r>
       <r>    1.4573    1.0000 </r>
       <r>    1.6218    1.0000 </r>
       <r>    1.7026    1.0000 </r>
       <r>    1.8604    1.0000 </r>
       <r>    1.9751    1.0000 </r>
       <r>    2.0395    1.0000 </r>
       <r>    2.1285    1.0000 </r>
       <r>    2.3654    1.0000 </r>
       <r>    2.4680    1.0000 </r>
       <r>    2.8858    0.0000 </r>
       <r>    3.3901    0.0000 </r>
       <r>    3.8863    0.0000 </r>
       <r>    4.7982    0.0000 </r>
       <r>    5.7393    0.0000 </r>
       <r>    7.1245    0.0000 </r>
       <r>    7.1990    0.0000 </r>
       <r>    7.7064    0.0000 </r>
       <r>    7.9459    0.0000 </r>
       <r>    8.4220    0.0000 </r>
       <r>    8.7140    0.0000 </r>
       <r>    9.0238    0.0000 </r>
       <r>    9.0623    0.0000 </r>
       <r>    9.5030    0.0000 </r>
       <r>    9.6427    0.0000 </r>
       <r>    9.6973    0.0000 </r>
       <r>   10.0167    0.0000 </r>
       <r>   10.0803    0.0000 </r>
       <r>   10.2877    0.0000 </r>
       <r>   10.4504    0.0000 </r>
       <r>   10.5306    0.0000 </r>
       <r>   10.7177    0.0000 </r>
      </set>
      <set comment="kpoint 6">
       <r>  -32.2869    1.0000 </r>
       <r>  -31.0250    1.0000 </r>
       <r>  -31.0248    1.0000 </r>
       <r>  -29.8230    1.0000 </r>
       <r>  -15.0605    1.0000 </r>
       <r>  -14.8452    1.0000 </r>
       <r>  -14.6480    1.0000 </r>
       <r>  -14.6118    1.0000 </r>
       <r>  -14.3650    1.0000 </r>
       <r>  -14.1404    1.0000 </r>
       <r>  -13.9822    1.0000 </r>
       <r>  -13.9033    1.0000 </r>
       <r>  -13.8776    1.0000 </r>
       <r>  -13.6851    1.0000 </r>
       <r>  -13.6219    1.0000 </r>
       <r>  -13.4193    1.0000 </r>
       <r>  -12.9912    1.0000 </r>
       <r>  -12.9251    1.0000 </r>
       <r>  -12.8468    1.0000 </r>
       <r>  -12.7698    1.0000 </r>
       <r>  -12.6235    1.0000 </r>
       <r>  -12.6188    1.0000 </r>
       <r>  -11.6895    1.0000 </r>
       <r>  -11.6646    1.0000 </r>
       <r>  -11.6035    1.0000 </r>
       <r>   -2.9206    1.0000 </r>
       <r>   -2.3654    1.0000 </r>
       <r>   -2.1564    1.0000 </r>
       <r>   -2.0072    1.0000 </r>
       <r>   -1.8339    1.0000 </r>
       <r>   -1.7833    1.0000 </r>
       <r>   -1.7206    1.0000 </r>
       <r>   -1.7002    1.0000 </r>
       <r>   -1.6739    1.0000 </r>
       <r>   -1.5532    1.0000 </r>
       <r>   -1.5336    1.0000 </r>
       <r>   -1.4082    1.0000 </r>
       <r>   -1.3659    1.0000 </r>
       <r>   -1.3376    1.0000 </r>
       <r>   -1.3272    1.0000 </r>
       <r>   -1.1620    1.0000 </r>
       <r>   -1.1361    1.0000 </r>
       <r>   -0.9913    1.0000 </r>
       <r>   -0.9077    1.0000 </r>
       <r>   -0.7078    1.0000 </r>
       <r>   -0.6875    1.0000 </r>
       <r>   -0.5760    1.0000 </r>
       <r>   -0.2812    1.0000 </r>
       <r>   -0.2374    1.0000 </r>
       <r>    0.1262    1.0000 </r>
       <r>    0.4366    1.0000 </r>
       <r>    0.7103    1.0000 </r>
       <r>    0.8344    1.0000 </r>
       <r>    0.8671    1.0000 </r>
       <r>    0.8802    1.0000 </r>
       <r>    1.0764    1.0000 </r>
       <r>    1.0850    1.0000 </r>
       <r>    1.1814    1.0000 </r>
       <r>    1.2756    1.0000 </r>
       <r>    1.3233    1.0000 </r>
       <r>    1.4249    1.0000 </r>
       <r>    1.4398    1.0000 </r>
       <r>    1.5369    1.0000 </r>
       <r>    1.6206    1.0000 </r>
       <r>    1.8245    1.0000 </r>
       <r>    1.8815    1.0000 </r>
       <r>    1.9941    1.0000 </r>
       <r>    2.0768    1.0000 </r>
       <r>    2.2552    1.0000 </r>
       <r>    2.6323    0.3828 </r>
       <r>    2.9608    0.0000 </r>
       <r>    3.1558    0.0000 </r>
       <r>    4.3846    0.0000 </r>
       <r>    4.4884    0.0000 </r>
       <r>    6.0316    0.0000 </r>
       <r>    6.7862    0.0000 </r>
       <r>    7.4284    0.0000 </r>
       <r>    7.4591    0.0000 </r>
       <r>    7.7554    0.0000 </r>
       <r>    8.2830    0.0000 </r>
       <r>    8.4259    0.0000 </r>
       <r>    9.4073    0.0000 </r>
       <r>    9.5567    0.0000 </r>
       <r>    9.5812    0.0000 </r>
       <r>    9.7131    0.0000 </r>
       <r>    9.8173    0.0000 </r>
       <r>    9.9539    0.0000 </r>
       <r>   10.1348    0.0000 </r>
       <r>   10.3031    0.0000 </r>
       <r>   10.5529    0.0000 </r>
       <r>   10.6430    0.0000 </r>
       <r>   11.0451    0.0000 </r>
      </set>
      <set comment="kpoint 7">
       <r>  -32.2801    1.0000 </r>
       <r>  -31.0180    1.0000 </r>
       <r>  -31.0178    1.0000 </r>
       <r>  -29.8155    1.0000 </r>
       <r>  -15.0767    1.0000 </r>
       <r>  -14.6954    1.0000 </r>
       <r>  -14.5488    1.0000 </r>
       <r>  -14.5331    1.0000 </r>
       <r>  -14.2415    1.0000 </r>
       <r>  -14.0157    1.0000 </r>
       <r>  -13.9963    1.0000 </r>
       <r>  -13.8547    1.0000 </r>
       <r>  -13.7851    1.0000 </r>
       <r>  -13.6347    1.0000 </r>
       <r>  -13.5333    1.0000 </r>
       <r>  -13.4875    1.0000 </r>
       <r>  -13.1184    1.0000 </r>
       <r>  -12.9945    1.0000 </r>
       <r>  -12.9284    1.0000 </r>
       <r>  -12.8849    1.0000 </r>
       <r>  -12.8406    1.0000 </r>
       <r>  -12.7467    1.0000 </r>
       <r>  -11.8531    1.0000 </r>
       <r>  -11.7450    1.0000 </r>
       <r>  -11.6342    1.0000 </r>
       <r>   -3.1026    1.0000 </r>
       <r>   -2.7047    1.0000 </r>
       <r>   -2.5854    1.0000 </r>
       <r>   -2.5535    1.0000 </r>
       <r>   -2.2206    1.0000 </r>
       <r>   -2.1139    1.0000 </r>
       <r>   -1.9647    1.0000 </r>
       <r>   -1.8689    1.0000 </r>
       <r>   -1.8116    1.0000 </r>
       <r>   -1.7877    1.0000 </r>
       <r>   -1.7370    1.0000 </r>
       <r>   -1.6261    1.0000 </r>
       <r>   -1.5836    1.0000 </r>
       <r>   -1.4762    1.0000 </r>
       <r>   -1.3337    1.0000 </r>
       <r>   -1.2991    1.0000 </r>
       <r>   -1.2824    1.0000 </r>
       <r>   -1.0347    1.0000 </r>
       <r>   -0.7761    1.0000 </r>
       <r>   -0.7126    1.0000 </r>
       <r>   -0.6930    1.0000 </r>
       <r>   -0.6482    1.0000 </r>
       <r>   -0.2472    1.0000 </r>
       <r>   -0.0445    1.0000 </r>
       <r>    0.1730    1.0000 </r>
       <r>    0.5390    1.0000 </r>
       <r>    0.8055    1.0000 </r>
       <r>    0.8703    1.0000 </r>
       <r>    0.9777    1.0000 </r>
       <r>    1.0085    1.0000 </r>
       <r>    1.2574    1.0000 </r>
       <r>    1.3081    1.0000 </r>
       <r>    1.3649    1.0000 </r>
       <r>    1.3734    1.0000 </r>
       <r>    1.6213    1.0000 </r>
       <r>    1.6434    1.0000 </r>
       <r>    1.7640    1.0000 </r>
       <r>    1.8578    1.0000 </r>
       <r>    1.9662    1.0000 </r>
       <r>    2.1329    1.0000 </r>
       <r>    2.2593    1.0000 </r>
       <r>    2.2858    1.0000 </r>
       <r>    2.2943    1.0000 </r>
       <r>    2.4475    1.0000 </r>
       <r>    3.2109    0.0000 </r>
       <r>    3.4929    0.0000 </r>
       <r>    3.6888    0.0000 </r>
       <r>    3.9571    0.0000 </r>
       <r>    4.5333    0.0000 </r>
       <r>    5.1594    0.0000 </r>
       <r>    7.2503    0.0000 </r>
       <r>    7.5457    0.0000 </r>
       <r>    8.1381    0.0000 </r>
       <r>    8.6627    0.0000 </r>
       <r>    8.7470    0.0000 </r>
       <r>    8.8651    0.0000 </r>
       <r>    9.2044    0.0000 </r>
       <r>    9.3978    0.0000 </r>
       <r>    9.5553    0.0000 </r>
       <r>    9.5878    0.0000 </r>
       <r>    9.8811    0.0000 </r>
       <r>   10.0643    0.0000 </r>
       <r>   10.2359    0.0000 </r>
       <r>   10.2639    0.0000 </r>
       <r>   10.3808    0.0000 </r>
       <r>   10.8195    0.0000 </r>
       <r>   11.0912    0.0000 </r>
      </set>
      <set comment="kpoint 8">
       <r>  -32.2801    1.0000 </r>
       <r>  -31.0179    1.0000 </r>
       <r>  -31.0177    1.0000 </r>
       <r>  -29.8153    1.0000 </r>
       <r>  -15.0365    1.0000 </r>
       <r>  -14.7273    1.0000 </r>
       <r>  -14.5516    1.0000 </r>
       <r>  -14.4735    1.0000 </r>
       <r>  -14.2476    1.0000 </r>
       <r>  -14.0769    1.0000 </r>
       <r>  -14.0486    1.0000 </r>
       <r>  -13.9274    1.0000 </r>
       <r>  -13.8468    1.0000 </r>
       <r>  -13.7275    1.0000 </r>
       <r>  -13.6722    1.0000 </r>
       <r>  -13.5041    1.0000 </r>
       <r>  -13.1003    1.0000 </r>
       <r>  -12.9404    1.0000 </r>
       <r>  -12.8235    1.0000 </r>
       <r>  -12.7738    1.0000 </r>
       <r>  -12.7544    1.0000 </r>
       <r>  -12.6892    1.0000 </r>
       <r>  -11.7482    1.0000 </r>
       <r>  -11.7445    1.0000 </r>
       <r>  -11.6246    1.0000 </r>
       <r>   -2.9560    1.0000 </r>
       <r>   -2.8428    1.0000 </r>
       <r>   -2.6228    1.0000 </r>
       <r>   -2.5613    1.0000 </r>
       <r>   -2.3484    1.0000 </r>
       <r>   -2.2156    1.0000 </r>
       <r>   -2.0165    1.0000 </r>
       <r>   -1.9390    1.0000 </r>
       <r>   -1.8085    1.0000 </r>
       <r>   -1.6799    1.0000 </r>
       <r>   -1.5975    1.0000 </r>
       <r>   -1.5733    1.0000 </r>
       <r>   -1.4917    1.0000 </r>
       <r>   -1.4200    1.0000 </r>
       <r>   -1.3507    1.0000 </r>
       <r>   -1.3342    1.0000 </r>
       <r>   -1.2351    1.0000 </r>
       <r>   -1.0846    1.0000 </r>
       <r>   -0.9978    1.0000 </r>
       <r>   -0.8784    1.0000 </r>
       <r>   -0.7280    1.0000 </r>
       <r>   -0.6409    1.0000 </r>
       <r>   -0.0519    1.0000 </r>
       <r>    0.1457    1.0000 </r>
       <r>    0.2926    1.0000 </r>
       <r>    0.3183    1.0000 </r>
       <r>    0.8132    1.0000 </r>
       <r>    0.9128    1.0000 </r>
       <r>    0.9712    1.0000 </r>
       <r>    1.1340    1.0000 </r>
       <r>    1.1547    1.0000 </r>
       <r>    1.2487    1.0000 </r>
       <r>    1.3399    1.0000 </r>
       <r>    1.3693    1.0000 </r>
       <r>    1.4984    1.0000 </r>
       <r>    1.6321    1.0000 </r>
       <r>    1.7724    1.0000 </r>
       <r>    1.7906    1.0000 </r>
       <r>    1.8517    1.0000 </r>
       <r>    2.0637    1.0000 </r>
       <r>    2.1440    1.0000 </r>
       <r>    2.2515    1.0000 </r>
       <r>    2.3514    1.0000 </r>
       <r>    2.4650    1.0000 </r>
       <r>    2.7928    0.0000 </r>
       <r>    3.5842    0.0000 </r>
       <r>    3.9515    0.0000 </r>
       <r>    4.0090    0.0000 </r>
       <r>    4.8784    0.0000 </r>
       <r>    5.3248    0.0000 </r>
       <r>    6.7305    0.0000 </r>
       <r>    7.7543    0.0000 </r>
       <r>    8.0687    0.0000 </r>
       <r>    8.2807    0.0000 </r>
       <r>    8.8309    0.0000 </r>
       <r>    8.9408    0.0000 </r>
       <r>    9.1357    0.0000 </r>
       <r>    9.5440    0.0000 </r>
       <r>    9.7530    0.0000 </r>
       <r>    9.8618    0.0000 </r>
       <r>   10.0748    0.0000 </r>
       <r>   10.2946    0.0000 </r>
       <r>   10.4301    0.0000 </r>
       <r>   10.5800    0.0000 </r>
       <r>   10.6128    0.0000 </r>
       <r>   10.7405    0.0000 </r>
       <r>   11.0126    0.0000 </r>
      </set>
      <set comment="kpoint 9">
       <r>  -32.2800    1.0000 </r>
       <r>  -31.0177    1.0000 </r>
       <r>  -31.0175    1.0000 </r>
       <r>  -29.8152    1.0000 </r>
       <r>  -14.9864    1.0000 </r>
       <r>  -14.7674    1.0000 </r>
       <r>  -14.5733    1.0000 </r>
       <r>  -14.3710    1.0000 </r>
       <r>  -14.2312    1.0000 </r>
       <r>  -14.2159    1.0000 </r>
       <r>  -14.0557    1.0000 </r>
       <r>  -13.9397    1.0000 </r>
       <r>  -13.9294    1.0000 </r>
       <r>  -13.8368    1.0000 </r>
       <r>  -13.7266    1.0000 </r>
       <r>  -13.5746    1.0000 </r>
       <r>  -13.0924    1.0000 </r>
       <r>  -12.9366    1.0000 </r>
       <r>  -12.7640    1.0000 </r>
       <r>  -12.6665    1.0000 </r>
       <r>  -12.6276    1.0000 </r>
       <r>  -12.6250    1.0000 </r>
       <r>  -11.7436    1.0000 </r>
       <r>  -11.6467    1.0000 </r>
       <r>  -11.6163    1.0000 </r>
       <r>   -3.0570    1.0000 </r>
       <r>   -2.7023    1.0000 </r>
       <r>   -2.6773    1.0000 </r>
       <r>   -2.5337    1.0000 </r>
       <r>   -2.2205    1.0000 </r>
       <r>   -2.1602    1.0000 </r>
       <r>   -2.0975    1.0000 </r>
       <r>   -2.0196    1.0000 </r>
       <r>   -1.9562    1.0000 </r>
       <r>   -1.7801    1.0000 </r>
       <r>   -1.6585    1.0000 </r>
       <r>   -1.5591    1.0000 </r>
       <r>   -1.5318    1.0000 </r>
       <r>   -1.4745    1.0000 </r>
       <r>   -1.4574    1.0000 </r>
       <r>   -1.4150    1.0000 </r>
       <r>   -1.2610    1.0000 </r>
       <r>   -1.0910    1.0000 </r>
       <r>   -0.9321    1.0000 </r>
       <r>   -0.7402    1.0000 </r>
       <r>   -0.6537    1.0000 </r>
       <r>   -0.3792    1.0000 </r>
       <r>   -0.0071    1.0000 </r>
       <r>    0.1469    1.0000 </r>
       <r>    0.2579    1.0000 </r>
       <r>    0.3739    1.0000 </r>
       <r>    0.8447    1.0000 </r>
       <r>    0.9540    1.0000 </r>
       <r>    1.0282    1.0000 </r>
       <r>    1.0826    1.0000 </r>
       <r>    1.1606    1.0000 </r>
       <r>    1.2500    1.0000 </r>
       <r>    1.3321    1.0000 </r>
       <r>    1.3322    1.0000 </r>
       <r>    1.4693    1.0000 </r>
       <r>    1.4786    1.0000 </r>
       <r>    1.5292    1.0000 </r>
       <r>    1.7433    1.0000 </r>
       <r>    1.7441    1.0000 </r>
       <r>    1.9022    1.0000 </r>
       <r>    1.9770    1.0000 </r>
       <r>    2.1392    1.0000 </r>
       <r>    2.2380    1.0000 </r>
       <r>    2.4143    1.0000 </r>
       <r>    3.2128    0.0000 </r>
       <r>    3.6739    0.0000 </r>
       <r>    3.7720    0.0000 </r>
       <r>    4.4627    0.0000 </r>
       <r>    5.2642    0.0000 </r>
       <r>    5.2853    0.0000 </r>
       <r>    6.5076    0.0000 </r>
       <r>    7.2518    0.0000 </r>
       <r>    7.8267    0.0000 </r>
       <r>    8.4298    0.0000 </r>
       <r>    8.4770    0.0000 </r>
       <r>    9.0125    0.0000 </r>
       <r>    9.2900    0.0000 </r>
       <r>    9.9008    0.0000 </r>
       <r>    9.9532    0.0000 </r>
       <r>   10.0200    0.0000 </r>
       <r>   10.3437    0.0000 </r>
       <r>   10.3987    0.0000 </r>
       <r>   10.5807    0.0000 </r>
       <r>   10.6122    0.0000 </r>
       <r>   10.7993    0.0000 </r>
       <r>   10.9463    0.0000 </r>
       <r>   11.0683    0.0000 </r>
      </set>
      <set comment="kpoint 10">
       <r>  -32.2912    1.0000 </r>
       <r>  -31.0298    1.0000 </r>
       <r>  -31.0296    1.0000 </r>
       <r>  -29.8282    1.0000 </r>
       <r>  -15.0422    1.0000 </r>
       <r>  -14.7474    1.0000 </r>
       <r>  -14.7366    1.0000 </r>
       <r>  -14.5543    1.0000 </r>
       <r>  -14.3634    1.0000 </r>
       <r>  -14.2046    1.0000 </r>
       <r>  -13.9062    1.0000 </r>
       <r>  -13.8817    1.0000 </r>
       <r>  -13.7351    1.0000 </r>
       <r>  -13.6710    1.0000 </r>
       <r>  -13.6385    1.0000 </r>
       <r>  -13.4135    1.0000 </r>
       <r>  -12.9416    1.0000 </r>
       <r>  -12.9405    1.0000 </r>
       <r>  -12.9392    1.0000 </r>
       <r>  -12.8930    1.0000 </r>
       <r>  -12.7187    1.0000 </r>
       <r>  -12.6518    1.0000 </r>
       <r>  -11.7506    1.0000 </r>
       <r>  -11.6713    1.0000 </r>
       <r>  -11.6426    1.0000 </r>
       <r>   -2.8319    1.0000 </r>
       <r>   -2.6398    1.0000 </r>
       <r>   -2.2447    1.0000 </r>
       <r>   -1.9831    1.0000 </r>
       <r>   -1.7545    1.0000 </r>
       <r>   -1.6641    1.0000 </r>
       <r>   -1.4816    1.0000 </r>
       <r>   -1.4168    1.0000 </r>
       <r>   -1.4102    1.0000 </r>
       <r>   -1.3922    1.0000 </r>
       <r>   -1.3372    1.0000 </r>
       <r>   -1.0798    1.0000 </r>
       <r>   -1.0345    1.0000 </r>
       <r>   -1.0122    1.0000 </r>
       <r>   -0.9099    1.0000 </r>
       <r>   -0.9039    1.0000 </r>
       <r>   -0.8370    1.0000 </r>
       <r>   -0.7914    1.0000 </r>
       <r>   -0.6728    1.0000 </r>
       <r>   -0.6375    1.0000 </r>
       <r>   -0.5544    1.0000 </r>
       <r>   -0.5357    1.0000 </r>
       <r>   -0.2191    1.0000 </r>
       <r>   -0.2099    1.0000 </r>
       <r>    0.0507    1.0000 </r>
       <r>    0.4190    1.0000 </r>
       <r>    0.5492    1.0000 </r>
       <r>    0.6139    1.0000 </r>
       <r>    0.8046    1.0000 </r>
       <r>    0.9014    1.0000 </r>
       <r>    0.9440    1.0000 </r>
       <r>    1.0016    1.0000 </r>
       <r>    1.0850    1.0000 </r>
       <r>    1.1474    1.0000 </r>
       <r>    1.1994    1.0000 </r>
       <r>    1.2821    1.0000 </r>
       <r>    1.3991    1.0000 </r>
       <r>    1.5173    1.0000 </r>
       <r>    1.5482    1.0000 </r>
       <r>    1.7523    1.0000 </r>
       <r>    1.7845    1.0000 </r>
       <r>    1.7948    1.0000 </r>
       <r>    1.9110    1.0000 </r>
       <r>    2.1547    1.0000 </r>
       <r>    2.3131    1.0000 </r>
       <r>    2.5384    0.9908 </r>
       <r>    3.5715    0.0000 </r>
       <r>    3.5911    0.0000 </r>
       <r>    4.5971    0.0000 </r>
       <r>    5.7474    0.0000 </r>
       <r>    7.1798    0.0000 </r>
       <r>    7.6449    0.0000 </r>
       <r>    7.8888    0.0000 </r>
       <r>    7.9482    0.0000 </r>
       <r>    8.0373    0.0000 </r>
       <r>    8.4726    0.0000 </r>
       <r>    8.5352    0.0000 </r>
       <r>    8.5839    0.0000 </r>
       <r>    9.1742    0.0000 </r>
       <r>    9.3642    0.0000 </r>
       <r>    9.6317    0.0000 </r>
       <r>    9.8909    0.0000 </r>
       <r>   10.1264    0.0000 </r>
       <r>   10.2337    0.0000 </r>
       <r>   10.2657    0.0000 </r>
       <r>   10.2815    0.0000 </r>
       <r>   10.7601    0.0000 </r>
      </set>
      <set comment="kpoint 11">
       <r>  -32.2912    1.0000 </r>
       <r>  -31.0296    1.0000 </r>
       <r>  -31.0294    1.0000 </r>
       <r>  -29.8280    1.0000 </r>
       <r>  -15.1142    1.0000 </r>
       <r>  -14.8040    1.0000 </r>
       <r>  -14.7311    1.0000 </r>
       <r>  -14.5980    1.0000 </r>
       <r>  -14.3060    1.0000 </r>
       <r>  -14.2046    1.0000 </r>
       <r>  -14.0882    1.0000 </r>
       <r>  -13.8310    1.0000 </r>
       <r>  -13.7786    1.0000 </r>
       <r>  -13.5677    1.0000 </r>
       <r>  -13.5129    1.0000 </r>
       <r>  -13.4429    1.0000 </r>
       <r>  -12.9412    1.0000 </r>
       <r>  -12.9405    1.0000 </r>
       <r>  -12.9257    1.0000 </r>
       <r>  -12.8761    1.0000 </r>
       <r>  -12.6566    1.0000 </r>
       <r>  -12.6308    1.0000 </r>
       <r>  -11.7507    1.0000 </r>
       <r>  -11.6300    1.0000 </r>
       <r>  -11.6240    1.0000 </r>
       <r>   -2.9235    1.0000 </r>
       <r>   -2.3594    1.0000 </r>
       <r>   -2.1395    1.0000 </r>
       <r>   -2.0133    1.0000 </r>
       <r>   -1.8321    1.0000 </r>
       <r>   -1.6737    1.0000 </r>
       <r>   -1.6171    1.0000 </r>
       <r>   -1.4498    1.0000 </r>
       <r>   -1.3887    1.0000 </r>
       <r>   -1.3225    1.0000 </r>
       <r>   -1.2011    1.0000 </r>
       <r>   -1.1275    1.0000 </r>
       <r>   -0.9790    1.0000 </r>
       <r>   -0.9438    1.0000 </r>
       <r>   -0.8436    1.0000 </r>
       <r>   -0.8325    1.0000 </r>
       <r>   -0.8130    1.0000 </r>
       <r>   -0.7763    1.0000 </r>
       <r>   -0.7608    1.0000 </r>
       <r>   -0.6667    1.0000 </r>
       <r>   -0.6576    1.0000 </r>
       <r>   -0.5206    1.0000 </r>
       <r>   -0.3352    1.0000 </r>
       <r>   -0.1551    1.0000 </r>
       <r>   -0.0763    1.0000 </r>
       <r>    0.2759    1.0000 </r>
       <r>    0.3153    1.0000 </r>
       <r>    0.6346    1.0000 </r>
       <r>    0.7273    1.0000 </r>
       <r>    0.7610    1.0000 </r>
       <r>    0.8147    1.0000 </r>
       <r>    0.9199    1.0000 </r>
       <r>    1.0485    1.0000 </r>
       <r>    1.1546    1.0000 </r>
       <r>    1.2412    1.0000 </r>
       <r>    1.3633    1.0000 </r>
       <r>    1.4533    1.0000 </r>
       <r>    1.5496    1.0000 </r>
       <r>    1.6683    1.0000 </r>
       <r>    1.8054    1.0000 </r>
       <r>    1.8282    1.0000 </r>
       <r>    1.8404    1.0000 </r>
       <r>    1.9113    1.0000 </r>
       <r>    2.1252    1.0000 </r>
       <r>    2.2102    1.0000 </r>
       <r>    2.2375    1.0000 </r>
       <r>    3.2409    0.0000 </r>
       <r>    3.7355    0.0000 </r>
       <r>    4.7598    0.0000 </r>
       <r>    5.8632    0.0000 </r>
       <r>    7.1426    0.0000 </r>
       <r>    7.3558    0.0000 </r>
       <r>    7.4013    0.0000 </r>
       <r>    7.6060    0.0000 </r>
       <r>    8.3583    0.0000 </r>
       <r>    8.5575    0.0000 </r>
       <r>    8.9461    0.0000 </r>
       <r>    9.1644    0.0000 </r>
       <r>    9.2266    0.0000 </r>
       <r>    9.3624    0.0000 </r>
       <r>    9.7573    0.0000 </r>
       <r>    9.8206    0.0000 </r>
       <r>   10.0027    0.0000 </r>
       <r>   10.1729    0.0000 </r>
       <r>   10.4278    0.0000 </r>
       <r>   10.5276    0.0000 </r>
       <r>   10.6260    0.0000 </r>
      </set>
      <set comment="kpoint 12">
       <r>  -32.2911    1.0000 </r>
       <r>  -31.0294    1.0000 </r>
       <r>  -31.0293    1.0000 </r>
       <r>  -29.8278    1.0000 </r>
       <r>  -15.1728    1.0000 </r>
       <r>  -14.8547    1.0000 </r>
       <r>  -14.7476    1.0000 </r>
       <r>  -14.6462    1.0000 </r>
       <r>  -14.2239    1.0000 </r>
       <r>  -14.2045    1.0000 </r>
       <r>  -14.1487    1.0000 </r>
       <r>  -13.8701    1.0000 </r>
       <r>  -13.7702    1.0000 </r>
       <r>  -13.5108    1.0000 </r>
       <r>  -13.4832    1.0000 </r>
       <r>  -13.4501    1.0000 </r>
       <r>  -12.9408    1.0000 </r>
       <r>  -12.9405    1.0000 </r>
       <r>  -12.9036    1.0000 </r>
       <r>  -12.8543    1.0000 </r>
       <r>  -12.6242    1.0000 </r>
       <r>  -12.5762    1.0000 </r>
       <r>  -11.7508    1.0000 </r>
       <r>  -11.6144    1.0000 </r>
       <r>  -11.5762    1.0000 </r>
       <r>   -2.8344    1.0000 </r>
       <r>   -2.4985    1.0000 </r>
       <r>   -2.3081    1.0000 </r>
       <r>   -1.6816    1.0000 </r>
       <r>   -1.6132    1.0000 </r>
       <r>   -1.4502    1.0000 </r>
       <r>   -1.4270    1.0000 </r>
       <r>   -1.3729    1.0000 </r>
       <r>   -1.3684    1.0000 </r>
       <r>   -1.3315    1.0000 </r>
       <r>   -1.3296    1.0000 </r>
       <r>   -1.2602    1.0000 </r>
       <r>   -1.1487    1.0000 </r>
       <r>   -1.0229    1.0000 </r>
       <r>   -0.9746    1.0000 </r>
       <r>   -0.9582    1.0000 </r>
       <r>   -0.8243    1.0000 </r>
       <r>   -0.7625    1.0000 </r>
       <r>   -0.6580    1.0000 </r>
       <r>   -0.6102    1.0000 </r>
       <r>   -0.5739    1.0000 </r>
       <r>   -0.5493    1.0000 </r>
       <r>   -0.5150    1.0000 </r>
       <r>   -0.3790    1.0000 </r>
       <r>    0.0870    1.0000 </r>
       <r>    0.1109    1.0000 </r>
       <r>    0.3491    1.0000 </r>
       <r>    0.4320    1.0000 </r>
       <r>    0.6607    1.0000 </r>
       <r>    0.6937    1.0000 </r>
       <r>    0.7449    1.0000 </r>
       <r>    0.8496    1.0000 </r>
       <r>    0.9946    1.0000 </r>
       <r>    1.1753    1.0000 </r>
       <r>    1.2355    1.0000 </r>
       <r>    1.4243    1.0000 </r>
       <r>    1.5420    1.0000 </r>
       <r>    1.5916    1.0000 </r>
       <r>    1.6712    1.0000 </r>
       <r>    1.8264    1.0000 </r>
       <r>    1.8836    1.0000 </r>
       <r>    1.9075    1.0000 </r>
       <r>    1.9727    1.0000 </r>
       <r>    2.0162    1.0000 </r>
       <r>    2.0529    1.0000 </r>
       <r>    2.2616    1.0000 </r>
       <r>    2.7395    0.0004 </r>
       <r>    4.1266    0.0000 </r>
       <r>    4.4943    0.0000 </r>
       <r>    6.3161    0.0000 </r>
       <r>    6.7762    0.0000 </r>
       <r>    7.0133    0.0000 </r>
       <r>    7.1401    0.0000 </r>
       <r>    7.6750    0.0000 </r>
       <r>    8.5193    0.0000 </r>
       <r>    8.5702    0.0000 </r>
       <r>    9.3193    0.0000 </r>
       <r>    9.3741    0.0000 </r>
       <r>    9.4404    0.0000 </r>
       <r>    9.5407    0.0000 </r>
       <r>    9.8114    0.0000 </r>
       <r>    9.9217    0.0000 </r>
       <r>    9.9830    0.0000 </r>
       <r>   10.0733    0.0000 </r>
       <r>   10.5045    0.0000 </r>
       <r>   10.5867    0.0000 </r>
       <r>   10.6743    0.0000 </r>
      </set>
      <set comment="kpoint 13">
       <r>  -32.2870    1.0000 </r>
       <r>  -31.0253    1.0000 </r>
       <r>  -31.0251    1.0000 </r>
       <r>  -29.8233    1.0000 </r>
       <r>  -14.9472    1.0000 </r>
       <r>  -14.8764    1.0000 </r>
       <r>  -14.6551    1.0000 </r>
       <r>  -14.5359    1.0000 </r>
       <r>  -14.3265    1.0000 </r>
       <r>  -14.0599    1.0000 </r>
       <r>  -13.9406    1.0000 </r>
       <r>  -13.8124    1.0000 </r>
       <r>  -13.8028    1.0000 </r>
       <r>  -13.7326    1.0000 </r>
       <r>  -13.6141    1.0000 </r>
       <r>  -13.4793    1.0000 </r>
       <r>  -13.0362    1.0000 </r>
       <r>  -12.9360    1.0000 </r>
       <r>  -12.8724    1.0000 </r>
       <r>  -12.8221    1.0000 </r>
       <r>  -12.7789    1.0000 </r>
       <r>  -12.7328    1.0000 </r>
       <r>  -11.7416    1.0000 </r>
       <r>  -11.7037    1.0000 </r>
       <r>  -11.6830    1.0000 </r>
       <r>   -2.8111    1.0000 </r>
       <r>   -2.6697    1.0000 </r>
       <r>   -2.2446    1.0000 </r>
       <r>   -1.9081    1.0000 </r>
       <r>   -1.8037    1.0000 </r>
       <r>   -1.7815    1.0000 </r>
       <r>   -1.7265    1.0000 </r>
       <r>   -1.6509    1.0000 </r>
       <r>   -1.6474    1.0000 </r>
       <r>   -1.5540    1.0000 </r>
       <r>   -1.4926    1.0000 </r>
       <r>   -1.4639    1.0000 </r>
       <r>   -1.4121    1.0000 </r>
       <r>   -1.3490    1.0000 </r>
       <r>   -1.1267    1.0000 </r>
       <r>   -1.1045    1.0000 </r>
       <r>   -1.0598    1.0000 </r>
       <r>   -1.0177    1.0000 </r>
       <r>   -0.9473    1.0000 </r>
       <r>   -0.8541    1.0000 </r>
       <r>   -0.7163    1.0000 </r>
       <r>   -0.6820    1.0000 </r>
       <r>   -0.3863    1.0000 </r>
       <r>    0.0303    1.0000 </r>
       <r>    0.3926    1.0000 </r>
       <r>    0.4757    1.0000 </r>
       <r>    0.5297    1.0000 </r>
       <r>    0.8699    1.0000 </r>
       <r>    1.0310    1.0000 </r>
       <r>    1.0354    1.0000 </r>
       <r>    1.1387    1.0000 </r>
       <r>    1.2216    1.0000 </r>
       <r>    1.2353    1.0000 </r>
       <r>    1.2745    1.0000 </r>
       <r>    1.3306    1.0000 </r>
       <r>    1.4462    1.0000 </r>
       <r>    1.4664    1.0000 </r>
       <r>    1.6451    1.0000 </r>
       <r>    1.6670    1.0000 </r>
       <r>    1.7628    1.0000 </r>
       <r>    2.0152    1.0000 </r>
       <r>    2.1027    1.0000 </r>
       <r>    2.3590    1.0000 </r>
       <r>    2.4413    1.0000 </r>
       <r>    2.5268    0.9964 </r>
       <r>    2.7235    0.0020 </r>
       <r>    3.5896    0.0000 </r>
       <r>    3.7817    0.0000 </r>
       <r>    4.6883    0.0000 </r>
       <r>    5.5875    0.0000 </r>
       <r>    7.1444    0.0000 </r>
       <r>    7.4503    0.0000 </r>
       <r>    7.9055    0.0000 </r>
       <r>    7.9775    0.0000 </r>
       <r>    8.3338    0.0000 </r>
       <r>    8.7163    0.0000 </r>
       <r>    8.8567    0.0000 </r>
       <r>    8.9600    0.0000 </r>
       <r>    9.3568    0.0000 </r>
       <r>    9.5704    0.0000 </r>
       <r>    9.6602    0.0000 </r>
       <r>    9.8495    0.0000 </r>
       <r>    9.9055    0.0000 </r>
       <r>   10.1392    0.0000 </r>
       <r>   10.2750    0.0000 </r>
       <r>   10.5106    0.0000 </r>
       <r>   10.5510    0.0000 </r>
      </set>
      <set comment="kpoint 14">
       <r>  -32.2869    1.0000 </r>
       <r>  -31.0251    1.0000 </r>
       <r>  -31.0249    1.0000 </r>
       <r>  -29.8232    1.0000 </r>
       <r>  -15.0078    1.0000 </r>
       <r>  -14.8531    1.0000 </r>
       <r>  -14.6534    1.0000 </r>
       <r>  -14.5657    1.0000 </r>
       <r>  -14.3566    1.0000 </r>
       <r>  -14.0680    1.0000 </r>
       <r>  -14.0137    1.0000 </r>
       <r>  -13.9360    1.0000 </r>
       <r>  -13.8531    1.0000 </r>
       <r>  -13.6293    1.0000 </r>
       <r>  -13.5147    1.0000 </r>
       <r>  -13.5052    1.0000 </r>
       <r>  -13.0136    1.0000 </r>
       <r>  -12.9323    1.0000 </r>
       <r>  -12.8698    1.0000 </r>
       <r>  -12.8135    1.0000 </r>
       <r>  -12.6927    1.0000 </r>
       <r>  -12.6682    1.0000 </r>
       <r>  -11.7068    1.0000 </r>
       <r>  -11.6762    1.0000 </r>
       <r>  -11.6629    1.0000 </r>
       <r>   -2.9356    1.0000 </r>
       <r>   -2.3691    1.0000 </r>
       <r>   -2.1455    1.0000 </r>
       <r>   -2.0023    1.0000 </r>
       <r>   -1.8194    1.0000 </r>
       <r>   -1.8018    1.0000 </r>
       <r>   -1.7749    1.0000 </r>
       <r>   -1.7157    1.0000 </r>
       <r>   -1.6547    1.0000 </r>
       <r>   -1.6250    1.0000 </r>
       <r>   -1.5338    1.0000 </r>
       <r>   -1.4787    1.0000 </r>
       <r>   -1.3937    1.0000 </r>
       <r>   -1.3340    1.0000 </r>
       <r>   -1.1785    1.0000 </r>
       <r>   -1.1433    1.0000 </r>
       <r>   -1.0634    1.0000 </r>
       <r>   -0.9829    1.0000 </r>
       <r>   -0.9002    1.0000 </r>
       <r>   -0.7158    1.0000 </r>
       <r>   -0.6859    1.0000 </r>
       <r>   -0.6268    1.0000 </r>
       <r>   -0.4420    1.0000 </r>
       <r>    0.0492    1.0000 </r>
       <r>    0.2191    1.0000 </r>
       <r>    0.4044    1.0000 </r>
       <r>    0.6504    1.0000 </r>
       <r>    0.8132    1.0000 </r>
       <r>    0.9158    1.0000 </r>
       <r>    0.9648    1.0000 </r>
[...]
       <r>     2.4509     6.8163    69.1838 </r>
       <r>     2.6107     3.0470    69.6708 </r>
       <r>     2.7706     1.8308    69.9635 </r>
       <r>     2.9304     1.8993    70.2671 </r>
       <r>     3.0902     1.1671    70.4536 </r>
       <r>     3.2501     2.1255    70.7933 </r>
       <r>     3.4099     1.6047    71.0498 </r>
       <r>     3.5698     2.1273    71.3899 </r>
       <r>     3.7296     2.3735    71.7692 </r>
       <r>     3.8894     2.6403    72.1913 </r>
       <r>     4.0493     2.8395    72.6451 </r>
       <r>     4.2091     0.9658    72.7995 </r>
       <r>     4.3690     0.1590    72.8249 </r>
       <r>     4.5288     1.9224    73.1322 </r>
       <r>     4.6886     1.3429    73.3469 </r>
       <r>     4.8485     1.9675    73.6613 </r>
       <r>     5.0083     1.4653    73.8956 </r>
       <r>     5.1682     0.4122    73.9614 </r>
       <r>     5.3280     2.0021    74.2815 </r>
       <r>     5.4878     0.7447    74.4005 </r>
       <r>     5.6477     0.6132    74.4985 </r>
       <r>     5.8075     1.5408    74.7448 </r>
       <r>     5.9674     0.6694    74.8518 </r>
       <r>     6.1272     0.6020    74.9480 </r>
       <r>     6.2870     0.0739    74.9598 </r>
       <r>     6.4469     0.2803    75.0046 </r>
       <r>     6.6067     0.5962    75.0999 </r>
       <r>     6.7666     1.3908    75.3222 </r>
       <r>     6.9264     0.8005    75.4502 </r>
       <r>     7.0862     0.7781    75.5745 </r>
       <r>     7.2461     4.3240    76.2657 </r>
       <r>     7.4059     2.0241    76.5892 </r>
       <r>     7.5658     2.4170    76.9755 </r>
       <r>     7.7256     2.9581    77.4484 </r>
       <r>     7.8854     2.9085    77.9133 </r>
       <r>     8.0453     2.5356    78.3185 </r>
       <r>     8.2051     2.2950    78.6854 </r>
       <r>     8.3650     2.4517    79.0772 </r>
       <r>     8.5248     4.5807    79.8094 </r>
       <r>     8.6846     2.2861    80.1748 </r>
       <r>     8.8445     3.6823    80.7634 </r>
       <r>     9.0043     3.7821    81.3679 </r>
       <r>     9.1642     3.7818    81.9724 </r>
       <r>     9.3240     2.8224    82.4236 </r>
       <r>     9.4838     5.0205    83.2260 </r>
       <r>     9.6437     6.4608    84.2587 </r>
       <r>     9.8035     5.4386    85.1280 </r>
       <r>     9.9634     6.9952    86.2461 </r>
       <r>    10.1232     5.9397    87.1955 </r>
       <r>    10.2830     4.7702    87.9580 </r>
       <r>    10.4429     5.9747    88.9130 </r>
       <r>    10.6027     6.9810    90.0288 </r>
       <r>    10.7625     5.7527    90.9484 </r>
       <r>    10.9224     3.5449    91.5150 </r>
       <r>    11.0822     2.2895    91.8809 </r>
       <r>    11.2421     0.4891    91.9591 </r>
       <r>    11.4019     0.2559    92.0000 </r>
       <r>    11.5617     0.0000    92.0000 </r>
       <r>    11.7216     0.0000    92.0000 </r>
       <r>    11.8814     0.0000    92.0000 </r>
       <r>    12.0413     0.0000    92.0000 </r>
       <r>    12.2011     0.0000    92.0000 </r>
       <r>    12.3609     0.0000    92.0000 </r>
       <r>    12.5208     0.0000    92.0000 </r>
       <r>    12.6806     0.0000    92.0000 </r>
       <r>    12.8405     0.0000    92.0000 </r>
       <r>    13.0003     0.0000    92.0000 </r>
       <r>    13.1601     0.0000    92.0000 </r>
       <r>    13.3200     0.0000    92.0000 </r>
       <r>    13.4798     0.0000    92.0000 </r>
      </set>
      <set comment="spin 2">
       <r>   -34.4721     0.0000     0.0000 </r>
       <r>   -34.3123     0.0000     0.0000 </r>
       <r>   -34.1524     0.0000     0.0000 </r>
       <r>   -33.9926     0.0000     0.0000 </r>
       <r>   -33.8327     0.0000     0.0000 </r>
       <r>   -33.6729     0.0000     0.0000 </r>
       <r>   -33.5131     0.0000     0.0000 </r>
       <r>   -33.3532     0.0000     0.0000 </r>
       <r>   -33.1934     0.0000     0.0000 </r>
       <r>   -33.0335     0.0000     0.0000 </r>
       <r>   -32.8737     0.0000     0.0000 </r>
       <r>   -32.7139     0.0000     0.0000 </r>
       <r>   -32.5540     0.0000     0.0000 </r>
       <r>   -32.3942     0.0076     0.0012 </r>
       <r>   -32.2343     5.7948     0.9275 </r>
       <r>   -32.0745     0.4538     1.0000 </r>
       <r>   -31.9147     0.0000     1.0000 </r>
       <r>   -31.7548     0.0000     1.0000 </r>
       <r>   -31.5950     0.0000     1.0000 </r>
       <r>   -31.4351     0.0000     1.0000 </r>
       <r>   -31.2753     0.0000     1.0000 </r>
       <r>   -31.1155     0.0741     1.0118 </r>
       <r>   -30.9556    12.1305     2.9508 </r>
       <r>   -30.7958     0.3080     3.0000 </r>
       <r>   -30.6359     0.0000     3.0000 </r>
       <r>   -30.4761     0.0000     3.0000 </r>
       <r>   -30.3163     0.0000     3.0000 </r>
       <r>   -30.1564     0.0000     3.0000 </r>
       <r>   -29.9966     0.0000     3.0000 </r>
       <r>   -29.8367     2.1967     3.3511 </r>
       <r>   -29.6769     4.0595     4.0000 </r>
       <r>   -29.5171     0.0001     4.0000 </r>
       <r>   -29.3572     0.0000     4.0000 </r>
       <r>   -29.1974     0.0000     4.0000 </r>
       <r>   -29.0375     0.0000     4.0000 </r>
       <r>   -28.8777     0.0000     4.0000 </r>
       <r>   -28.7179     0.0000     4.0000 </r>
       <r>   -28.5580     0.0000     4.0000 </r>
       <r>   -28.3982     0.0000     4.0000 </r>
       <r>   -28.2383     0.0000     4.0000 </r>
       <r>   -28.0785     0.0000     4.0000 </r>
       <r>   -27.9187     0.0000     4.0000 </r>
       <r>   -27.7588     0.0000     4.0000 </r>
       <r>   -27.5990     0.0000     4.0000 </r>
       <r>   -27.4391     0.0000     4.0000 </r>
       <r>   -27.2793     0.0000     4.0000 </r>
       <r>   -27.1195     0.0000     4.0000 </r>
       <r>   -26.9596     0.0000     4.0000 </r>
       <r>   -26.7998     0.0000     4.0000 </r>
       <r>   -26.6399     0.0000     4.0000 </r>
       <r>   -26.4801     0.0000     4.0000 </r>
       <r>   -26.3203     0.0000     4.0000 </r>
       <r>   -26.1604     0.0000     4.0000 </r>
       <r>   -26.0006     0.0000     4.0000 </r>
       <r>   -25.8407     0.0000     4.0000 </r>
       <r>   -25.6809     0.0000     4.0000 </r>
       <r>   -25.5211     0.0000     4.0000 </r>
       <r>   -25.3612     0.0000     4.0000 </r>
       <r>   -25.2014     0.0000     4.0000 </r>
       <r>   -25.0415     0.0000     4.0000 </r>
       <r>   -24.8817     0.0000     4.0000 </r>
       <r>   -24.7219     0.0000     4.0000 </r>
       <r>   -24.5620     0.0000     4.0000 </r>
       <r>   -24.4022     0.0000     4.0000 </r>
       <r>   -24.2424     0.0000     4.0000 </r>
       <r>   -24.0825     0.0000     4.0000 </r>
       <r>   -23.9227     0.0000     4.0000 </r>
       <r>   -23.7628     0.0000     4.0000 </r>
       <r>   -23.6030     0.0000     4.0000 </r>
       <r>   -23.4432     0.0000     4.0000 </r>
       <r>   -23.2833     0.0000     4.0000 </r>
       <r>   -23.1235     0.0000     4.0000 </r>
       <r>   -22.9636     0.0000     4.0000 </r>
       <r>   -22.8038     0.0000     4.0000 </r>
       <r>   -22.6440     0.0000     4.0000 </r>
       <r>   -22.4841     0.0000     4.0000 </r>
       <r>   -22.3243     0.0000     4.0000 </r>
       <r>   -22.1644     0.0000     4.0000 </r>
       <r>   -22.0046     0.0000     4.0000 </r>
       <r>   -21.8448     0.0000     4.0000 </r>
       <r>   -21.6849     0.0000     4.0000 </r>
       <r>   -21.5251     0.0000     4.0000 </r>
       <r>   -21.3652     0.0000     4.0000 </r>
       <r>   -21.2054     0.0000     4.0000 </r>
       <r>   -21.0456     0.0000     4.0000 </r>
       <r>   -20.8857     0.0000     4.0000 </r>
       <r>   -20.7259     0.0000     4.0000 </r>
       <r>   -20.5660     0.0000     4.0000 </r>
       <r>   -20.4062     0.0000     4.0000 </r>
       <r>   -20.2464     0.0000     4.0000 </r>
       <r>   -20.0865     0.0000     4.0000 </r>
       <r>   -19.9267     0.0000     4.0000 </r>
       <r>   -19.7668     0.0000     4.0000 </r>
       <r>   -19.6070     0.0000     4.0000 </r>
       <r>   -19.4472     0.0000     4.0000 </r>
       <r>   -19.2873     0.0000     4.0000 </r>
       <r>   -19.1275     0.0000     4.0000 </r>
       <r>   -18.9676     0.0000     4.0000 </r>
       <r>   -18.8078     0.0000     4.0000 </r>
       <r>   -18.6480     0.0000     4.0000 </r>
       <r>   -18.4881     0.0000     4.0000 </r>
       <r>   -18.3283     0.0000     4.0000 </r>
       <r>   -18.1684     0.0000     4.0000 </r>
       <r>   -18.0086     0.0000     4.0000 </r>
       <r>   -17.8488     0.0000     4.0000 </r>
       <r>   -17.6889     0.0000     4.0000 </r>
       <r>   -17.5291     0.0000     4.0000 </r>
       <r>   -17.3692     0.0000     4.0000 </r>
       <r>   -17.2094     0.0000     4.0000 </r>
       <r>   -17.0496     0.0000     4.0000 </r>
       <r>   -16.8897     0.0000     4.0000 </r>
       <r>   -16.7299     0.0000     4.0000 </r>
       <r>   -16.5700     0.0000     4.0000 </r>
       <r>   -16.4102     0.0000     4.0000 </r>
       <r>   -16.2504     0.0000     4.0000 </r>
       <r>   -16.0905     0.0000     4.0000 </r>
       <r>   -15.9307     0.0000     4.0000 </r>
       <r>   -15.7708     0.0000     4.0000 </r>
       <r>   -15.6110     0.0000     4.0000 </r>
       <r>   -15.4512     0.0000     4.0000 </r>
       <r>   -15.2913     0.0000     4.0000 </r>
       <r>   -15.1315     0.2514     4.0402 </r>
       <r>   -14.9716     4.2230     4.7152 </r>
       <r>   -14.8118     3.3927     5.2575 </r>
       <r>   -14.6520     4.4378     5.9668 </r>
       <r>   -14.4921     7.1910     7.1162 </r>
       <r>   -14.3323     3.6112     7.6934 </r>
       <r>   -14.1724     6.4929     8.7313 </r>
       <r>   -14.0126     6.5321     9.7753 </r>
       <r>   -13.8528     8.0108    11.0558 </r>
       <r>   -13.6929     7.8334    12.3079 </r>
       <r>   -13.5331     6.9646    13.4211 </r>
       <r>   -13.3732     6.9337    14.5294 </r>
       <r>   -13.2134     7.2036    15.6808 </r>
       <r>   -13.0536     4.3981    16.3838 </r>
       <r>   -12.8937     9.1595    17.8478 </r>
       <r>   -12.7339    12.3010    19.8140 </r>
       <r>   -12.5741    11.6849    21.6817 </r>
       <r>   -12.4142     1.9913    22.0000 </r>
       <r>   -12.2544     0.0000    22.0000 </r>
       <r>   -12.0945     0.0000    22.0000 </r>
       <r>   -11.9347     0.0054    22.0009 </r>
       <r>   -11.7749     1.5978    22.2562 </r>
       <r>   -11.6150    12.2238    24.2101 </r>
       <r>   -11.4552     4.9404    24.9998 </r>
       <r>   -11.2953     0.0015    25.0000 </r>
       <r>   -11.1355     0.0000    25.0000 </r>
       <r>   -10.9757     0.0000    25.0000 </r>
       <r>   -10.8158     0.0000    25.0000 </r>
       <r>   -10.6560     0.0000    25.0000 </r>
       <r>   -10.4961     0.0000    25.0000 </r>
       <r>   -10.3363     0.0000    25.0000 </r>
       <r>   -10.1765     0.0000    25.0000 </r>
       <r>   -10.0166     0.0000    25.0000 </r>
       <r>    -9.8568     0.0000    25.0000 </r>
       <r>    -9.6969     0.0000    25.0000 </r>
       <r>    -9.5371     0.0000    25.0000 </r>
       <r>    -9.3773     0.0000    25.0000 </r>
       <r>    -9.2174     0.0000    25.0000 </r>
       <r>    -9.0576     0.0000    25.0000 </r>
       <r>    -8.8977     0.0000    25.0000 </r>
       <r>    -8.7379     0.0000    25.0000 </r>
       <r>    -8.5781     0.0000    25.0000 </r>
       <r>    -8.4182     0.0000    25.0000 </r>
       <r>    -8.2584     0.0000    25.0000 </r>
       <r>    -8.0985     0.0000    25.0000 </r>
       <r>    -7.9387     0.0000    25.0000 </r>
       <r>    -7.7789     0.0000    25.0000 </r>
       <r>    -7.6190     0.0000    25.0000 </r>
       <r>    -7.4592     0.0000    25.0000 </r>
       <r>    -7.2993     0.0000    25.0000 </r>
       <r>    -7.1395     0.0000    25.0000 </r>
       <r>    -6.9797     0.0000    25.0000 </r>
       <r>    -6.8198     0.0000    25.0000 </r>
       <r>    -6.6600     0.0000    25.0000 </r>
       <r>    -6.5001     0.0000    25.0000 </r>
       <r>    -6.3403     0.0000    25.0000 </r>
       <r>    -6.1805     0.0000    25.0000 </r>
       <r>    -6.0206     0.0000    25.0000 </r>
       <r>    -5.8608     0.0000    25.0000 </r>
       <r>    -5.7009     0.0000    25.0000 </r>
       <r>    -5.5411     0.0000    25.0000 </r>
       <r>    -5.3813     0.0000    25.0000 </r>
       <r>    -5.2214     0.0000    25.0000 </r>
       <r>    -5.0616     0.0000    25.0000 </r>
       <r>    -4.9017     0.0000    25.0000 </r>
       <r>    -4.7419     0.0000    25.0000 </r>
       <r>    -4.5821     0.0000    25.0000 </r>
       <r>    -4.4222     0.0000    25.0000 </r>
       <r>    -4.2624     0.0000    25.0000 </r>
       <r>    -4.1025     0.0000    25.0000 </r>
       <r>    -3.9427     0.0000    25.0000 </r>
       <r>    -3.7829     0.0000    25.0000 </r>
       <r>    -3.6230     0.0000    25.0000 </r>
       <r>    -3.4632     0.0000    25.0000 </r>
       <r>    -3.3033     0.0000    25.0000 </r>
       <r>    -3.1435     0.0000    25.0000 </r>
       <r>    -2.9837     0.5528    25.0884 </r>
       <r>    -2.8238     2.2881    25.4541 </r>
       <r>    -2.6640     4.6432    26.1963 </r>
       <r>    -2.5041     2.8840    26.6572 </r>
       <r>    -2.3443     2.7062    27.0898 </r>
       <r>    -2.1845     2.8179    27.5402 </r>
       <r>    -2.0246     7.9844    28.8164 </r>
       <r>    -1.8648     8.3458    30.1504 </r>
       <r>    -1.7049     8.7261    31.5452 </r>
       <r>    -1.5451    11.8434    33.4382 </r>
       <r>    -1.3853    12.7900    35.4826 </r>
       <r>    -1.2254    13.3050    37.6093 </r>
       <r>    -1.0656    13.7250    39.8031 </r>
       <r>    -0.9058    12.1520    41.7454 </r>
       <r>    -0.7459    12.6303    43.7643 </r>
       <r>    -0.5861    14.8235    46.1336 </r>
       <r>    -0.4262     3.8112    46.7428 </r>
       <r>    -0.2664     3.9933    47.3811 </r>
       <r>    -0.1066     2.6429    47.8035 </r>
       <r>     0.0533     2.6165    48.2218 </r>
       <r>     0.2131     3.4443    48.7723 </r>
       <r>     0.3730     6.2466    49.7708 </r>
       <r>     0.5328     4.5846    50.5036 </r>
       <r>     0.6926     4.8633    51.2809 </r>
       <r>     0.8525     4.7921    52.0469 </r>
       <r>     1.0123     9.1092    53.5029 </r>
       <r>     1.1722     8.6713    54.8889 </r>
       <r>     1.3320    10.8980    56.6308 </r>
       <r>     1.4918    13.1122    58.7267 </r>
       <r>     1.6517    10.4261    60.3932 </r>
       <r>     1.8115     9.3107    61.8814 </r>
       <r>     1.9714    10.9896    63.6380 </r>
       <r>     2.1312     9.1639    65.1028 </r>
       <r>     2.2910     9.1211    66.5607 </r>
       <r>     2.4509     5.2914    67.4065 </r>
       <r>     2.6107     5.2754    68.2497 </r>
       <r>     2.7706     4.2927    68.9358 </r>
       <r>     2.9304     4.9464    69.7264 </r>
       <r>     3.0902     1.9743    70.0420 </r>
       <r>     3.2501     2.2341    70.3991 </r>
       <r>     3.4099     0.8809    70.5399 </r>
       <r>     3.5698     2.4261    70.9277 </r>
       <r>     3.7296     3.1482    71.4309 </r>
       <r>     3.8894     3.0062    71.9114 </r>
       <r>     4.0493     2.3651    72.2895 </r>
       <r>     4.2091     2.3267    72.6614 </r>
       <r>     4.3690     0.9342    72.8107 </r>
       <r>     4.5288     1.0726    72.9821 </r>
       <r>     4.6886     1.8586    73.2792 </r>
       <r>     4.8485     1.6319    73.5401 </r>
       <r>     5.0083     1.7794    73.8245 </r>
       <r>     5.1682     0.4727    73.9000 </r>
       <r>     5.3280     1.2350    74.0974 </r>
       <r>     5.4878     1.8008    74.3853 </r>
       <r>     5.6477     0.6474    74.4887 </r>
       <r>     5.8075     1.3758    74.7086 </r>
       <r>     5.9674     0.8820    74.8496 </r>
       <r>     6.1272     0.5667    74.9402 </r>
       <r>     6.2870     0.1114    74.9580 </r>
       <r>     6.4469     0.2708    75.0013 </r>
       <r>     6.6067     0.6110    75.0989 </r>
       <r>     6.7666     1.1986    75.2905 </r>
       <r>     6.9264     0.9974    75.4500 </r>
       <r>     7.0862     0.6098    75.5474 </r>
       <r>     7.2461     4.1335    76.2081 </r>
       <r>     7.4059     2.1474    76.5514 </r>
       <r>     7.5658     2.5848    76.9645 </r>
       <r>     7.7256     2.5042    77.3648 </r>
       <r>     7.8854     3.2411    77.8829 </r>
       <r>     8.0453     2.3426    78.2573 </r>
       <r>     8.2051     2.5898    78.6713 </r>
       <r>     8.3650     2.3443    79.0460 </r>
       <r>     8.5248     4.4670    79.7600 </r>
       <r>     8.6846     2.3257    80.1317 </r>
       <r>     8.8445     3.7274    80.7275 </r>
       <r>     9.0043     3.5183    81.2899 </r>
       <r>     9.1642     3.9680    81.9241 </r>
       <r>     9.3240     2.9580    82.3969 </r>
       <r>     9.4838     4.7767    83.1604 </r>
       <r>     9.6437     6.2415    84.1580 </r>
       <r>     9.8035     5.4728    85.0328 </r>
       <r>     9.9634     6.9219    86.1392 </r>
       <r>    10.1232     5.8148    87.0687 </r>
       <r>    10.2830     4.9042    87.8525 </r>
       <r>    10.4429     5.9784    88.8081 </r>
       <r>    10.6027     6.9273    89.9154 </r>
       <r>    10.7625     5.9234    90.8622 </r>
       <r>    10.9224     3.9381    91.4916 </r>
       <r>    11.0822     2.1537    91.8359 </r>
       <r>    11.2421     0.7296    91.9525 </r>
       <r>    11.4019     0.2965    91.9999 </r>
       <r>    11.5617     0.0006    92.0000 </r>
       <r>    11.7216     0.0000    92.0000 </r>
       <r>    11.8814     0.0000    92.0000 </r>
       <r>    12.0413     0.0000    92.0000 </r>
       <r>    12.2011     0.0000    92.0000 </r>
       <r>    12.3609     0.0000    92.0000 </r>
       <r>    12.5208     0.0000    92.0000 </r>
       <r>    12.6806     0.0000    92.0000 </r>
       <r>    12.8405     0.0000    92.0000 </r>
       <r>    13.0003     0.0000    92.0000 </r>
       <r>    13.1601     0.0000    92.0000 </r>
       <r>    13.3200     0.0000    92.0000 </r>
       <r>    13.4798     0.0000    92.0000 </r>
      </set>
     </set>
    </array>
   </total>
  </dos>
 </calculation>
 <structure name="finalpos" >
  <crystal>
   <varray name="basis" >
    <v>       5.65685425       0.00000000       0.00000000 </v>
    <v>       0.00000000       4.00000000       0.00000000 </v>
    <v>       0.00000000       0.00000000      11.31370850 </v>
   </varray>
   <i name="volume">    256.00000000 </i>
   <varray name="rec_basis" >
    <v>       0.17677670       0.00000000       0.00000000 </v>
    <v>       0.00000000       0.25000000       0.00000000 </v>
    <v>       0.00000000       0.00000000       0.08838835 </v>
   </varray>
  </crystal>
  <varray name="positions" >
   <v>       0.00000000       0.00000000       0.00000000 </v>
   <v>       0.50000000       0.00000000       0.25000000 </v>
   <v>       0.00000000       0.00000000       0.50000000 </v>
   <v>       0.50000000       0.00000000       0.75000000 </v>
   <v>       0.50000000       0.50000000       0.00000000 </v>
   <v>       0.00000000       0.50000000       0.25000000 </v>
   <v>       0.50000000       0.50000000       0.50000000 </v>
   <v>       0.00000000       0.50000000       0.75000000 </v>
   <v>       0.75000000       0.50000000       0.37500000 </v>
   <v>       0.25000000       0.50000000       0.62500000 </v>
   <v>       0.00000000       0.00000000       0.25000000 </v>
   <v>       0.50000000       0.00000000       0.50000000 </v>
   <v>       0.00000000       0.00000000       0.75000000 </v>
   <v>       0.75000000       0.50000000       0.12500000 </v>
   <v>       0.25000000       0.50000000       0.37500000 </v>
   <v>       0.75000000       0.50000000       0.62500000 </v>
   <v>       0.25000000       0.50000000       0.87500000 </v>
  </varray>
 </structure>
</modeling>
