<?xml version="1.0" encoding="ISO-8859-1"?>
<modeling>
 <generator>
  <i name="program" type="string">vasp </i>
  <i name="version" type="string">5.3.5  </i>
  <i name="subversion" type="string">31Mar14 (build Jun 20 2014 13:15:13) complex                          parallel </i>
  <i name="platform" type="string">LinuxIFC </i>
  <i name="date" type="string">2025 11 21 </i>
  <i name="time" type="string">13:14:31 </i>
 </generator>
 <incar>
  <i type="string" name="PREC">accurate</i>
  <i type="int" name="IALGO">    68</i>
  <i type="logical" name="ADDGRID"> T  </i>
  <i type="int" name="NELM">   100</i>
  <i type="int" name="NELMIN">     4</i>
  <i type="int" name="IBRION">     2</i>
  <i name="EDIFF">      0.00000100</i>
  <i name="EDIFFG">     -0.02000000</i>
  <i type="int" name="NSW">    30</i>
  <i type="int" name="ISIF">     3</i>
  <i name="ENCUT">    500.00000000</i>
  <i type="logical" name="LREAL"> F  </i>
  <i type="int" name="ISMEAR">     1</i>
  <i name="SIGMA">      0.30000000</i>
  <i type="logical" name="LWAVE"> F  </i>
  <i type="logical" name="LCHARG"> F  </i>
  <i type="int" name="NELM">   100</i>
 </incar>
 <kpoints>
  <generation param="Auto">
   <i name="subdivisionlength">     70.00000000 </i>
   <v type="int" name="divisions">      26       15        9 </v>
   <v name="usershift">      0.00000000       0.00000000       0.00000000 </v>
   <v name="genvec1">      0.03846154       0.00000000       0.00000000 </v>
   <v name="genvec2">      0.00000000       0.06666667       0.00000000 </v>
   <v name="genvec3">      0.00000000       0.00000000       0.11111111 </v>
   <v name="shift">      0.00000000       0.00000000       0.00000000 </v>
  </generation>
  <varray name="kpointlist" >
   <v>       0.00000000       0.00000000       0.00000000 </v>
   <v>       0.03846154       0.00000000       0.00000000 </v>
   <v>       0.07692308       0.00000000       0.00000000 </v>
   <v>       0.11538462       0.00000000       0.00000000 </v>
   <v>       0.15384615       0.00000000       0.00000000 </v>
   <v>       0.19230769       0.00000000       0.00000000 </v>
   <v>       0.23076923       0.00000000       0.00000000 </v>
   <v>       0.26923077       0.00000000       0.00000000 </v>
   <v>       0.30769231       0.00000000       0.00000000 </v>
   <v>       0.34615385       0.00000000       0.00000000 </v>
   <v>       0.38461538       0.00000000       0.00000000 </v>
   <v>       0.42307692       0.00000000       0.00000000 </v>
   <v>       0.46153846       0.00000000       0.00000000 </v>
   <v>       0.50000000       0.00000000       0.00000000 </v>
   <v>       0.00000000       0.06666667       0.00000000 </v>
   <v>       0.03846154       0.06666667       0.00000000 </v>
   <v>       0.07692308       0.06666667       0.00000000 </v>
   <v>       0.11538462       0.06666667       0.00000000 </v>
   <v>       0.15384615       0.06666667       0.00000000 </v>
   <v>       0.19230769       0.06666667       0.00000000 </v>
   <v>       0.23076923       0.06666667       0.00000000 </v>
   <v>       0.26923077       0.06666667       0.00000000 </v>
   <v>       0.30769231       0.06666667       0.00000000 </v>
   <v>       0.34615385       0.06666667       0.00000000 </v>
   <v>       0.38461538       0.06666667       0.00000000 </v>
   <v>       0.42307692       0.06666667       0.00000000 </v>
   <v>       0.46153846       0.06666667       0.00000000 </v>
   <v>       0.50000000       0.06666667       0.00000000 </v>
   <v>      -0.46153846       0.06666667       0.00000000 </v>
   <v>      -0.42307692       0.06666667       0.00000000 </v>
   <v>      -0.38461538       0.06666667       0.00000000 </v>
   <v>      -0.34615385       0.06666667       0.00000000 </v>
   <v>      -0.30769231       0.06666667       0.00000000 </v>
   <v>      -0.26923077       0.06666667       0.00000000 </v>
   <v>      -0.23076923       0.06666667       0.00000000 </v>
   <v>      -0.19230769       0.06666667       0.00000000 </v>
   <v>      -0.15384615       0.06666667       0.00000000 </v>
   <v>      -0.11538462       0.06666667       0.00000000 </v>
   <v>      -0.07692308       0.06666667       0.00000000 </v>
   <v>      -0.03846154       0.06666667       0.00000000 </v>
   <v>       0.00000000       0.13333333       0.00000000 </v>
   <v>       0.03846154       0.13333333       0.00000000 </v>
   <v>       0.07692308       0.13333333       0.00000000 </v>
   <v>       0.11538462       0.13333333       0.00000000 </v>
   <v>       0.15384615       0.13333333       0.00000000 </v>
   <v>       0.19230769       0.13333333       0.00000000 </v>
   <v>       0.23076923       0.13333333       0.00000000 </v>
   <v>       0.26923077       0.13333333       0.00000000 </v>
   <v>       0.30769231       0.13333333       0.00000000 </v>
   <v>       0.34615385       0.13333333       0.00000000 </v>
   <v>       0.38461538       0.13333333       0.00000000 </v>
   <v>       0.42307692       0.13333333       0.00000000 </v>
   <v>       0.46153846       0.13333333       0.00000000 </v>
   <v>       0.50000000       0.13333333       0.00000000 </v>
   <v>      -0.46153846       0.13333333       0.00000000 </v>
   <v>      -0.42307692       0.13333333       0.00000000 </v>
   <v>      -0.38461538       0.13333333       0.00000000 </v>
   <v>      -0.34615385       0.13333333       0.00000000 </v>
   <v>      -0.30769231       0.13333333       0.00000000 </v>
   <v>      -0.26923077       0.13333333       0.00000000 </v>
   <v>      -0.23076923       0.13333333       0.00000000 </v>
   <v>      -0.19230769       0.13333333       0.00000000 </v>
   <v>      -0.15384615       0.13333333       0.00000000 </v>
   <v>      -0.11538462       0.13333333       0.00000000 </v>
   <v>      -0.07692308       0.13333333       0.00000000 </v>
   <v>      -0.03846154       0.13333333       0.00000000 </v>
   <v>       0.00000000       0.20000000       0.00000000 </v>
   <v>       0.03846154       0.20000000       0.00000000 </v>
   <v>       0.07692308       0.20000000       0.00000000 </v>
   <v>       0.11538462       0.20000000       0.00000000 </v>
   <v>       0.15384615       0.20000000       0.00000000 </v>
   <v>       0.19230769       0.20000000       0.00000000 </v>
   <v>       0.23076923       0.20000000       0.00000000 </v>
   <v>       0.26923077       0.20000000       0.00000000 </v>
   <v>       0.30769231       0.20000000       0.00000000 </v>
   <v>       0.34615385       0.20000000       0.00000000 </v>
   <v>       0.38461538       0.20000000       0.00000000 </v>
   <v>       0.42307692       0.20000000       0.00000000 </v>
   <v>       0.46153846       0.20000000       0.00000000 </v>
   <v>       0.50000000       0.20000000       0.00000000 </v>
   <v>      -0.46153846       0.20000000       0.00000000 </v>
   <v>      -0.42307692       0.20000000       0.00000000 </v>
   <v>      -0.38461538       0.20000000       0.00000000 </v>
   <v>      -0.34615385       0.20000000       0.00000000 </v>
   <v>      -0.30769231       0.20000000       0.00000000 </v>
   <v>      -0.26923077       0.20000000       0.00000000 </v>
   <v>      -0.23076923       0.20000000       0.00000000 </v>
   <v>      -0.19230769       0.20000000       0.00000000 </v>
   <v>      -0.15384615       0.20000000       0.00000000 </v>
   <v>      -0.11538462       0.20000000       0.00000000 </v>
   <v>      -0.07692308       0.20000000       0.00000000 </v>
   <v>      -0.03846154       0.20000000       0.00000000 </v>
   <v>       0.00000000       0.26666667       0.00000000 </v>
   <v>       0.03846154       0.26666667       0.00000000 </v>
   <v>       0.07692308       0.26666667       0.00000000 </v>
   <v>       0.11538462       0.26666667       0.00000000 </v>
   <v>       0.15384615       0.26666667       0.00000000 </v>
   <v>       0.19230769       0.26666667       0.00000000 </v>
   <v>       0.23076923       0.26666667       0.00000000 </v>
   <v>       0.26923077       0.26666667       0.00000000 </v>
   <v>       0.30769231       0.26666667       0.00000000 </v>
   <v>       0.34615385       0.26666667       0.00000000 </v>
   <v>       0.38461538       0.26666667       0.00000000 </v>
   <v>       0.42307692       0.26666667       0.00000000 </v>
   <v>       0.46153846       0.26666667       0.00000000 </v>
   <v>       0.50000000       0.26666667       0.00000000 </v>
   <v>      -0.46153846       0.26666667       0.00000000 </v>
   <v>      -0.42307692       0.26666667       0.00000000 </v>
   <v>      -0.38461538       0.26666667       0.00000000 </v>
   <v>      -0.34615385       0.26666667       0.00000000 </v>
   <v>      -0.30769231       0.26666667       0.00000000 </v>
   <v>      -0.26923077       0.26666667       0.00000000 </v>
   <v>      -0.23076923       0.26666667       0.00000000 </v>
   <v>      -0.19230769       0.26666667       0.00000000 </v>
   <v>      -0.15384615       0.26666667       0.00000000 </v>
   <v>      -0.11538462       0.26666667       0.00000000 </v>
   <v>      -0.07692308       0.26666667       0.00000000 </v>
   <v>      -0.03846154       0.26666667       0.00000000 </v>
   <v>       0.00000000       0.33333333       0.00000000 </v>
   <v>       0.03846154       0.33333333       0.00000000 </v>
   <v>       0.07692308       0.33333333       0.00000000 </v>
   <v>       0.11538462       0.33333333       0.00000000 </v>
   <v>       0.15384615       0.33333333       0.00000000 </v>
   <v>       0.19230769       0.33333333       0.00000000 </v>
   <v>       0.23076923       0.33333333       0.00000000 </v>
   <v>       0.26923077       0.33333333       0.00000000 </v>
   <v>       0.30769231       0.33333333       0.00000000 </v>
   <v>       0.34615385       0.33333333       0.00000000 </v>
   <v>       0.38461538       0.33333333       0.00000000 </v>
   <v>       0.42307692       0.33333333       0.00000000 </v>
   <v>       0.46153846       0.33333333       0.00000000 </v>
   <v>       0.50000000       0.33333333       0.00000000 </v>
   <v>      -0.46153846       0.33333333       0.00000000 </v>
   <v>      -0.42307692       0.33333333       0.00000000 </v>
   <v>      -0.38461538       0.33333333       0.00000000 </v>
   <v>      -0.34615385       0.33333333       0.00000000 </v>
   <v>      -0.30769231       0.33333333       0.00000000 </v>
   <v>      -0.26923077       0.33333333       0.00000000 </v>
   <v>      -0.23076923       0.33333333       0.00000000 </v>
   <v>      -0.19230769       0.33333333       0.00000000 </v>
   <v>      -0.15384615       0.33333333       0.00000000 </v>
   <v>      -0.11538462       0.33333333       0.00000000 </v>
   <v>      -0.07692308       0.33333333       0.00000000 </v>
   <v>      -0.03846154       0.33333333       0.00000000 </v>
   <v>       0.00000000       0.40000000       0.00000000 </v>
   <v>       0.03846154       0.40000000       0.00000000 </v>
   <v>       0.07692308       0.40000000       0.00000000 </v>
   <v>       0.11538462       0.40000000       0.00000000 </v>
   <v>       0.15384615       0.40000000       0.00000000 </v>
   <v>       0.19230769       0.40000000       0.00000000 </v>
   <v>       0.23076923       0.40000000       0.00000000 </v>
   <v>       0.26923077       0.40000000       0.00000000 </v>
   <v>       0.30769231       0.40000000       0.00000000 </v>
   <v>       0.34615385       0.40000000       0.00000000 </v>
   <v>       0.38461538       0.40000000       0.00000000 </v>
   <v>       0.42307692       0.40000000       0.00000000 </v>
   <v>       0.46153846       0.40000000       0.00000000 </v>
   <v>       0.50000000       0.40000000       0.00000000 </v>
   <v>      -0.46153846       0.40000000       0.00000000 </v>
   <v>      -0.42307692       0.40000000       0.00000000 </v>
   <v>      -0.38461538       0.40000000       0.00000000 </v>
   <v>      -0.34615385       0.40000000       0.00000000 </v>
   <v>      -0.30769231       0.40000000       0.00000000 </v>
   <v>      -0.26923077       0.40000000       0.00000000 </v>
   <v>      -0.23076923       0.40000000       0.00000000 </v>
   <v>      -0.19230769       0.40000000       0.00000000 </v>
   <v>      -0.15384615       0.40000000       0.00000000 </v>
   <v>      -0.11538462       0.40000000       0.00000000 </v>
   <v>      -0.07692308       0.40000000       0.00000000 </v>
   <v>      -0.03846154       0.40000000       0.00000000 </v>
   <v>       0.00000000       0.46666667       0.00000000 </v>
   <v>       0.03846154       0.46666667       0.00000000 </v>
   <v>       0.07692308       0.46666667       0.00000000 </v>
   <v>       0.11538462       0.46666667       0.00000000 </v>
   <v>       0.15384615       0.46666667       0.00000000 </v>
   <v>       0.19230769       0.46666667       0.00000000 </v>
   <v>       0.23076923       0.46666667       0.00000000 </v>
   <v>       0.26923077       0.46666667       0.00000000 </v>
   <v>       0.30769231       0.46666667       0.00000000 </v>
   <v>       0.34615385       0.46666667       0.00000000 </v>
   <v>       0.38461538       0.46666667       0.00000000 </v>
   <v>       0.42307692       0.46666667       0.00000000 </v>
   <v>       0.46153846       0.46666667       0.00000000 </v>
   <v>       0.50000000       0.46666667       0.00000000 </v>
   <v>      -0.46153846       0.46666667       0.00000000 </v>
   <v>      -0.42307692       0.46666667       0.00000000 </v>
   <v>      -0.38461538       0.46666667       0.00000000 </v>
   <v>      -0.34615385       0.46666667       0.00000000 </v>
   <v>      -0.30769231       0.46666667       0.00000000 </v>
   <v>      -0.26923077       0.46666667       0.00000000 </v>
   <v>      -0.23076923       0.46666667       0.00000000 </v>
   <v>      -0.19230769       0.46666667       0.00000000 </v>
   <v>      -0.15384615       0.46666667       0.00000000 </v>
   <v>      -0.11538462       0.46666667       0.00000000 </v>
   <v>      -0.07692308       0.46666667       0.00000000 </v>
   <v>      -0.03846154       0.46666667       0.00000000 </v>
   <v>       0.00000000       0.00000000       0.11111111 </v>
   <v>       0.03846154       0.00000000       0.11111111 </v>
   <v>       0.07692308       0.00000000       0.11111111 </v>
   <v>       0.11538462       0.00000000       0.11111111 </v>
   <v>       0.15384615       0.00000000       0.11111111 </v>
   <v>       0.19230769       0.00000000       0.11111111 </v>
   <v>       0.23076923       0.00000000       0.11111111 </v>
   <v>       0.26923077       0.00000000       0.11111111 </v>
   <v>       0.30769231       0.00000000       0.11111111 </v>
   <v>       0.34615385       0.00000000       0.11111111 </v>
   <v>       0.38461538       0.00000000       0.11111111 </v>
   <v>       0.42307692       0.00000000       0.11111111 </v>
   <v>       0.46153846       0.00000000       0.11111111 </v>
   <v>       0.50000000       0.00000000       0.11111111 </v>
   <v>      -0.46153846       0.00000000       0.11111111 </v>
   <v>      -0.42307692       0.00000000       0.11111111 </v>
   <v>      -0.38461538       0.00000000       0.11111111 </v>
   <v>      -0.34615385       0.00000000       0.11111111 </v>
   <v>      -0.30769231       0.00000000       0.11111111 </v>
   <v>      -0.26923077       0.00000000       0.11111111 </v>
   <v>      -0.23076923       0.00000000       0.11111111 </v>
   <v>      -0.19230769       0.00000000       0.11111111 </v>
   <v>      -0.15384615       0.00000000       0.11111111 </v>
   <v>      -0.11538462       0.00000000       0.11111111 </v>
   <v>      -0.07692308       0.00000000       0.11111111 </v>
   <v>      -0.03846154       0.00000000       0.11111111 </v>
   <v>       0.00000000       0.06666667       0.11111111 </v>
   <v>       0.03846154       0.06666667       0.11111111 </v>
   <v>       0.07692308       0.06666667       0.11111111 </v>
   <v>       0.11538462       0.06666667       0.11111111 </v>
   <v>       0.15384615       0.06666667       0.11111111 </v>
   <v>       0.19230769       0.06666667       0.11111111 </v>
   <v>       0.23076923       0.06666667       0.11111111 </v>
   <v>       0.26923077       0.06666667       0.11111111 </v>
   <v>       0.30769231       0.06666667       0.11111111 </v>
   <v>       0.34615385       0.06666667       0.11111111 </v>
   <v>       0.38461538       0.06666667       0.11111111 </v>
   <v>       0.42307692       0.06666667       0.11111111 </v>
   <v>       0.46153846       0.06666667       0.11111111 </v>
   <v>       0.50000000       0.06666667       0.11111111 </v>
   <v>      -0.46153846       0.06666667       0.11111111 </v>
   <v>      -0.42307692       0.06666667       0.11111111 </v>
   <v>      -0.38461538       0.06666667       0.11111111 </v>
   <v>      -0.34615385       0.06666667       0.11111111 </v>
   <v>      -0.30769231       0.06666667       0.11111111 </v>
   <v>      -0.26923077       0.06666667       0.11111111 </v>
   <v>      -0.23076923       0.06666667       0.11111111 </v>
   <v>      -0.19230769       0.06666667       0.11111111 </v>
   <v>      -0.15384615       0.06666667       0.11111111 </v>
   <v>      -0.11538462       0.06666667       0.11111111 </v>
   <v>      -0.07692308       0.06666667       0.11111111 </v>
   <v>      -0.03846154       0.06666667       0.11111111 </v>
   <v>       0.00000000       0.13333333       0.11111111 </v>
   <v>       0.03846154       0.13333333       0.11111111 </v>
   <v>       0.07692308       0.13333333       0.11111111 </v>
   <v>       0.11538462       0.13333333       0.11111111 </v>
   <v>       0.15384615       0.13333333       0.11111111 </v>
   <v>       0.19230769       0.13333333       0.11111111 </v>
   <v>       0.23076923       0.13333333       0.11111111 </v>
   <v>       0.26923077       0.13333333       0.11111111 </v>
   <v>       0.30769231       0.13333333       0.11111111 </v>
   <v>       0.34615385       0.13333333       0.11111111 </v>
   <v>       0.38461538       0.13333333       0.11111111 </v>
   <v>       0.42307692       0.13333333       0.11111111 </v>
   <v>       0.46153846       0.13333333       0.11111111 </v>
   <v>       0.50000000       0.13333333       0.11111111 </v>
   <v>      -0.46153846       0.13333333       0.11111111 </v>
   <v>      -0.42307692       0.13333333       0.11111111 </v>
   <v>      -0.38461538       0.13333333       0.11111111 </v>
   <v>      -0.34615385       0.13333333       0.11111111 </v>
   <v>      -0.30769231       0.13333333       0.11111111 </v>
   <v>      -0.26923077       0.13333333       0.11111111 </v>
   <v>      -0.23076923       0.13333333       0.11111111 </v>
   <v>      -0.19230769       0.13333333       0.11111111 </v>
   <v>      -0.15384615       0.13333333       0.11111111 </v>
   <v>      -0.11538462       0.13333333       0.11111111 </v>
   <v>      -0.07692308       0.13333333       0.11111111 </v>
   <v>      -0.03846154       0.13333333       0.11111111 </v>
   <v>       0.00000000       0.20000000       0.11111111 </v>
   <v>       0.03846154       0.20000000       0.11111111 </v>
   <v>       0.07692308       0.20000000       0.11111111 </v>
   <v>       0.11538462       0.20000000       0.11111111 </v>
   <v>       0.15384615       0.20000000       0.11111111 </v>
   <v>       0.19230769       0.20000000       0.11111111 </v>
   <v>       0.23076923       0.20000000       0.11111111 </v>
   <v>       0.26923077       0.20000000       0.11111111 </v>
   <v>       0.30769231       0.20000000       0.11111111 </v>
   <v>       0.34615385       0.20000000       0.11111111 </v>
   <v>       0.38461538       0.20000000       0.11111111 </v>
   <v>       0.42307692       0.20000000       0.11111111 </v>
   <v>       0.46153846       0.20000000       0.11111111 </v>
   <v>       0.50000000       0.20000000       0.11111111 </v>
   <v>      -0.46153846       0.20000000       0.11111111 </v>
   <v>      -0.42307692       0.20000000       0.11111111 </v>
   <v>      -0.38461538       0.20000000       0.11111111 </v>
   <v>      -0.34615385       0.20000000       0.11111111 </v>
   <v>      -0.30769231       0.20000000       0.11111111 </v>
   <v>      -0.26923077       0.20000000       0.11111111 </v>
   <v>      -0.23076923       0.20000000       0.11111111 </v>
   <v>      -0.19230769       0.20000000       0.11111111 </v>
   <v>      -0.15384615       0.20000000       0.11111111 </v>
   <v>      -0.11538462       0.20000000       0.11111111 </v>
   <v>      -0.07692308       0.20000000       0.11111111 </v>
   <v>      -0.03846154       0.20000000       0.11111111 </v>
   <v>       0.00000000       0.26666667       0.11111111 </v>
   <v>       0.03846154       0.26666667       0.11111111 </v>
   <v>       0.07692308       0.26666667       0.11111111 </v>
   <v>       0.11538462       0.26666667       0.11111111 </v>
   <v>       0.15384615       0.26666667       0.11111111 </v>
   <v>       0.19230769       0.26666667       0.11111111 </v>
   <v>       0.23076923       0.26666667       0.11111111 </v>
   <v>       0.26923077       0.26666667       0.11111111 </v>
   <v>       0.30769231       0.26666667       0.11111111 </v>
   <v>       0.34615385       0.26666667       0.11111111 </v>
   <v>       0.38461538       0.26666667       0.11111111 </v>
   <v>       0.42307692       0.26666667       0.11111111 </v>
   <v>       0.46153846       0.26666667       0.11111111 </v>
   <v>       0.50000000       0.26666667       0.11111111 </v>
   <v>      -0.46153846       0.26666667       0.11111111 </v>
   <v>      -0.42307692       0.26666667       0.11111111 </v>
   <v>      -0.38461538       0.26666667       0.11111111 </v>
   <v>      -0.34615385       0.26666667       0.11111111 </v>
   <v>      -0.30769231       0.26666667       0.11111111 </v>
   <v>      -0.26923077       0.26666667       0.11111111 </v>
   <v>      -0.23076923       0.26666667       0.11111111 </v>
   <v>      -0.19230769       0.26666667       0.11111111 </v>
   <v>      -0.15384615       0.26666667       0.11111111 </v>
   <v>      -0.11538462       0.26666667       0.11111111 </v>
   <v>      -0.07692308       0.26666667       0.11111111 </v>
   <v>      -0.03846154       0.26666667       0.11111111 </v>
   <v>       0.00000000       0.33333333       0.11111111 </v>
   <v>       0.03846154       0.33333333       0.11111111 </v>
   <v>       0.07692308       0.33333333       0.11111111 </v>
   <v>       0.11538462       0.33333333       0.11111111 </v>
   <v>       0.15384615       0.33333333       0.11111111 </v>
   <v>       0.19230769       0.33333333       0.11111111 </v>
   <v>       0.23076923       0.33333333       0.11111111 </v>
   <v>       0.26923077       0.33333333       0.11111111 </v>
   <v>       0.30769231       0.33333333       0.11111111 </v>
   <v>       0.34615385       0.33333333       0.11111111 </v>
   <v>       0.38461538       0.33333333       0.11111111 </v>
   <v>       0.42307692       0.33333333       0.11111111 </v>
   <v>       0.46153846       0.33333333       0.11111111 </v>
   <v>       0.50000000       0.33333333       0.11111111 </v>
   <v>      -0.46153846       0.33333333       0.11111111 </v>
   <v>      -0.42307692       0.33333333       0.11111111 </v>
   <v>      -0.38461538       0.33333333       0.11111111 </v>
   <v>      -0.34615385       0.33333333       0.11111111 </v>
   <v>      -0.30769231       0.33333333       0.11111111 </v>
   <v>      -0.26923077       0.33333333       0.11111111 </v>
   <v>      -0.23076923       0.33333333       0.11111111 </v>
   <v>      -0.19230769       0.33333333       0.11111111 </v>
   <v>      -0.15384615       0.33333333       0.11111111 </v>
   <v>      -0.11538462       0.33333333       0.11111111 </v>
   <v>      -0.07692308       0.33333333       0.11111111 </v>
   <v>      -0.03846154       0.33333333       0.11111111 </v>
   <v>       0.00000000       0.40000000       0.11111111 </v>
   <v>       0.03846154       0.40000000       0.11111111 </v>
   <v>       0.07692308       0.40000000       0.11111111 </v>
   <v>       0.11538462       0.40000000       0.11111111 </v>
   <v>       0.15384615       0.40000000       0.11111111 </v>
   <v>       0.19230769       0.40000000       0.11111111 </v>
   <v>       0.23076923       0.40000000       0.11111111 </v>
   <v>       0.26923077       0.40000000       0.11111111 </v>
   <v>       0.30769231       0.40000000       0.11111111 </v>
   <v>       0.34615385       0.40000000       0.11111111 </v>
   <v>       0.38461538       0.40000000       0.11111111 </v>
   <v>       0.42307692       0.40000000       0.11111111 </v>
   <v>       0.46153846       0.40000000       0.11111111 </v>
   <v>       0.50000000       0.40000000       0.11111111 </v>
   <v>      -0.46153846       0.40000000       0.11111111 </v>
   <v>      -0.42307692       0.40000000       0.11111111 </v>
   <v>      -0.38461538       0.40000000       0.11111111 </v>
   <v>      -0.34615385       0.40000000       0.11111111 </v>
   <v>      -0.30769231       0.40000000       0.11111111 </v>
   <v>      -0.26923077       0.40000000       0.11111111 </v>
   <v>      -0.23076923       0.40000000       0.11111111 </v>
   <v>      -0.19230769       0.40000000       0.11111111 </v>
   <v>      -0.15384615       0.40000000       0.11111111 </v>
   <v>      -0.11538462       0.40000000       0.11111111 </v>
   <v>      -0.07692308       0.40000000       0.11111111 </v>
   <v>      -0.03846154       0.40000000       0.11111111 </v>
   <v>       0.00000000       0.46666667       0.11111111 </v>
   <v>       0.03846154       0.46666667       0.11111111 </v>
   <v>       0.07692308       0.46666667       0.11111111 </v>
   <v>       0.11538462       0.46666667       0.11111111 </v>
   <v>       0.15384615       0.46666667       0.11111111 </v>
   <v>       0.19230769       0.46666667       0.11111111 </v>
   <v>       0.23076923       0.46666667       0.11111111 </v>
   <v>       0.26923077       0.46666667       0.11111111 </v>
   <v>       0.30769231       0.46666667       0.11111111 </v>
   <v>       0.34615385       0.46666667       0.11111111 </v>
   <v>       0.38461538       0.46666667       0.11111111 </v>
   <v>       0.42307692       0.46666667       0.11111111 </v>
   <v>       0.46153846       0.46666667       0.11111111 </v>
   <v>       0.50000000       0.46666667       0.11111111 </v>
   <v>      -0.46153846       0.46666667       0.11111111 </v>
   <v>      -0.42307692       0.46666667       0.11111111 </v>
   <v>      -0.38461538       0.46666667       0.11111111 </v>
   <v>      -0.34615385       0.46666667       0.11111111 </v>
   <v>      -0.30769231       0.46666667       0.11111111 </v>
   <v>      -0.26923077       0.46666667       0.11111111 </v>
   <v>      -0.23076923       0.46666667       0.11111111 </v>
   <v>      -0.19230769       0.46666667       0.11111111 </v>
   <v>      -0.15384615       0.46666667       0.11111111 </v>
   <v>      -0.11538462       0.46666667       0.11111111 </v>
   <v>      -0.07692308       0.46666667       0.11111111 </v>
   <v>      -0.03846154       0.46666667       0.11111111 </v>
   <v>       0.00000000      -0.46666667       0.11111111 </v>
   <v>       0.03846154      -0.46666667       0.11111111 </v>
   <v>       0.07692308      -0.46666667       0.11111111 </v>
   <v>       0.11538462      -0.46666667       0.11111111 </v>
   <v>       0.15384615      -0.46666667       0.11111111 </v>
   <v>       0.19230769      -0.46666667       0.11111111 </v>
   <v>       0.23076923      -0.46666667       0.11111111 </v>
   <v>       0.26923077      -0.46666667       0.11111111 </v>
   <v>       0.30769231      -0.46666667       0.11111111 </v>
   <v>       0.34615385      -0.46666667       0.11111111 </v>
   <v>       0.38461538      -0.46666667       0.11111111 </v>
   <v>       0.42307692      -0.46666667       0.11111111 </v>
   <v>       0.46153846      -0.46666667       0.11111111 </v>
   <v>       0.50000000      -0.46666667       0.11111111 </v>
   <v>      -0.46153846      -0.46666667       0.11111111 </v>
   <v>      -0.42307692      -0.46666667       0.11111111 </v>
   <v>      -0.38461538      -0.46666667       0.11111111 </v>
   <v>      -0.34615385      -0.46666667       0.11111111 </v>
   <v>      -0.30769231      -0.46666667       0.11111111 </v>
   <v>      -0.26923077      -0.46666667       0.11111111 </v>
   <v>      -0.23076923      -0.46666667       0.11111111 </v>
   <v>      -0.19230769      -0.46666667       0.11111111 </v>
   <v>      -0.15384615      -0.46666667       0.11111111 </v>
   <v>      -0.11538462      -0.46666667       0.11111111 </v>
   <v>      -0.07692308      -0.46666667       0.11111111 </v>
   <v>      -0.03846154      -0.46666667       0.11111111 </v>
   <v>       0.00000000      -0.40000000       0.11111111 </v>
   <v>       0.03846154      -0.40000000       0.11111111 </v>
   <v>       0.07692308      -0.40000000       0.11111111 </v>
   <v>       0.11538462      -0.40000000       0.11111111 </v>
   <v>       0.15384615      -0.40000000       0.11111111 </v>
   <v>       0.19230769      -0.40000000       0.11111111 </v>
   <v>       0.23076923      -0.40000000       0.11111111 </v>
   <v>       0.26923077      -0.40000000       0.11111111 </v>
   <v>       0.30769231      -0.40000000       0.11111111 </v>
   <v>       0.34615385      -0.40000000       0.11111111 </v>
   <v>       0.38461538      -0.40000000       0.11111111 </v>
   <v>       0.42307692      -0.40000000       0.11111111 </v>
   <v>       0.46153846      -0.40000000       0.11111111 </v>
   <v>       0.50000000      -0.40000000       0.11111111 </v>
   <v>      -0.46153846      -0.40000000       0.11111111 </v>
   <v>      -0.42307692      -0.40000000       0.11111111 </v>
   <v>      -0.38461538      -0.40000000       0.11111111 </v>
   <v>      -0.34615385      -0.40000000       0.11111111 </v>
   <v>      -0.30769231      -0.40000000       0.11111111 </v>
   <v>      -0.26923077      -0.40000000       0.11111111 </v>
   <v>      -0.23076923      -0.40000000       0.11111111 </v>
   <v>      -0.19230769      -0.40000000       0.11111111 </v>
   <v>      -0.15384615      -0.40000000       0.11111111 </v>
   <v>      -0.11538462      -0.40000000       0.11111111 </v>
   <v>      -0.07692308      -0.40000000       0.11111111 </v>
   <v>      -0.03846154      -0.40000000       0.11111111 </v>
   <v>       0.00000000      -0.33333333       0.11111111 </v>
   <v>       0.03846154      -0.33333333       0.11111111 </v>
   <v>       0.07692308      -0.33333333       0.11111111 </v>
   <v>       0.11538462      -0.33333333       0.11111111 </v>
   <v>       0.15384615      -0.33333333       0.11111111 </v>
   <v>       0.19230769      -0.33333333       0.11111111 </v>
   <v>       0.23076923      -0.33333333       0.11111111 </v>
   <v>       0.26923077      -0.33333333       0.11111111 </v>
   <v>       0.30769231      -0.33333333       0.11111111 </v>
   <v>       0.34615385      -0.33333333       0.11111111 </v>
   <v>       0.38461538      -0.33333333       0.11111111 </v>
   <v>       0.42307692      -0.33333333       0.11111111 </v>
   <v>       0.46153846      -0.33333333       0.11111111 </v>
   <v>       0.50000000      -0.33333333       0.11111111 </v>
   <v>      -0.46153846      -0.33333333       0.11111111 </v>
   <v>      -0.42307692      -0.33333333       0.11111111 </v>
   <v>      -0.38461538      -0.33333333       0.11111111 </v>
   <v>      -0.34615385      -0.33333333       0.11111111 </v>
   <v>      -0.30769231      -0.33333333       0.11111111 </v>
   <v>      -0.26923077      -0.33333333       0.11111111 </v>
   <v>      -0.23076923      -0.33333333       0.11111111 </v>
   <v>      -0.19230769      -0.33333333       0.11111111 </v>
   <v>      -0.15384615      -0.33333333       0.11111111 </v>
   <v>      -0.11538462      -0.33333333       0.11111111 </v>
   <v>      -0.07692308      -0.33333333       0.11111111 </v>
   <v>      -0.03846154      -0.33333333       0.11111111 </v>
   <v>       0.00000000      -0.26666667       0.11111111 </v>
   <v>       0.03846154      -0.26666667       0.11111111 </v>
   <v>       0.07692308      -0.26666667       0.11111111 </v>
   <v>       0.11538462      -0.26666667       0.11111111 </v>
   <v>       0.15384615      -0.26666667       0.11111111 </v>
   <v>       0.19230769      -0.26666667       0.11111111 </v>
   <v>       0.23076923      -0.26666667       0.11111111 </v>
   <v>       0.26923077      -0.26666667       0.11111111 </v>
   <v>       0.30769231      -0.26666667       0.11111111 </v>
   <v>       0.34615385      -0.26666667       0.11111111 </v>
   <v>       0.38461538      -0.26666667       0.11111111 </v>
   <v>       0.42307692      -0.26666667       0.11111111 </v>
   <v>       0.46153846      -0.26666667       0.11111111 </v>
   <v>       0.50000000      -0.26666667       0.11111111 </v>
   <v>      -0.46153846      -0.26666667       0.11111111 </v>
   <v>      -0.42307692      -0.26666667       0.11111111 </v>
   <v>      -0.38461538      -0.26666667       0.11111111 </v>
   <v>      -0.34615385      -0.26666667       0.11111111 </v>
   <v>      -0.30769231      -0.26666667       0.11111111 </v>
   <v>      -0.26923077      -0.26666667       0.11111111 </v>
   <v>      -0.23076923      -0.26666667       0.11111111 </v>
   <v>      -0.19230769      -0.26666667       0.11111111 </v>
   <v>      -0.15384615      -0.26666667       0.11111111 </v>
   <v>      -0.11538462      -0.26666667       0.11111111 </v>
   <v>      -0.07692308      -0.26666667       0.11111111 </v>
   <v>      -0.03846154      -0.26666667       0.11111111 </v>
   <v>       0.00000000      -0.20000000       0.11111111 </v>
   <v>       0.03846154      -0.20000000       0.11111111 </v>
   <v>       0.07692308      -0.20000000       0.11111111 </v>
   <v>       0.11538462      -0.20000000       0.11111111 </v>
   <v>       0.15384615      -0.20000000       0.11111111 </v>
   <v>       0.19230769      -0.20000000       0.11111111 </v>
   <v>       0.23076923      -0.20000000       0.11111111 </v>
   <v>       0.26923077      -0.20000000       0.11111111 </v>
   <v>       0.30769231      -0.20000000       0.11111111 </v>
   <v>       0.34615385      -0.20000000       0.11111111 </v>
   <v>       0.38461538      -0.20000000       0.11111111 </v>
   <v>       0.42307692      -0.20000000       0.11111111 </v>
   <v>       0.46153846      -0.20000000       0.11111111 </v>
   <v>       0.50000000      -0.20000000       0.11111111 </v>
   <v>      -0.46153846      -0.20000000       0.11111111 </v>
   <v>      -0.42307692      -0.20000000       0.11111111 </v>
   <v>      -0.38461538      -0.20000000       0.11111111 </v>
   <v>      -0.34615385      -0.20000000       0.11111111 </v>
   <v>      -0.30769231      -0.20000000       0.11111111 </v>
   <v>      -0.26923077      -0.20000000       0.11111111 </v>
   <v>      -0.23076923      -0.20000000       0.11111111 </v>
   <v>      -0.19230769      -0.20000000       0.11111111 </v>
   <v>      -0.15384615      -0.20000000       0.11111111 </v>
   <v>      -0.11538462      -0.20000000       0.11111111 </v>
   <v>      -0.07692308      -0.20000000       0.11111111 </v>
   <v>      -0.03846154      -0.20000000       0.11111111 </v>
   <v>       0.00000000      -0.13333333       0.11111111 </v>
   <v>       0.03846154      -0.13333333       0.11111111 </v>
   <v>       0.07692308      -0.13333333       0.11111111 </v>
   <v>       0.11538462      -0.13333333       0.11111111 </v>
   <v>       0.15384615      -0.13333333       0.11111111 </v>
   <v>       0.19230769      -0.13333333       0.11111111 </v>
   <v>       0.23076923      -0.13333333       0.11111111 </v>
   <v>       0.26923077      -0.13333333       0.11111111 </v>
   <v>       0.30769231      -0.13333333       0.11111111 </v>
   <v>       0.34615385      -0.13333333       0.11111111 </v>
   <v>       0.38461538      -0.13333333       0.11111111 </v>
   <v>       0.42307692      -0.13333333       0.11111111 </v>
   <v>       0.46153846      -0.13333333       0.11111111 </v>
   <v>       0.50000000      -0.13333333       0.11111111 </v>
   <v>      -0.46153846      -0.13333333       0.11111111 </v>
   <v>      -0.42307692      -0.13333333       0.11111111 </v>
   <v>      -0.38461538      -0.13333333       0.11111111 </v>
   <v>      -0.34615385      -0.13333333       0.11111111 </v>
   <v>      -0.30769231      -0.13333333       0.11111111 </v>
   <v>      -0.26923077      -0.13333333       0.11111111 </v>
   <v>      -0.23076923      -0.13333333       0.11111111 </v>
   <v>      -0.19230769      -0.13333333       0.11111111 </v>
   <v>      -0.15384615      -0.13333333       0.11111111 </v>
   <v>      -0.11538462      -0.13333333       0.11111111 </v>
   <v>      -0.07692308      -0.13333333       0.11111111 </v>
   <v>      -0.03846154      -0.13333333       0.11111111 </v>
   <v>       0.00000000      -0.06666667       0.11111111 </v>
   <v>       0.03846154      -0.06666667       0.11111111 </v>
   <v>       0.07692308      -0.06666667       0.11111111 </v>
   <v>       0.11538462      -0.06666667       0.11111111 </v>
   <v>       0.15384615      -0.06666667       0.11111111 </v>
   <v>       0.19230769      -0.06666667       0.11111111 </v>
   <v>       0.23076923      -0.06666667       0.11111111 </v>
   <v>       0.26923077      -0.06666667       0.11111111 </v>
   <v>       0.30769231      -0.06666667       0.11111111 </v>
   <v>       0.34615385      -0.06666667       0.11111111 </v>
   <v>       0.38461538      -0.06666667       0.11111111 </v>
   <v>       0.42307692      -0.06666667       0.11111111 </v>
   <v>       0.46153846      -0.06666667       0.11111111 </v>
   <v>       0.50000000      -0.06666667       0.11111111 </v>
   <v>      -0.46153846      -0.06666667       0.11111111 </v>
   <v>      -0.42307692      -0.06666667       0.11111111 </v>
   <v>      -0.38461538      -0.06666667       0.11111111 </v>
   <v>      -0.34615385      -0.06666667       0.11111111 </v>
   <v>      -0.30769231      -0.06666667       0.11111111 </v>
   <v>      -0.26923077      -0.06666667       0.11111111 </v>
   <v>      -0.23076923      -0.06666667       0.11111111 </v>
   <v>      -0.19230769      -0.06666667       0.11111111 </v>
   <v>      -0.15384615      -0.06666667       0.11111111 </v>
   <v>      -0.11538462      -0.06666667       0.11111111 </v>
   <v>      -0.07692308      -0.06666667       0.11111111 </v>
   <v>      -0.03846154      -0.06666667       0.11111111 </v>
   <v>       0.00000000       0.00000000       0.22222222 </v>
   <v>       0.03846154       0.00000000       0.22222222 </v>
   <v>       0.07692308       0.00000000       0.22222222 </v>
   <v>       0.11538462       0.00000000       0.22222222 </v>
   <v>       0.15384615       0.00000000       0.22222222 </v>
   <v>       0.19230769       0.00000000       0.22222222 </v>
   <v>       0.23076923       0.00000000       0.22222222 </v>
   <v>       0.26923077       0.00000000       0.22222222 </v>
   <v>       0.30769231       0.00000000       0.22222222 </v>
   <v>       0.34615385       0.00000000       0.22222222 </v>
   <v>       0.38461538       0.00000000       0.22222222 </v>
   <v>       0.42307692       0.00000000       0.22222222 </v>
   <v>       0.46153846       0.00000000       0.22222222 </v>
   <v>       0.50000000       0.00000000       0.22222222 </v>
   <v>      -0.46153846       0.00000000       0.22222222 </v>
   <v>      -0.42307692       0.00000000       0.22222222 </v>
   <v>      -0.38461538       0.00000000       0.22222222 </v>
   <v>      -0.34615385       0.00000000       0.22222222 </v>
   <v>      -0.30769231       0.00000000       0.22222222 </v>
   <v>      -0.26923077       0.00000000       0.22222222 </v>
   <v>      -0.23076923       0.00000000       0.22222222 </v>
   <v>      -0.19230769       0.00000000       0.22222222 </v>
   <v>      -0.15384615       0.00000000       0.22222222 </v>
   <v>      -0.11538462       0.00000000       0.22222222 </v>
   <v>      -0.07692308       0.00000000       0.22222222 </v>
   <v>      -0.03846154       0.00000000       0.22222222 </v>
   <v>       0.00000000       0.06666667       0.22222222 </v>
   <v>       0.03846154       0.06666667       0.22222222 </v>
   <v>       0.07692308       0.06666667       0.22222222 </v>
   <v>       0.11538462       0.06666667       0.22222222 </v>
   <v>       0.15384615       0.06666667       0.22222222 </v>
   <v>       0.19230769       0.06666667       0.22222222 </v>
   <v>       0.23076923       0.06666667       0.22222222 </v>
   <v>       0.26923077       0.06666667       0.22222222 </v>
   <v>       0.30769231       0.06666667       0.22222222 </v>
   <v>       0.34615385       0.06666667       0.22222222 </v>
   <v>       0.38461538       0.06666667       0.22222222 </v>
   <v>       0.42307692       0.06666667       0.22222222 </v>
   <v>       0.46153846       0.06666667       0.22222222 </v>
   <v>       0.50000000       0.06666667       0.22222222 </v>
   <v>      -0.46153846       0.06666667       0.22222222 </v>
   <v>      -0.42307692       0.06666667       0.22222222 </v>
   <v>      -0.38461538       0.06666667       0.22222222 </v>
   <v>      -0.34615385       0.06666667       0.22222222 </v>
   <v>      -0.30769231       0.06666667       0.22222222 </v>
   <v>      -0.26923077       0.06666667       0.22222222 </v>
   <v>      -0.23076923       0.06666667       0.22222222 </v>
   <v>      -0.19230769       0.06666667       0.22222222 </v>
   <v>      -0.15384615       0.06666667       0.22222222 </v>
   <v>      -0.11538462       0.06666667       0.22222222 </v>
   <v>      -0.07692308       0.06666667       0.22222222 </v>
   <v>      -0.03846154       0.06666667       0.22222222 </v>
   <v>       0.00000000       0.13333333       0.22222222 </v>
   <v>       0.03846154       0.13333333       0.22222222 </v>
   <v>       0.07692308       0.13333333       0.22222222 </v>
   <v>       0.11538462       0.13333333       0.22222222 </v>
   <v>       0.15384615       0.13333333       0.22222222 </v>
   <v>       0.19230769       0.13333333       0.22222222 </v>
   <v>       0.23076923       0.13333333       0.22222222 </v>
   <v>       0.26923077       0.13333333       0.22222222 </v>
   <v>       0.30769231       0.13333333       0.22222222 </v>
   <v>       0.34615385       0.13333333       0.22222222 </v>
   <v>       0.38461538       0.13333333       0.22222222 </v>
   <v>       0.42307692       0.13333333       0.22222222 </v>
   <v>       0.46153846       0.13333333       0.22222222 </v>
   <v>       0.50000000       0.13333333       0.22222222 </v>
   <v>      -0.46153846       0.13333333       0.22222222 </v>
   <v>      -0.42307692       0.13333333       0.22222222 </v>
   <v>      -0.38461538       0.13333333       0.22222222 </v>
   <v>      -0.34615385       0.13333333       0.22222222 </v>
   <v>      -0.30769231       0.13333333       0.22222222 </v>
   <v>      -0.26923077       0.13333333       0.22222222 </v>
   <v>      -0.23076923       0.13333333       0.22222222 </v>
   <v>      -0.19230769       0.13333333       0.22222222 </v>
   <v>      -0.15384615       0.13333333       0.22222222 </v>
   <v>      -0.11538462       0.13333333       0.22222222 </v>
   <v>      -0.07692308       0.13333333       0.22222222 </v>
   <v>      -0.03846154       0.13333333       0.22222222 </v>
   <v>       0.00000000       0.20000000       0.22222222 </v>
   <v>       0.03846154       0.20000000       0.22222222 </v>
   <v>       0.07692308       0.20000000       0.22222222 </v>
   <v>       0.11538462       0.20000000       0.22222222 </v>
   <v>       0.15384615       0.20000000       0.22222222 </v>
   <v>       0.19230769       0.20000000       0.22222222 </v>
   <v>       0.23076923       0.20000000       0.22222222 </v>
   <v>       0.26923077       0.20000000       0.22222222 </v>
   <v>       0.30769231       0.20000000       0.22222222 </v>
   <v>       0.34615385       0.20000000       0.22222222 </v>
   <v>       0.38461538       0.20000000       0.22222222 </v>
   <v>       0.42307692       0.20000000       0.22222222 </v>
   <v>       0.46153846       0.20000000       0.22222222 </v>
   <v>       0.50000000       0.20000000       0.22222222 </v>
   <v>      -0.46153846       0.20000000       0.22222222 </v>
   <v>      -0.42307692       0.20000000       0.22222222 </v>
   <v>      -0.38461538       0.20000000       0.22222222 </v>
   <v>      -0.34615385       0.20000000       0.22222222 </v>
   <v>      -0.30769231       0.20000000       0.22222222 </v>
   <v>      -0.26923077       0.20000000       0.22222222 </v>
   <v>      -0.23076923       0.20000000       0.22222222 </v>
   <v>      -0.19230769       0.20000000       0.22222222 </v>
   <v>      -0.15384615       0.20000000       0.22222222 </v>
   <v>      -0.11538462       0.20000000       0.22222222 </v>
   <v>      -0.07692308       0.20000000       0.22222222 </v>
   <v>      -0.03846154       0.20000000       0.22222222 </v>
   <v>       0.00000000       0.26666667       0.22222222 </v>
   <v>       0.03846154       0.26666667       0.22222222 </v>
   <v>       0.07692308       0.26666667       0.22222222 </v>
   <v>       0.11538462       0.26666667       0.22222222 </v>
   <v>       0.15384615       0.26666667       0.22222222 </v>
   <v>       0.19230769       0.26666667       0.22222222 </v>
   <v>       0.23076923       0.26666667       0.22222222 </v>
   <v>       0.26923077       0.26666667       0.22222222 </v>
   <v>       0.30769231       0.26666667       0.22222222 </v>
   <v>       0.34615385       0.26666667       0.22222222 </v>
   <v>       0.38461538       0.26666667       0.22222222 </v>
   <v>       0.42307692       0.26666667       0.22222222 </v>
   <v>       0.46153846       0.26666667       0.22222222 </v>
   <v>       0.50000000       0.26666667       0.22222222 </v>
   <v>      -0.46153846       0.26666667       0.22222222 </v>
   <v>      -0.42307692       0.26666667       0.22222222 </v>
   <v>      -0.38461538       0.26666667       0.22222222 </v>
   <v>      -0.34615385       0.26666667       0.22222222 </v>
   <v>      -0.30769231       0.26666667       0.22222222 </v>
   <v>      -0.26923077       0.26666667       0.22222222 </v>
   <v>      -0.23076923       0.26666667       0.22222222 </v>
   <v>      -0.19230769       0.26666667       0.22222222 </v>
   <v>      -0.15384615       0.26666667       0.22222222 </v>
   <v>      -0.11538462       0.26666667       0.22222222 </v>
   <v>      -0.07692308       0.26666667       0.22222222 </v>
   <v>      -0.03846154       0.26666667       0.22222222 </v>
   <v>       0.00000000       0.33333333       0.22222222 </v>
   <v>       0.03846154       0.33333333       0.22222222 </v>
   <v>       0.07692308       0.33333333       0.22222222 </v>
   <v>       0.11538462       0.33333333       0.22222222 </v>
   <v>       0.15384615       0.33333333       0.22222222 </v>
   <v>       0.19230769       0.33333333       0.22222222 </v>
   <v>       0.23076923       0.33333333       0.22222222 </v>
   <v>       0.26923077       0.33333333       0.22222222 </v>
   <v>       0.30769231       0.33333333       0.22222222 </v>
   <v>       0.34615385       0.33333333       0.22222222 </v>
   <v>       0.38461538       0.33333333       0.22222222 </v>
   <v>       0.42307692       0.33333333       0.22222222 </v>
   <v>       0.46153846       0.33333333       0.22222222 </v>
   <v>       0.50000000       0.33333333       0.22222222 </v>
   <v>      -0.46153846       0.33333333       0.22222222 </v>
   <v>      -0.42307692       0.33333333       0.22222222 </v>
   <v>      -0.38461538       0.33333333       0.22222222 </v>
   <v>      -0.34615385       0.33333333       0.22222222 </v>
   <v>      -0.30769231       0.33333333       0.22222222 </v>
   <v>      -0.26923077       0.33333333       0.22222222 </v>
   <v>      -0.23076923       0.33333333       0.22222222 </v>
   <v>      -0.19230769       0.33333333       0.22222222 </v>
   <v>      -0.15384615       0.33333333       0.22222222 </v>
   <v>      -0.11538462       0.33333333       0.22222222 </v>
   <v>      -0.07692308       0.33333333       0.22222222 </v>
   <v>      -0.03846154       0.33333333       0.22222222 </v>
   <v>       0.00000000       0.40000000       0.22222222 </v>
   <v>       0.03846154       0.40000000       0.22222222 </v>
   <v>       0.07692308       0.40000000       0.22222222 </v>
   <v>       0.11538462       0.40000000       0.22222222 </v>
   <v>       0.15384615       0.40000000       0.22222222 </v>
   <v>       0.19230769       0.40000000       0.22222222 </v>
   <v>       0.23076923       0.40000000       0.22222222 </v>
   <v>       0.26923077       0.40000000       0.22222222 </v>
   <v>       0.30769231       0.40000000       0.22222222 </v>
   <v>       0.34615385       0.40000000       0.22222222 </v>
   <v>       0.38461538       0.40000000       0.22222222 </v>
   <v>       0.42307692       0.40000000       0.22222222 </v>
   <v>       0.46153846       0.40000000       0.22222222 </v>
   <v>       0.50000000       0.40000000       0.22222222 </v>
   <v>      -0.46153846       0.40000000       0.22222222 </v>
   <v>      -0.42307692       0.40000000       0.22222222 </v>
   <v>      -0.38461538       0.40000000       0.22222222 </v>
   <v>      -0.34615385       0.40000000       0.22222222 </v>
   <v>      -0.30769231       0.40000000       0.22222222 </v>
   <v>      -0.26923077       0.40000000       0.22222222 </v>
   <v>      -0.23076923       0.40000000       0.22222222 </v>
   <v>      -0.19230769       0.40000000       0.22222222 </v>
   <v>      -0.15384615       0.40000000       0.22222222 </v>
   <v>      -0.11538462       0.40000000       0.22222222 </v>
   <v>      -0.07692308       0.40000000       0.22222222 </v>
   <v>      -0.03846154       0.40000000       0.22222222 </v>
   <v>       0.00000000       0.46666667       0.22222222 </v>
   <v>       0.03846154       0.46666667       0.22222222 </v>
   <v>       0.07692308       0.46666667       0.22222222 </v>
   <v>       0.11538462       0.46666667       0.22222222 </v>
   <v>       0.15384615       0.46666667       0.22222222 </v>
   <v>       0.19230769       0.46666667       0.22222222 </v>
   <v>       0.23076923       0.46666667       0.22222222 </v>
   <v>       0.26923077       0.46666667       0.22222222 </v>
   <v>       0.30769231       0.46666667       0.22222222 </v>
   <v>       0.34615385       0.46666667       0.22222222 </v>
   <v>       0.38461538       0.46666667       0.22222222 </v>
   <v>       0.42307692       0.46666667       0.22222222 </v>
   <v>       0.46153846       0.46666667       0.22222222 </v>
   <v>       0.50000000       0.46666667       0.22222222 </v>
   <v>      -0.46153846       0.46666667       0.22222222 </v>
   <v>      -0.42307692       0.46666667       0.22222222 </v>
   <v>      -0.38461538       0.46666667       0.22222222 </v>
   <v>      -0.34615385       0.46666667       0.22222222 </v>
   <v>      -0.30769231       0.46666667       0.22222222 </v>
   <v>      -0.26923077       0.46666667       0.22222222 </v>
   <v>      -0.23076923       0.46666667       0.22222222 </v>
   <v>      -0.19230769       0.46666667       0.22222222 </v>
   <v>      -0.15384615       0.46666667       0.22222222 </v>
   <v>      -0.11538462       0.46666667       0.22222222 </v>
   <v>      -0.07692308       0.46666667       0.22222222 </v>
   <v>      -0.03846154       0.46666667       0.22222222 </v>
   <v>       0.00000000      -0.46666667       0.22222222 </v>
   <v>       0.03846154      -0.46666667       0.22222222 </v>
   <v>       0.07692308      -0.46666667       0.22222222 </v>
   <v>       0.11538462      -0.46666667       0.22222222 </v>
   <v>       0.15384615      -0.46666667       0.22222222 </v>
   <v>       0.19230769      -0.46666667       0.22222222 </v>
   <v>       0.23076923      -0.46666667       0.22222222 </v>
   <v>       0.26923077      -0.46666667       0.22222222 </v>
   <v>       0.30769231      -0.46666667       0.22222222 </v>
   <v>       0.34615385      -0.46666667       0.22222222 </v>
   <v>       0.38461538      -0.46666667       0.22222222 </v>
   <v>       0.42307692      -0.46666667       0.22222222 </v>
   <v>       0.46153846      -0.46666667       0.22222222 </v>
   <v>       0.50000000      -0.46666667       0.22222222 </v>
   <v>      -0.46153846      -0.46666667       0.22222222 </v>
   <v>      -0.42307692      -0.46666667       0.22222222 </v>
   <v>      -0.38461538      -0.46666667       0.22222222 </v>
   <v>      -0.34615385      -0.46666667       0.22222222 </v>
   <v>      -0.30769231      -0.46666667       0.22222222 </v>
   <v>      -0.26923077      -0.46666667       0.22222222 </v>
   <v>      -0.23076923      -0.46666667       0.22222222 </v>
   <v>      -0.19230769      -0.46666667       0.22222222 </v>
   <v>      -0.15384615      -0.46666667       0.22222222 </v>
   <v>      -0.11538462      -0.46666667       0.22222222 </v>
   <v>      -0.07692308      -0.46666667       0.22222222 </v>
   <v>      -0.03846154      -0.46666667       0.22222222 </v>
   <v>       0.00000000      -0.40000000       0.22222222 </v>
   <v>       0.03846154      -0.40000000       0.22222222 </v>
   <v>       0.07692308      -0.40000000       0.22222222 </v>
   <v>       0.11538462      -0.40000000       0.22222222 </v>
   <v>       0.15384615      -0.40000000       0.22222222 </v>
   <v>       0.19230769      -0.40000000       0.22222222 </v>
   <v>       0.23076923      -0.40000000       0.22222222 </v>
   <v>       0.26923077      -0.40000000       0.22222222 </v>
   <v>       0.30769231      -0.40000000       0.22222222 </v>
   <v>       0.34615385      -0.40000000       0.22222222 </v>
   <v>       0.38461538      -0.40000000       0.22222222 </v>
   <v>       0.42307692      -0.40000000       0.22222222 </v>
   <v>       0.46153846      -0.40000000       0.22222222 </v>
   <v>       0.50000000      -0.40000000       0.22222222 </v>
   <v>      -0.46153846      -0.40000000       0.22222222 </v>
   <v>      -0.42307692      -0.40000000       0.22222222 </v>
   <v>      -0.38461538      -0.40000000       0.22222222 </v>
   <v>      -0.34615385      -0.40000000       0.22222222 </v>
   <v>      -0.30769231      -0.40000000       0.22222222 </v>
   <v>      -0.26923077      -0.40000000       0.22222222 </v>
   <v>      -0.23076923      -0.40000000       0.22222222 </v>
   <v>      -0.19230769      -0.40000000       0.22222222 </v>
   <v>      -0.15384615      -0.40000000       0.22222222 </v>
   <v>      -0.11538462      -0.40000000       0.22222222 </v>
   <v>      -0.07692308      -0.40000000       0.22222222 </v>
   <v>      -0.03846154      -0.40000000       0.22222222 </v>
   <v>       0.00000000      -0.33333333       0.22222222 </v>
   <v>       0.03846154      -0.33333333       0.22222222 </v>
   <v>       0.07692308      -0.33333333       0.22222222 </v>
   <v>       0.11538462      -0.33333333       0.22222222 </v>
   <v>       0.15384615      -0.33333333       0.22222222 </v>
   <v>       0.19230769      -0.33333333       0.22222222 </v>
   <v>       0.23076923      -0.33333333       0.22222222 </v>
   <v>       0.26923077      -0.33333333       0.22222222 </v>
   <v>       0.30769231      -0.33333333       0.22222222 </v>
   <v>       0.34615385      -0.33333333       0.22222222 </v>
   <v>       0.38461538      -0.33333333       0.22222222 </v>
   <v>       0.42307692      -0.33333333       0.22222222 </v>
   <v>       0.46153846      -0.33333333       0.22222222 </v>
   <v>       0.50000000      -0.33333333       0.22222222 </v>
   <v>      -0.46153846      -0.33333333       0.22222222 </v>
   <v>      -0.42307692      -0.33333333       0.22222222 </v>
   <v>      -0.38461538      -0.33333333       0.22222222 </v>
   <v>      -0.34615385      -0.33333333       0.22222222 </v>
   <v>      -0.30769231      -0.33333333       0.22222222 </v>
   <v>      -0.26923077      -0.33333333       0.22222222 </v>
   <v>      -0.23076923      -0.33333333       0.22222222 </v>
   <v>      -0.19230769      -0.33333333       0.22222222 </v>
   <v>      -0.15384615      -0.33333333       0.22222222 </v>
   <v>      -0.11538462      -0.33333333       0.22222222 </v>
   <v>      -0.07692308      -0.33333333       0.22222222 </v>
   <v>      -0.03846154      -0.33333333       0.22222222 </v>
   <v>       0.00000000      -0.26666667       0.22222222 </v>
   <v>       0.03846154      -0.26666667       0.22222222 </v>
   <v>       0.07692308      -0.26666667       0.22222222 </v>
   <v>       0.11538462      -0.26666667       0.22222222 </v>
   <v>       0.15384615      -0.26666667       0.22222222 </v>
   <v>       0.19230769      -0.26666667       0.22222222 </v>
   <v>       0.23076923      -0.26666667       0.22222222 </v>
   <v>       0.26923077      -0.26666667       0.22222222 </v>
   <v>       0.30769231      -0.26666667       0.22222222 </v>
   <v>       0.34615385      -0.26666667       0.22222222 </v>
   <v>       0.38461538      -0.26666667       0.22222222 </v>
   <v>       0.42307692      -0.26666667       0.22222222 </v>
   <v>       0.46153846      -0.26666667       0.22222222 </v>
   <v>       0.50000000      -0.26666667       0.22222222 </v>
   <v>      -0.46153846      -0.26666667       0.22222222 </v>
   <v>      -0.42307692      -0.26666667       0.22222222 </v>
   <v>      -0.38461538      -0.26666667       0.22222222 </v>
   <v>      -0.34615385      -0.26666667       0.22222222 </v>
   <v>      -0.30769231      -0.26666667       0.22222222 </v>
   <v>      -0.26923077      -0.26666667       0.22222222 </v>
   <v>      -0.23076923      -0.26666667       0.22222222 </v>
   <v>      -0.19230769      -0.26666667       0.22222222 </v>
   <v>      -0.15384615      -0.26666667       0.22222222 </v>
   <v>      -0.11538462      -0.26666667       0.22222222 </v>
   <v>      -0.07692308      -0.26666667       0.22222222 </v>
   <v>      -0.03846154      -0.26666667       0.22222222 </v>
   <v>       0.00000000      -0.20000000       0.22222222 </v>
   <v>       0.03846154      -0.20000000       0.22222222 </v>
   <v>       0.07692308      -0.20000000       0.22222222 </v>
   <v>       0.11538462      -0.20000000       0.22222222 </v>
   <v>       0.15384615      -0.20000000       0.22222222 </v>
   <v>       0.19230769      -0.20000000       0.22222222 </v>
   <v>       0.23076923      -0.20000000       0.22222222 </v>
   <v>       0.26923077      -0.20000000       0.22222222 </v>
   <v>       0.30769231      -0.20000000       0.22222222 </v>
   <v>       0.34615385      -0.20000000       0.22222222 </v>
   <v>       0.38461538      -0.20000000       0.22222222 </v>
   <v>       0.42307692      -0.20000000       0.22222222 </v>
   <v>       0.46153846      -0.20000000       0.22222222 </v>
   <v>       0.50000000      -0.20000000       0.22222222 </v>
   <v>      -0.46153846      -0.20000000       0.22222222 </v>
   <v>      -0.42307692      -0.20000000       0.22222222 </v>
   <v>      -0.38461538      -0.20000000       0.22222222 </v>
   <v>      -0.34615385      -0.20000000       0.22222222 </v>
   <v>      -0.30769231      -0.20000000       0.22222222 </v>
   <v>      -0.26923077      -0.20000000       0.22222222 </v>
   <v>      -0.23076923      -0.20000000       0.22222222 </v>
   <v>      -0.19230769      -0.20000000       0.22222222 </v>
   <v>      -0.15384615      -0.20000000       0.22222222 </v>
   <v>      -0.11538462      -0.20000000       0.22222222 </v>
   <v>      -0.07692308      -0.20000000       0.22222222 </v>
   <v>      -0.03846154      -0.20000000       0.22222222 </v>
   <v>       0.00000000      -0.13333333       0.22222222 </v>
   <v>       0.03846154      -0.13333333       0.22222222 </v>
   <v>       0.07692308      -0.13333333       0.22222222 </v>
   <v>       0.11538462      -0.13333333       0.22222222 </v>
   <v>       0.15384615      -0.13333333       0.22222222 </v>
   <v>       0.19230769      -0.13333333       0.22222222 </v>
   <v>       0.23076923      -0.13333333       0.22222222 </v>
   <v>       0.26923077      -0.13333333       0.22222222 </v>
   <v>       0.30769231      -0.13333333       0.22222222 </v>
   <v>       0.34615385      -0.13333333       0.22222222 </v>
   <v>       0.38461538      -0.13333333       0.22222222 </v>
   <v>       0.42307692      -0.13333333       0.22222222 </v>
   <v>       0.46153846      -0.13333333       0.22222222 </v>
   <v>       0.50000000      -0.13333333       0.22222222 </v>
   <v>      -0.46153846      -0.13333333       0.22222222 </v>
   <v>      -0.42307692      -0.13333333       0.22222222 </v>
   <v>      -0.38461538      -0.13333333       0.22222222 </v>
   <v>      -0.34615385      -0.13333333       0.22222222 </v>
   <v>      -0.30769231      -0.13333333       0.22222222 </v>
   <v>      -0.26923077      -0.13333333       0.22222222 </v>
   <v>      -0.23076923      -0.13333333       0.22222222 </v>
   <v>      -0.19230769      -0.13333333       0.22222222 </v>
   <v>      -0.15384615      -0.13333333       0.22222222 </v>
   <v>      -0.11538462      -0.13333333       0.22222222 </v>
   <v>      -0.07692308      -0.13333333       0.22222222 </v>
   <v>      -0.03846154      -0.13333333       0.22222222 </v>
   <v>       0.00000000      -0.06666667       0.22222222 </v>
   <v>       0.03846154      -0.06666667       0.22222222 </v>
   <v>       0.07692308      -0.06666667       0.22222222 </v>
   <v>       0.11538462      -0.06666667       0.22222222 </v>
   <v>       0.15384615      -0.06666667       0.22222222 </v>
   <v>       0.19230769      -0.06666667       0.22222222 </v>
   <v>       0.23076923      -0.06666667       0.22222222 </v>
   <v>       0.26923077      -0.06666667       0.22222222 </v>
   <v>       0.30769231      -0.06666667       0.22222222 </v>
   <v>       0.34615385      -0.06666667       0.22222222 </v>
   <v>       0.38461538      -0.06666667       0.22222222 </v>
   <v>       0.42307692      -0.06666667       0.22222222 </v>
   <v>       0.46153846      -0.06666667       0.22222222 </v>
   <v>       0.50000000      -0.06666667       0.22222222 </v>
   <v>      -0.46153846      -0.06666667       0.22222222 </v>
   <v>      -0.42307692      -0.06666667       0.22222222 </v>
   <v>      -0.38461538      -0.06666667       0.22222222 </v>
   <v>      -0.34615385      -0.06666667       0.22222222 </v>
   <v>      -0.30769231      -0.06666667       0.22222222 </v>
   <v>      -0.26923077      -0.06666667       0.22222222 </v>
   <v>      -0.23076923      -0.06666667       0.22222222 </v>
   <v>      -0.19230769      -0.06666667       0.22222222 </v>
   <v>      -0.15384615      -0.06666667       0.22222222 </v>
   <v>      -0.11538462      -0.06666667       0.22222222 </v>
   <v>      -0.07692308      -0.06666667       0.22222222 </v>
   <v>      -0.03846154      -0.06666667       0.22222222 </v>
   <v>       0.00000000       0.00000000       0.33333333 </v>
   <v>       0.03846154       0.00000000       0.33333333 </v>
   <v>       0.07692308       0.00000000       0.33333333 </v>
   <v>       0.11538462       0.00000000       0.33333333 </v>
   <v>       0.15384615       0.00000000       0.33333333 </v>
   <v>       0.19230769       0.00000000       0.33333333 </v>
   <v>       0.23076923       0.00000000       0.33333333 </v>
   <v>       0.26923077       0.00000000       0.33333333 </v>
   <v>       0.30769231       0.00000000       0.33333333 </v>
   <v>       0.34615385       0.00000000       0.33333333 </v>
   <v>       0.38461538       0.00000000       0.33333333 </v>
   <v>       0.42307692       0.00000000       0.33333333 </v>
   <v>       0.46153846       0.00000000       0.33333333 </v>
   <v>       0.50000000       0.00000000       0.33333333 </v>
   <v>      -0.46153846       0.00000000       0.33333333 </v>
   <v>      -0.42307692       0.00000000       0.33333333 </v>
   <v>      -0.38461538       0.00000000       0.33333333 </v>
   <v>      -0.34615385       0.00000000       0.33333333 </v>
   <v>      -0.30769231       0.00000000       0.33333333 </v>
   <v>      -0.26923077       0.00000000       0.33333333 </v>
   <v>      -0.23076923       0.00000000       0.33333333 </v>
   <v>      -0.19230769       0.00000000       0.33333333 </v>
   <v>      -0.15384615       0.00000000       0.33333333 </v>
   <v>      -0.11538462       0.00000000       0.33333333 </v>
   <v>      -0.07692308       0.00000000       0.33333333 </v>
   <v>      -0.03846154       0.00000000       0.33333333 </v>
   <v>       0.00000000       0.06666667       0.33333333 </v>
   <v>       0.03846154       0.06666667       0.33333333 </v>
   <v>       0.07692308       0.06666667       0.33333333 </v>
   <v>       0.11538462       0.06666667       0.33333333 </v>
   <v>       0.15384615       0.06666667       0.33333333 </v>
   <v>       0.19230769       0.06666667       0.33333333 </v>
   <v>       0.23076923       0.06666667       0.33333333 </v>
   <v>       0.26923077       0.06666667       0.33333333 </v>
   <v>       0.30769231       0.06666667       0.33333333 </v>
   <v>       0.34615385       0.06666667       0.33333333 </v>
   <v>       0.38461538       0.06666667       0.33333333 </v>
   <v>       0.42307692       0.06666667       0.33333333 </v>
   <v>       0.46153846       0.06666667       0.33333333 </v>
   <v>       0.50000000       0.06666667       0.33333333 </v>
   <v>      -0.46153846       0.06666667       0.33333333 </v>
   <v>      -0.42307692       0.06666667       0.33333333 </v>
   <v>      -0.38461538       0.06666667       0.33333333 </v>
   <v>      -0.34615385       0.06666667       0.33333333 </v>
   <v>      -0.30769231       0.06666667       0.33333333 </v>
   <v>      -0.26923077       0.06666667       0.33333333 </v>
   <v>      -0.23076923       0.06666667       0.33333333 </v>
   <v>      -0.19230769       0.06666667       0.33333333 </v>
   <v>      -0.15384615       0.06666667       0.33333333 </v>
   <v>      -0.11538462       0.06666667       0.33333333 </v>
   <v>      -0.07692308       0.06666667       0.33333333 </v>
   <v>      -0.03846154       0.06666667       0.33333333 </v>
   <v>       0.00000000       0.13333333       0.33333333 </v>
   <v>       0.03846154       0.13333333       0.33333333 </v>
   <v>       0.07692308       0.13333333       0.33333333 </v>
   <v>       0.11538462       0.13333333       0.33333333 </v>
   <v>       0.15384615       0.13333333       0.33333333 </v>
   <v>       0.19230769       0.13333333       0.33333333 </v>
   <v>       0.23076923       0.13333333       0.33333333 </v>
   <v>       0.26923077       0.13333333       0.33333333 </v>
   <v>       0.30769231       0.13333333       0.33333333 </v>
   <v>       0.34615385       0.13333333       0.33333333 </v>
   <v>       0.38461538       0.13333333       0.33333333 </v>
   <v>       0.42307692       0.13333333       0.33333333 </v>
   <v>       0.46153846       0.13333333       0.33333333 </v>
   <v>       0.50000000       0.13333333       0.33333333 </v>
   <v>      -0.46153846       0.13333333       0.33333333 </v>
   <v>      -0.42307692       0.13333333       0.33333333 </v>
   <v>      -0.38461538       0.13333333       0.33333333 </v>
   <v>      -0.34615385       0.13333333       0.33333333 </v>
   <v>      -0.30769231       0.13333333       0.33333333 </v>
   <v>      -0.26923077       0.13333333       0.33333333 </v>
   <v>      -0.23076923       0.13333333       0.33333333 </v>
   <v>      -0.19230769       0.13333333       0.33333333 </v>
   <v>      -0.15384615       0.13333333       0.33333333 </v>
   <v>      -0.11538462       0.13333333       0.33333333 </v>
   <v>      -0.07692308       0.13333333       0.33333333 </v>
   <v>      -0.03846154       0.13333333       0.33333333 </v>
   <v>       0.00000000       0.20000000       0.33333333 </v>
   <v>       0.03846154       0.20000000       0.33333333 </v>
   <v>       0.07692308       0.20000000       0.33333333 </v>
   <v>       0.11538462       0.20000000       0.33333333 </v>
   <v>       0.15384615       0.20000000       0.33333333 </v>
   <v>       0.19230769       0.20000000       0.33333333 </v>
   <v>       0.23076923       0.20000000       0.33333333 </v>
   <v>       0.26923077       0.20000000       0.33333333 </v>
   <v>       0.30769231       0.20000000       0.33333333 </v>
   <v>       0.34615385       0.20000000       0.33333333 </v>
   <v>       0.38461538       0.20000000       0.33333333 </v>
   <v>       0.42307692       0.20000000       0.33333333 </v>
   <v>       0.46153846       0.20000000       0.33333333 </v>
   <v>       0.50000000       0.20000000       0.33333333 </v>
   <v>      -0.46153846       0.20000000       0.33333333 </v>
   <v>      -0.42307692       0.20000000       0.33333333 </v>
   <v>      -0.38461538       0.20000000       0.33333333 </v>
   <v>      -0.34615385       0.20000000       0.33333333 </v>
   <v>      -0.30769231       0.20000000       0.33333333 </v>
   <v>      -0.26923077       0.20000000       0.33333333 </v>
   <v>      -0.23076923       0.20000000       0.33333333 </v>
   <v>      -0.19230769       0.20000000       0.33333333 </v>
   <v>      -0.15384615       0.20000000       0.33333333 </v>
   <v>      -0.11538462       0.20000000       0.33333333 </v>
   <v>      -0.07692308       0.20000000       0.33333333 </v>
   <v>      -0.03846154       0.20000000       0.33333333 </v>
   <v>       0.00000000       0.26666667       0.33333333 </v>
   <v>       0.03846154       0.26666667       0.33333333 </v>
   <v>       0.07692308       0.26666667       0.33333333 </v>
   <v>       0.11538462       0.26666667       0.33333333 </v>
   <v>       0.15384615       0.26666667       0.33333333 </v>
   <v>       0.19230769       0.26666667       0.33333333 </v>
   <v>       0.23076923       0.26666667       0.33333333 </v>
   <v>       0.26923077       0.26666667       0.33333333 </v>
   <v>       0.30769231       0.26666667       0.33333333 </v>
   <v>       0.34615385       0.26666667       0.33333333 </v>
   <v>       0.38461538       0.26666667       0.33333333 </v>
   <v>       0.42307692       0.26666667       0.33333333 </v>
   <v>       0.46153846       0.26666667       0.33333333 </v>
   <v>       0.50000000       0.26666667       0.33333333 </v>
   <v>      -0.46153846       0.26666667       0.33333333 </v>
   <v>      -0.42307692       0.26666667       0.33333333 </v>
   <v>      -0.38461538       0.26666667       0.33333333 </v>
   <v>      -0.34615385       0.26666667       0.33333333 </v>
   <v>      -0.30769231       0.26666667       0.33333333 </v>
   <v>      -0.26923077       0.26666667       0.33333333 </v>
   <v>      -0.23076923       0.26666667       0.33333333 </v>
   <v>      -0.19230769       0.26666667       0.33333333 </v>
   <v>      -0.15384615       0.26666667       0.33333333 </v>
   <v>      -0.11538462       0.26666667       0.33333333 </v>
   <v>      -0.07692308       0.26666667       0.33333333 </v>
   <v>      -0.03846154       0.26666667       0.33333333 </v>
   <v>       0.00000000       0.33333333       0.33333333 </v>
   <v>       0.03846154       0.33333333       0.33333333 </v>
   <v>       0.07692308       0.33333333       0.33333333 </v>
   <v>       0.11538462       0.33333333       0.33333333 </v>
   <v>       0.15384615       0.33333333       0.33333333 </v>
   <v>       0.19230769       0.33333333       0.33333333 </v>
   <v>       0.23076923       0.33333333       0.33333333 </v>
   <v>       0.26923077       0.33333333       0.33333333 </v>
   <v>       0.30769231       0.33333333       0.33333333 </v>
   <v>       0.34615385       0.33333333       0.33333333 </v>
   <v>       0.38461538       0.33333333       0.33333333 </v>
   <v>       0.42307692       0.33333333       0.33333333 </v>
   <v>       0.46153846       0.33333333       0.33333333 </v>
   <v>       0.50000000       0.33333333       0.33333333 </v>
   <v>      -0.46153846       0.33333333       0.33333333 </v>
   <v>      -0.42307692       0.33333333       0.33333333 </v>
   <v>      -0.38461538       0.33333333       0.33333333 </v>
   <v>      -0.34615385       0.33333333       0.33333333 </v>
   <v>      -0.30769231       0.33333333       0.33333333 </v>
   <v>      -0.26923077       0.33333333       0.33333333 </v>
   <v>      -0.23076923       0.33333333       0.33333333 </v>
   <v>      -0.19230769       0.33333333       0.33333333 </v>
   <v>      -0.15384615       0.33333333       0.33333333 </v>
   <v>      -0.11538462       0.33333333       0.33333333 </v>
   <v>      -0.07692308       0.33333333       0.33333333 </v>
   <v>      -0.03846154       0.33333333       0.33333333 </v>
   <v>       0.00000000       0.40000000       0.33333333 </v>
   <v>       0.03846154       0.40000000       0.33333333 </v>
   <v>       0.07692308       0.40000000       0.33333333 </v>
   <v>       0.11538462       0.40000000       0.33333333 </v>
   <v>       0.15384615       0.40000000       0.33333333 </v>
   <v>       0.19230769       0.40000000       0.33333333 </v>
   <v>       0.23076923       0.40000000       0.33333333 </v>
   <v>       0.26923077       0.40000000       0.33333333 </v>
   <v>       0.30769231       0.40000000       0.33333333 </v>
   <v>       0.34615385       0.40000000       0.33333333 </v>
   <v>       0.38461538       0.40000000       0.33333333 </v>
   <v>       0.42307692       0.40000000       0.33333333 </v>
   <v>       0.46153846       0.40000000       0.33333333 </v>
   <v>       0.50000000       0.40000000       0.33333333 </v>
   <v>      -0.46153846       0.40000000       0.33333333 </v>
   <v>      -0.42307692       0.40000000       0.33333333 </v>
   <v>      -0.38461538       0.40000000       0.33333333 </v>
   <v>      -0.34615385       0.40000000       0.33333333 </v>
   <v>      -0.30769231       0.40000000       0.33333333 </v>
   <v>      -0.26923077       0.40000000       0.33333333 </v>
   <v>      -0.23076923       0.40000000       0.33333333 </v>
   <v>      -0.19230769       0.40000000       0.33333333 </v>
   <v>      -0.15384615       0.40000000       0.33333333 </v>
   <v>      -0.11538462       0.40000000       0.33333333 </v>
   <v>      -0.07692308       0.40000000       0.33333333 </v>
   <v>      -0.03846154       0.40000000       0.33333333 </v>
   <v>       0.00000000       0.46666667       0.33333333 </v>
   <v>       0.03846154       0.46666667       0.33333333 </v>
   <v>       0.07692308       0.46666667       0.33333333 </v>
   <v>       0.11538462       0.46666667       0.33333333 </v>
   <v>       0.15384615       0.46666667       0.33333333 </v>
   <v>       0.19230769       0.46666667       0.33333333 </v>
   <v>       0.23076923       0.46666667       0.33333333 </v>
   <v>       0.26923077       0.46666667       0.33333333 </v>
   <v>       0.30769231       0.46666667       0.33333333 </v>
   <v>       0.34615385       0.46666667       0.33333333 </v>
   <v>       0.38461538       0.46666667       0.33333333 </v>
   <v>       0.42307692       0.46666667       0.33333333 </v>
   <v>       0.46153846       0.46666667       0.33333333 </v>
   <v>       0.50000000       0.46666667       0.33333333 </v>
   <v>      -0.46153846       0.46666667       0.33333333 </v>
   <v>      -0.42307692       0.46666667       0.33333333 </v>
   <v>      -0.38461538       0.46666667       0.33333333 </v>
   <v>      -0.34615385       0.46666667       0.33333333 </v>
   <v>      -0.30769231       0.46666667       0.33333333 </v>
   <v>      -0.26923077       0.46666667       0.33333333 </v>
   <v>      -0.23076923       0.46666667       0.33333333 </v>
   <v>      -0.19230769       0.46666667       0.33333333 </v>
   <v>      -0.15384615       0.46666667       0.33333333 </v>
   <v>      -0.11538462       0.46666667       0.33333333 </v>
   <v>      -0.07692308       0.46666667       0.33333333 </v>
   <v>      -0.03846154       0.46666667       0.33333333 </v>
   <v>       0.00000000      -0.46666667       0.33333333 </v>
   <v>       0.03846154      -0.46666667       0.33333333 </v>
   <v>       0.07692308      -0.46666667       0.33333333 </v>
   <v>       0.11538462      -0.46666667       0.33333333 </v>
   <v>       0.15384615      -0.46666667       0.33333333 </v>
   <v>       0.19230769      -0.46666667       0.33333333 </v>
   <v>       0.23076923      -0.46666667       0.33333333 </v>
   <v>       0.26923077      -0.46666667       0.33333333 </v>
   <v>       0.30769231      -0.46666667       0.33333333 </v>
   <v>       0.34615385      -0.46666667       0.33333333 </v>
   <v>       0.38461538      -0.46666667       0.33333333 </v>
   <v>       0.42307692      -0.46666667       0.33333333 </v>
   <v>       0.46153846      -0.46666667       0.33333333 </v>
   <v>       0.50000000      -0.46666667       0.33333333 </v>
   <v>      -0.46153846      -0.46666667       0.33333333 </v>
   <v>      -0.42307692      -0.46666667       0.33333333 </v>
   <v>      -0.38461538      -0.46666667       0.33333333 </v>
   <v>      -0.34615385      -0.46666667       0.33333333 </v>
   <v>      -0.30769231      -0.46666667       0.33333333 </v>
   <v>      -0.26923077      -0.46666667       0.33333333 </v>
   <v>      -0.23076923      -0.46666667       0.33333333 </v>
   <v>      -0.19230769      -0.46666667       0.33333333 </v>
   <v>      -0.15384615      -0.46666667       0.33333333 </v>
   <v>      -0.11538462      -0.46666667       0.33333333 </v>
   <v>      -0.07692308      -0.46666667       0.33333333 </v>
   <v>      -0.03846154      -0.46666667       0.33333333 </v>
   <v>       0.00000000      -0.40000000       0.33333333 </v>
   <v>       0.03846154      -0.40000000       0.33333333 </v>
   <v>       0.07692308      -0.40000000       0.33333333 </v>
   <v>       0.11538462      -0.40000000       0.33333333 </v>
   <v>       0.15384615      -0.40000000       0.33333333 </v>
   <v>       0.19230769      -0.40000000       0.33333333 </v>
   <v>       0.23076923      -0.40000000       0.33333333 </v>
   <v>       0.26923077      -0.40000000       0.33333333 </v>
   <v>       0.30769231      -0.40000000       0.33333333 </v>
   <v>       0.34615385      -0.40000000       0.33333333 </v>
   <v>       0.38461538      -0.40000000       0.33333333 </v>
   <v>       0.42307692      -0.40000000       0.33333333 </v>
   <v>       0.46153846      -0.40000000       0.33333333 </v>
   <v>       0.50000000      -0.40000000       0.33333333 </v>
   <v>      -0.46153846      -0.40000000       0.33333333 </v>
   <v>      -0.42307692      -0.40000000       0.33333333 </v>
   <v>      -0.38461538      -0.40000000       0.33333333 </v>
   <v>      -0.34615385      -0.40000000       0.33333333 </v>
   <v>      -0.30769231      -0.40000000       0.33333333 </v>
   <v>      -0.26923077      -0.40000000       0.33333333 </v>
   <v>      -0.23076923      -0.40000000       0.33333333 </v>
   <v>      -0.19230769      -0.40000000       0.33333333 </v>
   <v>      -0.15384615      -0.40000000       0.33333333 </v>
   <v>      -0.11538462      -0.40000000       0.33333333 </v>
   <v>      -0.07692308      -0.40000000       0.33333333 </v>
   <v>      -0.03846154      -0.40000000       0.33333333 </v>
   <v>       0.00000000      -0.33333333       0.33333333 </v>
   <v>       0.03846154      -0.33333333       0.33333333 </v>
   <v>       0.07692308      -0.33333333       0.33333333 </v>
   <v>       0.11538462      -0.33333333       0.33333333 </v>
   <v>       0.15384615      -0.33333333       0.33333333 </v>
   <v>       0.19230769      -0.33333333       0.33333333 </v>
[...]
       <r>    4.4833    1.0000 </r>
       <r>    4.5732    1.0000 </r>
       <r>    4.6688    1.0000 </r>
       <r>    4.7473    1.0000 </r>
       <r>    4.9404    1.0000 </r>
       <r>    5.1459    1.0000 </r>
       <r>    5.3184    1.0000 </r>
       <r>    5.5209    1.0000 </r>
       <r>    5.6305    1.0000 </r>
       <r>    5.7771    1.0000 </r>
       <r>    5.9957    1.0000 </r>
       <r>    8.2458    0.5177 </r>
       <r>    8.7643   -0.0182 </r>
       <r>    9.1839   -0.0001 </r>
       <r>   10.7155    0.0000 </r>
       <r>   12.1798    0.0000 </r>
       <r>   13.9334    0.0000 </r>
       <r>   14.2680    0.0000 </r>
       <r>   14.7035    0.0000 </r>
      </set>
      <set comment="kpoint 1755">
       <r>    0.3117    1.0000 </r>
       <r>    1.1345    1.0000 </r>
       <r>    2.1691    1.0000 </r>
       <r>    2.4014    1.0000 </r>
       <r>    2.4972    1.0000 </r>
       <r>    2.6663    1.0000 </r>
       <r>    2.7910    1.0000 </r>
       <r>    3.2240    1.0000 </r>
       <r>    3.3223    1.0000 </r>
       <r>    3.3669    1.0000 </r>
       <r>    3.4209    1.0000 </r>
       <r>    3.5351    1.0000 </r>
       <r>    3.8512    1.0000 </r>
       <r>    3.8935    1.0000 </r>
       <r>    3.9539    1.0000 </r>
       <r>    3.9949    1.0000 </r>
       <r>    4.0527    1.0000 </r>
       <r>    4.0834    1.0000 </r>
       <r>    4.2373    1.0000 </r>
       <r>    4.3117    1.0000 </r>
       <r>    4.3642    1.0000 </r>
       <r>    4.4209    1.0000 </r>
       <r>    4.5780    1.0000 </r>
       <r>    4.6581    1.0000 </r>
       <r>    4.7494    1.0000 </r>
       <r>    4.8971    1.0000 </r>
       <r>    5.1032    1.0000 </r>
       <r>    5.2673    1.0000 </r>
       <r>    5.4975    1.0000 </r>
       <r>    5.7078    1.0000 </r>
       <r>    5.8769    1.0000 </r>
       <r>    6.0361    1.0000 </r>
       <r>    8.2192    0.5922 </r>
       <r>    8.7657   -0.0180 </r>
       <r>    9.1934    0.0000 </r>
       <r>   10.3210    0.0000 </r>
       <r>   11.8496    0.0000 </r>
       <r>   13.6423    0.0000 </r>
       <r>   13.9965    0.0000 </r>
       <r>   14.4461    0.0000 </r>
      </set>
      <set comment="kpoint 1756">
       <r>    0.2322    1.0000 </r>
       <r>    0.9744    1.0000 </r>
       <r>    2.1128    1.0000 </r>
       <r>    2.3483    1.0000 </r>
       <r>    2.4514    1.0000 </r>
       <r>    2.5834    1.0000 </r>
       <r>    2.8271    1.0000 </r>
       <r>    3.2522    1.0000 </r>
       <r>    3.3458    1.0000 </r>
       <r>    3.3680    1.0000 </r>
       <r>    3.4309    1.0000 </r>
       <r>    3.5548    1.0000 </r>
       <r>    3.8324    1.0000 </r>
       <r>    3.8937    1.0000 </r>
       <r>    4.0004    1.0000 </r>
       <r>    4.0268    1.0000 </r>
       <r>    4.0880    1.0000 </r>
       <r>    4.1714    1.0000 </r>
       <r>    4.2018    1.0000 </r>
       <r>    4.3023    1.0000 </r>
       <r>    4.3592    1.0000 </r>
       <r>    4.4347    1.0000 </r>
       <r>    4.5294    1.0000 </r>
       <r>    4.7104    1.0000 </r>
       <r>    4.7668    1.0000 </r>
       <r>    4.8470    1.0000 </r>
       <r>    5.0386    1.0000 </r>
       <r>    5.2085    1.0000 </r>
       <r>    5.4928    1.0000 </r>
       <r>    5.7533    1.0000 </r>
       <r>    5.9346    1.0000 </r>
       <r>    6.1013    1.0000 </r>
       <r>    8.2699    0.4496 </r>
       <r>    8.8106   -0.0122 </r>
       <r>    9.2662    0.0000 </r>
       <r>   10.0072    0.0000 </r>
       <r>   11.6210    0.0000 </r>
       <r>   13.2807    0.0000 </r>
       <r>   13.8591    0.0000 </r>
       <r>   14.2690    0.0000 </r>
      </set>
     </set>
    </set>
   </array>
  </eigenvalues>
  <separator name="orbital magnetization" >
   <v name="MAGDIPOLOUT">      0.00000000      0.00000000      0.00000000</v>
  </separator>
  <dos>
   <i name="efermi">      8.25206170 </i>
   <total>
    <array>
     <dimension dim="1">gridpoints</dimension>
     <dimension dim="2">spin</dimension>
     <field>energy</field>
     <field>total</field>
     <field>integrated</field>
     <set>
      <set comment="spin 1">
       <r>    -3.2695     0.0000     0.0000 </r>
       <r>    -3.1866     0.0000     0.0000 </r>
       <r>    -3.1037     0.0000     0.0000 </r>
       <r>    -3.0207     0.0000     0.0000 </r>
       <r>    -2.9378     0.0000     0.0000 </r>
       <r>    -2.8549     0.0000     0.0000 </r>
       <r>    -2.7719     0.0000     0.0000 </r>
       <r>    -2.6890     0.0000     0.0000 </r>
       <r>    -2.6061     0.0000     0.0000 </r>
       <r>    -2.5231     0.0000     0.0000 </r>
       <r>    -2.4402     0.0000     0.0000 </r>
       <r>    -2.3572     0.0000     0.0000 </r>
       <r>    -2.2743     0.0000     0.0000 </r>
       <r>    -2.1914     0.0000     0.0000 </r>
       <r>    -2.1084     0.0000     0.0000 </r>
       <r>    -2.0255     0.0000     0.0000 </r>
       <r>    -1.9426     0.0000     0.0000 </r>
       <r>    -1.8596     0.0000     0.0000 </r>
       <r>    -1.7767     0.0000     0.0000 </r>
       <r>    -1.6938     0.0000     0.0000 </r>
       <r>    -1.6108     0.0000     0.0000 </r>
       <r>    -1.5279     0.0000     0.0000 </r>
       <r>    -1.4450     0.0000     0.0000 </r>
       <r>    -1.3620     0.0000     0.0000 </r>
       <r>    -1.2791     0.0000     0.0000 </r>
       <r>    -1.1962     0.0000     0.0000 </r>
       <r>    -1.1132     0.0000     0.0000 </r>
       <r>    -1.0303    -0.0001     0.0000 </r>
       <r>    -0.9474    -0.0003     0.0000 </r>
       <r>    -0.8644    -0.0008    -0.0001 </r>
       <r>    -0.7815    -0.0020    -0.0003 </r>
       <r>    -0.6985    -0.0044    -0.0006 </r>
       <r>    -0.6156    -0.0074    -0.0012 </r>
       <r>    -0.5327    -0.0091    -0.0020 </r>
       <r>    -0.4497    -0.0048    -0.0024 </r>
       <r>    -0.3668     0.0122    -0.0014 </r>
       <r>    -0.2839     0.0473     0.0025 </r>
       <r>    -0.2009     0.1012     0.0109 </r>
       <r>    -0.1180     0.1690     0.0250 </r>
       <r>    -0.0351     0.2430     0.0451 </r>
       <r>     0.0479     0.3158     0.0713 </r>
       <r>     0.1308     0.3828     0.1030 </r>
       <r>     0.2137     0.4411     0.1396 </r>
       <r>     0.2967     0.4883     0.1801 </r>
       <r>     0.3796     0.5227     0.2235 </r>
       <r>     0.4625     0.5455     0.2687 </r>
       <r>     0.5455     0.5618     0.3153 </r>
       <r>     0.6284     0.5798     0.3634 </r>
       <r>     0.7113     0.6082     0.4138 </r>
       <r>     0.7943     0.6526     0.4680 </r>
       <r>     0.8772     0.7131     0.5271 </r>
       <r>     0.9602     0.7840     0.5921 </r>
       <r>     1.0431     0.8578     0.6633 </r>
       <r>     1.1260     0.9318     0.7405 </r>
       <r>     1.2090     1.0112     0.8244 </r>
       <r>     1.2919     1.1079     0.9163 </r>
       <r>     1.3748     1.2335     1.0186 </r>
       <r>     1.4578     1.3953     1.1343 </r>
       <r>     1.5407     1.6042     1.2674 </r>
       <r>     1.6236     1.8913     1.4242 </r>
       <r>     1.7066     2.3112     1.6159 </r>
       <r>     1.7895     2.9212     1.8582 </r>
       <r>     1.8724     3.7530     2.1694 </r>
       <r>     1.9554     4.8119     2.5685 </r>
       <r>     2.0383     6.1018     3.0746 </r>
       <r>     2.1212     7.6340     3.7077 </r>
       <r>     2.2042     9.3837     4.4859 </r>
       <r>     2.2871    11.2277     5.4171 </r>
       <r>     2.3700    12.9363     6.4900 </r>
       <r>     2.4530    14.2528     7.6720 </r>
       <r>     2.5359    15.0003     8.9161 </r>
       <r>     2.6189    15.1315    10.1710 </r>
       <r>     2.7018    14.7110    11.3910 </r>
       <r>     2.7847    13.8915    12.5431 </r>
       <r>     2.8677    12.9183    13.6145 </r>
       <r>     2.9506    12.1138    14.6192 </r>
       <r>     3.0335    11.7786    15.5960 </r>
       <r>     3.1165    12.0379    16.5944 </r>
       <r>     3.1994    12.7555    17.6523 </r>
       <r>     3.2823    13.6113    18.7811 </r>
       <r>     3.3653    14.3071    19.9677 </r>
       <r>     3.4482    14.7567    21.1915 </r>
       <r>     3.5311    15.1381    22.4470 </r>
       <r>     3.6141    15.7780    23.7556 </r>
       <r>     3.6970    16.9273    25.1594 </r>
       <r>     3.7799    18.5316    26.6963 </r>
       <r>     3.8629    20.1389    28.3666 </r>
       <r>     3.9458    21.0702    30.1140 </r>
       <r>     4.0287    20.8174    31.8405 </r>
       <r>     4.1117    19.4047    33.4498 </r>
       <r>     4.1946    17.4118    34.8939 </r>
       <r>     4.2775    15.6193    36.1893 </r>
       <r>     4.3605    14.5588    37.3967 </r>
       <r>     4.4434    14.3021    38.5829 </r>
       <r>     4.5264    14.5748    39.7916 </r>
       <r>     4.6093    15.0182    41.0372 </r>
       <r>     4.6922    15.3762    42.3124 </r>
       <r>     4.7752    15.5238    43.5998 </r>
       <r>     4.8581    15.4128    44.8781 </r>
       <r>     4.9410    15.0406    46.1255 </r>
       <r>     5.0240    14.4580    47.3246 </r>
       <r>     5.1069    13.7698    48.4666 </r>
       <r>     5.1898    13.1123    49.5540 </r>
       <r>     5.2728    12.6408    50.6024 </r>
       <r>     5.3557    12.5258    51.6412 </r>
       <r>     5.4386    12.9042    52.7114 </r>
       <r>     5.5216    13.7632    53.8529 </r>
       <r>     5.6045    14.8503    55.0845 </r>
       <r>     5.6874    15.7256    56.3887 </r>
       <r>     5.7704    15.9546    57.7119 </r>
       <r>     5.8533    15.2964    58.9805 </r>
       <r>     5.9362    13.7652    60.1221 </r>
       <r>     6.0192    11.5754    61.0821 </r>
       <r>     6.1021     9.0586    61.8334 </r>
       <r>     6.1851     6.5870    62.3797 </r>
       <r>     6.2680     4.4848    62.7516 </r>
       <r>     6.3509     2.9416    62.9956 </r>
       <r>     6.4339     1.9811    63.1599 </r>
       <r>     6.5168     1.5029    63.2845 </r>
       <r>     6.5997     1.3534    63.3968 </r>
       <r>     6.6827     1.3813    63.5113 </r>
       <r>     6.7656     1.4656    63.6329 </r>
       <r>     6.8485     1.5296    63.7597 </r>
       <r>     6.9315     1.5457    63.8879 </r>
       <r>     7.0144     1.5279    64.0146 </r>
       <r>     7.0973     1.5093    64.1398 </r>
       <r>     7.1803     1.5159    64.2655 </r>
       <r>     7.2632     1.5491    64.3940 </r>
       <r>     7.3461     1.5888    64.5258 </r>
       <r>     7.4291     1.6096    64.6593 </r>
       <r>     7.5120     1.5999    64.7920 </r>
       <r>     7.5949     1.5708    64.9222 </r>
       <r>     7.6779     1.5490    65.0507 </r>
       <r>     7.7608     1.5591    65.1800 </r>
       <r>     7.8438     1.6061    65.3132 </r>
       <r>     7.9267     1.6694    65.4517 </r>
       <r>     8.0096     1.7148    65.5939 </r>
       <r>     8.0926     1.7176    65.7363 </r>
       <r>     8.1755     1.6788    65.8756 </r>
       <r>     8.2584     1.6233    66.0102 </r>
       <r>     8.3414     1.5827    66.1415 </r>
       <r>     8.4243     1.5771    66.2722 </r>
       <r>     8.5072     1.6061    66.4054 </r>
       <r>     8.5902     1.6527    66.5425 </r>
       <r>     8.6731     1.6935    66.6830 </r>
       <r>     8.7560     1.7093    66.8247 </r>
       <r>     8.8390     1.6911    66.9650 </r>
       <r>     8.9219     1.6442    67.1013 </r>
       <r>     9.0048     1.5884    67.2331 </r>
       <r>     9.0878     1.5501    67.3616 </r>
       <r>     9.1707     1.5484    67.4901 </r>
       <r>     9.2536     1.5839    67.6214 </r>
       <r>     9.3366     1.6385    67.7573 </r>
       <r>     9.4195     1.6850    67.8971 </r>
       <r>     9.5025     1.7008    68.0381 </r>
       <r>     9.5854     1.6794    68.1774 </r>
       <r>     9.6683     1.6338    68.3129 </r>
       <r>     9.7513     1.5885    68.4446 </r>
       <r>     9.8342     1.5645    68.5744 </r>
       <r>     9.9171     1.5668    68.7043 </r>
       <r>    10.0001     1.5836    68.8357 </r>
       <r>    10.0830     1.5958    68.9680 </r>
       <r>    10.1659     1.5904    69.0999 </r>
       <r>    10.2489     1.5659    69.2298 </r>
       <r>    10.3318     1.5305    69.3567 </r>
       <r>    10.4147     1.4949    69.4807 </r>
       <r>    10.4977     1.4674    69.6024 </r>
       <r>    10.5806     1.4501    69.7227 </r>
       <r>    10.6635     1.4399    69.8421 </r>
       <r>    10.7465     1.4313    69.9608 </r>
       <r>    10.8294     1.4211    70.0786 </r>
       <r>    10.9123     1.4118    70.1957 </r>
       <r>    10.9953     1.4101    70.3127 </r>
       <r>    11.0782     1.4249    70.4308 </r>
       <r>    11.1612     1.4649    70.5523 </r>
       <r>    11.2441     1.5352    70.6797 </r>
       <r>    11.3270     1.6330    70.8151 </r>
       <r>    11.4100     1.7462    70.9599 </r>
       <r>    11.4929     1.8574    71.1140 </r>
       <r>    11.5758     1.9499    71.2757 </r>
       <r>    11.6588     2.0113    71.4425 </r>
       <r>    11.7417     2.0357    71.6113 </r>
       <r>    11.8246     2.0256    71.7793 </r>
       <r>    11.9076     1.9933    71.9446 </r>
       <r>    11.9905     1.9563    72.1068 </r>
       <r>    12.0734     1.9288    72.2668 </r>
       <r>    12.1564     1.9139    72.4255 </r>
       <r>    12.2393     1.9044    72.5835 </r>
       <r>    12.3222     1.8912    72.7403 </r>
       <r>    12.4052     1.8716    72.8955 </r>
       <r>    12.4881     1.8496    73.0489 </r>
       <r>    12.5710     1.8289    73.2006 </r>
       <r>    12.6540     1.8099    73.3507 </r>
       <r>    12.7369     1.7943    73.4995 </r>
       <r>    12.8199     1.7895    73.6479 </r>
       <r>    12.9028     1.8025    73.7974 </r>
       <r>    12.9857     1.8313    73.9493 </r>
       <r>    13.0687     1.8649    74.1040 </r>
       <r>    13.1516     1.8909    74.2608 </r>
       <r>    13.2345     1.9026    74.4186 </r>
       <r>    13.3175     1.9005    74.5762 </r>
       <r>    13.4004     1.8899    74.7329 </r>
       <r>    13.4833     1.8763    74.8885 </r>
       <r>    13.5663     1.8627    75.0430 </r>
       <r>    13.6492     1.8522    75.1966 </r>
       <r>    13.7321     1.8525    75.3503 </r>
       <r>    13.8151     1.8759    75.5059 </r>
       <r>    13.8980     1.9293    75.6659 </r>
       <r>    13.9809     2.0031    75.8320 </r>
       <r>    14.0639     2.0721    76.0038 </r>
       <r>    14.1468     2.1081    76.1787 </r>
       <r>    14.2297     2.0968    76.3526 </r>
       <r>    14.3127     2.0428    76.5220 </r>
       <r>    14.3956     1.9632    76.6848 </r>
       <r>    14.4786     1.8758    76.8404 </r>
       <r>    14.5615     1.7936    76.9891 </r>
       <r>    14.6444     1.7248    77.1322 </r>
       <r>    14.7274     1.6730    77.2709 </r>
       <r>    14.8103     1.6364    77.4067 </r>
       <r>    14.8932     1.6093    77.5401 </r>
       <r>    14.9762     1.5850    77.6716 </r>
       <r>    15.0591     1.5574    77.8007 </r>
       <r>    15.1420     1.5198    77.9268 </r>
       <r>    15.2250     1.4679    78.0485 </r>
       <r>    15.3079     1.4046    78.1650 </r>
       <r>    15.3908     1.3404    78.2762 </r>
       <r>    15.4738     1.2865    78.3829 </r>
       <r>    15.5567     1.2437    78.4860 </r>
       <r>    15.6396     1.2017    78.5857 </r>
       <r>    15.7226     1.1468    78.6808 </r>
       <r>    15.8055     1.0744    78.7699 </r>
       <r>    15.8884     0.9925    78.8522 </r>
       <r>    15.9714     0.9150    78.9281 </r>
       <r>    16.0543     0.8510    78.9987 </r>
       <r>    16.1373     0.8006    79.0651 </r>
       <r>    16.2202     0.7595    79.1281 </r>
       <r>    16.3031     0.7250    79.1882 </r>
       <r>    16.3861     0.6972    79.2460 </r>
       <r>    16.4690     0.6747    79.3020 </r>
       <r>    16.5519     0.6530    79.3561 </r>
       <r>    16.6349     0.6277    79.4082 </r>
       <r>    16.7178     0.5985    79.4578 </r>
       <r>    16.8007     0.5695    79.5051 </r>
       <r>    16.8837     0.5445    79.5502 </r>
       <r>    16.9666     0.5227    79.5936 </r>
       <r>    17.0495     0.5005    79.6351 </r>
       <r>    17.1325     0.4747    79.6745 </r>
       <r>    17.2154     0.4456    79.7114 </r>
       <r>    17.2983     0.4145    79.7458 </r>
       <r>    17.3813     0.3813    79.7774 </r>
       <r>    17.4642     0.3448    79.8060 </r>
       <r>    17.5471     0.3061    79.8314 </r>
       <r>    17.6301     0.2701    79.8538 </r>
       <r>    17.7130     0.2426    79.8739 </r>
       <r>    17.7960     0.2256    79.8926 </r>
       <r>    17.8789     0.2151    79.9105 </r>
       <r>    17.9618     0.2035    79.9273 </r>
       <r>    18.0448     0.1854    79.9427 </r>
       <r>    18.1277     0.1610    79.9561 </r>
       <r>    18.2106     0.1351    79.9673 </r>
       <r>    18.2936     0.1120    79.9766 </r>
       <r>    18.3765     0.0926    79.9842 </r>
       <r>    18.4594     0.0748    79.9904 </r>
       <r>    18.5424     0.0564    79.9951 </r>
       <r>    18.6253     0.0377    79.9982 </r>
       <r>    18.7082     0.0206    80.0000 </r>
       <r>    18.7912     0.0079    80.0006 </r>
       <r>    18.8741     0.0005    80.0007 </r>
       <r>    18.9570    -0.0023    80.0005 </r>
       <r>    19.0400    -0.0025    80.0003 </r>
       <r>    19.1229    -0.0017    80.0001 </r>
       <r>    19.2058    -0.0009    80.0000 </r>
       <r>    19.2888    -0.0004    80.0000 </r>
       <r>    19.3717    -0.0001    80.0000 </r>
       <r>    19.4547     0.0000    80.0000 </r>
       <r>    19.5376     0.0000    80.0000 </r>
       <r>    19.6205     0.0000    80.0000 </r>
       <r>    19.7035     0.0000    80.0000 </r>
       <r>    19.7864     0.0000    80.0000 </r>
       <r>    19.8693     0.0000    80.0000 </r>
       <r>    19.9523     0.0000    80.0000 </r>
       <r>    20.0352     0.0000    80.0000 </r>
       <r>    20.1181     0.0000    80.0000 </r>
       <r>    20.2011     0.0000    80.0000 </r>
       <r>    20.2840     0.0000    80.0000 </r>
       <r>    20.3669     0.0000    80.0000 </r>
       <r>    20.4499     0.0000    80.0000 </r>
       <r>    20.5328     0.0000    80.0000 </r>
       <r>    20.6157     0.0000    80.0000 </r>
       <r>    20.6987     0.0000    80.0000 </r>
       <r>    20.7816     0.0000    80.0000 </r>
       <r>    20.8645     0.0000    80.0000 </r>
       <r>    20.9475     0.0000    80.0000 </r>
       <r>    21.0304     0.0000    80.0000 </r>
       <r>    21.1134     0.0000    80.0000 </r>
       <r>    21.1963     0.0000    80.0000 </r>
       <r>    21.2792     0.0000    80.0000 </r>
       <r>    21.3622     0.0000    80.0000 </r>
       <r>    21.4451     0.0000    80.0000 </r>
       <r>    21.5280     0.0000    80.0000 </r>
       <r>    21.6110     0.0000    80.0000 </r>
      </set>
     </set>
    </array>
   </total>
  </dos>
 </calculation>
 <structure name="finalpos" >
  <crystal>
   <varray name="basis" >
    <v>       0.00000000      -2.06078544      -2.06078544 </v>
    <v>       2.08687733       4.14016596      -2.07938052 </v>
    <v>       6.26338767      -2.08030118       4.14108661 </v>
   </varray>
   <i name="volume">    107.03452463 </i>
   <varray name="rec_basis" >
    <v>       0.11976554      -0.20241979      -0.28283209 </v>
    <v>       0.11978327       0.12059191      -0.12059191 </v>
    <v>       0.11974782      -0.04017962       0.04017962 </v>
   </varray>
  </crystal>
  <varray name="positions" >
   <v>       0.66616954       0.99876955       0.33356954 </v>
   <v>       0.33314387       0.99959672       0.66669103 </v>
   <v>       0.16723602       0.50140775       0.83306428 </v>
   <v>       0.99996457       0.00118190       0.99874725 </v>
   <v>       0.83374890       0.50095921       0.16653858 </v>
   <v>       0.49973710       0.49808488       0.50138932 </v>
  </varray>
 </structure>
</modeling>
