<?xml version="1.0" encoding="ISO-8859-1"?>
<modeling>
 <generator>
  <i name="program" type="string">vasp </i>
  <i name="version" type="string">5.3.5  </i>
  <i name="subversion" type="string">31Mar14 (build Jun 20 2014 13:15:13) complex                          parallel </i>
  <i name="platform" type="string">LinuxIFC </i>
  <i name="date" type="string">2025 12 12 </i>
  <i name="time" type="string">13:41:43 </i>
 </generator>
 <incar>
  <i type="string" name="PREC">accurate</i>
  <i type="int" name="IALGO">    38</i>
  <i type="logical" name="ADDGRID"> T  </i>
  <i type="int" name="ISPIN">     2</i>
  <i type="int" name="NELM">   100</i>
  <i type="int" name="NELMIN">     4</i>
  <i name="EDIFF">      0.00000100</i>
  <i name="ENCUT">    500.00000000</i>
  <i type="logical" name="LREAL"> F  </i>
  <i type="int" name="ISMEAR">     0</i>
  <i name="SIGMA">      0.05000000</i>
  <i type="logical" name="LWAVE"> F  </i>
  <i type="logical" name="LCHARG"> F  </i>
  <i type="int" name="NELM">   100</i>
  <i type="logical" name="LDAU"> T  </i>
  <v name="LDAUU">      0.00000000      4.00000000      0.00000000</v>
  <v name="LDAUJ">      0.00000000      0.00000000      0.00000000</v>
 </incar>
 <kpoints>
  <generation param="Auto">
   <i name="subdivisionlength">     20.00000000 </i>
   <v type="int" name="divisions">       3        3        3 </v>
   <v name="usershift">      0.00000000       0.00000000       0.00000000 </v>
   <v name="genvec1">      0.33333333       0.00000000       0.00000000 </v>
   <v name="genvec2">      0.00000000       0.33333333       0.00000000 </v>
   <v name="genvec3">      0.00000000       0.00000000       0.33333333 </v>
   <v name="shift">      0.00000000       0.00000000       0.00000000 </v>
  </generation>
  <varray name="kpointlist" >
   <v>       0.00000000       0.00000000       0.00000000 </v>
   <v>       0.33333333       0.00000000       0.00000000 </v>
   <v>       0.00000000       0.33333333       0.00000000 </v>
   <v>       0.33333333       0.33333333       0.00000000 </v>
   <v>       0.00000000       0.00000000       0.33333333 </v>
   <v>       0.33333333       0.00000000       0.33333333 </v>
   <v>       0.00000000       0.33333333       0.33333333 </v>
   <v>       0.33333333       0.33333333       0.33333333 </v>
  </varray>
  <varray name="weights" >
   <v>       0.03703704 </v>
   <v>       0.07407407 </v>
   <v>       0.07407407 </v>
   <v>       0.14814815 </v>
   <v>       0.07407407 </v>
   <v>       0.14814815 </v>
   <v>       0.14814815 </v>
   <v>       0.29629630 </v>
  </varray>
 </kpoints>
 <parameters>
  <separator name="general" >
   <i type="string" name="SYSTEM">unknown system</i>
   <i type="logical" name="LCOMPAT"> F  </i>
  </separator>
  <separator name="electronic" >
   <i type="string" name="PREC">accura</i>
   <i name="ENMAX">    500.00000000</i>
   <i name="ENAUG">    586.98000000</i>
   <i name="EDIFF">      0.00000100</i>
   <i type="int" name="IALGO">    38</i>
   <i type="int" name="IWAVPR">    10</i>
   <i type="int" name="NBANDS">   184</i>
   <i name="NELECT">    276.00000000</i>
   <i type="int" name="TURBO">     0</i>
   <i type="int" name="IRESTART">     0</i>
   <i type="int" name="NREBOOT">     0</i>
   <i type="int" name="NMIN">     0</i>
   <i name="EREF">      0.00000000</i>
   <separator name="electronic smearing" >
    <i type="int" name="ISMEAR">     0</i>
    <i name="SIGMA">      0.05000000</i>
    <i name="KSPACING">      0.50000000</i>
    <i type="logical" name="KGAMMA"> T  </i>
   </separator>
   <separator name="electronic projectors" >
    <i type="logical" name="LREAL"> F  </i>
    <v name="ROPT">      0.00000000      0.00000000      0.00000000</v>
    <i type="int" name="LMAXPAW">  -100</i>
    <i type="int" name="LMAXMIX">     2</i>
    <i type="logical" name="NLSPLINE"> F  </i>
   </separator>
   <separator name="electronic startup" >
    <i type="int" name="ISTART">     0</i>
    <i type="int" name="ICHARG">     2</i>
    <i type="int" name="INIWAV">     1</i>
   </separator>
   <separator name="electronic spin" >
    <i type="int" name="ISPIN">     2</i>
    <i type="logical" name="LNONCOLLINEAR"> F  </i>
    <v name="MAGMOM">      1.00000000      1.00000000      1.00000000      1.00000000      1.00000000      1.00000000      1.00000000      1.00000000      1.00000000      1.00000000      1.00000000      1.00000000      1.00000000      1.00000000      1.00000000      1.00000000      1.00000000      1.00000000      1.00000000      1.00000000
      1.00000000      1.00000000      1.00000000      1.00000000      1.00000000      1.00000000      1.00000000      1.00000000      1.00000000      1.00000000      1.00000000      1.00000000      1.00000000      1.00000000</v>
    <i name="NUPDOWN">     -1.00000000</i>
    <i type="logical" name="LSORBIT"> F  </i>
    <v name="SAXIS">      0.00000000      0.00000000      1.00000000</v>
    <i type="logical" name="LSPIRAL"> F  </i>
    <v name="QSPIRAL">      0.00000000      0.00000000      0.00000000</v>
    <i type="logical" name="LZEROZ"> F  </i>
   </separator>
   <separator name="electronic exchange-correlation" >
    <i type="logical" name="LASPH"> F  </i>
    <i type="logical" name="LMETAGGA"> F  </i>
   </separator>
   <separator name="electronic convergence" >
    <i type="int" name="NELM">   100</i>
    <i type="int" name="NELMDL">    -5</i>
    <i type="int" name="NELMIN">     4</i>
    <i name="ENINI">    500.00000000</i>
    <separator name="electronic convergence detail" >
     <i type="logical" name="LDIAG"> T  </i>
     <i type="logical" name="LSUBROT"> F  </i>
     <i name="WEIMIN">      0.00000000</i>
     <i name="EBREAK">      0.00000000</i>
     <i name="DEPER">      0.30000000</i>
     <i type="int" name="NRMM">     4</i>
     <i name="TIME">      0.40000000</i>
    </separator>
   </separator>
   <separator name="electronic mixer" >
    <i name="AMIX">      0.40000000</i>
    <i name="BMIX">      1.00000000</i>
    <i name="AMIN">      0.10000000</i>
    <i name="AMIX_MAG">      1.60000000</i>
    <i name="BMIX_MAG">      1.00000000</i>
    <separator name="electronic mixer details" >
     <i type="int" name="IMIX">     4</i>
     <i type="int" name="MAXMIX">   -45</i>
     <i name="WC">    100.00000000</i>
     <i type="int" name="INIMIX">     1</i>
     <i type="int" name="MIXPRE">     1</i>
     <i type="int" name="MREMOVE">     5</i>
    </separator>
   </separator>
   <separator name="electronic dipolcorrection" >
    <i type="logical" name="LDIPOL"> F  </i>
    <i type="logical" name="LMONO"> F  </i>
    <i type="int" name="IDIPOL">     0</i>
    <i name="EPSILON">      1.00000000</i>
    <v name="DIPOL">   -100.00000000   -100.00000000   -100.00000000</v>
    <i name="EFIELD">      0.00000000</i>
   </separator>
  </separator>
  <separator name="grids" >
   <i type="int" name="NGX">    60</i>
   <i type="int" name="NGY">    60</i>
   <i type="int" name="NGZ">    60</i>
   <i type="int" name="NGXF">   120</i>
   <i type="int" name="NGYF">   120</i>
   <i type="int" name="NGZF">   120</i>
   <i type="logical" name="ADDGRID"> T  </i>
  </separator>
  <separator name="ionic" >
   <i type="int" name="NSW">     0</i>
   <i type="int" name="IBRION">    -1</i>
   <i type="int" name="ISIF">     2</i>
   <i name="PSTRESS">      0.00000000</i>
   <i name="EDIFFG">      0.00001000</i>
   <i type="int" name="NFREE">     0</i>
   <i name="POTIM">      0.50000000</i>
   <i name="SMASS">     -3.00000000</i>
   <i name="SCALEE">      1.00000000</i>
  </separator>
  <separator name="ionic md" >
   <i name="TEBEG">      0.00010000</i>
   <i name="TEEND">      0.00010000</i>
   <i type="int" name="NBLOCK">     1</i>
   <i type="int" name="KBLOCK">     1</i>
   <i type="int" name="NPACO">   256</i>
   <i name="APACO">     16.00000000</i>
  </separator>
  <separator name="symmetry" >
   <i type="int" name="ISYM">     2</i>
   <i name="SYMPREC">      0.00001000</i>
  </separator>
  <separator name="dos" >
   <i type="logical" name="LORBIT"> F  </i>
   <v name="RWIGS">     -1.00000000     -1.00000000     -1.00000000</v>
   <i type="int" name="NEDOS">   301</i>
   <i name="EMIN">     10.00000000</i>
   <i name="EMAX">    -10.00000000</i>
   <i name="EFERMI">      0.00000000</i>
  </separator>
  <separator name="writing" >
   <i type="int" name="NWRITE">     2</i>
   <i type="logical" name="LWAVE"> F  </i>
   <i type="logical" name="LCHARG"> F  </i>
   <i type="logical" name="LPARD"> F  </i>
   <i type="logical" name="LVTOT"> F  </i>
   <i type="logical" name="LVHAR"> F  </i>
   <i type="logical" name="LELF"> F  </i>
   <i type="logical" name="LOPTICS"> F  </i>
   <v name="STM">      0.00000000      0.00000000      0.00000000      0.00000000      0.00000000      0.00000000      0.00000000</v>
  </separator>
  <separator name="performance" >
   <i type="int" name="NPAR">     4</i>
   <i type="int" name="NSIM">     4</i>
   <i type="int" name="NBLK">    -1</i>
   <i type="logical" name="LPLANE"> T  </i>
   <i type="logical" name="LSCALAPACK"> T  </i>
   <i type="logical" name="LSCAAWARE"> F  </i>
   <i type="logical" name="LSCALU"> F  </i>
   <i type="logical" name="LASYNC"> F  </i>
   <i type="logical" name="LORBITALREAL"> F  </i>
  </separator>
  <separator name="miscellaneous" >
   <i type="int" name="IDIOT">     3</i>
   <i type="logical" name="LMUSIC"> F  </i>
   <v name="POMASS">     87.62000000     63.54600000     16.00000000</v>
   <v name="DARWINR">      0.00000000      0.00000000      0.00000000</v>
   <v name="DARWINV">      1.00000000      1.00000000      1.00000000</v>
   <i type="logical" name="LCORR"> T  </i>
  </separator>
  <i type="logical" name="GGA_COMPAT"> T  </i>
  <i type="logical" name="LBERRY"> F  </i>
  <i type="int" name="ICORELEVEL">     0</i>
  <i type="logical" name="LDAU"> T  </i>
  <v type="int" name="LDAUTYPE">     2</v>
  <v type="int" name="LDAUL">     2</v>
  <v name="LDAUU">      0.00000000</v>
  <v name="LDAUJ">      0.00000000</v>
  <i type="int" name="LDAUPRINT">     0</i>
  <i type="int" name="I_CONSTRAINED_M">     0</i>
  <separator name="electronic exchange-correlation" >
   <i type="string" name="GGA">--</i>
   <i type="int" name="VOSKOWN">     0</i>
   <i type="logical" name="LHFCALC"> F  </i>
   <i type="string" name="PRECFOCK"></i>
   <i type="logical" name="LSYMGRAD"> F  </i>
   <i type="logical" name="LHFONE"> F  </i>
   <i type="logical" name="LRHFCALC"> F  </i>
   <i type="logical" name="LTHOMAS"> F  </i>
   <i type="logical" name="LMODELHF"> F  </i>
   <i name="ENCUT4O">     -1.00000000</i>
   <i type="int" name="EXXOEP">     0</i>
   <i type="int" name="FOURORBIT">     0</i>
   <i name="AEXX">      0.00000000</i>
   <i name="HFALPHA">      0.00000000</i>
   <i name="MCALPHA">      0.00000000</i>
   <i name="ALDAX">      1.00000000</i>
   <i name="AGGAX">      1.00000000</i>
   <i name="ALDAC">      1.00000000</i>
   <i name="AGGAC">      1.00000000</i>
   <i type="int" name="NKREDX">     1</i>
   <i type="int" name="NKREDY">     1</i>
   <i type="int" name="NKREDZ">     1</i>
   <i type="logical" name="SHIFTRED"> F  </i>
   <i type="logical" name="ODDONLY"> F  </i>
   <i type="logical" name="EVENONLY"> F  </i>
   <i type="int" name="LMAXFOCK">     0</i>
   <i type="int" name="NMAXFOCKAE">     0</i>
   <i type="logical" name="LFOCKAEDFT"> F  </i>
   <i name="HFSCREEN">      0.00000000</i>
   <i name="HFSCREENC">      0.00000000</i>
   <i type="int" name="NBANDSGWLOW">     0</i>
  </separator>
  <separator name="vdW DFT" >
   <i type="logical" name="LUSE_VDW"> F  </i>
   <i name="Zab_VDW">     -0.84910000</i>
   <i name="PARAM1">      0.12340000</i>
   <i name="PARAM2">      1.00000000</i>
   <i name="PARAM3">      0.00000000</i>
  </separator>
  <separator name="model GW" >
   <i type="int" name="MODEL_GW">     0</i>
   <i name="MODEL_EPS0">      9.03529412</i>
   <i name="MODEL_ALPHA">      1.00000000</i>
  </separator>
  <separator name="linear response parameters" >
   <i type="logical" name="LEPSILON"> F  </i>
   <i type="logical" name="LRPA"> F  </i>
   <i type="logical" name="LNABLA"> F  </i>
   <i type="logical" name="LVEL"> F  </i>
   <i type="int" name="KINTER">     0</i>
   <i name="CSHIFT">      0.10000000</i>
   <i name="OMEGAMAX">     -1.00000000</i>
   <i name="DEG_THRESHOLD">      0.00200000</i>
  </separator>
  <separator name="orbital magnetization" >
   <i type="logical" name="NUCIND"> F  </i>
   <v name="MAGPOS">      0.00000000      0.00000000      0.00000000</v>
   <i type="logical" name="LNICSALL"> T  </i>
   <i type="logical" name="ORBITALMAG"> F  </i>
   <i type="logical" name="LMAGBLOCH"> F  </i>
   <i type="logical" name="LCHIMAG"> F  </i>
   <i type="logical" name="LGAUGE"> T  </i>
   <i type="int" name="MAGATOM">     0</i>
   <v name="MAGDIPOL">      0.00000000      0.00000000      0.00000000</v>
   <v name="AVECCONST">      0.00000000      0.00000000      0.00000000</v>
  </separator>
  <separator name="response functions" >
   <i type="logical" name="LADDER"> F  </i>
   <i type="logical" name="LFXC"> F  </i>
   <i type="logical" name="LHARTREE"> T  </i>
   <i type="int" name="IBSE">     0</i>
   <i type="logical" name="LTCTE"> F  </i>
   <i type="logical" name="LTETE"> F  </i>
   <i type="logical" name="LTRIPLET"> F  </i>
   <i type="logical" name="LFXCEPS"> F  </i>
   <i type="logical" name="LFXHEG"> F  </i>
   <i type="logical" name="L2ORDER"> F  </i>
   <i type="logical" name="LUSEW"> F  </i>
   <i name="ENCUTGW">     -2.00000000</i>
   <i name="ENCUTGWSOFT">     -2.00000000</i>
   <i name="ENCUTLF">     -1.00000000</i>
   <i type="int" name="LMAXMP2">    -1</i>
   <i name="SCISSOR">      0.00000000</i>
   <i type="int" name="NOMEGA">     0</i>
   <i type="int" name="NOMEGAR">     0</i>
   <i type="int" name="NBANDSGW">    -1</i>
   <i type="int" name="NBANDSO">    -1</i>
   <i type="int" name="NBANDSV">    -1</i>
   <i type="int" name="NELM">   100</i>
   <i type="int" name="DIM">     3</i>
   <i type="int" name="ANTIRES">     0</i>
   <i name="OMEGAMAX">    -30.00000000</i>
   <i name="OMEGAMIN">    -30.00000000</i>
   <i name="OMEGATL">   -200.00000000</i>
   <i type="int" name="OMEGAGRID">     0</i>
   <i name="CSHIFT">     -0.10000000</i>
   <i type="logical" name="SELFENERGY"> F  </i>
   <i type="logical" name="LSPECTRAL"> F  </i>
   <i type="logical" name="ODDONLYGW"> F  </i>
   <i type="logical" name="EVENONLYGW"> F  </i>
   <i type="int" name="NKREDLFX">     1</i>
   <i type="int" name="NKREDLFY">     1</i>
   <i type="int" name="NKREDLFZ">     1</i>
   <i type="int" name="MAXMEM">  1800</i>
   <i type="int" name="TELESCOPE">     0</i>
   <i type="int" name="TAUPAR">     1</i>
  </separator>
  <separator name="External order field" >
   <i name="OFIELD_KAPPA">      0.00000000</i>
   <v name="OFIELD_K">      0.00000000      0.00000000      0.00000000</v>
   <i name="OFIELD_Q6_NEAR">      0.00000000</i>
   <i name="OFIELD_Q6_FAR">      0.00000000</i>
   <i name="OFIELD_A">      0.00000000</i>
  </separator>
 </parameters>
 <atominfo>
  <atoms>      34 </atoms>
  <types>       3 </types>
  <array name="atoms" >
   <dimension dim="1">ion</dimension>
   <field type="string">element</field>
   <field type="int">atomtype</field>
   <set>
    <rc><c>Sr</c><c>   1</c></rc>
    <rc><c>Sr</c><c>   1</c></rc>
    <rc><c>Sr</c><c>   1</c></rc>
    <rc><c>Sr</c><c>   1</c></rc>
    <rc><c>Sr</c><c>   1</c></rc>
    <rc><c>Sr</c><c>   1</c></rc>
    <rc><c>Sr</c><c>   1</c></rc>
    <rc><c>Sr</c><c>   1</c></rc>
    <rc><c>Cu</c><c>   2</c></rc>
    <rc><c>Cu</c><c>   2</c></rc>
    <rc><c>Cu</c><c>   2</c></rc>
    <rc><c>Cu</c><c>   2</c></rc>
    <rc><c>Cu</c><c>   2</c></rc>
    <rc><c>Cu</c><c>   2</c></rc>
    <rc><c>Cu</c><c>   2</c></rc>
    <rc><c>Cu</c><c>   2</c></rc>
    <rc><c>O </c><c>   3</c></rc>
    <rc><c>O </c><c>   3</c></rc>
    <rc><c>O </c><c>   3</c></rc>
    <rc><c>O </c><c>   3</c></rc>
    <rc><c>O </c><c>   3</c></rc>
    <rc><c>O </c><c>   3</c></rc>
    <rc><c>O </c><c>   3</c></rc>
    <rc><c>O </c><c>   3</c></rc>
    <rc><c>O </c><c>   3</c></rc>
    <rc><c>O </c><c>   3</c></rc>
    <rc><c>O </c><c>   3</c></rc>
    <rc><c>O </c><c>   3</c></rc>
    <rc><c>O </c><c>   3</c></rc>
    <rc><c>O </c><c>   3</c></rc>
    <rc><c>O </c><c>   3</c></rc>
    <rc><c>O </c><c>   3</c></rc>
    <rc><c>O </c><c>   3</c></rc>
    <rc><c>O </c><c>   3</c></rc>
   </set>
  </array>
  <array name="atomtypes" >
   <dimension dim="1">type</dimension>
   <field type="int">atomspertype</field>
   <field type="string">element</field>
   <field>mass</field>
   <field>valence</field>
   <field type="string">pseudopotential</field>
   <set>
    <rc><c>   8</c><c>Sr</c><c>     87.62000000</c><c>     10.00000000</c><c>  PAW_PBE Sr_sv 07Sep2000               </c></rc>
    <rc><c>   8</c><c>Cu</c><c>     63.54600000</c><c>     11.00000000</c><c>  PAW_PBE Cu 22Jun2005                  </c></rc>
    <rc><c>  18</c><c>O </c><c>     16.00000000</c><c>      6.00000000</c><c>  PAW_PBE O_s 07Sep2000                 </c></rc>
   </set>
  </array>
 </atominfo>
 <structure name="initialpos" >
  <crystal>
   <varray name="basis" >
    <v>       8.00000000       0.00000000       0.00000000 </v>
    <v>       0.00000000       8.00000000       0.00000000 </v>
    <v>       0.00000000       0.00000000       8.00000000 </v>
   </varray>
   <i name="volume">    512.00000000 </i>
   <varray name="rec_basis" >
    <v>       0.12500000       0.00000000       0.00000000 </v>
    <v>       0.00000000       0.12500000       0.00000000 </v>
    <v>       0.00000000       0.00000000       0.12500000 </v>
   </varray>
  </crystal>
  <varray name="positions" >
   <v>       0.50000000       0.75000000       0.75000000 </v>
   <v>       0.50000000       0.75000000       0.25000000 </v>
   <v>       0.50000000       0.25000000       0.75000000 </v>
   <v>       0.50000000       0.25000000       0.25000000 </v>
   <v>       0.00000000       0.25000000       0.75000000 </v>
   <v>       0.00000000       0.25000000       0.25000000 </v>
   <v>       0.00000000       0.75000000       0.75000000 </v>
   <v>       0.00000000       0.75000000       0.25000000 </v>
   <v>       0.75000000       0.00000000       0.50000000 </v>
   <v>       0.75000000       0.00000000       0.00000000 </v>
   <v>       0.25000000       0.00000000       0.50000000 </v>
   <v>       0.25000000       0.00000000       0.00000000 </v>
   <v>       0.25000000       0.50000000       0.50000000 </v>
   <v>       0.25000000       0.50000000       0.00000000 </v>
   <v>       0.75000000       0.50000000       0.50000000 </v>
   <v>       0.75000000       0.50000000       0.00000000 </v>
   <v>       0.75000000       0.25000000       0.00000000 </v>
   <v>       0.25000000       0.25000000       0.00000000 </v>
   <v>       0.50000000       0.50000000       0.00000000 </v>
   <v>       0.50000000       0.00000000       0.50000000 </v>
   <v>       0.50000000       0.00000000       0.00000000 </v>
   <v>       0.75000000       0.00000000       0.75000000 </v>
   <v>       0.75000000       0.00000000       0.25000000 </v>
   <v>       0.25000000       0.00000000       0.75000000 </v>
   <v>       0.25000000       0.00000000       0.25000000 </v>
   <v>       0.25000000       0.75000000       0.00000000 </v>
   <v>       0.75000000       0.75000000       0.00000000 </v>
   <v>       0.00000000       0.00000000       0.00000000 </v>
   <v>       0.00000000       0.50000000       0.50000000 </v>
   <v>       0.00000000       0.50000000       0.00000000 </v>
   <v>       0.25000000       0.50000000       0.75000000 </v>
   <v>       0.25000000       0.50000000       0.25000000 </v>
   <v>       0.75000000       0.50000000       0.75000000 </v>
   <v>       0.75000000       0.50000000       0.25000000 </v>
  </varray>
 </structure>
 <calculation>
  <scstep>
   <time name="dav">    7.84    7.84</time>
   <time name="total">    8.14    8.15</time>
   <energy>
    <i name="alphaZ">   1271.29833366 </i>
    <i name="ewald"> -17922.60012497 </i>
    <i name="hartreedc">  -7949.59866229 </i>
    <i name="XCdc">   1142.48766128 </i>
    <i name="pawpsdc">  21065.97634094 </i>
    <i name="pawaedc"> -21731.86537179 </i>
    <i name="eentropy">     -0.00469703 </i>
    <i name="bandstr">   2106.68535603 </i>
    <i name="atom">  25654.75912617 </i>
    <i name="e_fr_energy">   3637.13796201 </i>
    <i name="e_wo_entrp">   3637.14265904 </i>
    <i name="e_0_energy">   3637.14031052 </i>
   </energy>
  </scstep>
  <scstep>
   <time name="dav">    7.94    7.95</time>
   <time name="total">    7.94    7.96</time>
   <energy>
    <i name="e_fr_energy">    415.43973438 </i>
    <i name="e_wo_entrp">    415.45922408 </i>
    <i name="e_0_energy">    415.44947923 </i>
   </energy>
  </scstep>
  <scstep>
   <time name="dav">    7.84    7.84</time>
   <time name="total">    7.84    7.86</time>
   <energy>
    <i name="e_fr_energy">   -157.34214514 </i>
    <i name="e_wo_entrp">   -157.32048571 </i>
    <i name="e_0_energy">   -157.33131543 </i>
   </energy>
  </scstep>
  <scstep>
   <time name="dav">   10.36   10.37</time>
   <time name="total">   10.36   10.38</time>
   <energy>
    <i name="e_fr_energy">   -210.18250915 </i>
    <i name="e_wo_entrp">   -210.14494940 </i>
    <i name="e_0_energy">   -210.16372927 </i>
   </energy>
  </scstep>
  <scstep>
   <time name="dav">   12.70   12.71</time>
   <time name="total">   13.24   13.26</time>
   <energy>
    <i name="e_fr_energy">   -213.52162725 </i>
    <i name="e_wo_entrp">   -213.48394771 </i>
    <i name="e_0_energy">   -213.50278748 </i>
   </energy>
  </scstep>
  <scstep>
   <time name="dav">   11.09   11.10</time>
   <time name="total">   11.92   11.94</time>
   <energy>
    <i name="e_fr_energy">   -195.09009169 </i>
    <i name="e_wo_entrp">   -195.05463901 </i>
    <i name="e_0_energy">   -195.07236535 </i>
   </energy>
  </scstep>
  <scstep>
   <time name="dav">   10.35   10.36</time>
   <time name="total">   11.18   11.20</time>
   <energy>
    <i name="e_fr_energy">   -170.75675085 </i>
    <i name="e_wo_entrp">   -170.73211256 </i>
    <i name="e_0_energy">   -170.74443170 </i>
   </energy>
  </scstep>
  <scstep>
   <time name="dav">   11.23   11.24</time>
   <time name="total">   12.06   12.08</time>
   <energy>
    <i name="e_fr_energy">   -172.75093409 </i>
    <i name="e_wo_entrp">   -172.71771504 </i>
    <i name="e_0_energy">   -172.73432457 </i>
   </energy>
  </scstep>
  <scstep>
   <time name="dav">   11.25   11.25</time>
   <time name="total">   12.08   12.10</time>
   <energy>
    <i name="e_fr_energy">   -174.08560322 </i>
    <i name="e_wo_entrp">   -174.07489805 </i>
    <i name="e_0_energy">   -174.08025063 </i>
   </energy>
  </scstep>
  <scstep>
   <time name="dav">   11.09   11.09</time>
   <time name="total">   11.91   11.94</time>
   <energy>
    <i name="e_fr_energy">   -168.59022069 </i>
    <i name="e_wo_entrp">   -168.56780297 </i>
    <i name="e_0_energy">   -168.57901183 </i>
   </energy>
  </scstep>
  <scstep>
   <time name="dav">   11.42   11.43</time>
   <time name="total">   12.25   12.27</time>
   <energy>
    <i name="e_fr_energy">   -168.11339916 </i>
    <i name="e_wo_entrp">   -168.09397545 </i>
    <i name="e_0_energy">   -168.10368730 </i>
   </energy>
  </scstep>
  <scstep>
   <time name="dav">   10.92   10.93</time>
   <time name="total">   11.75   11.77</time>
   <energy>
    <i name="e_fr_energy">   -167.83998639 </i>
    <i name="e_wo_entrp">   -167.82292030 </i>
    <i name="e_0_energy">   -167.83145335 </i>
   </energy>
  </scstep>
  <scstep>
   <time name="dav">   11.05   11.06</time>
   <time name="total">   11.88   11.90</time>
   <energy>
    <i name="e_fr_energy">   -167.83484174 </i>
    <i name="e_wo_entrp">   -167.81726438 </i>
    <i name="e_0_energy">   -167.82605306 </i>
   </energy>
  </scstep>
  <scstep>
   <time name="dav">   10.56   10.57</time>
   <time name="total">   11.39   11.41</time>
   <energy>
    <i name="e_fr_energy">   -167.84571493 </i>
    <i name="e_wo_entrp">   -167.82923464 </i>
    <i name="e_0_energy">   -167.83747478 </i>
   </energy>
  </scstep>
  <scstep>
   <time name="dav">   10.48   10.49</time>
   <time name="total">   11.31   11.33</time>
   <energy>
    <i name="e_fr_energy">   -167.80961818 </i>
    <i name="e_wo_entrp">   -167.79411934 </i>
    <i name="e_0_energy">   -167.80186876 </i>
   </energy>
  </scstep>
  <scstep>
   <time name="dav">   10.84   10.85</time>
   <time name="total">   11.67   11.69</time>
   <energy>
    <i name="e_fr_energy">   -167.79810515 </i>
    <i name="e_wo_entrp">   -167.78261131 </i>
    <i name="e_0_energy">   -167.79035823 </i>
   </energy>
  </scstep>
  <scstep>
   <time name="dav">   10.77   10.78</time>
   <time name="total">   11.60   11.62</time>
   <energy>
    <i name="e_fr_energy">   -167.79956498 </i>
    <i name="e_wo_entrp">   -167.78307236 </i>
    <i name="e_0_energy">   -167.79131867 </i>
   </energy>
  </scstep>
  <scstep>
   <time name="dav">   11.31   11.32</time>
   <time name="total">   12.15   12.17</time>
   <energy>
    <i name="e_fr_energy">   -167.79882089 </i>
    <i name="e_wo_entrp">   -167.78175914 </i>
    <i name="e_0_energy">   -167.79029001 </i>
   </energy>
  </scstep>
  <scstep>
   <time name="dav">   11.34   11.35</time>
   <time name="total">   12.17   12.19</time>
   <energy>
    <i name="e_fr_energy">   -167.79889152 </i>
    <i name="e_wo_entrp">   -167.78171995 </i>
    <i name="e_0_energy">   -167.79030574 </i>
   </energy>
  </scstep>
  <scstep>
   <time name="dav">   10.58   10.59</time>
   <time name="total">   11.41   11.43</time>
   <energy>
    <i name="e_fr_energy">   -167.79905935 </i>
    <i name="e_wo_entrp">   -167.78208973 </i>
    <i name="e_0_energy">   -167.79057454 </i>
   </energy>
  </scstep>
  <scstep>
   <time name="dav">   10.45   10.46</time>
   <time name="total">   11.28   11.30</time>
   <energy>
    <i name="e_fr_energy">   -167.79902707 </i>
    <i name="e_wo_entrp">   -167.78185173 </i>
    <i name="e_0_energy">   -167.79043940 </i>
   </energy>
  </scstep>
  <scstep>
   <time name="dav">   10.41   10.42</time>
   <time name="total">   11.25   11.27</time>
   <energy>
    <i name="e_fr_energy">   -167.79904824 </i>
    <i name="e_wo_entrp">   -167.78184745 </i>
    <i name="e_0_energy">   -167.79044784 </i>
   </energy>
  </scstep>
  <scstep>
   <time name="dav">   10.48   10.49</time>
   <time name="total">   11.31   11.33</time>
   <energy>
    <i name="e_fr_energy">   -167.79903973 </i>
    <i name="e_wo_entrp">   -167.78184726 </i>
    <i name="e_0_energy">   -167.79044350 </i>
   </energy>
  </scstep>
  <scstep>
   <time name="dav">   10.35   10.35</time>
   <time name="total">   11.18   11.21</time>
   <energy>
    <i name="e_fr_energy">   -167.79904075 </i>
    <i name="e_wo_entrp">   -167.78186129 </i>
    <i name="e_0_energy">   -167.79045102 </i>
   </energy>
  </scstep>
  <scstep>
   <time name="dav">    8.46    8.47</time>
   <time name="total">    9.30    9.32</time>
   <energy>
    <i name="e_fr_energy">   -167.79904257 </i>
    <i name="e_wo_entrp">   -167.78186413 </i>
    <i name="e_0_energy">   -167.79045335 </i>
   </energy>
  </scstep>
  <scstep>
   <time name="dav">    5.90    5.90</time>
   <time name="total">    6.19    6.21</time>
   <energy>
    <i name="alphaZ">   1271.29833366 </i>
    <i name="ewald"> -17922.60012497 </i>
    <i name="hartreedc">  -7928.49745668 </i>
    <i name="XCdc">   1142.26630759 </i>
    <i name="pawpsdc">  32541.18723241 </i>
    <i name="pawaedc"> -33282.99014136 </i>
    <i name="eentropy">     -0.01718374 </i>
    <i name="bandstr">  -1643.20513566 </i>
    <i name="atom">  25654.75912617 </i>
    <i name="e_fr_energy">   -167.79904259 </i>
    <i name="e_wo_entrp">   -167.78185885 </i>
    <i name="e_0_energy">   -167.79045072 </i>
   </energy>
  </scstep>
  <structure>
   <crystal>
    <varray name="basis" >
     <v>       8.00000000       0.00000000       0.00000000 </v>
     <v>       0.00000000       8.00000000       0.00000000 </v>
     <v>       0.00000000       0.00000000       8.00000000 </v>
    </varray>
    <i name="volume">    512.00000000 </i>
    <varray name="rec_basis" >
     <v>       0.12500000       0.00000000       0.00000000 </v>
     <v>       0.00000000       0.12500000       0.00000000 </v>
     <v>       0.00000000       0.00000000       0.12500000 </v>
    </varray>
   </crystal>
   <varray name="positions" >
    <v>       0.50000000       0.75000000       0.75000000 </v>
    <v>       0.50000000       0.75000000       0.25000000 </v>
    <v>       0.50000000       0.25000000       0.75000000 </v>
    <v>       0.50000000       0.25000000       0.25000000 </v>
    <v>       0.00000000       0.25000000       0.75000000 </v>
    <v>       0.00000000       0.25000000       0.25000000 </v>
    <v>       0.00000000       0.75000000       0.75000000 </v>
    <v>       0.00000000       0.75000000       0.25000000 </v>
    <v>       0.75000000       0.00000000       0.50000000 </v>
    <v>       0.75000000       0.00000000       0.00000000 </v>
    <v>       0.25000000       0.00000000       0.50000000 </v>
    <v>       0.25000000       0.00000000       0.00000000 </v>
    <v>       0.25000000       0.50000000       0.50000000 </v>
    <v>       0.25000000       0.50000000       0.00000000 </v>
    <v>       0.75000000       0.50000000       0.50000000 </v>
    <v>       0.75000000       0.50000000       0.00000000 </v>
    <v>       0.75000000       0.25000000       0.00000000 </v>
    <v>       0.25000000       0.25000000       0.00000000 </v>
    <v>       0.50000000       0.50000000       0.00000000 </v>
    <v>       0.50000000       0.00000000       0.50000000 </v>
    <v>       0.50000000       0.00000000       0.00000000 </v>
    <v>       0.75000000       0.00000000       0.75000000 </v>
    <v>       0.75000000       0.00000000       0.25000000 </v>
    <v>       0.25000000       0.00000000       0.75000000 </v>
    <v>       0.25000000       0.00000000       0.25000000 </v>
    <v>       0.25000000       0.75000000       0.00000000 </v>
    <v>       0.75000000       0.75000000       0.00000000 </v>
    <v>       0.00000000       0.00000000       0.00000000 </v>
    <v>       0.00000000       0.50000000       0.50000000 </v>
    <v>       0.00000000       0.50000000       0.00000000 </v>
    <v>       0.25000000       0.50000000       0.75000000 </v>
    <v>       0.25000000       0.50000000       0.25000000 </v>
    <v>       0.75000000       0.50000000       0.75000000 </v>
    <v>       0.75000000       0.50000000       0.25000000 </v>
   </varray>
  </structure>
  <varray name="forces" >
   <v>       0.00000000       0.58284438       1.90067802 </v>
   <v>       0.00000000       0.58284438      -1.90067802 </v>
   <v>       0.00000000      -0.58284438       1.90067802 </v>
   <v>       0.00000000      -0.58284438      -1.90067802 </v>
   <v>       0.00000000       0.58284438       1.90067802 </v>
   <v>       0.00000000       0.58284438      -1.90067802 </v>
   <v>       0.00000000      -0.58284438       1.90067802 </v>
   <v>       0.00000000      -0.58284438      -1.90067802 </v>
   <v>      -0.87815556       0.00000000       0.00000000 </v>
   <v>       0.18900717       0.00000000       0.00000000 </v>
   <v>       0.87815556       0.00000000       0.00000000 </v>
   <v>      -0.18900717       0.00000000       0.00000000 </v>
   <v>      -0.87815556       0.00000000       0.00000000 </v>
   <v>       0.18900717       0.00000000       0.00000000 </v>
   <v>       0.87815556       0.00000000       0.00000000 </v>
   <v>      -0.18900717       0.00000000       0.00000000 </v>
   <v>       0.00000000       0.00000000       0.00000000 </v>
   <v>       0.00000000       0.00000000       0.00000000 </v>
   <v>       0.00000000       0.00000000       0.00000000 </v>
   <v>       0.00000000       0.00000000       0.00000000 </v>
   <v>       0.00000000       0.00000000       0.00000000 </v>
   <v>       0.49338891       0.00000000      -2.06760670 </v>
   <v>       0.49338891       0.00000000       2.06760670 </v>
   <v>      -0.49338891       0.00000000      -2.06760670 </v>
   <v>      -0.49338891       0.00000000       2.06760670 </v>
   <v>       0.00000000       0.00000000       0.00000000 </v>
   <v>       0.00000000       0.00000000       0.00000000 </v>
   <v>       0.00000000       0.00000000       0.00000000 </v>
   <v>       0.00000000       0.00000000       0.00000000 </v>
   <v>       0.00000000       0.00000000       0.00000000 </v>
   <v>       0.49338891       0.00000000      -2.06760670 </v>
   <v>       0.49338891       0.00000000       2.06760670 </v>
   <v>      -0.49338891       0.00000000      -2.06760670 </v>
   <v>      -0.49338891       0.00000000       2.06760670 </v>
  </varray>
  <varray name="stress" >
   <v>     -78.06330933       0.00000000       0.00000000 </v>
   <v>       0.00000000    -104.90698588       0.00000000 </v>
   <v>       0.00000000       0.00000000     -96.09280298 </v>
  </varray>
  <energy>
   <i name="e_fr_energy">   -167.79904259 </i>
   <i name="e_wo_entrp">   -167.79045072 </i>
   <i name="e_0_energy">     -0.01718374 </i>
  </energy>
  <time name="totalsc">  297.12  297.72</time>
  <eigenvalues>
   <array>
    <dimension dim="1">band</dimension>
    <dimension dim="2">kpoint</dimension>
    <dimension dim="3">spin</dimension>
    <field>eigene</field>
    <field>occ</field>
    <set>
     <set comment="spin 1">
      <set comment="kpoint 1">
       <r>  -31.0663    1.0000 </r>
       <r>  -31.0522    1.0000 </r>
       <r>  -31.0522    1.0000 </r>
       <r>  -31.0520    1.0000 </r>
       <r>  -31.0394    1.0000 </r>
       <r>  -31.0392    1.0000 </r>
       <r>  -31.0391    1.0000 </r>
       <r>  -31.0272    1.0000 </r>
       <r>  -14.9997    1.0000 </r>
       <r>  -14.9580    1.0000 </r>
       <r>  -14.8486    1.0000 </r>
       <r>  -14.5961    1.0000 </r>
       <r>  -14.3763    1.0000 </r>
       <r>  -14.3638    1.0000 </r>
       <r>  -14.3504    1.0000 </r>
       <r>  -14.1242    1.0000 </r>
       <r>  -14.1194    1.0000 </r>
       <r>  -14.1012    1.0000 </r>
       <r>  -14.0874    1.0000 </r>
       <r>  -14.0682    1.0000 </r>
       <r>  -13.9290    1.0000 </r>
       <r>  -13.8954    1.0000 </r>
       <r>  -13.7763    1.0000 </r>
       <r>  -13.7157    1.0000 </r>
       <r>  -13.6839    1.0000 </r>
       <r>  -13.5300    1.0000 </r>
       <r>  -13.2541    1.0000 </r>
       <r>  -13.1639    1.0000 </r>
       <r>  -13.1429    1.0000 </r>
       <r>  -13.0542    1.0000 </r>
       <r>  -13.0455    1.0000 </r>
       <r>  -13.0385    1.0000 </r>
       <r>  -13.0338    1.0000 </r>
       <r>  -12.9905    1.0000 </r>
       <r>  -12.9619    1.0000 </r>
       <r>  -12.9545    1.0000 </r>
       <r>  -12.9295    1.0000 </r>
       <r>  -12.9293    1.0000 </r>
       <r>  -12.9267    1.0000 </r>
       <r>  -12.8815    1.0000 </r>
       <r>  -12.8522    1.0000 </r>
       <r>  -12.8452    1.0000 </r>
       <r>  -12.8251    1.0000 </r>
       <r>  -12.8086    1.0000 </r>
       <r>  -12.8050    1.0000 </r>
       <r>  -12.5692    1.0000 </r>
       <r>  -12.5520    1.0000 </r>
       <r>  -12.5471    1.0000 </r>
       <r>  -12.5254    1.0000 </r>
       <r>  -12.4183    1.0000 </r>
       <r>   -3.2617    1.0000 </r>
       <r>   -3.0516    1.0000 </r>
       <r>   -2.9554    1.0000 </r>
       <r>   -2.8764    1.0000 </r>
       <r>   -2.8734    1.0000 </r>
       <r>   -2.8471    1.0000 </r>
       <r>   -2.7897    1.0000 </r>
       <r>   -2.6596    1.0000 </r>
       <r>   -2.2972    1.0000 </r>
       <r>   -2.2509    1.0000 </r>
       <r>   -2.1509    1.0000 </r>
       <r>   -2.0361    1.0000 </r>
       <r>   -2.0140    1.0000 </r>
       <r>   -1.9451    1.0000 </r>
       <r>   -1.9155    1.0000 </r>
       <r>   -1.6727    1.0000 </r>
       <r>   -1.6641    1.0000 </r>
       <r>   -1.5568    1.0000 </r>
       <r>   -1.5541    1.0000 </r>
       <r>   -1.4595    1.0000 </r>
       <r>   -1.4578    1.0000 </r>
       <r>   -1.2398    1.0000 </r>
       <r>   -1.2304    1.0000 </r>
       <r>   -1.2202    1.0000 </r>
       <r>   -1.1198    1.0000 </r>
       <r>   -1.0574    1.0000 </r>
       <r>   -0.9809    1.0000 </r>
       <r>   -0.9578    1.0000 </r>
       <r>   -0.8407    1.0000 </r>
       <r>   -0.8307    1.0000 </r>
       <r>   -0.7987    1.0000 </r>
       <r>   -0.7713    1.0000 </r>
       <r>   -0.7580    1.0000 </r>
       <r>   -0.7444    1.0000 </r>
       <r>   -0.7218    1.0000 </r>
       <r>   -0.6947    1.0000 </r>
       <r>   -0.6924    1.0000 </r>
       <r>   -0.6745    1.0000 </r>
       <r>   -0.6616    1.0000 </r>
       <r>   -0.5025    1.0000 </r>
       <r>   -0.4937    1.0000 </r>
       <r>   -0.4375    1.0000 </r>
       <r>   -0.4056    1.0000 </r>
       <r>   -0.2962    1.0000 </r>
       <r>   -0.2795    1.0000 </r>
       <r>   -0.2057    1.0000 </r>
       <r>   -0.1609    1.0000 </r>
       <r>   -0.0890    1.0000 </r>
       <r>    0.0036    1.0000 </r>
       <r>    0.0236    1.0000 </r>
       <r>    0.1346    1.0000 </r>
       <r>    0.1660    1.0000 </r>
       <r>    0.4410    1.0000 </r>
       <r>    0.6861    1.0000 </r>
       <r>    0.7268    1.0000 </r>
       <r>    0.8045    1.0000 </r>
       <r>    0.8305    1.0000 </r>
       <r>    0.8627    1.0000 </r>
       <r>    0.9218    1.0000 </r>
       <r>    0.9433    1.0000 </r>
       <r>    0.9570    1.0000 </r>
       <r>    0.9829    1.0000 </r>
       <r>    0.9866    1.0000 </r>
       <r>    1.0256    1.0000 </r>
       <r>    1.0556    1.0000 </r>
       <r>    1.1258    1.0000 </r>
       <r>    1.1711    1.0000 </r>
       <r>    1.2926    1.0000 </r>
       <r>    1.3136    1.0000 </r>
       <r>    1.3415    1.0000 </r>
       <r>    1.3490    1.0000 </r>
       <r>    1.4067    1.0000 </r>
       <r>    1.4432    1.0000 </r>
       <r>    1.5276    1.0000 </r>
       <r>    1.5358    1.0000 </r>
       <r>    1.5381    1.0000 </r>
       <r>    1.6109    1.0000 </r>
       <r>    1.6254    1.0000 </r>
       <r>    1.7107    1.0000 </r>
       <r>    1.7477    1.0000 </r>
       <r>    1.8321    1.0000 </r>
       <r>    1.8434    1.0000 </r>
       <r>    1.8463    1.0000 </r>
       <r>    1.8472    1.0000 </r>
       <r>    1.9409    1.0000 </r>
       <r>    2.2258    1.0000 </r>
       <r>    2.3096    1.0000 </r>
       <r>    2.3146    1.0000 </r>
       <r>    2.3191    1.0000 </r>
       <r>    2.4572    0.7605 </r>
       <r>    2.5841    0.0020 </r>
       <r>    3.3917    0.0000 </r>
       <r>    3.3982    0.0000 </r>
       <r>    3.9325    0.0000 </r>
       <r>    4.1461    0.0000 </r>
       <r>    4.7474    0.0000 </r>
       <r>    4.7756    0.0000 </r>
       <r>    4.9764    0.0000 </r>
       <r>    5.6850    0.0000 </r>
       <r>    6.2205    0.0000 </r>
       <r>    6.9368    0.0000 </r>
       <r>    7.2854    0.0000 </r>
       <r>    7.4773    0.0000 </r>
       <r>    7.5211    0.0000 </r>
       <r>    7.8030    0.0000 </r>
       <r>    8.1918    0.0000 </r>
       <r>    8.2553    0.0000 </r>
       <r>    8.6180    0.0000 </r>
       <r>    8.9404    0.0000 </r>
       <r>    8.9745    0.0000 </r>
       <r>    9.0070    0.0000 </r>
       <r>    9.1452    0.0000 </r>
       <r>    9.1991    0.0000 </r>
       <r>    9.2984    0.0000 </r>
       <r>    9.3728    0.0000 </r>
       <r>    9.4447    0.0000 </r>
       <r>    9.6937    0.0000 </r>
       <r>    9.8513    0.0000 </r>
       <r>    9.8530    0.0000 </r>
       <r>    9.8905    0.0000 </r>
       <r>    9.9539    0.0000 </r>
       <r>   10.0090    0.0000 </r>
       <r>   10.0472    0.0000 </r>
       <r>   10.0495    0.0000 </r>
       <r>   10.0912    0.0000 </r>
       <r>   10.1030    0.0000 </r>
       <r>   10.1328    0.0000 </r>
       <r>   10.2531    0.0000 </r>
       <r>   10.2765    0.0000 </r>
       <r>   10.4441    0.0000 </r>
       <r>   10.6928    0.0000 </r>
       <r>   10.8431    0.0000 </r>
       <r>   10.8458    0.0000 </r>
       <r>   10.9683    0.0000 </r>
      </set>
      <set comment="kpoint 2">
       <r>  -31.0628    1.0000 </r>
       <r>  -31.0557    1.0000 </r>
       <r>  -31.0489    1.0000 </r>
       <r>  -31.0489    1.0000 </r>
       <r>  -31.0426    1.0000 </r>
       <r>  -31.0424    1.0000 </r>
       <r>  -31.0362    1.0000 </r>
       <r>  -31.0302    1.0000 </r>
       <r>  -14.9126    1.0000 </r>
       <r>  -14.9103    1.0000 </r>
       <r>  -14.8514    1.0000 </r>
       <r>  -14.7019    1.0000 </r>
       <r>  -14.3766    1.0000 </r>
       <r>  -14.3359    1.0000 </r>
       <r>  -14.2845    1.0000 </r>
       <r>  -14.2779    1.0000 </r>
       <r>  -14.1068    1.0000 </r>
       <r>  -14.0871    1.0000 </r>
       <r>  -14.0676    1.0000 </r>
       <r>  -14.0584    1.0000 </r>
       <r>  -14.0339    1.0000 </r>
       <r>  -13.8875    1.0000 </r>
       <r>  -13.8375    1.0000 </r>
       <r>  -13.7099    1.0000 </r>
       <r>  -13.6600    1.0000 </r>
       <r>  -13.5882    1.0000 </r>
       <r>  -13.2330    1.0000 </r>
       <r>  -13.1120    1.0000 </r>
       <r>  -13.1064    1.0000 </r>
       <r>  -13.0762    1.0000 </r>
       <r>  -13.0536    1.0000 </r>
       <r>  -13.0490    1.0000 </r>
       <r>  -13.0383    1.0000 </r>
       <r>  -12.9874    1.0000 </r>
       <r>  -12.9232    1.0000 </r>
       <r>  -12.9094    1.0000 </r>
       <r>  -12.9070    1.0000 </r>
       <r>  -12.8746    1.0000 </r>
       <r>  -12.8599    1.0000 </r>
       <r>  -12.8407    1.0000 </r>
       <r>  -12.8376    1.0000 </r>
       <r>  -12.8110    1.0000 </r>
       <r>  -12.8097    1.0000 </r>
       <r>  -12.7819    1.0000 </r>
       <r>  -12.7800    1.0000 </r>
       <r>  -12.6480    1.0000 </r>
       <r>  -12.6390    1.0000 </r>
       <r>  -12.6225    1.0000 </r>
       <r>  -12.5342    1.0000 </r>
       <r>  -12.4666    1.0000 </r>
       <r>   -3.0875    1.0000 </r>
       <r>   -3.0255    1.0000 </r>
       <r>   -2.9357    1.0000 </r>
       <r>   -2.9204    1.0000 </r>
       <r>   -2.8279    1.0000 </r>
       <r>   -2.7977    1.0000 </r>
       <r>   -2.5724    1.0000 </r>
       <r>   -2.4800    1.0000 </r>
       <r>   -2.1705    1.0000 </r>
       <r>   -2.0893    1.0000 </r>
       <r>   -2.0822    1.0000 </r>
       <r>   -2.0525    1.0000 </r>
       <r>   -2.0420    1.0000 </r>
       <r>   -1.9647    1.0000 </r>
       <r>   -1.8695    1.0000 </r>
       <r>   -1.8637    1.0000 </r>
       <r>   -1.7452    1.0000 </r>
       <r>   -1.7057    1.0000 </r>
       <r>   -1.6779    1.0000 </r>
       <r>   -1.6010    1.0000 </r>
       <r>   -1.5961    1.0000 </r>
       <r>   -1.5282    1.0000 </r>
       <r>   -1.4801    1.0000 </r>
       <r>   -1.4086    1.0000 </r>
       <r>   -1.2226    1.0000 </r>
       <r>   -1.2129    1.0000 </r>
       <r>   -1.0910    1.0000 </r>
       <r>   -1.0585    1.0000 </r>
       <r>   -0.8426    1.0000 </r>
       <r>   -0.8236    1.0000 </r>
       <r>   -0.8171    1.0000 </r>
       <r>   -0.8075    1.0000 </r>
       <r>   -0.8067    1.0000 </r>
       <r>   -0.7487    1.0000 </r>
       <r>   -0.7155    1.0000 </r>
       <r>   -0.7075    1.0000 </r>
       <r>   -0.7019    1.0000 </r>
       <r>   -0.6843    1.0000 </r>
       <r>   -0.5659    1.0000 </r>
       <r>   -0.5100    1.0000 </r>
       <r>   -0.4923    1.0000 </r>
       <r>   -0.4734    1.0000 </r>
       <r>   -0.4611    1.0000 </r>
       <r>   -0.3672    1.0000 </r>
       <r>   -0.1428    1.0000 </r>
       <r>   -0.0589    1.0000 </r>
       <r>    0.0025    1.0000 </r>
       <r>    0.0595    1.0000 </r>
       <r>    0.0664    1.0000 </r>
       <r>    0.1543    1.0000 </r>
       <r>    0.2208    1.0000 </r>
       <r>    0.3927    1.0000 </r>
       <r>    0.4582    1.0000 </r>
       <r>    0.6332    1.0000 </r>
       <r>    0.7229    1.0000 </r>
       <r>    0.7494    1.0000 </r>
       <r>    0.8298    1.0000 </r>
       <r>    0.8586    1.0000 </r>
       <r>    0.8834    1.0000 </r>
       <r>    0.9303    1.0000 </r>
       <r>    0.9627    1.0000 </r>
       <r>    0.9686    1.0000 </r>
       <r>    1.0023    1.0000 </r>
       <r>    1.0702    1.0000 </r>
       <r>    1.1030    1.0000 </r>
       <r>    1.2040    1.0000 </r>
       <r>    1.2548    1.0000 </r>
       <r>    1.3047    1.0000 </r>
       <r>    1.3090    1.0000 </r>
       <r>    1.3428    1.0000 </r>
       <r>    1.3694    1.0000 </r>
       <r>    1.4660    1.0000 </r>
       <r>    1.6080    1.0000 </r>
       <r>    1.6784    1.0000 </r>
       <r>    1.6941    1.0000 </r>
       <r>    1.7053    1.0000 </r>
       <r>    1.7064    1.0000 </r>
       <r>    1.7166    1.0000 </r>
       <r>    1.7621    1.0000 </r>
       <r>    1.7627    1.0000 </r>
       <r>    1.7857    1.0000 </r>
       <r>    1.8082    1.0000 </r>
       <r>    1.8356    1.0000 </r>
       <r>    1.9736    1.0000 </r>
       <r>    1.9852    1.0000 </r>
       <r>    2.1355    1.0000 </r>
       <r>    2.1986    1.0000 </r>
       <r>    2.2283    1.0000 </r>
       <r>    2.2415    1.0000 </r>
       <r>    2.2873    1.0000 </r>
       <r>    2.7624    0.0000 </r>
       <r>    2.8825    0.0000 </r>
       <r>    2.9897    0.0000 </r>
       <r>    3.7712    0.0000 </r>
       <r>    4.3111    0.0000 </r>
       <r>    4.7460    0.0000 </r>
       <r>    4.8494    0.0000 </r>
       <r>    4.9524    0.0000 </r>
       <r>    5.8464    0.0000 </r>
       <r>    6.1675    0.0000 </r>
       <r>    7.1908    0.0000 </r>
       <r>    7.3583    0.0000 </r>
       <r>    7.5684    0.0000 </r>
       <r>    7.8874    0.0000 </r>
       <r>    8.0182    0.0000 </r>
       <r>    8.0249    0.0000 </r>
       <r>    8.4079    0.0000 </r>
       <r>    8.5865    0.0000 </r>
       <r>    8.6185    0.0000 </r>
       <r>    8.6709    0.0000 </r>
       <r>    8.8171    0.0000 </r>
       <r>    9.1256    0.0000 </r>
       <r>    9.2439    0.0000 </r>
       <r>    9.2609    0.0000 </r>
       <r>    9.3024    0.0000 </r>
       <r>    9.3958    0.0000 </r>
       <r>    9.5847    0.0000 </r>
       <r>    9.6022    0.0000 </r>
       <r>    9.6314    0.0000 </r>
       <r>    9.7845    0.0000 </r>
       <r>    9.8972    0.0000 </r>
       <r>    9.9944    0.0000 </r>
       <r>   10.0556    0.0000 </r>
       <r>   10.1354    0.0000 </r>
       <r>   10.2674    0.0000 </r>
       <r>   10.2792    0.0000 </r>
       <r>   10.2816    0.0000 </r>
       <r>   10.3640    0.0000 </r>
       <r>   10.3737    0.0000 </r>
       <r>   10.4331    0.0000 </r>
       <r>   10.5388    0.0000 </r>
       <r>   10.6033    0.0000 </r>
       <r>   10.7990    0.0000 </r>
       <r>   10.9007    0.0000 </r>
      </set>
      <set comment="kpoint 3">
       <r>  -31.0627    1.0000 </r>
       <r>  -31.0556    1.0000 </r>
       <r>  -31.0490    1.0000 </r>
       <r>  -31.0490    1.0000 </r>
       <r>  -31.0426    1.0000 </r>
       <r>  -31.0424    1.0000 </r>
       <r>  -31.0361    1.0000 </r>
       <r>  -31.0302    1.0000 </r>
       <r>  -14.9424    1.0000 </r>
       <r>  -14.9132    1.0000 </r>
       <r>  -14.7458    1.0000 </r>
       <r>  -14.6098    1.0000 </r>
       <r>  -14.4975    1.0000 </r>
       <r>  -14.4666    1.0000 </r>
       <r>  -14.2895    1.0000 </r>
       <r>  -14.2734    1.0000 </r>
       <r>  -14.1481    1.0000 </r>
       <r>  -14.1195    1.0000 </r>
       <r>  -14.0656    1.0000 </r>
       <r>  -14.0618    1.0000 </r>
       <r>  -13.9527    1.0000 </r>
       <r>  -13.8550    1.0000 </r>
       <r>  -13.8171    1.0000 </r>
       <r>  -13.7206    1.0000 </r>
       <r>  -13.6713    1.0000 </r>
       <r>  -13.6046    1.0000 </r>
       <r>  -13.1420    1.0000 </r>
       <r>  -13.1072    1.0000 </r>
       <r>  -13.0670    1.0000 </r>
       <r>  -13.0387    1.0000 </r>
       <r>  -13.0291    1.0000 </r>
       <r>  -13.0073    1.0000 </r>
       <r>  -12.9885    1.0000 </r>
       <r>  -12.9816    1.0000 </r>
       <r>  -12.9671    1.0000 </r>
       <r>  -12.9636    1.0000 </r>
       <r>  -12.9517    1.0000 </r>
       <r>  -12.9356    1.0000 </r>
       <r>  -12.9101    1.0000 </r>
       <r>  -12.8283    1.0000 </r>
       <r>  -12.8259    1.0000 </r>
       <r>  -12.7765    1.0000 </r>
       <r>  -12.7652    1.0000 </r>
       <r>  -12.7599    1.0000 </r>
       <r>  -12.7579    1.0000 </r>
       <r>  -12.6847    1.0000 </r>
       <r>  -12.6232    1.0000 </r>
       <r>  -12.6138    1.0000 </r>
       <r>  -12.6004    1.0000 </r>
       <r>  -12.5115    1.0000 </r>
       <r>   -3.1051    1.0000 </r>
       <r>   -3.0432    1.0000 </r>
       <r>   -2.8916    1.0000 </r>
       <r>   -2.8763    1.0000 </r>
       <r>   -2.8718    1.0000 </r>
       <r>   -2.8536    1.0000 </r>
       <r>   -2.5351    1.0000 </r>
       <r>   -2.4549    1.0000 </r>
       <r>   -2.1646    1.0000 </r>
       <r>   -2.1627    1.0000 </r>
       <r>   -2.0305    1.0000 </r>
       <r>   -2.0187    1.0000 </r>
       <r>   -2.0093    1.0000 </r>
       <r>   -2.0064    1.0000 </r>
       <r>   -1.8567    1.0000 </r>
       <r>   -1.8429    1.0000 </r>
       <r>   -1.7146    1.0000 </r>
       <r>   -1.6723    1.0000 </r>
       <r>   -1.6674    1.0000 </r>
       <r>   -1.5942    1.0000 </r>
       <r>   -1.5663    1.0000 </r>
       <r>   -1.5307    1.0000 </r>
       <r>   -1.4820    1.0000 </r>
       <r>   -1.4057    1.0000 </r>
       <r>   -1.2357    1.0000 </r>
       <r>   -1.2258    1.0000 </r>
       <r>   -1.1053    1.0000 </r>
       <r>   -1.0799    1.0000 </r>
       <r>   -0.8272    1.0000 </r>
       <r>   -0.8005    1.0000 </r>
       <r>   -0.7952    1.0000 </r>
       <r>   -0.7866    1.0000 </r>
       <r>   -0.7809    1.0000 </r>
       <r>   -0.7599    1.0000 </r>
       <r>   -0.7521    1.0000 </r>
       <r>   -0.7504    1.0000 </r>
       <r>   -0.7273    1.0000 </r>
       <r>   -0.7031    1.0000 </r>
       <r>   -0.5331    1.0000 </r>
       <r>   -0.4769    1.0000 </r>
       <r>   -0.4498    1.0000 </r>
       <r>   -0.4497    1.0000 </r>
       <r>   -0.3522    1.0000 </r>
       <r>   -0.3461    1.0000 </r>
       <r>   -0.3150    1.0000 </r>
       <r>   -0.1253    1.0000 </r>
       <r>   -0.1075    1.0000 </r>
       <r>   -0.0360    1.0000 </r>
       <r>   -0.0046    1.0000 </r>
       <r>    0.0806    1.0000 </r>
       <r>    0.3080    1.0000 </r>
       <r>    0.5310    1.0000 </r>
       <r>    0.5633    1.0000 </r>
       <r>    0.6920    1.0000 </r>
       <r>    0.6996    1.0000 </r>
       <r>    0.8002    1.0000 </r>
       <r>    0.8932    1.0000 </r>
       <r>    0.9304    1.0000 </r>
       <r>    0.9307    1.0000 </r>
       <r>    0.9391    1.0000 </r>
       <r>    0.9525    1.0000 </r>
       <r>    0.9668    1.0000 </r>
       <r>    0.9946    1.0000 </r>
       <r>    1.0474    1.0000 </r>
       <r>    1.1197    1.0000 </r>
       <r>    1.1866    1.0000 </r>
       <r>    1.2247    1.0000 </r>
       <r>    1.2261    1.0000 </r>
       <r>    1.2374    1.0000 </r>
       <r>    1.2392    1.0000 </r>
       <r>    1.2660    1.0000 </r>
       <r>    1.3561    1.0000 </r>
       <r>    1.3567    1.0000 </r>
       <r>    1.4000    1.0000 </r>
       <r>    1.6059    1.0000 </r>
       <r>    1.6883    1.0000 </r>
       <r>    1.7108    1.0000 </r>
       <r>    1.7167    1.0000 </r>
       <r>    1.7609    1.0000 </r>
       <r>    1.7913    1.0000 </r>
       <r>    1.7944    1.0000 </r>
       <r>    1.7995    1.0000 </r>
       <r>    1.8132    1.0000 </r>
       <r>    2.0028    1.0000 </r>
       <r>    2.0887    1.0000 </r>
       <r>    2.2194    1.0000 </r>
       <r>    2.2364    1.0000 </r>
       <r>    2.2905    1.0000 </r>
       <r>    2.3050    1.0000 </r>
       <r>    2.3082    1.0000 </r>
       <r>    2.5500    0.0277 </r>
       <r>    3.2585    0.0000 </r>
       <r>    3.4290    0.0000 </r>
       <r>    3.7720    0.0000 </r>
       <r>    4.2570    0.0000 </r>
       <r>    4.6944    0.0000 </r>
       <r>    5.1205    0.0000 </r>
       <r>    5.1474    0.0000 </r>
       <r>    5.5499    0.0000 </r>
       <r>    5.7803    0.0000 </r>
       <r>    7.2057    0.0000 </r>
       <r>    7.5611    0.0000 </r>
       <r>    7.8358    0.0000 </r>
       <r>    7.9946    0.0000 </r>
       <r>    8.1018    0.0000 </r>
       <r>    8.1622    0.0000 </r>
       <r>    8.4475    0.0000 </r>
       <r>    8.5526    0.0000 </r>
       <r>    8.6436    0.0000 </r>
       <r>    8.7078    0.0000 </r>
       <r>    8.8756    0.0000 </r>
       <r>    8.9537    0.0000 </r>
       <r>    8.9686    0.0000 </r>
       <r>    9.2329    0.0000 </r>
       <r>    9.3273    0.0000 </r>
       <r>    9.4422    0.0000 </r>
       <r>    9.4484    0.0000 </r>
       <r>    9.5851    0.0000 </r>
       <r>    9.6923    0.0000 </r>
       <r>    9.9063    0.0000 </r>
       <r>    9.9504    0.0000 </r>
       <r>    9.9941    0.0000 </r>
       <r>   10.0472    0.0000 </r>
       <r>   10.1840    0.0000 </r>
       <r>   10.1939    0.0000 </r>
       <r>   10.3082    0.0000 </r>
       <r>   10.3461    0.0000 </r>
       <r>   10.3647    0.0000 </r>
       <r>   10.4271    0.0000 </r>
       <r>   10.5260    0.0000 </r>
       <r>   10.5374    0.0000 </r>
       <r>   10.6640    0.0000 </r>
       <r>   10.7276    0.0000 </r>
       <r>   10.8312    0.0000 </r>
      </set>
      <set comment="kpoint 4">
       <r>  -31.0593    1.0000 </r>
       <r>  -31.0525    1.0000 </r>
       <r>  -31.0524    1.0000 </r>
       <r>  -31.0459    1.0000 </r>
       <r>  -31.0458    1.0000 </r>
       <r>  -31.0395    1.0000 </r>
       <r>  -31.0392    1.0000 </r>
       <r>  -31.0333    1.0000 </r>
       <r>  -14.8701    1.0000 </r>
       <r>  -14.8661    1.0000 </r>
       <r>  -14.7783    1.0000 </r>
       <r>  -14.6990    1.0000 </r>
       <r>  -14.4916    1.0000 </r>
       <r>  -14.4892    1.0000 </r>
       <r>  -14.2320    1.0000 </r>
       <r>  -14.2234    1.0000 </r>
       <r>  -14.1187    1.0000 </r>
       <r>  -14.1173    1.0000 </r>
       <r>  -14.1119    1.0000 </r>
       <r>  -13.9992    1.0000 </r>
       <r>  -13.9737    1.0000 </r>
       <r>  -13.9288    1.0000 </r>
       <r>  -13.7937    1.0000 </r>
       <r>  -13.7693    1.0000 </r>
       <r>  -13.7018    1.0000 </r>
       <r>  -13.6936    1.0000 </r>
       <r>  -13.1097    1.0000 </r>
       <r>  -13.0989    1.0000 </r>
       <r>  -13.0638    1.0000 </r>
       <r>  -13.0527    1.0000 </r>
       <r>  -13.0491    1.0000 </r>
       <r>  -13.0395    1.0000 </r>
       <r>  -13.0386    1.0000 </r>
       <r>  -12.9983    1.0000 </r>
       <r>  -12.9692    1.0000 </r>
       <r>  -12.9453    1.0000 </r>
       <r>  -12.9298    1.0000 </r>
       <r>  -12.9010    1.0000 </r>
       <r>  -12.8540    1.0000 </r>
       <r>  -12.8126    1.0000 </r>
       <r>  -12.8038    1.0000 </r>
       <r>  -12.7523    1.0000 </r>
       <r>  -12.7438    1.0000 </r>
       <r>  -12.7306    1.0000 </r>
       <r>  -12.7182    1.0000 </r>
       <r>  -12.6780    1.0000 </r>
       <r>  -12.6551    1.0000 </r>
       <r>  -12.6488    1.0000 </r>
       <r>  -12.5988    1.0000 </r>
       <r>  -12.5465    1.0000 </r>
       <r>   -3.0036    1.0000 </r>
       <r>   -2.9992    1.0000 </r>
       <r>   -2.8778    1.0000 </r>
       <r>   -2.8747    1.0000 </r>
       <r>   -2.6978    1.0000 </r>
       <r>   -2.5795    1.0000 </r>
       <r>   -2.5427    1.0000 </r>
       <r>   -2.4090    1.0000 </r>
       <r>   -2.0501    1.0000 </r>
       <r>   -2.0468    1.0000 </r>
       <r>   -2.0382    1.0000 </r>
       <r>   -2.0227    1.0000 </r>
       <r>   -1.9729    1.0000 </r>
       <r>   -1.9571    1.0000 </r>
       <r>   -1.8385    1.0000 </r>
       <r>   -1.8199    1.0000 </r>
       <r>   -1.8075    1.0000 </r>
       <r>   -1.7916    1.0000 </r>
       <r>   -1.7522    1.0000 </r>
       <r>   -1.7086    1.0000 </r>
       <r>   -1.6685    1.0000 </r>
       <r>   -1.6557    1.0000 </r>
       <r>   -1.6116    1.0000 </r>
       <r>   -1.5465    1.0000 </r>
       <r>   -1.5242    1.0000 </r>
       <r>   -1.3602    1.0000 </r>
       <r>   -1.2202    1.0000 </r>
       <r>   -1.2153    1.0000 </r>
       <r>   -1.0860    1.0000 </r>
       <r>   -1.0716    1.0000 </r>
       <r>   -0.8419    1.0000 </r>
       <r>   -0.8272    1.0000 </r>
       <r>   -0.7901    1.0000 </r>
       <r>   -0.7901    1.0000 </r>
       <r>   -0.7617    1.0000 </r>
       <r>   -0.7381    1.0000 </r>
       <r>   -0.6668    1.0000 </r>
       <r>   -0.5995    1.0000 </r>
       <r>   -0.5596    1.0000 </r>
       <r>   -0.5063    1.0000 </r>
       <r>   -0.4891    1.0000 </r>
       <r>   -0.4272    1.0000 </r>
       <r>   -0.4215    1.0000 </r>
       <r>   -0.3862    1.0000 </r>
       <r>   -0.2612    1.0000 </r>
       <r>   -0.1793    1.0000 </r>
       <r>    0.0619    1.0000 </r>
       <r>    0.1526    1.0000 </r>
       <r>    0.3119    1.0000 </r>
       <r>    0.3902    1.0000 </r>
       <r>    0.4175    1.0000 </r>
       <r>    0.5854    1.0000 </r>
       <r>    0.5944    1.0000 </r>
       <r>    0.6924    1.0000 </r>
       <r>    0.7323    1.0000 </r>
       <r>    0.7632    1.0000 </r>
       <r>    0.8199    1.0000 </r>
       <r>    0.9510    1.0000 </r>
       <r>    0.9529    1.0000 </r>
       <r>    0.9649    1.0000 </r>
       <r>    0.9780    1.0000 </r>
       <r>    0.9829    1.0000 </r>
       <r>    1.0205    1.0000 </r>
       <r>    1.0990    1.0000 </r>
       <r>    1.1591    1.0000 </r>
       <r>    1.2035    1.0000 </r>
       <r>    1.2347    1.0000 </r>
       <r>    1.2642    1.0000 </r>
       <r>    1.2761    1.0000 </r>
       <r>    1.2824    1.0000 </r>
       <r>    1.3160    1.0000 </r>
       <r>    1.3548    1.0000 </r>
       <r>    1.3693    1.0000 </r>
       <r>    1.4881    1.0000 </r>
       <r>    1.5774    1.0000 </r>
       <r>    1.6413    1.0000 </r>
       <r>    1.6465    1.0000 </r>
       <r>    1.7353    1.0000 </r>
       <r>    1.8062    1.0000 </r>
       <r>    1.8478    1.0000 </r>
       <r>    1.8872    1.0000 </r>
       <r>    1.9367    1.0000 </r>
       <r>    1.9975    1.0000 </r>
       <r>    2.0258    1.0000 </r>
       <r>    2.0711    1.0000 </r>
       <r>    2.1803    1.0000 </r>
       <r>    2.2093    1.0000 </r>
       <r>    2.2148    1.0000 </r>
       <r>    2.3106    1.0000 </r>
       <r>    2.4791    0.5359 </r>
       <r>    2.7637    0.0000 </r>
       <r>    2.8349    0.0000 </r>
       <r>    2.8720    0.0000 </r>
       <r>    3.4388    0.0000 </r>
       <r>    4.4823    0.0000 </r>
       <r>    4.7598    0.0000 </r>
       <r>    4.9592    0.0000 </r>
       <r>    5.0100    0.0000 </r>
       <r>    5.9924    0.0000 </r>
       <r>    6.2197    0.0000 </r>
       <r>    6.8851    0.0000 </r>
       <r>    7.4346    0.0000 </r>
       <r>    7.9267    0.0000 </r>
       <r>    8.0040    0.0000 </r>
       <r>    8.2002    0.0000 </r>
       <r>    8.2388    0.0000 </r>
       <r>    8.4499    0.0000 </r>
       <r>    8.6419    0.0000 </r>
       <r>    8.6467    0.0000 </r>
       <r>    8.6498    0.0000 </r>
       <r>    8.6721    0.0000 </r>
       <r>    8.7809    0.0000 </r>
       <r>    8.9060    0.0000 </r>
       <r>    8.9332    0.0000 </r>
       <r>    9.1694    0.0000 </r>
       <r>    9.2012    0.0000 </r>
       <r>    9.3962    0.0000 </r>
       <r>    9.5573    0.0000 </r>
       <r>    9.7670    0.0000 </r>
       <r>    9.8798    0.0000 </r>
       <r>    9.8910    0.0000 </r>
       <r>   10.0170    0.0000 </r>
       <r>   10.0943    0.0000 </r>
       <r>   10.1033    0.0000 </r>
       <r>   10.1392    0.0000 </r>
       <r>   10.1799    0.0000 </r>
       <r>   10.2946    0.0000 </r>
       <r>   10.3462    0.0000 </r>
       <r>   10.4291    0.0000 </r>
       <r>   10.4469    0.0000 </r>
       <r>   10.5547    0.0000 </r>
       <r>   10.6155    0.0000 </r>
       <r>   10.6252    0.0000 </r>
       <r>   10.7120    0.0000 </r>
      </set>
      <set comment="kpoint 5">
       <r>  -31.0628    1.0000 </r>
       <r>  -31.0557    1.0000 </r>
       <r>  -31.0490    1.0000 </r>
       <r>  -31.0488    1.0000 </r>
       <r>  -31.0424    1.0000 </r>
       <r>  -31.0424    1.0000 </r>
       <r>  -31.0364    1.0000 </r>
       <r>  -31.0302    1.0000 </r>
       <r>  -14.9406    1.0000 </r>
       <r>  -14.9023    1.0000 </r>
       <r>  -14.8102    1.0000 </r>
       <r>  -14.6462    1.0000 </r>
       <r>  -14.5708    1.0000 </r>
       <r>  -14.4441    1.0000 </r>
       <r>  -14.1796    1.0000 </r>
       <r>  -14.1103    1.0000 </r>
       <r>  -14.1044    1.0000 </r>
       <r>  -14.0851    1.0000 </r>
       <r>  -14.0654    1.0000 </r>
       <r>  -14.0454    1.0000 </r>
       <r>  -13.9535    1.0000 </r>
       <r>  -13.9405    1.0000 </r>
       <r>  -13.8585    1.0000 </r>
       <r>  -13.7017    1.0000 </r>
       <r>  -13.6807    1.0000 </r>
       <r>  -13.5315    1.0000 </r>
       <r>  -13.1985    1.0000 </r>
       <r>  -13.1946    1.0000 </r>
       <r>  -13.1756    1.0000 </r>
       <r>  -13.1473    1.0000 </r>
       <r>  -13.0875    1.0000 </r>
       <r>  -13.0219    1.0000 </r>
       <r>  -12.9838    1.0000 </r>
       <r>  -12.9687    1.0000 </r>
       <r>  -12.9479    1.0000 </r>
       <r>  -12.9333    1.0000 </r>
       <r>  -12.9193    1.0000 </r>
       <r>  -12.9063    1.0000 </r>
       <r>  -12.8964    1.0000 </r>
       <r>  -12.8932    1.0000 </r>
       <r>  -12.8720    1.0000 </r>
       <r>  -12.8000    1.0000 </r>
       <r>  -12.7989    1.0000 </r>
       <r>  -12.7762    1.0000 </r>
       <r>  -12.7740    1.0000 </r>
       <r>  -12.6367    1.0000 </r>
       <r>  -12.5997    1.0000 </r>
       <r>  -12.5249    1.0000 </r>
       <r>  -12.5118    1.0000 </r>
       <r>  -12.4555    1.0000 </r>
       <r>   -3.1958    1.0000 </r>
       <r>   -2.8994    1.0000 </r>
       <r>   -2.8618    1.0000 </r>
       <r>   -2.6606    1.0000 </r>
       <r>   -2.6455    1.0000 </r>
       <r>   -2.5551    1.0000 </r>
       <r>   -2.5524    1.0000 </r>
       <r>   -2.5504    1.0000 </r>
       <r>   -2.2773    1.0000 </r>
       <r>   -2.1287    1.0000 </r>
       <r>   -2.1223    1.0000 </r>
       <r>   -2.0831    1.0000 </r>
       <r>   -2.0392    1.0000 </r>
       <r>   -1.9021    1.0000 </r>
       <r>   -1.8909    1.0000 </r>
       <r>   -1.6687    1.0000 </r>
       <r>   -1.6632    1.0000 </r>
       <r>   -1.6264    1.0000 </r>
       <r>   -1.6216    1.0000 </r>
       <r>   -1.5292    1.0000 </r>
       <r>   -1.4951    1.0000 </r>
       <r>   -1.4668    1.0000 </r>
       <r>   -1.4179    1.0000 </r>
       <r>   -1.4117    1.0000 </r>
       <r>   -1.3908    1.0000 </r>
       <r>   -1.3226    1.0000 </r>
       <r>   -1.2863    1.0000 </r>
       <r>   -1.2303    1.0000 </r>
       <r>   -1.1198    1.0000 </r>
       <r>   -1.0823    1.0000 </r>
       <r>   -1.0709    1.0000 </r>
       <r>   -1.0589    1.0000 </r>
       <r>   -1.0441    1.0000 </r>
       <r>   -1.0295    1.0000 </r>
       <r>   -0.9995    1.0000 </r>
       <r>   -0.8864    1.0000 </r>
       <r>   -0.7104    1.0000 </r>
       <r>   -0.6640    1.0000 </r>
       <r>   -0.4936    1.0000 </r>
       <r>   -0.4861    1.0000 </r>
       <r>   -0.4375    1.0000 </r>
       <r>   -0.4086    1.0000 </r>
       <r>   -0.3856    1.0000 </r>
       <r>   -0.3564    1.0000 </r>
       <r>   -0.2353    1.0000 </r>
       <r>   -0.1606    1.0000 </r>
       <r>    0.0573    1.0000 </r>
       <r>    0.1417    1.0000 </r>
       <r>    0.2044    1.0000 </r>
       <r>    0.2556    1.0000 </r>
       <r>    0.4367    1.0000 </r>
       <r>    0.5320    1.0000 </r>
       <r>    0.6406    1.0000 </r>
       <r>    0.7338    1.0000 </r>
       <r>    0.7453    1.0000 </r>
       <r>    0.8017    1.0000 </r>
       <r>    0.8670    1.0000 </r>
       <r>    0.8796    1.0000 </r>
       <r>    0.8822    1.0000 </r>
       <r>    0.9317    1.0000 </r>
       <r>    0.9339    1.0000 </r>
       <r>    0.9656    1.0000 </r>
       <r>    0.9983    1.0000 </r>
       <r>    1.0540    1.0000 </r>
       <r>    1.1049    1.0000 </r>
       <r>    1.1653    1.0000 </r>
       <r>    1.2387    1.0000 </r>
       <r>    1.2976    1.0000 </r>
       <r>    1.3135    1.0000 </r>
       <r>    1.3912    1.0000 </r>
       <r>    1.4026    1.0000 </r>
       <r>    1.4310    1.0000 </r>
       <r>    1.4513    1.0000 </r>
       <r>    1.5855    1.0000 </r>
       <r>    1.5984    1.0000 </r>
       <r>    1.6031    1.0000 </r>
       <r>    1.6083    1.0000 </r>
       <r>    1.6274    1.0000 </r>
       <r>    1.6368    1.0000 </r>
       <r>    1.6375    1.0000 </r>
       <r>    1.7068    1.0000 </r>
       <r>    1.9486    1.0000 </r>
       <r>    1.9509    1.0000 </r>
       <r>    1.9598    1.0000 </r>
       <r>    2.0972    1.0000 </r>
       <r>    2.1815    1.0000 </r>
       <r>    2.1901    1.0000 </r>
       <r>    2.2324    1.0000 </r>
       <r>    2.4573    0.7601 </r>
       <r>    2.5819    0.0024 </r>
       <r>    3.0475    0.0000 </r>
       <r>    3.1294    0.0000 </r>
       <r>    3.2539    0.0000 </r>
       <r>    4.1462    0.0000 </r>
       <r>    4.2126    0.0000 </r>
       <r>    4.6002    0.0000 </r>
       <r>    4.9800    0.0000 </r>
       <r>    5.0083    0.0000 </r>
       <r>    5.5412    0.0000 </r>
       <r>    6.5018    0.0000 </r>
       <r>    6.8457    0.0000 </r>
       <r>    6.9845    0.0000 </r>
       <r>    7.2221    0.0000 </r>
       <r>    7.5662    0.0000 </r>
       <r>    7.6590    0.0000 </r>
       <r>    8.0034    0.0000 </r>
       <r>    8.6939    0.0000 </r>
       <r>    8.7290    0.0000 </r>
       <r>    8.7848    0.0000 </r>
       <r>    8.7956    0.0000 </r>
       <r>    8.8456    0.0000 </r>
       <r>    8.9067    0.0000 </r>
       <r>    9.0108    0.0000 </r>
       <r>    9.0509    0.0000 </r>
       <r>    9.0616    0.0000 </r>
       <r>    9.2919    0.0000 </r>
       <r>    9.4166    0.0000 </r>
       <r>    9.5453    0.0000 </r>
       <r>    9.9060    0.0000 </r>
       <r>    9.9379    0.0000 </r>
       <r>    9.9662    0.0000 </r>
       <r>    9.9939    0.0000 </r>
       <r>   10.0158    0.0000 </r>
       <r>   10.0363    0.0000 </r>
       <r>   10.2715    0.0000 </r>
       <r>   10.3165    0.0000 </r>
       <r>   10.3273    0.0000 </r>
       <r>   10.3324    0.0000 </r>
       <r>   10.4354    0.0000 </r>
       <r>   10.4560    0.0000 </r>
       <r>   10.5551    0.0000 </r>
       <r>   10.6382    0.0000 </r>
       <r>   10.7076    0.0000 </r>
       <r>   10.8191    0.0000 </r>
      </set>
      <set comment="kpoint 6">
       <r>  -31.0593    1.0000 </r>
       <r>  -31.0524    1.0000 </r>
       <r>  -31.0524    1.0000 </r>
       <r>  -31.0457    1.0000 </r>
       <r>  -31.0457    1.0000 </r>
       <r>  -31.0395    1.0000 </r>
       <r>  -31.0393    1.0000 </r>
       <r>  -31.0333    1.0000 </r>
       <r>  -14.8933    1.0000 </r>
       <r>  -14.8227    1.0000 </r>
       <r>  -14.8168    1.0000 </r>
       <r>  -14.6432    1.0000 </r>
       <r>  -14.5805    1.0000 </r>
       <r>  -14.3910    1.0000 </r>
       <r>  -14.3570    1.0000 </r>
       <r>  -14.1651    1.0000 </r>
       <r>  -14.1466    1.0000 </r>
       <r>  -14.0913    1.0000 </r>
       <r>  -14.0807    1.0000 </r>
       <r>  -14.0300    1.0000 </r>
       <r>  -14.0211    1.0000 </r>
       <r>  -13.9274    1.0000 </r>
       <r>  -13.8012    1.0000 </r>
       <r>  -13.7103    1.0000 </r>
       <r>  -13.6407    1.0000 </r>
       <r>  -13.5887    1.0000 </r>
       <r>  -13.1903    1.0000 </r>
       <r>  -13.1502    1.0000 </r>
       <r>  -13.1177    1.0000 </r>
       <r>  -13.1118    1.0000 </r>
       <r>  -13.0936    1.0000 </r>
       <r>  -13.0536    1.0000 </r>
       <r>  -13.0403    1.0000 </r>
       <r>  -12.9966    1.0000 </r>
       <r>  -12.9138    1.0000 </r>
       <r>  -12.9001    1.0000 </r>
       <r>  -12.8912    1.0000 </r>
       <r>  -12.8770    1.0000 </r>
       <r>  -12.8600    1.0000 </r>
       <r>  -12.8171    1.0000 </r>
       <r>  -12.8086    1.0000 </r>
       <r>  -12.7915    1.0000 </r>
       <r>  -12.7664    1.0000 </r>
       <r>  -12.7579    1.0000 </r>
       <r>  -12.7392    1.0000 </r>
       <r>  -12.6749    1.0000 </r>
       <r>  -12.6159    1.0000 </r>
       <r>  -12.6095    1.0000 </r>
       <r>  -12.6018    1.0000 </r>
       <r>  -12.5196    1.0000 </r>
       <r>   -2.9949    1.0000 </r>
       <r>   -2.8769    1.0000 </r>
       <r>   -2.6609    1.0000 </r>
       <r>   -2.6175    1.0000 </r>
       <r>   -2.5740    1.0000 </r>
       <r>   -2.5411    1.0000 </r>
       <r>   -2.5336    1.0000 </r>
       <r>   -2.4758    1.0000 </r>
       <r>   -2.1531    1.0000 </r>
       <r>   -2.1018    1.0000 </r>
       <r>   -2.0845    1.0000 </r>
       <r>   -2.0543    1.0000 </r>
       <r>   -1.9790    1.0000 </r>
       <r>   -1.9391    1.0000 </r>
       <r>   -1.8548    1.0000 </r>
       <r>   -1.8183    1.0000 </r>
       <r>   -1.7718    1.0000 </r>
       <r>   -1.6962    1.0000 </r>
       <r>   -1.6561    1.0000 </r>
       <r>   -1.6004    1.0000 </r>
       <r>   -1.5980    1.0000 </r>
       <r>   -1.5532    1.0000 </r>
       <r>   -1.5480    1.0000 </r>
       <r>   -1.4739    1.0000 </r>
       <r>   -1.4699    1.0000 </r>
       <r>   -1.4366    1.0000 </r>
       <r>   -1.4068    1.0000 </r>
       <r>   -1.3892    1.0000 </r>
       <r>   -1.2436    1.0000 </r>
       <r>   -1.1925    1.0000 </r>
       <r>   -1.0878    1.0000 </r>
       <r>   -1.0549    1.0000 </r>
       <r>   -1.0020    1.0000 </r>
       <r>   -0.9835    1.0000 </r>
       <r>   -0.9781    1.0000 </r>
       <r>   -0.9182    1.0000 </r>
       <r>   -0.8799    1.0000 </r>
       <r>   -0.8727    1.0000 </r>
       <r>   -0.5766    1.0000 </r>
       <r>   -0.5081    1.0000 </r>
       <r>   -0.4737    1.0000 </r>
       <r>   -0.4686    1.0000 </r>
       <r>   -0.4334    1.0000 </r>
       <r>   -0.4185    1.0000 </r>
       <r>   -0.1034    1.0000 </r>
       <r>    0.0308    1.0000 </r>
       <r>    0.2046    1.0000 </r>
       <r>    0.2215    1.0000 </r>
       <r>    0.2983    1.0000 </r>
       <r>    0.4961    1.0000 </r>
       <r>    0.5002    1.0000 </r>
       <r>    0.5639    1.0000 </r>
       <r>    0.6869    1.0000 </r>
       <r>    0.7467    1.0000 </r>
       <r>    0.8251    1.0000 </r>
       <r>    0.8370    1.0000 </r>
       <r>    0.8908    1.0000 </r>
       <r>    0.9151    1.0000 </r>
       <r>    0.9218    1.0000 </r>
       <r>    0.9272    1.0000 </r>
       <r>    0.9472    1.0000 </r>
       <r>    1.0834    1.0000 </r>
       <r>    1.1096    1.0000 </r>
       <r>    1.1445    1.0000 </r>
       <r>    1.1720    1.0000 </r>
       <r>    1.2483    1.0000 </r>
       <r>    1.2544    1.0000 </r>
       <r>    1.3134    1.0000 </r>
       <r>    1.3177    1.0000 </r>
       <r>    1.3243    1.0000 </r>
       <r>    1.3349    1.0000 </r>
       <r>    1.3431    1.0000 </r>
       <r>    1.4100    1.0000 </r>
       <r>    1.5052    1.0000 </r>
       <r>    1.5401    1.0000 </r>
       <r>    1.5883    1.0000 </r>
       <r>    1.6527    1.0000 </r>
       <r>    1.6892    1.0000 </r>
       <r>    1.7538    1.0000 </r>
       <r>    1.8149    1.0000 </r>
       <r>    1.8590    1.0000 </r>
       <r>    1.8972    1.0000 </r>
       <r>    1.9867    1.0000 </r>
       <r>    2.0097    1.0000 </r>
       <r>    2.1199    1.0000 </r>
       <r>    2.1357    1.0000 </r>
       <r>    2.2194    1.0000 </r>
       <r>    2.2391    1.0000 </r>
       <r>    2.3837    0.9974 </r>
       <r>    2.5150    0.1774 </r>
       <r>    2.8414    0.0000 </r>
       <r>    2.8619    0.0000 </r>
       <r>    3.1902    0.0000 </r>
       <r>    3.7735    0.0000 </r>
       <r>    4.3233    0.0000 </r>
       <r>    4.5035    0.0000 </r>
       <r>    4.9293    0.0000 </r>
       <r>    4.9504    0.0000 </r>
       <r>    5.7393    0.0000 </r>
       <r>    6.0765    0.0000 </r>
       <r>    7.2401    0.0000 </r>
       <r>    7.5243    0.0000 </r>
       <r>    7.6947    0.0000 </r>
       <r>    7.7504    0.0000 </r>
       <r>    8.0331    0.0000 </r>
       <r>    8.0562    0.0000 </r>
       <r>    8.2023    0.0000 </r>
       <r>    8.4596    0.0000 </r>
       <r>    8.6574    0.0000 </r>
       <r>    8.9100    0.0000 </r>
       <r>    8.9785    0.0000 </r>
       <r>    9.0197    0.0000 </r>
       <r>    9.1309    0.0000 </r>
       <r>    9.2744    0.0000 </r>
       <r>    9.4083    0.0000 </r>
       <r>    9.5180    0.0000 </r>
       <r>    9.5691    0.0000 </r>
       <r>    9.6055    0.0000 </r>
       <r>    9.6263    0.0000 </r>
       <r>    9.7942    0.0000 </r>
       <r>    9.8282    0.0000 </r>
       <r>    9.9533    0.0000 </r>
       <r>   10.0105    0.0000 </r>
       <r>   10.0605    0.0000 </r>
       <r>   10.1475    0.0000 </r>
       <r>   10.1716    0.0000 </r>
       <r>   10.2885    0.0000 </r>
       <r>   10.3042    0.0000 </r>
       <r>   10.3229    0.0000 </r>
       <r>   10.3901    0.0000 </r>
       <r>   10.3908    0.0000 </r>
       <r>   10.4174    0.0000 </r>
       <r>   10.4563    0.0000 </r>
       <r>   10.5526    0.0000 </r>
      </set>
      <set comment="kpoint 7">
       <r>  -31.0593    1.0000 </r>
       <r>  -31.0524    1.0000 </r>
       <r>  -31.0523    1.0000 </r>
       <r>  -31.0459    1.0000 </r>
       <r>  -31.0457    1.0000 </r>
       <r>  -31.0396    1.0000 </r>
       <r>  -31.0394    1.0000 </r>
       <r>  -31.0333    1.0000 </r>
       <r>  -14.8946    1.0000 </r>
       <r>  -14.8677    1.0000 </r>
       <r>  -14.7075    1.0000 </r>
       <r>  -14.6438    1.0000 </r>
       <r>  -14.6032    1.0000 </r>
       <r>  -14.4290    1.0000 </r>
       <r>  -14.3583    1.0000 </r>
       <r>  -14.1614    1.0000 </r>
       <r>  -14.1402    1.0000 </r>
       <r>  -14.1270    1.0000 </r>
       <r>  -14.1151    1.0000 </r>
       <r>  -14.0355    1.0000 </r>
       <r>  -14.0034    1.0000 </r>
       <r>  -13.9253    1.0000 </r>
       <r>  -13.7749    1.0000 </r>
       <r>  -13.6839    1.0000 </r>
       <r>  -13.6628    1.0000 </r>
       <r>  -13.5992    1.0000 </r>
       <r>  -13.1833    1.0000 </r>
       <r>  -13.1564    1.0000 </r>
       <r>  -13.1464    1.0000 </r>
       <r>  -13.0851    1.0000 </r>
       <r>  -13.0599    1.0000 </r>
       <r>  -13.0123    1.0000 </r>
       <r>  -12.9876    1.0000 </r>
       <r>  -12.9747    1.0000 </r>
       <r>  -12.9594    1.0000 </r>
       <r>  -12.9570    1.0000 </r>
       <r>  -12.9423    1.0000 </r>
       <r>  -12.8886    1.0000 </r>
       <r>  -12.8659    1.0000 </r>
       <r>  -12.7910    1.0000 </r>
       <r>  -12.7830    1.0000 </r>
       <r>  -12.7727    1.0000 </r>
       <r>  -12.7457    1.0000 </r>
       <r>  -12.7453    1.0000 </r>
       <r>  -12.7220    1.0000 </r>
       <r>  -12.7128    1.0000 </r>
       <r>  -12.6569    1.0000 </r>
       <r>  -12.6043    1.0000 </r>
       <r>  -12.5845    1.0000 </r>
       <r>  -12.5353    1.0000 </r>
       <r>   -3.0186    1.0000 </r>
       <r>   -2.9130    1.0000 </r>
       <r>   -2.6235    1.0000 </r>
       <r>   -2.5785    1.0000 </r>
       <r>   -2.5685    1.0000 </r>
       <r>   -2.5521    1.0000 </r>
       <r>   -2.5283    1.0000 </r>
       <r>   -2.4550    1.0000 </r>
       <r>   -2.1557    1.0000 </r>
       <r>   -2.0753    1.0000 </r>
       <r>   -2.0684    1.0000 </r>
       <r>   -2.0494    1.0000 </r>
       <r>   -1.9813    1.0000 </r>
       <r>   -1.9533    1.0000 </r>
       <r>   -1.8627    1.0000 </r>
       <r>   -1.8162    1.0000 </r>
       <r>   -1.7534    1.0000 </r>
       <r>   -1.6784    1.0000 </r>
       <r>   -1.6715    1.0000 </r>
       <r>   -1.5940    1.0000 </r>
       <r>   -1.5939    1.0000 </r>
       <r>   -1.5620    1.0000 </r>
       <r>   -1.5278    1.0000 </r>
       <r>   -1.4641    1.0000 </r>
       <r>   -1.4304    1.0000 </r>
       <r>   -1.4053    1.0000 </r>
       <r>   -1.3805    1.0000 </r>
       <r>   -1.3543    1.0000 </r>
       <r>   -1.3435    1.0000 </r>
       <r>   -1.3008    1.0000 </r>
       <r>   -1.0983    1.0000 </r>
       <r>   -1.0608    1.0000 </r>
       <r>   -1.0331    1.0000 </r>
       <r>   -1.0084    1.0000 </r>
       <r>   -0.9654    1.0000 </r>
       <r>   -0.8737    1.0000 </r>
       <r>   -0.8212    1.0000 </r>
       <r>   -0.8088    1.0000 </r>
       <r>   -0.6191    1.0000 </r>
       <r>   -0.4850    1.0000 </r>
       <r>   -0.4580    1.0000 </r>
       <r>   -0.4509    1.0000 </r>
       <r>   -0.4201    1.0000 </r>
       <r>   -0.2934    1.0000 </r>
       <r>   -0.2890    1.0000 </r>
       <r>   -0.0310    1.0000 </r>
       <r>    0.0857    1.0000 </r>
       <r>    0.1618    1.0000 </r>
       <r>    0.2234    1.0000 </r>
       <r>    0.2846    1.0000 </r>
       <r>    0.4702    1.0000 </r>
       <r>    0.5707    1.0000 </r>
       <r>    0.7289    1.0000 </r>
       <r>    0.8387    1.0000 </r>
       <r>    0.8442    1.0000 </r>
       <r>    0.8609    1.0000 </r>
       <r>    0.8753    1.0000 </r>
       <r>    0.9048    1.0000 </r>
       <r>    0.9692    1.0000 </r>
       <r>    0.9752    1.0000 </r>
       <r>    1.0129    1.0000 </r>
       <r>    1.0202    1.0000 </r>
       <r>    1.1073    1.0000 </r>
       <r>    1.1097    1.0000 </r>
       <r>    1.1389    1.0000 </r>
       <r>    1.1830    1.0000 </r>
       <r>    1.1930    1.0000 </r>
       <r>    1.2238    1.0000 </r>
       <r>    1.3020    1.0000 </r>
       <r>    1.3546    1.0000 </r>
       <r>    1.3761    1.0000 </r>
       <r>    1.3959    1.0000 </r>
       <r>    1.5052    1.0000 </r>
       <r>    1.5270    1.0000 </r>
       <r>    1.5468    1.0000 </r>
       <r>    1.5557    1.0000 </r>
       <r>    1.5957    1.0000 </r>
       <r>    1.7545    1.0000 </r>
       <r>    1.8088    1.0000 </r>
       <r>    1.8164    1.0000 </r>
       <r>    1.8345    1.0000 </r>
       <r>    1.8917    1.0000 </r>
       <r>    1.9504    1.0000 </r>
       <r>    2.0693    1.0000 </r>
       <r>    2.1112    1.0000 </r>
       <r>    2.1661    1.0000 </r>
       <r>    2.2201    1.0000 </r>
       <r>    2.2230    1.0000 </r>
       <r>    2.2900    1.0000 </r>
       <r>    2.7284    0.0000 </r>
       <r>    2.7955    0.0000 </r>
       <r>    3.0699    0.0000 </r>
       <r>    3.3120    0.0000 </r>
       <r>    3.7665    0.0000 </r>
       <r>    4.3174    0.0000 </r>
       <r>    4.5105    0.0000 </r>
       <r>    5.1153    0.0000 </r>
       <r>    5.1974    0.0000 </r>
       <r>    5.3971    0.0000 </r>
       <r>    5.8042    0.0000 </r>
       <r>    7.3861    0.0000 </r>
       <r>    7.4230    0.0000 </r>
       <r>    7.7395    0.0000 </r>
       <r>    7.9058    0.0000 </r>
       <r>    8.0542    0.0000 </r>
       <r>    8.2888    0.0000 </r>
       <r>    8.4457    0.0000 </r>
       <r>    8.4902    0.0000 </r>
       <r>    8.5186    0.0000 </r>
       <r>    8.7768    0.0000 </r>
       <r>    8.8016    0.0000 </r>
       <r>    8.8308    0.0000 </r>
       <r>    8.8607    0.0000 </r>
       <r>    9.1636    0.0000 </r>
       <r>    9.2725    0.0000 </r>
       <r>    9.3152    0.0000 </r>
       <r>    9.3649    0.0000 </r>
       <r>    9.4544    0.0000 </r>
       <r>    9.6113    0.0000 </r>
       <r>    9.7348    0.0000 </r>
       <r>    9.8386    0.0000 </r>
       <r>    9.8828    0.0000 </r>
       <r>    9.9533    0.0000 </r>
       <r>   10.1815    0.0000 </r>
       <r>   10.2171    0.0000 </r>
       <r>   10.2207    0.0000 </r>
[...]
       <r>     5.8538     2.5443   148.7336 </r>
       <r>     6.0081     2.4947   149.1184 </r>
       <r>     6.1623     1.9205   149.4147 </r>
       <r>     6.3166     3.2723   149.9194 </r>
       <r>     6.4708     0.1337   149.9400 </r>
       <r>     6.6251     0.3885   150.0000 </r>
       <r>     6.7793     0.0160   150.0025 </r>
       <r>     6.9336     2.4206   150.3758 </r>
       <r>     7.0878     1.6456   150.6297 </r>
       <r>     7.2421     1.7231   150.8955 </r>
       <r>     7.3963     2.3145   151.2525 </r>
       <r>     7.5506     5.5254   152.1048 </r>
       <r>     7.7048     2.5162   152.4929 </r>
       <r>     7.8591     2.9577   152.9491 </r>
       <r>     8.0133     6.2640   153.9153 </r>
       <r>     8.1676     7.6228   155.0911 </r>
       <r>     8.3218     5.5781   155.9515 </r>
       <r>     8.4761     6.2414   156.9143 </r>
       <r>     8.6303     7.2110   158.0266 </r>
       <r>     8.7846    12.5289   159.9591 </r>
       <r>     8.9388    13.3874   162.0241 </r>
       <r>     9.0931     5.9534   162.9424 </r>
       <r>     9.2473     6.2171   163.9014 </r>
       <r>     9.4016    10.2722   165.4859 </r>
       <r>     9.5558    10.7340   167.1416 </r>
       <r>     9.7101    11.8987   168.9769 </r>
       <r>     9.8643     9.4496   170.4345 </r>
       <r>    10.0186    17.2645   173.0976 </r>
       <r>    10.1728    17.1981   175.7504 </r>
       <r>    10.3270    15.0220   178.0675 </r>
       <r>    10.4813    19.0278   181.0025 </r>
       <r>    10.6355    11.6196   182.7948 </r>
       <r>    10.7898     5.4535   183.6360 </r>
       <r>    10.9440     2.1242   183.9637 </r>
       <r>    11.0983     0.2355   184.0000 </r>
       <r>    11.2525     0.0000   184.0000 </r>
       <r>    11.4068     0.0000   184.0000 </r>
       <r>    11.5610     0.0000   184.0000 </r>
       <r>    11.7153     0.0000   184.0000 </r>
       <r>    11.8695     0.0000   184.0000 </r>
       <r>    12.0238     0.0000   184.0000 </r>
       <r>    12.1780     0.0000   184.0000 </r>
       <r>    12.3323     0.0000   184.0000 </r>
       <r>    12.4865     0.0000   184.0000 </r>
       <r>    12.6408     0.0000   184.0000 </r>
       <r>    12.7950     0.0000   184.0000 </r>
       <r>    12.9493     0.0000   184.0000 </r>
       <r>    13.1035     0.0000   184.0000 </r>
      </set>
      <set comment="spin 2">
       <r>   -33.1711     0.0000     0.0000 </r>
       <r>   -33.0169     0.0000     0.0000 </r>
       <r>   -32.8626     0.0000     0.0000 </r>
       <r>   -32.7084     0.0000     0.0000 </r>
       <r>   -32.5541     0.0000     0.0000 </r>
       <r>   -32.3999     0.0000     0.0000 </r>
       <r>   -32.2456     0.0000     0.0000 </r>
       <r>   -32.0914     0.0000     0.0000 </r>
       <r>   -31.9371     0.0000     0.0000 </r>
       <r>   -31.7829     0.0000     0.0000 </r>
       <r>   -31.6286     0.0000     0.0000 </r>
       <r>   -31.4744     0.0000     0.0000 </r>
       <r>   -31.3201     0.0000     0.0000 </r>
       <r>   -31.1659     0.0282     0.0043 </r>
       <r>   -31.0116    43.4649     6.7088 </r>
       <r>   -30.8574     8.3711     8.0000 </r>
       <r>   -30.7031     0.0000     8.0000 </r>
       <r>   -30.5489     0.0000     8.0000 </r>
       <r>   -30.3946     0.0000     8.0000 </r>
       <r>   -30.2404     0.0000     8.0000 </r>
       <r>   -30.0861     0.0000     8.0000 </r>
       <r>   -29.9319     0.0000     8.0000 </r>
       <r>   -29.7777     0.0000     8.0000 </r>
       <r>   -29.6234     0.0000     8.0000 </r>
       <r>   -29.4692     0.0000     8.0000 </r>
       <r>   -29.3149     0.0000     8.0000 </r>
       <r>   -29.1607     0.0000     8.0000 </r>
       <r>   -29.0064     0.0000     8.0000 </r>
       <r>   -28.8522     0.0000     8.0000 </r>
       <r>   -28.6979     0.0000     8.0000 </r>
       <r>   -28.5437     0.0000     8.0000 </r>
       <r>   -28.3894     0.0000     8.0000 </r>
       <r>   -28.2352     0.0000     8.0000 </r>
       <r>   -28.0809     0.0000     8.0000 </r>
       <r>   -27.9267     0.0000     8.0000 </r>
       <r>   -27.7724     0.0000     8.0000 </r>
       <r>   -27.6182     0.0000     8.0000 </r>
       <r>   -27.4639     0.0000     8.0000 </r>
       <r>   -27.3097     0.0000     8.0000 </r>
       <r>   -27.1554     0.0000     8.0000 </r>
       <r>   -27.0012     0.0000     8.0000 </r>
       <r>   -26.8469     0.0000     8.0000 </r>
       <r>   -26.6927     0.0000     8.0000 </r>
       <r>   -26.5384     0.0000     8.0000 </r>
       <r>   -26.3842     0.0000     8.0000 </r>
       <r>   -26.2299     0.0000     8.0000 </r>
       <r>   -26.0757     0.0000     8.0000 </r>
       <r>   -25.9214     0.0000     8.0000 </r>
       <r>   -25.7672     0.0000     8.0000 </r>
       <r>   -25.6129     0.0000     8.0000 </r>
       <r>   -25.4587     0.0000     8.0000 </r>
       <r>   -25.3044     0.0000     8.0000 </r>
       <r>   -25.1502     0.0000     8.0000 </r>
       <r>   -24.9959     0.0000     8.0000 </r>
       <r>   -24.8417     0.0000     8.0000 </r>
       <r>   -24.6874     0.0000     8.0000 </r>
       <r>   -24.5332     0.0000     8.0000 </r>
       <r>   -24.3789     0.0000     8.0000 </r>
       <r>   -24.2247     0.0000     8.0000 </r>
       <r>   -24.0704     0.0000     8.0000 </r>
       <r>   -23.9162     0.0000     8.0000 </r>
       <r>   -23.7619     0.0000     8.0000 </r>
       <r>   -23.6077     0.0000     8.0000 </r>
       <r>   -23.4534     0.0000     8.0000 </r>
       <r>   -23.2992     0.0000     8.0000 </r>
       <r>   -23.1450     0.0000     8.0000 </r>
       <r>   -22.9907     0.0000     8.0000 </r>
       <r>   -22.8365     0.0000     8.0000 </r>
       <r>   -22.6822     0.0000     8.0000 </r>
       <r>   -22.5280     0.0000     8.0000 </r>
       <r>   -22.3737     0.0000     8.0000 </r>
       <r>   -22.2195     0.0000     8.0000 </r>
       <r>   -22.0652     0.0000     8.0000 </r>
       <r>   -21.9110     0.0000     8.0000 </r>
       <r>   -21.7567     0.0000     8.0000 </r>
       <r>   -21.6025     0.0000     8.0000 </r>
       <r>   -21.4482     0.0000     8.0000 </r>
       <r>   -21.2940     0.0000     8.0000 </r>
       <r>   -21.1397     0.0000     8.0000 </r>
       <r>   -20.9855     0.0000     8.0000 </r>
       <r>   -20.8312     0.0000     8.0000 </r>
       <r>   -20.6770     0.0000     8.0000 </r>
       <r>   -20.5227     0.0000     8.0000 </r>
       <r>   -20.3685     0.0000     8.0000 </r>
       <r>   -20.2142     0.0000     8.0000 </r>
       <r>   -20.0600     0.0000     8.0000 </r>
       <r>   -19.9057     0.0000     8.0000 </r>
       <r>   -19.7515     0.0000     8.0000 </r>
       <r>   -19.5972     0.0000     8.0000 </r>
       <r>   -19.4430     0.0000     8.0000 </r>
       <r>   -19.2887     0.0000     8.0000 </r>
       <r>   -19.1345     0.0000     8.0000 </r>
       <r>   -18.9802     0.0000     8.0000 </r>
       <r>   -18.8260     0.0000     8.0000 </r>
       <r>   -18.6717     0.0000     8.0000 </r>
       <r>   -18.5175     0.0000     8.0000 </r>
       <r>   -18.3632     0.0000     8.0000 </r>
       <r>   -18.2090     0.0000     8.0000 </r>
       <r>   -18.0547     0.0000     8.0000 </r>
       <r>   -17.9005     0.0000     8.0000 </r>
       <r>   -17.7462     0.0000     8.0000 </r>
       <r>   -17.5920     0.0000     8.0000 </r>
       <r>   -17.4377     0.0000     8.0000 </r>
       <r>   -17.2835     0.0000     8.0000 </r>
       <r>   -17.1292     0.0000     8.0000 </r>
       <r>   -16.9750     0.0000     8.0000 </r>
       <r>   -16.8207     0.0000     8.0000 </r>
       <r>   -16.6665     0.0000     8.0000 </r>
       <r>   -16.5123     0.0000     8.0000 </r>
       <r>   -16.3580     0.0000     8.0000 </r>
       <r>   -16.2038     0.0000     8.0000 </r>
       <r>   -16.0495     0.0000     8.0000 </r>
       <r>   -15.8953     0.0000     8.0000 </r>
       <r>   -15.7410     0.0000     8.0000 </r>
       <r>   -15.5868     0.0000     8.0000 </r>
       <r>   -15.4325     0.0000     8.0000 </r>
       <r>   -15.2783     0.0000     8.0000 </r>
       <r>   -15.1240     0.0000     8.0000 </r>
       <r>   -14.9698     0.0383     8.0059 </r>
       <r>   -14.8155     2.0440     8.3212 </r>
       <r>   -14.6613    14.1364    10.5017 </r>
       <r>   -14.5070    12.9593    12.5007 </r>
       <r>   -14.3528     6.1951    13.4563 </r>
       <r>   -14.1985     9.0947    14.8591 </r>
       <r>   -14.0443    10.7902    16.5235 </r>
       <r>   -13.8900    18.4535    19.3699 </r>
       <r>   -13.7358    17.0031    21.9926 </r>
       <r>   -13.5815     6.3396    22.9705 </r>
       <r>   -13.4273    13.3500    25.0297 </r>
       <r>   -13.2730     5.6373    25.8992 </r>
       <r>   -13.1188    15.7086    28.3223 </r>
       <r>   -12.9645    37.0592    34.0386 </r>
       <r>   -12.8103    31.6965    38.9278 </r>
       <r>   -12.6560    39.2086    44.9756 </r>
       <r>   -12.5018    27.7815    49.2609 </r>
       <r>   -12.3475     4.7510    49.9937 </r>
       <r>   -12.1933     0.0406    50.0000 </r>
       <r>   -12.0390     0.0000    50.0000 </r>
       <r>   -11.8848     0.0000    50.0000 </r>
       <r>   -11.7305     0.0000    50.0000 </r>
       <r>   -11.5763     0.0000    50.0000 </r>
       <r>   -11.4220     0.0000    50.0000 </r>
       <r>   -11.2678     0.0000    50.0000 </r>
       <r>   -11.1135     0.0000    50.0000 </r>
       <r>   -10.9593     0.0000    50.0000 </r>
       <r>   -10.8050     0.0000    50.0000 </r>
       <r>   -10.6508     0.0000    50.0000 </r>
       <r>   -10.4965     0.0000    50.0000 </r>
       <r>   -10.3423     0.0000    50.0000 </r>
       <r>   -10.1880     0.0000    50.0000 </r>
       <r>   -10.0338     0.0000    50.0000 </r>
       <r>    -9.8795     0.0000    50.0000 </r>
       <r>    -9.7253     0.0000    50.0000 </r>
       <r>    -9.5711     0.0000    50.0000 </r>
       <r>    -9.4168     0.0000    50.0000 </r>
       <r>    -9.2626     0.0000    50.0000 </r>
       <r>    -9.1083     0.0000    50.0000 </r>
       <r>    -8.9541     0.0000    50.0000 </r>
       <r>    -8.7998     0.0000    50.0000 </r>
       <r>    -8.6456     0.0000    50.0000 </r>
       <r>    -8.4913     0.0000    50.0000 </r>
       <r>    -8.3371     0.0000    50.0000 </r>
       <r>    -8.1828     0.0000    50.0000 </r>
       <r>    -8.0286     0.0000    50.0000 </r>
       <r>    -7.8743     0.0000    50.0000 </r>
       <r>    -7.7201     0.0000    50.0000 </r>
       <r>    -7.5658     0.0000    50.0000 </r>
       <r>    -7.4116     0.0000    50.0000 </r>
       <r>    -7.2573     0.0000    50.0000 </r>
       <r>    -7.1031     0.0000    50.0000 </r>
       <r>    -6.9488     0.0000    50.0000 </r>
       <r>    -6.7946     0.0000    50.0000 </r>
       <r>    -6.6403     0.0000    50.0000 </r>
       <r>    -6.4861     0.0000    50.0000 </r>
       <r>    -6.3318     0.0000    50.0000 </r>
       <r>    -6.1776     0.0000    50.0000 </r>
       <r>    -6.0233     0.0000    50.0000 </r>
       <r>    -5.8691     0.0000    50.0000 </r>
       <r>    -5.7148     0.0000    50.0000 </r>
       <r>    -5.5606     0.0000    50.0000 </r>
       <r>    -5.4063     0.0000    50.0000 </r>
       <r>    -5.2521     0.0000    50.0000 </r>
       <r>    -5.0978     0.0000    50.0000 </r>
       <r>    -4.9436     0.0000    50.0000 </r>
       <r>    -4.7893     0.0000    50.0000 </r>
       <r>    -4.6351     0.0000    50.0000 </r>
       <r>    -4.4808     0.0000    50.0000 </r>
       <r>    -4.3266     0.0000    50.0000 </r>
       <r>    -4.1723     0.0000    50.0000 </r>
       <r>    -4.0181     0.0000    50.0000 </r>
       <r>    -3.8638     0.0000    50.0000 </r>
       <r>    -3.7096     0.0000    50.0000 </r>
       <r>    -3.5553     0.0000    50.0000 </r>
       <r>    -3.4011     0.0000    50.0000 </r>
       <r>    -3.2468     0.0000    50.0000 </r>
       <r>    -3.0926     0.1554    50.0240 </r>
       <r>    -2.9384     1.0602    50.1875 </r>
       <r>    -2.7841     3.6878    50.7563 </r>
       <r>    -2.6299     5.6591    51.6292 </r>
       <r>    -2.4756     7.6066    52.8026 </r>
       <r>    -2.3214     8.7945    54.1591 </r>
       <r>    -2.1671    13.0414    56.1707 </r>
       <r>    -2.0129    21.7965    59.5328 </r>
       <r>    -1.8586    17.1832    62.1833 </r>
       <r>    -1.7044    15.7757    64.6167 </r>
       <r>    -1.5501    18.3789    67.4516 </r>
       <r>    -1.3959    27.0736    71.6277 </r>
       <r>    -1.2416    25.3942    75.5447 </r>
       <r>    -1.0874    30.1509    80.1954 </r>
       <r>    -0.9331    14.9719    82.5048 </r>
       <r>    -0.7789    20.8227    85.7167 </r>
       <r>    -0.6246    13.4131    87.7857 </r>
       <r>    -0.4704    21.3482    91.0786 </r>
       <r>    -0.3161    15.9264    93.5352 </r>
       <r>    -0.1619    10.3747    95.1355 </r>
       <r>    -0.0076     5.9772    96.0575 </r>
       <r>     0.1466     5.5918    96.9200 </r>
       <r>     0.3009     5.8718    97.8257 </r>
       <r>     0.4551     7.2893    98.9501 </r>
       <r>     0.6094     9.2046   100.3699 </r>
       <r>     0.7636     9.8980   101.8966 </r>
       <r>     0.9179    18.0958   104.6879 </r>
       <r>     1.0721    25.4820   108.6185 </r>
       <r>     1.2264    26.5142   112.7082 </r>
       <r>     1.3806    28.1952   117.0573 </r>
       <r>     1.5349    30.2791   121.7278 </r>
       <r>     1.6891    15.7235   124.1532 </r>
       <r>     1.8434    17.7747   126.8949 </r>
       <r>     1.9976    17.4306   129.5835 </r>
       <r>     2.1519    18.5661   132.4473 </r>
       <r>     2.3061    14.0410   134.6131 </r>
       <r>     2.4604    12.3105   136.5120 </r>
       <r>     2.6146     9.3482   137.9540 </r>
       <r>     2.7689    12.4216   139.8700 </r>
       <r>     2.9231     1.4755   140.0976 </r>
       <r>     3.0774     1.9697   140.4014 </r>
       <r>     3.2316     5.6004   141.2653 </r>
       <r>     3.3859     5.3760   142.0945 </r>
       <r>     3.5401     2.5315   142.4850 </r>
       <r>     3.6943     2.5607   142.8800 </r>
       <r>     3.8486     2.9089   143.3287 </r>
       <r>     4.0028     0.9038   143.4681 </r>
       <r>     4.1571     1.4728   143.6953 </r>
       <r>     4.3113     2.2364   144.0402 </r>
       <r>     4.4656     4.3012   144.7037 </r>
       <r>     4.6198     5.4846   145.5497 </r>
       <r>     4.7741     0.9506   145.6963 </r>
       <r>     4.9283     5.7547   146.5840 </r>
       <r>     5.0826     5.7008   147.4633 </r>
       <r>     5.2368     3.2458   147.9640 </r>
       <r>     5.3911     0.3404   148.0165 </r>
       <r>     5.5453     0.9345   148.1606 </r>
       <r>     5.6996     0.8921   148.2982 </r>
       <r>     5.8538     2.5106   148.6855 </r>
       <r>     6.0081     2.2670   149.0352 </r>
       <r>     6.1623     2.2124   149.3764 </r>
       <r>     6.3166     3.4722   149.9120 </r>
       <r>     6.4708     0.1485   149.9349 </r>
       <r>     6.6251     0.4216   149.9999 </r>
       <r>     6.7793     0.0120   150.0018 </r>
       <r>     6.9336     2.0355   150.3158 </r>
       <r>     7.0878     2.0307   150.6290 </r>
       <r>     7.2421     1.4997   150.8603 </r>
       <r>     7.3963     2.2258   151.2037 </r>
       <r>     7.5506     5.4213   152.0399 </r>
       <r>     7.7048     2.6933   152.4553 </r>
       <r>     7.8591     2.9581   152.9116 </r>
       <r>     8.0133     5.8285   153.8107 </r>
       <r>     8.1676     7.6087   154.9843 </r>
       <r>     8.3218     5.9930   155.9087 </r>
       <r>     8.4761     5.7021   156.7882 </r>
       <r>     8.6303     6.6916   157.8204 </r>
       <r>     8.7846    13.0040   159.8263 </r>
       <r>     8.9388    13.4094   161.8947 </r>
       <r>     9.0931     6.6376   162.9185 </r>
       <r>     9.2473     5.6879   163.7958 </r>
       <r>     9.4016     9.9010   165.3231 </r>
       <r>     9.5558    10.8303   166.9936 </r>
       <r>     9.7101    12.1538   168.8683 </r>
       <r>     9.8643     8.4076   170.1652 </r>
       <r>    10.0186    16.8557   172.7652 </r>
       <r>    10.1728    17.7871   175.5088 </r>
       <r>    10.3270    14.9449   177.8140 </r>
       <r>    10.4813    19.1794   180.7724 </r>
       <r>    10.6355    12.3143   182.6719 </r>
       <r>    10.7898     5.9436   183.5887 </r>
       <r>    10.9440     2.3899   183.9573 </r>
       <r>    11.0983     0.2760   183.9999 </r>
       <r>    11.2525     0.0007   184.0000 </r>
       <r>    11.4068     0.0000   184.0000 </r>
       <r>    11.5610     0.0000   184.0000 </r>
       <r>    11.7153     0.0000   184.0000 </r>
       <r>    11.8695     0.0000   184.0000 </r>
       <r>    12.0238     0.0000   184.0000 </r>
       <r>    12.1780     0.0000   184.0000 </r>
       <r>    12.3323     0.0000   184.0000 </r>
       <r>    12.4865     0.0000   184.0000 </r>
       <r>    12.6408     0.0000   184.0000 </r>
       <r>    12.7950     0.0000   184.0000 </r>
       <r>    12.9493     0.0000   184.0000 </r>
       <r>    13.1035     0.0000   184.0000 </r>
      </set>
     </set>
    </array>
   </total>
  </dos>
 </calculation>
 <structure name="finalpos" >
  <crystal>
   <varray name="basis" >
    <v>       8.00000000       0.00000000       0.00000000 </v>
    <v>       0.00000000       8.00000000       0.00000000 </v>
    <v>       0.00000000       0.00000000       8.00000000 </v>
   </varray>
   <i name="volume">    512.00000000 </i>
   <varray name="rec_basis" >
    <v>       0.12500000       0.00000000       0.00000000 </v>
    <v>       0.00000000       0.12500000       0.00000000 </v>
    <v>       0.00000000       0.00000000       0.12500000 </v>
   </varray>
  </crystal>
  <varray name="positions" >
   <v>       0.50000000       0.75000000       0.75000000 </v>
   <v>       0.50000000       0.75000000       0.25000000 </v>
   <v>       0.50000000       0.25000000       0.75000000 </v>
   <v>       0.50000000       0.25000000       0.25000000 </v>
   <v>       0.00000000       0.25000000       0.75000000 </v>
   <v>       0.00000000       0.25000000       0.25000000 </v>
   <v>       0.00000000       0.75000000       0.75000000 </v>
   <v>       0.00000000       0.75000000       0.25000000 </v>
   <v>       0.75000000       0.00000000       0.50000000 </v>
   <v>       0.75000000       0.00000000       0.00000000 </v>
   <v>       0.25000000       0.00000000       0.50000000 </v>
   <v>       0.25000000       0.00000000       0.00000000 </v>
   <v>       0.25000000       0.50000000       0.50000000 </v>
   <v>       0.25000000       0.50000000       0.00000000 </v>
   <v>       0.75000000       0.50000000       0.50000000 </v>
   <v>       0.75000000       0.50000000       0.00000000 </v>
   <v>       0.75000000       0.25000000       0.00000000 </v>
   <v>       0.25000000       0.25000000       0.00000000 </v>
   <v>       0.50000000       0.50000000       0.00000000 </v>
   <v>       0.50000000       0.00000000       0.50000000 </v>
   <v>       0.50000000       0.00000000       0.00000000 </v>
   <v>       0.75000000       0.00000000       0.75000000 </v>
   <v>       0.75000000       0.00000000       0.25000000 </v>
   <v>       0.25000000       0.00000000       0.75000000 </v>
   <v>       0.25000000       0.00000000       0.25000000 </v>
   <v>       0.25000000       0.75000000       0.00000000 </v>
   <v>       0.75000000       0.75000000       0.00000000 </v>
   <v>       0.00000000       0.00000000       0.00000000 </v>
   <v>       0.00000000       0.50000000       0.50000000 </v>
   <v>       0.00000000       0.50000000       0.00000000 </v>
   <v>       0.25000000       0.50000000       0.75000000 </v>
   <v>       0.25000000       0.50000000       0.25000000 </v>
   <v>       0.75000000       0.50000000       0.75000000 </v>
   <v>       0.75000000       0.50000000       0.25000000 </v>
  </varray>
 </structure>
</modeling>
